<LesHouchesEvents version="3.0">
<header>
<!--
#*********************************************************************
#                                                                    *
#                        MadGraph5_aMC@NLO                           *
#                                                                    *
#                           Going Beyond                             *
#                                                                    *
#                   http://madgraph.hep.uiuc.edu                     *
#                   http://madgraph.phys.ucl.ac.be                   *
#                   http://amcatnlo.cern.ch                          *
#                                                                    *
#                     The MadGraph5_aMC@NLO team                     *
#                                                                    *
#....................................................................*
#                                                                    *
# This file contains all the information necessary to reproduce      *
# the events generated:                                              *
#                                                                    *
# 1. software version                                                *
# 2. proc_card          : code generation info including model       *
# 3. param_card         : model primary parameters in the LH format  *
# 4. run_card           : running parameters (collider and cuts)     *
# 5. pythia_card        : present only if pythia has been run        *
# 6. pgs_card           : present only if pgs has been run           *
# 7. delphes_cards      : present only if delphes has been run       *
#                                                                    *
#                                                                    *
#*********************************************************************
-->
<MGVersion>
#5.2.2.3
</MGVersion>
<MG5ProcCard>
#************************************************************
#*                     MadGraph5_aMC@NLO                    *
#*                                                          *
#*                *                       *                 *
#*                  *        * *        *                   *
#*                    * * * * 5 * * * *                     *
#*                  *        * *        *                   *
#*                *                       *                 *
#*                                                          *
#*                                                          *
#*         VERSION 2.2.3                 2015-02-10         *
#*                                                          *
#*    The MadGraph5_aMC@NLO Development Team - Find us at   *
#*    https://server06.fynu.ucl.ac.be/projects/madgraph     *
#*                                                          *
#************************************************************
#*                                                          *
#*               Command File for MadGraph5_aMC@NLO         *
#*                                                          *
#*     run as ./bin/mg5_aMC  filename                       *
#*                                                          *
#************************************************************
set group_subprocesses Auto
set ignore_six_quark_processes False
set loop_optimized_output True
set gauge unitary
set complex_mass_scheme False
import model sm
define p = g u c d s u~ c~ d~ s~
define j = g u c d s u~ c~ d~ s~
define l+ = e+ mu+
define l- = e- mu-
define vl = ve vm vt
define vl~ = ve~ vm~ vt~
import model Zprime_UFO
generate p p > zph, zph > j j
add process p p > zph, zph > b b~
output Dijet_signal
</MG5ProcCard>
<MGProcCard>
#*********************************************************************
#                        MadGraph/MadEvent                           *
#                   http://madgraph.hep.uiuc.edu                     *
#                                                                    *
#                          proc_card.dat                             *
#*********************************************************************
#                                                                    *
#            This Files is generated by MADGRAPH 5                   *
#                                                                    *
# WARNING: This Files is generated for MADEVENT (compatibility issue)*
#          This files is NOT a valid MG4 proc_card.dat               *
#          Running this in MG4 will NEVER reproduce the result of MG5*
#                                                                    *
#*********************************************************************
#*********************************************************************
# Process(es) requested : mg2 input                                  *
#*********************************************************************
# Begin PROCESS # This is TAG. Do not modify this line
p p > zph , zph > j j           #Process
# Be carefull the coupling are here in MG5 convention
          
end_coup           # End the couplings input

done               # this tells MG there are no more procs
# End PROCESS  # This is TAG. Do not modify this line
#*********************************************************************
# Model information                                                  *
#*********************************************************************
# Begin MODEL  # This is TAG. Do not modify this line
Zprime_UFO
# End   MODEL  # This is TAG. Do not modify this line
#*********************************************************************
# Start multiparticle definitions                                    *
#*********************************************************************
# Begin MULTIPARTICLES # This is TAG. Do not modify this line

# End  MULTIPARTICLES # This is TAG. Do not modify this line
</MGProcCard>
<MGRunCard>
#*********************************************************************
#                       MadGraph5_aMC@NLO                            *
#                                                                    *
#                     run_card.dat MadEvent                          *
#                                                                    *
#  This file is used to set the parameters of the run.               *
#                                                                    *
#  Some notation/conventions:                                        *
#                                                                    *
#   Lines starting with a '# ' are info or comments                  *
#                                                                    *
#   mind the format:   value    = variable     ! comment             *
#*********************************************************************
#
#*******************                                                 
# Running parameters
#*******************                                                 
#                                                                    
#*********************************************************************
# Tag name for the run (one word)                                    *
#*********************************************************************
  tag_1     = run_tag ! name of the run 
#*********************************************************************
# Run to generate the grid pack                                      *
#*********************************************************************
  .false.     = gridpack  !True = setting up the grid pack
#*********************************************************************
# Number of events and rnd seed                                      *
# Warning: Do not generate more than 1M events in a single run       *
# If you want to run Pythia, avoid more than 50k events in a run.    *
#*********************************************************************
  2000 = nevents ! Number of unweighted events requested 
 1452 = iseed   ! rnd seed (0=assigned automatically=default))
#*********************************************************************
# Collider type and energy                                           *
# lpp: 0=No PDF, 1=proton, -1=antiproton, 2=photon from proton,      *
#                                         3=photon from electron     *
#*********************************************************************
        1     = lpp1    ! beam 1 type 
        1     = lpp2    ! beam 2 type
     4000     = ebeam1  ! beam 1 total energy in GeV
     4000     = ebeam2  ! beam 2 total energy in GeV
#*********************************************************************
# Beam polarization from -100 (left-handed) to 100 (right-handed)    *
#*********************************************************************
        0     = polbeam1 ! beam polarization for beam 1
        0     = polbeam2 ! beam polarization for beam 2
#*********************************************************************
# PDF CHOICE: this automatically fixes also alpha_s and its evol.    *
#*********************************************************************
 'nn23lo1'    = pdlabel     ! PDF set                                     
 230000    = lhaid     ! if pdlabel=lhapdf, this is the lhapdf number
#*********************************************************************
# Renormalization and factorization scales                           *
#*********************************************************************
 F        = fixed_ren_scale  ! if .true. use fixed ren scale
 F        = fixed_fac_scale  ! if .true. use fixed fac scale
 91.1880  = scale            ! fixed ren scale
 91.1880  = dsqrt_q2fact1    ! fixed fact scale for pdf1
 91.1880  = dsqrt_q2fact2    ! fixed fact scale for pdf2
 1        = scalefact        ! scale factor for event-by-event scales
#*********************************************************************
# Matching - Warning! ickkw > 1 is still beta
#*********************************************************************
 0        = ickkw            ! 0 no matching, 1 MLM, 2 CKKW matching
 1        = highestmult      ! for ickkw=2, highest mult group
 1        = ktscheme         ! for ickkw=1, 1 Durham kT, 2 Pythia pTE
 1        = alpsfact         ! scale factor for QCD emission vx
 F        = chcluster        ! cluster only according to channel diag
 T        = pdfwgt           ! for ickkw=1, perform pdf reweighting
 5        = asrwgtflavor     ! highest quark flavor for a_s reweight
 T        = clusinfo         ! include clustering tag in output
 3.0      = lhe_version       ! Change the way clustering information pass to shower.        
#*********************************************************************
#**********************************************************
#
#**********************************************************
# Automatic ptj and mjj cuts if xqcut > 0
# (turn off for VBF and single top processes)
#**********************************************************
   T  = auto_ptj_mjj  ! Automatic setting of ptj and mjj
#**********************************************************
#                                                                    
#**********************************
# BW cutoff (M+/-bwcutoff*Gamma)
#**********************************
  15  = bwcutoff      ! (M+/-bwcutoff*Gamma)
#**********************************************************
# Apply pt/E/eta/dr/mij cuts on decay products or not
# (note that etmiss/ptll/ptheavy/ht/sorted cuts always apply)
#**********************************************************
   T  = cut_decays    ! Cut decay products 
#*************************************************************
# Number of helicities to sum per event (0 = all helicities)
# 0 gives more stable result, but longer run time (needed for
# long decay chains e.g.).
# Use >=2 if most helicities contribute, e.g. pure QCD.
#*************************************************************
   0  = nhel          ! Number of helicities used per event
#*******************                                                 
# Standard Cuts
#*******************                                                 
#                                                                    
#*********************************************************************
# Minimum and maximum pt's (for max, -1 means no cut)                *
#*********************************************************************
 20  = ptj       ! minimum pt for the jets 
  0  = ptb       ! minimum pt for the b 
 10  = pta       ! minimum pt for the photons 
 10  = ptl       ! minimum pt for the charged leptons 
  0  = misset    ! minimum missing Et (sum of neutrino's momenta)
  0  = ptheavy   ! minimum pt for one heavy final state
 1.0 = ptonium   ! minimum pt for the quarkonium states
 -1  = ptjmax    ! maximum pt for the jets
 -1  = ptbmax    ! maximum pt for the b
 -1  = ptamax    ! maximum pt for the photons
 -1  = ptlmax    ! maximum pt for the charged leptons
 -1  = missetmax ! maximum missing Et (sum of neutrino's momenta)
#*********************************************************************
# Minimum and maximum E's (in the center of mass frame)              *
#*********************************************************************
  0  = ej     ! minimum E for the jets 
  0  = eb     ! minimum E for the b 
  0  = ea     ! minimum E for the photons 
  0  = el     ! minimum E for the charged leptons 
 -1   = ejmax ! maximum E for the jets
 -1   = ebmax ! maximum E for the b
 -1   = eamax ! maximum E for the photons
 -1   = elmax ! maximum E for the charged leptons
#*********************************************************************
# Maximum and minimum absolute rapidity (for max, -1 means no cut)   *
#*********************************************************************
   5  = etaj    ! max rap for the jets 
  -1  = etab    ! max rap for the b
 2.5  = etaa    ! max rap for the photons 
 2.5  = etal    ! max rap for the charged leptons 
 0.6  = etaonium ! max rap for the quarkonium states
   0  = etajmin ! min rap for the jets
   0  = etabmin ! min rap for the b
   0  = etaamin ! min rap for the photons
   0  = etalmin ! main rap for the charged leptons
#*********************************************************************
# Minimum and maximum DeltaR distance                                *
#*********************************************************************
 0.4 = drjj    ! min distance between jets 
 0   = drbb    ! min distance between b's 
 0.4 = drll    ! min distance between leptons 
 0.4 = draa    ! min distance between gammas 
 0   = drbj    ! min distance between b and jet 
 0.4 = draj    ! min distance between gamma and jet 
 0.4 = drjl    ! min distance between jet and lepton 
 0   = drab    ! min distance between gamma and b 
 0   = drbl    ! min distance between b and lepton 
 0.4 = dral    ! min distance between gamma and lepton 
 -1  = drjjmax ! max distance between jets
 -1  = drbbmax ! max distance between b's
 -1  = drllmax ! max distance between leptons
 -1  = draamax ! max distance between gammas
 -1  = drbjmax ! max distance between b and jet
 -1  = drajmax ! max distance between gamma and jet
 -1  = drjlmax ! max distance between jet and lepton
 -1  = drabmax ! max distance between gamma and b
 -1  = drblmax ! max distance between b and lepton
 -1  = dralmax ! maxdistance between gamma and lepton
#*********************************************************************
# Minimum and maximum invariant mass for pairs                       *
# WARNING: for four lepton final state mmll cut require to have      *
#          different lepton masses for each flavor!                  *           
#*********************************************************************
 0   = mmjj    ! min invariant mass of a jet pair 
 0   = mmbb    ! min invariant mass of a b pair 
 0   = mmaa    ! min invariant mass of gamma gamma pair
 0   = mmll    ! min invariant mass of l+l- (same flavour) lepton pair
 -1  = mmjjmax ! max invariant mass of a jet pair
 -1  = mmbbmax ! max invariant mass of a b pair
 -1  = mmaamax ! max invariant mass of gamma gamma pair
 -1  = mmllmax ! max invariant mass of l+l- (same flavour) lepton pair
#*********************************************************************
# Minimum and maximum invariant mass for all letpons                 *
#*********************************************************************
 0   = mmnl    ! min invariant mass for all letpons (l+- and vl) 
 -1  = mmnlmax ! max invariant mass for all letpons (l+- and vl) 
#*********************************************************************
# Minimum and maximum pt for 4-momenta sum of leptons                *
#*********************************************************************
 0   = ptllmin  ! Minimum pt for 4-momenta sum of leptons(l and vl)
 -1  = ptllmax  ! Maximum pt for 4-momenta sum of leptons(l and vl)
#*********************************************************************
# Inclusive cuts                                                     *
#*********************************************************************
 0  = xptj ! minimum pt for at least one jet  
 0  = xptb ! minimum pt for at least one b 
 0  = xpta ! minimum pt for at least one photon 
 0  = xptl ! minimum pt for at least one charged lepton 
#*********************************************************************
# Control the pt's of the jets sorted by pt                          *
#*********************************************************************
 0   = ptj1min ! minimum pt for the leading jet in pt
 0   = ptj2min ! minimum pt for the second jet in pt
 0   = ptj3min ! minimum pt for the third jet in pt
 0   = ptj4min ! minimum pt for the fourth jet in pt
 -1  = ptj1max ! maximum pt for the leading jet in pt 
 -1  = ptj2max ! maximum pt for the second jet in pt
 -1  = ptj3max ! maximum pt for the third jet in pt
 -1  = ptj4max ! maximum pt for the fourth jet in pt
 0   = cutuse  ! reject event if fails any (0) / all (1) jet pt cuts
#*********************************************************************
# Control the pt's of leptons sorted by pt                           *
#*********************************************************************
 0   = ptl1min ! minimum pt for the leading lepton in pt
 0   = ptl2min ! minimum pt for the second lepton in pt
 0   = ptl3min ! minimum pt for the third lepton in pt
 0   = ptl4min ! minimum pt for the fourth lepton in pt
 -1  = ptl1max ! maximum pt for the leading lepton in pt 
 -1  = ptl2max ! maximum pt for the second lepton in pt
 -1  = ptl3max ! maximum pt for the third lepton in pt
 -1  = ptl4max ! maximum pt for the fourth lepton in pt
#*********************************************************************
# Control the Ht(k)=Sum of k leading jets                            *
#*********************************************************************
 0   = htjmin ! minimum jet HT=Sum(jet pt)
 -1  = htjmax ! maximum jet HT=Sum(jet pt)
 0   = ihtmin  !inclusive Ht for all partons (including b)
 -1  = ihtmax  !inclusive Ht for all partons (including b)
 0   = ht2min ! minimum Ht for the two leading jets
 0   = ht3min ! minimum Ht for the three leading jets
 0   = ht4min ! minimum Ht for the four leading jets
 -1  = ht2max ! maximum Ht for the two leading jets
 -1  = ht3max ! maximum Ht for the three leading jets
 -1  = ht4max ! maximum Ht for the four leading jets
#***********************************************************************
# Photon-isolation cuts, according to hep-ph/9801442                   *
# When ptgmin=0, all the other parameters are ignored                  *
# When ptgmin>0, pta and draj are not going to be used                 *
#***********************************************************************
   0 = ptgmin ! Min photon transverse momentum
 0.4 = R0gamma ! Radius of isolation code
 1.0 = xn ! n parameter of eq.(3.4) in hep-ph/9801442
 1.0 = epsgamma ! epsilon_gamma parameter of eq.(3.4) in hep-ph/9801442
 .true. = isoEM ! isolate photons from EM energy (photons and leptons)
#*********************************************************************
# WBF cuts                                                           *
#*********************************************************************
 0   = xetamin ! minimum rapidity for two jets in the WBF case  
 0   = deltaeta ! minimum rapidity for two jets in the WBF case 
#*********************************************************************
# KT DURHAM CUT                                                      *
#*********************************************************************
 -1    =  ktdurham        
 0.4  =  dparameter 
#*********************************************************************
# maximal pdg code for quark to be considered as a light jet         *
# (otherwise b cuts are applied)                                     *
#*********************************************************************
 4 = maxjetflavor    ! Maximum jet pdg code
#*********************************************************************
# Jet measure cuts                                                   *
#*********************************************************************
 0   = xqcut   ! minimum kt jet measure between partons
#*********************************************************************
#
#*********************************************************************
# Store info for systematics studies                                 *
# WARNING: If use_syst is T, matched Pythia output is                *
#          meaningful ONLY if plotted taking matchscale              *
#          reweighting into account!                                 *
#*********************************************************************
   F  = use_syst      ! Enable systematics studies
#
#**************************************
# Parameter of the systematics study
#  will be used by SysCalc (if installed)
#**************************************                                  
#
0.5 1 2 = sys_scalefact  # factorization/renormalization scale factor
0.5 1 2 = sys_alpsfact  # \alpha_s emission scale factors
30 50 = sys_matchscale # variation of merging scale
# PDF sets and number of members (0 or none for all members).
CT10nlo.LHgrid = sys_pdf # matching scales
# MSTW2008nlo68cl.LHgrid 1  = sys_pdf
</MGRunCard>
<slha>
######################################################################
## PARAM_CARD AUTOMATICALY GENERATED BY MG5 FOLLOWING UFO MODEL   ####
######################################################################
##                                                                  ##
##  Width set on Auto will be computed following the information    ##
##        present in the decay.py files of the model.               ##
##        See  arXiv:1402.1178 for more details.                    ##
##                                                                  ##
######################################################################

###################################
## INFORMATION FOR CKMBLOCK
###################################
Block ckmblock 
    1 2.277360e-01 # cabi 

###################################
## INFORMATION FOR FRBLOCK
###################################
Block frblock 
    1 6.000000e-01 # gz 

###################################
## INFORMATION FOR MASS
###################################
Block mass 
    1 5.040000e-03 # MD 
    2 2.550000e-03 # MU 
    3 1.010000e-01 # MS 
    4 1.270000e+00 # MC 
    5 4.700000e+00 # MB 
    6 1.720000e+02 # MT 
   11 5.110000e-04 # Me 
   13 1.056600e-01 # MM 
   15 1.777000e+00 # MTA 
   23 9.118760e+01 # MZ 
   25 1.200000e+02 # MH 
  10030 3.900000e+03 # MZph 
  10031 3.000000e+02 # MZpl 
## Dependent parameters, given by model restrictions.
## Those values should be edited following the 
## analytical expression. MG5 ignores those values 
## but they are important for interfacing the output of MG5
## to external program such as Pythia.
  12 0.000000 # ve : 0.0 
  14 0.000000 # vm : 0.0 
  16 0.000000 # vt : 0.0 
  21 0.000000 # g : 0.0 
  22 0.000000 # a : 0.0 
  24 79.824360 # w+ : cmath.sqrt(MZ__exp__2/2. + cmath.sqrt(MZ__exp__4/4. - (aEW*cmath.pi*MZ__exp__2)/(Gf*sqrt__2))) 

###################################
## INFORMATION FOR SMINPUTS
###################################
Block sminputs 
    1 1.279000e+02 # aEWM1 
    2 1.166370e-05 # Gf 
    3 1.184000e-01 # aS 

###################################
## INFORMATION FOR YUKAWA
###################################
Block yukawa 
    1 5.040000e-03 # ymdo 
    2 2.550000e-03 # ymup 
    3 1.010000e-01 # yms 
    4 1.270000e+00 # ymc 
    5 4.700000e+00 # ymb 
    6 1.720000e+02 # ymt 
   11 5.110000e-04 # yme 
   13 1.056600e-01 # ymm 
   15 1.777000e+00 # ymtau 

###################################
## INFORMATION FOR DECAY
###################################
DECAY   6 1.508336e+00 # WT 
DECAY  23 2.495200e+00 # WZ 
DECAY  24 2.085000e+00 # WW 
DECAY  25 5.753088e-03 # WH 
## Dependent parameters, given by model restrictions.
## Those values should be edited following the 
## analytical expression. MG5 ignores those values 
## but they are important for interfacing the output of MG5
## to external program such as Pythia.
DECAY  1 0.000000 # d : 0.0 
DECAY  2 0.000000 # u : 0.0 
DECAY  3 0.000000 # s : 0.0 
DECAY  4 0.000000 # c : 0.0 
DECAY  5 0.000000 # b : 0.0 
DECAY  11 0.000000 # e- : 0.0 
DECAY  12 0.000000 # ve : 0.0 
DECAY  13 0.000000 # mu- : 0.0 
DECAY  14 0.000000 # vm : 0.0 
DECAY  15 0.000000 # ta- : 0.0 
DECAY  16 0.000000 # vt : 0.0 
DECAY  21 0.000000 # g : 0.0 
DECAY  22 0.000000 # a : 0.0 
DECAY  10030 0.308725 # zph : (gz__exp__2*MZph*(5 + cmath.sqrt(1 - (4*MT__exp__2)/MZph__exp__2)))/(144.*cmath.pi) 
DECAY  10031 0.132629 # zpl : (5*gz__exp__2*MZpl)/(144.*cmath.pi) 
#===========================================================
# QUANTUM NUMBERS OF NEW STATE(S) (NON SM PDG CODE)
#===========================================================

Block QNUMBERS 10030  # zph 
        1 0  # 3 times electric charge
        2 3  # number of spin states (2S+1)
        3 1  # colour rep (1: singlet, 3: triplet, 8: octet)
        4 0  # Particle/Antiparticle distinction (0=own anti)
Block QNUMBERS 10031  # zpl 
        1 0  # 3 times electric charge
        2 3  # number of spin states (2S+1)
        3 1  # colour rep (1: singlet, 3: triplet, 8: octet)
        4 0  # Particle/Antiparticle distinction (0=own anti)
</slha>
## END BANNER##
<MGGenerationInfo>
#  Number of Events        :         3811
#  Integrated weight (pb)  :  0.21063E-04
#  Max wgt                 :  0.86761E-08
#  Average wgt             :  0.55269E-08
</MGGenerationInfo>
</header>
<init>
     2212     2212  0.40000000000E+04  0.40000000000E+04 0 0  247000  247000 2   1
  0.21102999885E-04  0.49361562851E-07  0.86760980000E-08   0
</init>
<event>
 5   0  0.8551754E-08  0.3891585E+04  0.7818609E-02  0.8026782E-01
        2   -1    0    0  501    0  0.00000000000E+00  0.00000000000E+00  0.20272684140E+04  0.20272684140E+04  0.25500000920E-02 0. -1.
       -2   -1    0    0    0  501  0.00000000000E+00  0.00000000000E+00 -0.18675910899E+04  0.18675910899E+04  0.25500000920E-02 0.  1.
    10030    2    1    2    0    0  0.00000000000E+00  0.00000000000E+00  0.15967732410E+03  0.38948595039E+04  0.38915849865E+04 0.  0.
        1    1    3    3  502    0  0.70517771086E+03 -0.92454200482E+03 -0.14816198957E+04  0.18834147281E+04  0.50400001928E-02 0.  1.
       -1    1    3    3    0  502 -0.70517771086E+03  0.92454200482E+03  0.16412972198E+04  0.20114447759E+04  0.50400001928E-02 0. -1.
</event>
<event>
 5   0  0.8551754E-08  0.3904109E+04  0.7818609E-02  0.8024175E-01
        2   -1    0    0  501    0  0.00000000000E+00  0.00000000000E+00  0.20232646556E+04  0.20232646556E+04  0.25500000920E-02 0. -1.
       -2   -1    0    0    0  501  0.00000000000E+00  0.00000000000E+00 -0.18833504414E+04  0.18833504414E+04  0.25500000920E-02 0.  1.
    10030    2    1    2    0    0  0.00000000000E+00  0.00000000000E+00  0.13991421419E+03  0.39066150969E+04  0.39041088008E+04 0.  0.
        1    1    3    3  502    0 -0.18524991123E+04 -0.16973207819E+03 -0.52199213305E+03  0.19321070691E+04  0.50400001928E-02 0.  1.
       -1    1    3    3    0  502  0.18524991123E+04  0.16973207819E+03  0.66190634724E+03  0.19745080278E+04  0.50400001928E-02 0. -1.
</event>
<event>
 5   0  0.8676098E-08  0.3778764E+04  0.7818609E-02  0.8050727E-01
       -2   -1    0    0    0  501  0.00000000000E+00  0.00000000000E+00  0.18290612669E+04  0.18290612669E+04  0.25500000920E-02 0.  1.
        2   -1    0    0  501    0  0.00000000000E+00  0.00000000000E+00 -0.19516922110E+04  0.19516922110E+04  0.25500000920E-02 0. -1.
    10030    2    1    2    0    0  0.00000000000E+00  0.00000000000E+00 -0.12263094408E+03  0.37807534779E+04  0.37787641514E+04 0.  0.
        3    1    3    3  502    0  0.56843498925E+03  0.17965176948E+04  0.77214823443E+02  0.18858834280E+04  0.10100000352E+00 0.  1.
       -3    1    3    3    0  502 -0.56843498925E+03 -0.17965176948E+04 -0.19984576752E+03  0.18948700499E+04  0.10100000352E+00 0. -1.
</event>
<event>
 5   0  0.8551754E-08  0.3891524E+04  0.7818609E-02  0.8026794E-01
        2   -1    0    0  501    0  0.00000000000E+00  0.00000000000E+00  0.13541825089E+04  0.13541825089E+04  0.25500000920E-02 0. -1.
       -2   -1    0    0    0  501  0.00000000000E+00  0.00000000000E+00 -0.27957746316E+04  0.27957746316E+04  0.25500000920E-02 0.  1.
    10030    2    1    2    0    0  0.00000000000E+00  0.00000000000E+00 -0.14415921227E+04  0.41499571405E+04  0.38915236630E+04 0.  0.
        1    1    3    3  502    0 -0.52154077495E+02  0.35340935243E+03 -0.27605031350E+04  0.27835221890E+04  0.50400001928E-02 0.  1.
       -1    1    3    3    0  502  0.52154077495E+02 -0.35340935243E+03  0.13189110123E+04  0.13664349515E+04  0.50400001928E-02 0. -1.
</event>
<event>
 5   0  0.8676098E-08  0.3902863E+04  0.7818609E-02  0.8024434E-01
       -2   -1    0    0    0  501  0.00000000000E+00  0.00000000000E+00  0.17385878899E+04  0.17385878899E+04  0.25500000920E-02 0.  1.
        2   -1    0    0  501    0  0.00000000000E+00  0.00000000000E+00 -0.21903319106E+04  0.21903319106E+04  0.25500000920E-02 0. -1.
    10030    2    1    2    0    0  0.00000000000E+00  0.00000000000E+00 -0.45174402063E+03  0.39289198005E+04  0.39028628132E+04 0.  0.
        3    1    3    3  502    0  0.96961285208E+03  0.44318637282E+03 -0.18712633110E+04  0.21536456611E+04  0.10100000352E+00 0. -1.
       -3    1    3    3    0  502 -0.96961285208E+03 -0.44318637282E+03  0.14195192904E+04  0.17752741394E+04  0.10100000352E+00 0.  1.
</event>
<event>
 5   0  0.2632875E-08  0.3904384E+04  0.7818609E-02  0.8024118E-01
        1   -1    0    0  501    0  0.00000000000E+00  0.00000000000E+00  0.20366074066E+04  0.20366074066E+04  0.50400001928E-02 0. -1.
       -1   -1    0    0    0  501  0.00000000000E+00  0.00000000000E+00 -0.18712751729E+04  0.18712751729E+04  0.50400001928E-02 0.  1.
    10030    2    1    2    0    0  0.00000000000E+00  0.00000000000E+00  0.16533223370E+03  0.39078825796E+04  0.39043836272E+04 0.  0.
        1    1    3    3  502    0  0.41732377248E+03 -0.11088490373E+04 -0.14702872723E+04  0.18882399164E+04  0.50400001928E-02 0.  1.
       -1    1    3    3    0  502 -0.41732377248E+03  0.11088490373E+04  0.16356195060E+04  0.20196426632E+04  0.50400001928E-02 0. -1.
</event>
<event>
 5   0  0.2632875E-08  0.3906355E+04  0.7818609E-02  0.8023709E-01
        1   -1    0    0  501    0  0.00000000000E+00  0.00000000000E+00  0.23782943236E+04  0.23782943237E+04  0.50400001928E-02 0. -1.
       -1   -1    0    0    0  501  0.00000000000E+00  0.00000000000E+00 -0.16040499009E+04  0.16040499009E+04  0.50400001928E-02 0.  1.
    10030    2    1    2    0    0  0.00000000000E+00  0.00000000000E+00  0.77424442277E+03  0.39823442245E+04  0.39063552189E+04 0.  0.
        3    1    3    3  502    0 -0.18603645170E+04 -0.54144606891E+03  0.63845974682E+03  0.20400369703E+04  0.10100000352E+00 0.  1.
       -3    1    3    3    0  502  0.18603645170E+04  0.54144606891E+03  0.13578467595E+03  0.19423072543E+04  0.10100000352E+00 0. -1.
</event>
<event>
 5   0  0.8551754E-08  0.3913029E+04  0.7818609E-02  0.8022325E-01
        2   -1    0    0  501    0  0.00000000000E+00  0.00000000000E+00  0.18117010309E+04  0.18117010309E+04  0.25500000920E-02 0. -1.
       -2   -1    0    0    0  501  0.00000000000E+00  0.00000000000E+00 -0.21129037804E+04  0.21129037804E+04  0.25500000920E-02 0.  1.
    10030    2    1    2    0    0  0.00000000000E+00  0.00000000000E+00 -0.30120274954E+03  0.39246048113E+04  0.39130294950E+04 0.  0.
        1    1    3    3  502    0  0.19283162480E+04  0.24371973694E+02  0.18045445077E+03  0.19368947711E+04  0.50400001928E-02 0. -1.
       -1    1    3    3    0  502 -0.19283162480E+04 -0.24371973694E+02 -0.48165720031E+03  0.19877100402E+04  0.50400001928E-02 0.  1.
</event>
<event>
 5   0  0.2632875E-08  0.3903182E+04  0.7818609E-02  0.8024368E-01
       -1   -1    0    0    0  501  0.00000000000E+00  0.00000000000E+00  0.23570189328E+04  0.23570189328E+04  0.50400001928E-02 0. -1.
        1   -1    0    0  501    0  0.00000000000E+00  0.00000000000E+00 -0.16159000045E+04  0.16159000045E+04  0.50400001928E-02 0.  1.
    10030    2    1    2    0    0  0.00000000000E+00  0.00000000000E+00  0.74111892829E+03  0.39729189373E+04  0.39031817298E+04 0.  0.
        2    1    3    3  502    0 -0.16000405444E+04  0.84327337814E+03  0.11167794946E+04  0.21256613496E+04  0.25500000920E-02 0. -1.
       -2    1    3    3    0  502  0.16000405444E+04 -0.84327337814E+03 -0.37566056626E+03  0.18472575876E+04  0.25500000920E-02 0.  1.
</event>
<event>
 5   0  0.8551754E-08  0.3897188E+04  0.7818609E-02  0.8025614E-01
       -2   -1    0    0    0  501  0.00000000000E+00  0.00000000000E+00  0.16544854374E+04  0.16544854374E+04  0.25500000920E-02 0.  1.
        2   -1    0    0  501    0  0.00000000000E+00  0.00000000000E+00 -0.22949846324E+04  0.22949846324E+04  0.25500000920E-02 0. -1.
    10030    2    1    2    0    0  0.00000000000E+00  0.00000000000E+00 -0.64049919499E+03  0.39494700698E+04  0.38971880393E+04 0.  0.
        1    1    3    3  502    0 -0.31054172660E+03  0.15533835840E+04 -0.14701888606E+04  0.21612246548E+04  0.50400001928E-02 0. -1.
       -1    1    3    3    0  502  0.31054172660E+03 -0.15533835840E+04  0.82968966557E+03  0.17882454150E+04  0.50400001928E-02 0.  1.
</event>
<event>
 5   0  0.2632875E-08  0.3896997E+04  0.7818609E-02  0.8025654E-01
       -1   -1    0    0    0  501  0.00000000000E+00  0.00000000000E+00  0.19248623256E+04  0.19248623256E+04  0.50400001928E-02 0. -1.
        1   -1    0    0  501    0  0.00000000000E+00  0.00000000000E+00 -0.19724254103E+04  0.19724254103E+04  0.50400001928E-02 0.  1.
    10030    2    1    2    0    0  0.00000000000E+00  0.00000000000E+00 -0.47563084682E+02  0.38972877360E+04  0.38969974917E+04 0.  0.
        2    1    3    3  502    0  0.90895637405E+03  0.45989238910E+03  0.16373492908E+04  0.19283711779E+04  0.25500000920E-02 0. -1.
       -2    1    3    3    0  502 -0.90895637405E+03 -0.45989238910E+03 -0.16849123755E+04  0.19689165581E+04  0.25500000920E-02 0.  1.
</event>
<event>
 5   0  0.8438211E-08  0.3903020E+04  0.7818609E-02  0.8024401E-01
       -2   -1    0    0    0  501  0.00000000000E+00  0.00000000000E+00  0.19708083475E+04  0.19708083475E+04  0.25500000920E-02 0.  1.
        2   -1    0    0  501    0  0.00000000000E+00  0.00000000000E+00 -0.19324008172E+04  0.19324008172E+04  0.25500000920E-02 0. -1.
    10030    2    1    2    0    0  0.00000000000E+00  0.00000000000E+00  0.38407530372E+02  0.39032091647E+04  0.39030201953E+04 0.  0.
        5    1    3    3  502    0  0.24795973187E+03 -0.99496462983E+03  0.16796849890E+04  0.19679436973E+04  0.46999998093E+01 0.  1.
       -5    1    3    3    0  502 -0.24795973187E+03  0.99496462983E+03 -0.16412774587E+04  0.19352654675E+04  0.46999998093E+01 0. -1.
</event>
<event>
 5   0  0.2632875E-08  0.3899410E+04  0.7818609E-02  0.8025152E-01
        1   -1    0    0  501    0  0.00000000000E+00  0.00000000000E+00  0.22284943765E+04  0.22284943766E+04  0.50400001928E-02 0. -1.
       -1   -1    0    0    0  501  0.00000000000E+00  0.00000000000E+00 -0.17057931111E+04  0.17057931111E+04  0.50400001928E-02 0.  1.
    10030    2    1    2    0    0  0.00000000000E+00  0.00000000000E+00  0.52270126548E+03  0.39342874876E+04  0.38994103942E+04 0.  0.
        5    1    3    3  502    0  0.18083911633E+04 -0.98215610590E+02  0.98989173639E+03  0.20639362019E+04  0.46999998093E+01 0. -1.
       -5    1    3    3    0  502 -0.18083911633E+04  0.98215610590E+02 -0.46719047090E+03  0.18703512857E+04  0.46999998093E+01 0.  1.
</event>
<event>
 5   0  0.2632875E-08  0.3900623E+04  0.7818609E-02  0.8024900E-01
       -1   -1    0    0    0  501  0.00000000000E+00  0.00000000000E+00  0.19388106701E+04  0.19388106701E+04  0.50400001928E-02 0. -1.
        1   -1    0    0  501    0  0.00000000000E+00  0.00000000000E+00 -0.19618800502E+04  0.19618800502E+04  0.50400001928E-02 0.  1.
    10030    2    1    2    0    0  0.00000000000E+00  0.00000000000E+00 -0.23069380114E+02  0.39006907203E+04  0.39006225015E+04 0.  0.
        1    1    3    3  502    0 -0.63404799202E+02  0.33293589623E+03 -0.19322055433E+04  0.19617045499E+04  0.50400001928E-02 0.  1.
       -1    1    3    3    0  502  0.63404799202E+02 -0.33293589623E+03  0.19091361631E+04  0.19389861704E+04  0.50400001928E-02 0. -1.
</event>
<event>
 5   0  0.2632875E-08  0.3902097E+04  0.7818609E-02  0.8024593E-01
        1   -1    0    0  501    0  0.00000000000E+00  0.00000000000E+00  0.11998326300E+04  0.11998326300E+04  0.50400001928E-02 0.  1.
       -1   -1    0    0    0  501  0.00000000000E+00  0.00000000000E+00 -0.31726009261E+04  0.31726009261E+04  0.50400001928E-02 0. -1.
    10030    2    1    2    0    0  0.00000000000E+00  0.00000000000E+00 -0.19727682961E+04  0.43724335562E+04  0.39020969302E+04 0.  0.
        3    1    3    3  502    0 -0.17931268436E+04  0.76684132085E+03 -0.10501721280E+04  0.22149968391E+04  0.10100000352E+00 0. -1.
       -3    1    3    3    0  502  0.17931268436E+04 -0.76684132085E+03 -0.92259616811E+03  0.21574367171E+04  0.10100000352E+00 0.  1.
</event>
<event>
 5   0  0.2632875E-08  0.3928226E+04  0.7818609E-02  0.8019184E-01
        1   -1    0    0  501    0  0.00000000000E+00  0.00000000000E+00  0.20597986526E+04  0.20597986526E+04  0.50400001928E-02 0.  1.
       -1   -1    0    0    0  501  0.00000000000E+00  0.00000000000E+00 -0.18728726902E+04  0.18728726902E+04  0.50400001928E-02 0. -1.
    10030    2    1    2    0    0  0.00000000000E+00  0.00000000000E+00  0.18692596244E+03  0.39326713428E+04  0.39282263905E+04 0.  0.
        3    1    3    3  502    0  0.15725405802E+04  0.11760049351E+04  0.50180396792E+02  0.19642783831E+04  0.10100000352E+00 0.  1.
       -3    1    3    3    0  502 -0.15725405802E+04 -0.11760049351E+04  0.13674556565E+03  0.19683929597E+04  0.10100000352E+00 0. -1.
</event>
<event>
 5   0  0.8551754E-08  0.4035273E+04  0.7818609E-02  0.7997468E-01
       -2   -1    0    0    0  501  0.00000000000E+00  0.00000000000E+00  0.20838459289E+04  0.20838459289E+04  0.25500000920E-02 0. -1.
        2   -1    0    0  501    0  0.00000000000E+00  0.00000000000E+00 -0.19535310466E+04  0.19535310466E+04  0.25500000920E-02 0.  1.
    10030    2    1    2    0    0  0.00000000000E+00  0.00000000000E+00  0.13031488222E+03  0.40373769755E+04  0.40352733332E+04 0.  0.
        1    1    3    3  502    0 -0.67611663672E+03  0.15102903067E+04 -0.10898910954E+04  0.19814068529E+04  0.50400001928E-02 0.  1.
       -1    1    3    3    0  502  0.67611663672E+03 -0.15102903067E+04  0.12202059776E+04  0.20559701226E+04  0.50400001928E-02 0. -1.
</event>
<event>
 5   0  0.2632875E-08  0.3911687E+04  0.7818609E-02  0.8022603E-01
        1   -1    0    0  501    0  0.00000000000E+00  0.00000000000E+00  0.26749933082E+04  0.26749933082E+04  0.50400001928E-02 0.  1.
       -1   -1    0    0    0  501  0.00000000000E+00  0.00000000000E+00 -0.14300314117E+04  0.14300314117E+04  0.50400001928E-02 0. -1.
    10030    2    1    2    0    0  0.00000000000E+00  0.00000000000E+00  0.12449618965E+04  0.41050247199E+04  0.39116873376E+04 0.  0.
        4    1    3    3  502    0  0.55036082512E+03  0.10541509676E+04 -0.10070683308E+04  0.15583066245E+04  0.12699999809E+01 0. -1.
       -4    1    3    3    0  502 -0.55036082512E+03 -0.10541509676E+04  0.22520302272E+04  0.25467180954E+04  0.12699999809E+01 0.  1.
</event>
<event>
 5   0  0.2632875E-08  0.3899051E+04  0.7818609E-02  0.8025227E-01
       -1   -1    0    0    0  501  0.00000000000E+00  0.00000000000E+00  0.16992830431E+04  0.16992830431E+04  0.50400001928E-02 0. -1.
        1   -1    0    0  501    0  0.00000000000E+00  0.00000000000E+00 -0.22366193968E+04  0.22366193968E+04  0.50400001928E-02 0.  1.
    10030    2    1    2    0    0  0.00000000000E+00  0.00000000000E+00 -0.53733635375E+03  0.39359024399E+04  0.38990508665E+04 0.  0.
        1    1    3    3  502    0  0.14810204897E+04 -0.10045392534E+04 -0.10493655410E+04  0.20745334032E+04  0.50400001928E-02 0.  1.
       -1    1    3    3    0  502 -0.14810204897E+04  0.10045392534E+04  0.51202918721E+03  0.18613690367E+04  0.50400001928E-02 0. -1.
</event>
<event>
 5   0  0.8476262E-08  0.3894416E+04  0.7818609E-02  0.8026192E-01
        2   -1    0    0  501    0  0.00000000000E+00  0.00000000000E+00  0.13689057280E+04  0.13689057280E+04  0.25500000920E-02 0. -1.
       -2   -1    0    0    0  501  0.00000000000E+00  0.00000000000E+00 -0.27698171099E+04  0.27698171099E+04  0.25500000920E-02 0.  1.
    10030    2    1    2    0    0  0.00000000000E+00  0.00000000000E+00 -0.14009113819E+04  0.41387228379E+04  0.38944157494E+04 0.  0.
        2    1    3    3  502    0 -0.79229646373E+03 -0.17547951561E+04 -0.10095241884E+04  0.21739776479E+04  0.25500000920E-02 0.  1.
       -2    1    3    3    0  502  0.79229646373E+03  0.17547951561E+04 -0.39138719347E+03  0.19647451900E+04  0.25500000920E-02 0. -1.
</event>
<event>
 5   0  0.2632875E-08  0.3903032E+04  0.7818609E-02  0.8024399E-01
        1   -1    0    0  501    0  0.00000000000E+00  0.00000000000E+00  0.20361454729E+04  0.20361454729E+04  0.50400001928E-02 0. -1.
       -1   -1    0    0    0  501  0.00000000000E+00  0.00000000000E+00 -0.18704043817E+04  0.18704043817E+04  0.50400001928E-02 0.  1.
    10030    2    1    2    0    0  0.00000000000E+00  0.00000000000E+00  0.16574109125E+03  0.39065498546E+04  0.39030323669E+04 0.  0.
        3    1    3    3  502    0  0.16652822732E+04 -0.53930987313E+03 -0.78069042296E+03  0.19166370902E+04  0.10100000352E+00 0.  1.
       -3    1    3    3    0  502 -0.16652822732E+04  0.53930987313E+03  0.94643151421E+03  0.19899127644E+04  0.10100000352E+00 0. -1.
</event>
<event>
 5   0  0.8676098E-08  0.3871144E+04  0.7818609E-02  0.8031058E-01
        2   -1    0    0  501    0  0.00000000000E+00  0.00000000000E+00  0.20986242841E+04  0.20986242841E+04  0.25500000920E-02 0.  1.
       -2   -1    0    0    0  501  0.00000000000E+00  0.00000000000E+00 -0.17851877678E+04  0.17851877678E+04  0.25500000920E-02 0. -1.
    10030    2    1    2    0    0  0.00000000000E+00  0.00000000000E+00  0.31343651625E+03  0.38838120519E+04  0.38711437076E+04 0.  0.
        3    1    3    3  502    0 -0.11363602750E+04  0.15141889017E+04 -0.24753419436E+03  0.19092815120E+04  0.10100000352E+00 0. -1.
       -3    1    3    3    0  502  0.11363602750E+04 -0.15141889017E+04  0.56097071061E+03  0.19745305399E+04  0.10100000352E+00 0.  1.
</event>
<event>
 5   0  0.2632875E-08  0.3908386E+04  0.7818609E-02  0.8023287E-01
        1   -1    0    0  501    0  0.00000000000E+00  0.00000000000E+00  0.28893891904E+04  0.28893891904E+04  0.50400001928E-02 0. -1.
       -1   -1    0    0    0  501  0.00000000000E+00  0.00000000000E+00 -0.13216880500E+04  0.13216880500E+04  0.50400001928E-02 0.  1.
    10030    2    1    2    0    0  0.00000000000E+00  0.00000000000E+00  0.15677011404E+04  0.42110772403E+04  0.39083864521E+04 0.  0.
        1    1    3    3  502    0 -0.36372733021E+03  0.64277084753E+03 -0.11655295060E+04  0.13798228011E+04  0.50400001928E-02 0.  1.
       -1    1    3    3    0  502  0.36372733021E+03 -0.64277084753E+03  0.27332306464E+04  0.28312544392E+04  0.50400001928E-02 0. -1.
</event>
<event>
 5   0  0.8476262E-08  0.3870121E+04  0.7818609E-02  0.8031272E-01
        2   -1    0    0  501    0  0.00000000000E+00  0.00000000000E+00  0.19161529972E+04  0.19161529972E+04  0.25500000920E-02 0.  1.
       -2   -1    0    0    0  501  0.00000000000E+00  0.00000000000E+00 -0.19541541299E+04  0.19541541299E+04  0.25500000920E-02 0. -1.
    10030    2    1    2    0    0  0.00000000000E+00  0.00000000000E+00 -0.38001132649E+02  0.38703071271E+04  0.38701205630E+04 0.  0.
        2    1    3    3  502    0  0.57801624879E+03  0.74906049855E+03 -0.17070582046E+04  0.19517279852E+04  0.25500000920E-02 0. -1.
       -2    1    3    3    0  502 -0.57801624879E+03 -0.74906049855E+03  0.16690570720E+04  0.19185791419E+04  0.25500000920E-02 0.  1.
</event>
<event>
 5   0  0.2632875E-08  0.3908081E+04  0.7818609E-02  0.8023351E-01
        1   -1    0    0  501    0  0.00000000000E+00  0.00000000000E+00  0.23829353838E+04  0.23829353838E+04  0.50400001928E-02 0. -1.
       -1   -1    0    0    0  501  0.00000000000E+00  0.00000000000E+00 -0.16023405920E+04  0.16023405920E+04  0.50400001928E-02 0.  1.
    10030    2    1    2    0    0  0.00000000000E+00  0.00000000000E+00  0.78059479179E+03  0.39852759759E+04  0.39080809069E+04 0.  0.
        2    1    3    3  502    0  0.48068375625E+03  0.17166707018E+04  0.12062645453E+04  0.21524612250E+04  0.25500000920E-02 0. -1.
       -2    1    3    3    0  502 -0.48068375625E+03 -0.17166707018E+04 -0.42566975349E+03  0.18328147509E+04  0.25500000920E-02 0.  1.
</event>
<event>
 5   0  0.8676098E-08  0.3837866E+04  0.7818609E-02  0.8038077E-01
        2   -1    0    0  501    0  0.00000000000E+00  0.00000000000E+00  0.18686390781E+04  0.18686390781E+04  0.25500000920E-02 0.  1.
       -2   -1    0    0    0  501  0.00000000000E+00  0.00000000000E+00 -0.19705802634E+04  0.19705802635E+04  0.25500000920E-02 0. -1.
    10030    2    1    2    0    0  0.00000000000E+00  0.00000000000E+00 -0.10194118534E+03  0.38392193416E+04  0.38378657021E+04 0.  0.
        3    1    3    3  502    0 -0.60182119386E+03 -0.40705747855E+03 -0.18276653598E+04  0.19667855038E+04  0.10100000352E+00 0.  1.
       -3    1    3    3    0  502  0.60182119386E+03  0.40705747855E+03  0.17257241745E+04  0.18724338378E+04  0.10100000352E+00 0. -1.
</event>
<event>
 5   0  0.8438211E-08  0.3893520E+04  0.7818609E-02  0.8026378E-01
       -2   -1    0    0    0  501  0.00000000000E+00  0.00000000000E+00  0.19076543969E+04  0.19076543969E+04  0.25500000920E-02 0.  1.
        2   -1    0    0  501    0  0.00000000000E+00  0.00000000000E+00 -0.19866671465E+04  0.19866671465E+04  0.25500000920E-02 0. -1.
    10030    2    1    2    0    0  0.00000000000E+00  0.00000000000E+00 -0.79012749626E+02  0.38943215434E+04  0.38935199073E+04 0.  0.
        5    1    3    3  502    0 -0.19003992312E+04  0.12305371575E+03  0.36454805033E+03  0.19389628222E+04  0.46999998093E+01 0.  1.
       -5    1    3    3    0  502  0.19003992312E+04 -0.12305371575E+03 -0.44356079996E+03  0.19553587211E+04  0.46999998093E+01 0. -1.
</event>
<event>
 5   0  0.2632875E-08  0.3889893E+04  0.7818609E-02  0.8027134E-01
        1   -1    0    0  501    0  0.00000000000E+00  0.00000000000E+00  0.17377752539E+04  0.17377752539E+04  0.50400001928E-02 0. -1.
       -1   -1    0    0    0  501  0.00000000000E+00  0.00000000000E+00 -0.21768162584E+04  0.21768162584E+04  0.50400001928E-02 0.  1.
    10030    2    1    2    0    0  0.00000000000E+00  0.00000000000E+00 -0.43904100447E+03  0.39145915122E+04  0.38898932767E+04 0.  0.
        2    1    3    3  502    0 -0.10306176535E+03 -0.94985675402E+03  0.14853338376E+04  0.17660878205E+04  0.25500000920E-02 0. -1.
       -2    1    3    3    0  502  0.10306176535E+03  0.94985675402E+03 -0.19243748421E+04  0.21485036917E+04  0.25500000920E-02 0.  1.
</event>
<event>
 5   0  0.8676098E-08  0.3888001E+04  0.7818609E-02  0.8027529E-01
        2   -1    0    0  501    0  0.00000000000E+00  0.00000000000E+00  0.21372334747E+04  0.21372334747E+04  0.25500000920E-02 0.  1.
       -2   -1    0    0    0  501  0.00000000000E+00  0.00000000000E+00 -0.17682386580E+04  0.17682386580E+04  0.25500000920E-02 0. -1.
    10030    2    1    2    0    0  0.00000000000E+00  0.00000000000E+00  0.36899481677E+03  0.39054721327E+04  0.38880014666E+04 0.  0.
        3    1    3    3  502    0 -0.97790808960E+03 -0.14060976550E+04  0.11082622929E+04  0.20400147468E+04  0.10100000352E+00 0.  1.
       -3    1    3    3    0  502  0.97790808960E+03  0.14060976550E+04 -0.73926747616E+03  0.18654573859E+04  0.10100000352E+00 0. -1.
</event>
<event>
 5   0  0.8551754E-08  0.3896621E+04  0.7818609E-02  0.8025732E-01
        2   -1    0    0  501    0  0.00000000000E+00  0.00000000000E+00  0.24583868866E+04  0.24583868866E+04  0.25500000920E-02 0.  1.
       -2   -1    0    0    0  501  0.00000000000E+00  0.00000000000E+00 -0.15440672423E+04  0.15440672423E+04  0.25500000920E-02 0. -1.
    10030    2    1    2    0    0  0.00000000000E+00  0.00000000000E+00  0.91431964430E+03  0.40024541288E+04  0.38966214393E+04 0.  0.
        1    1    3    3  502    0  0.13304479404E+04 -0.71675943697E+03  0.17202238502E+04  0.22897611027E+04  0.50400001928E-02 0.  1.
       -1    1    3    3    0  502 -0.13304479404E+04  0.71675943697E+03 -0.80590420586E+03  0.17126930261E+04  0.50400001928E-02 0. -1.
</event>
<event>
 5   0  0.2632875E-08  0.3910359E+04  0.7818609E-02  0.8022878E-01
       -1   -1    0    0    0  501  0.00000000000E+00  0.00000000000E+00  0.12205052059E+04  0.12205052059E+04  0.50400001928E-02 0. -1.
        1   -1    0    0  501    0  0.00000000000E+00  0.00000000000E+00 -0.31320851602E+04  0.31320851602E+04  0.50400001928E-02 0.  1.
    10030    2    1    2    0    0  0.00000000000E+00  0.00000000000E+00 -0.19115799543E+04  0.43525903661E+04  0.39103586757E+04 0.  0.
        5    1    3    3  502    0 -0.38310331897E+03 -0.17939218216E+04 -0.17089024589E+04  0.25070487349E+04  0.46999998093E+01 0.  1.
       -5    1    3    3    0  502  0.38310331897E+03  0.17939218216E+04 -0.20267749543E+03  0.18455416312E+04  0.46999998093E+01 0. -1.
</event>
<event>
 5   0  0.8676098E-08  0.3880269E+04  0.7818609E-02  0.8029145E-01
        2   -1    0    0  501    0  0.00000000000E+00  0.00000000000E+00  0.13944600116E+04  0.13944600116E+04  0.25500000920E-02 0. -1.
       -2   -1    0    0    0  501  0.00000000000E+00  0.00000000000E+00 -0.26993397302E+04  0.26993397302E+04  0.25500000920E-02 0.  1.
    10030    2    1    2    0    0  0.00000000000E+00  0.00000000000E+00 -0.13048797186E+04  0.40937997418E+04  0.38802687080E+04 0.  0.
        3    1    3    3  502    0  0.75754716470E+02  0.16978254211E+04 -0.16397649255E+04  0.23616051657E+04  0.10100000352E+00 0.  1.
       -3    1    3    3    0  502 -0.75754716470E+02 -0.16978254211E+04  0.33488520689E+03  0.17321945761E+04  0.10100000352E+00 0. -1.
</event>
<event>
 5   0  0.2632875E-08  0.3898713E+04  0.7818609E-02  0.8025297E-01
        1   -1    0    0  501    0  0.00000000000E+00  0.00000000000E+00  0.23683961331E+04  0.23683961331E+04  0.50400001928E-02 0.  1.
       -1   -1    0    0    0  501  0.00000000000E+00  0.00000000000E+00 -0.16044577537E+04  0.16044577537E+04  0.50400001928E-02 0. -1.
    10030    2    1    2    0    0  0.00000000000E+00  0.00000000000E+00  0.76393837946E+03  0.39728538868E+04  0.38987133978E+04 0.  0.
        4    1    3    3  502    0  0.91050553327E+03 -0.15925676581E+04 -0.28988500183E+03  0.18572363875E+04  0.12699999809E+01 0. -1.
       -4    1    3    3    0  502 -0.91050553327E+03  0.15925676581E+04  0.10538233813E+04  0.21156174994E+04  0.12699999809E+01 0.  1.
</event>
<event>
 5   0  0.2632875E-08  0.3969029E+04  0.7818609E-02  0.8010824E-01
       -1   -1    0    0    0  501  0.00000000000E+00  0.00000000000E+00  0.16872300023E+04  0.16872300023E+04  0.50400001928E-02 0. -1.
        1   -1    0    0  501    0  0.00000000000E+00  0.00000000000E+00 -0.23341790926E+04  0.23341790926E+04  0.50400001928E-02 0.  1.
    10030    2    1    2    0    0  0.00000000000E+00  0.00000000000E+00 -0.64694909027E+03  0.40214090949E+04  0.39690285944E+04 0.  0.
        1    1    3    3  502    0  0.22138197258E+03 -0.19093493762E+04 -0.82362057065E+03  0.20911661490E+04  0.50400001928E-02 0.  1.
       -1    1    3    3    0  502 -0.22138197258E+03  0.19093493762E+04  0.17667148038E+03  0.19302429459E+04  0.50400001928E-02 0. -1.
</event>
<event>
 5   0  0.2632875E-08  0.3907383E+04  0.7818609E-02  0.8023495E-01
       -1   -1    0    0    0  501  0.00000000000E+00  0.00000000000E+00  0.13993809548E+04  0.13993809548E+04  0.50400001928E-02 0. -1.
        1   -1    0    0  501    0  0.00000000000E+00  0.00000000000E+00 -0.27275707479E+04  0.27275707479E+04  0.50400001928E-02 0.  1.
    10030    2    1    2    0    0  0.00000000000E+00  0.00000000000E+00 -0.13281897931E+04  0.41269517027E+04  0.39073830411E+04 0.  0.
        5    1    3    3  502    0  0.12400037066E+04 -0.25600148422E+03  0.90737820623E+03  0.15577237404E+04  0.46999998093E+01 0. -1.
       -5    1    3    3    0  502 -0.12400037066E+04  0.25600148422E+03 -0.22355679993E+04  0.25692279623E+04  0.46999998093E+01 0.  1.
</event>
<event>
 5   0  0.8342802E-08  0.4029238E+04  0.7818609E-02  0.7998674E-01
        2   -1    0    0  501    0  0.00000000000E+00  0.00000000000E+00  0.26137796245E+04  0.26137796245E+04  0.25500000920E-02 0.  1.
       -2   -1    0    0    0  501  0.00000000000E+00  0.00000000000E+00 -0.15528044816E+04  0.15528044816E+04  0.25500000920E-02 0. -1.
    10030    2    1    2    0    0  0.00000000000E+00  0.00000000000E+00  0.10609751429E+04  0.41665841062E+04  0.40292375036E+04 0.  0.
        4    1    3    3  502    0 -0.13946964613E+04  0.50505484227E+03  0.19401989736E+04  0.24422596674E+04  0.12699999809E+01 0.  1.
       -4    1    3    3    0  502  0.13946964613E+04 -0.50505484227E+03 -0.87922383074E+03  0.17243244388E+04  0.12699999809E+01 0. -1.
</event>
<event>
 5   0  0.8342802E-08  0.3785687E+04  0.7818609E-02  0.8049233E-01
        2   -1    0    0  501    0  0.00000000000E+00  0.00000000000E+00  0.27709393659E+04  0.27709393659E+04  0.25500000920E-02 0.  1.
       -2   -1    0    0    0  501  0.00000000000E+00  0.00000000000E+00 -0.12930115055E+04  0.12930115055E+04  0.25500000920E-02 0. -1.
    10030    2    1    2    0    0  0.00000000000E+00  0.00000000000E+00  0.14779278604E+04  0.40639508714E+04  0.37856869819E+04 0.  0.
        4    1    3    3  502    0  0.41343165297E+03 -0.40017596726E+03 -0.11968556653E+04  0.13279802833E+04  0.12699999809E+01 0. -1.
       -4    1    3    3    0  502 -0.41343165297E+03  0.40017596726E+03  0.26747835257E+04  0.27359705881E+04  0.12699999809E+01 0.  1.
</event>
<event>
 5   0  0.2632875E-08  0.3892313E+04  0.7818609E-02  0.8026630E-01
       -1   -1    0    0    0  501  0.00000000000E+00  0.00000000000E+00  0.18574066431E+04  0.18574066431E+04  0.50400001928E-02 0.  1.
        1   -1    0    0  501    0  0.00000000000E+00  0.00000000000E+00 -0.20391465695E+04  0.20391465695E+04  0.50400001928E-02 0. -1.
    10030    2    1    2    0    0  0.00000000000E+00  0.00000000000E+00 -0.18173992638E+03  0.38965532126E+04  0.38923126207E+04 0.  0.
        2    1    3    3  502    0 -0.11471404076E+04  0.14331218294E+04 -0.73791390162E+03  0.19784555135E+04  0.25500000920E-02 0. -1.
       -2    1    3    3    0  502  0.11471404076E+04 -0.14331218294E+04  0.55617397524E+03  0.19180976991E+04  0.25500000920E-02 0.  1.
</event>
<event>
 5   0  0.2632875E-08  0.3884319E+04  0.7818609E-02  0.8028298E-01
        1   -1    0    0  501    0  0.00000000000E+00  0.00000000000E+00  0.33748292845E+04  0.33748292845E+04  0.50400001928E-02 0. -1.
       -1   -1    0    0    0  501  0.00000000000E+00  0.00000000000E+00 -0.11176814828E+04  0.11176814828E+04  0.50400001928E-02 0.  1.
    10030    2    1    2    0    0  0.00000000000E+00  0.00000000000E+00  0.22571478018E+04  0.44925107673E+04  0.38843193477E+04 0.  0.
        5    1    3    3  502    0  0.18184016307E+03  0.12731009218E+04  0.28118233669E+04  0.30919612770E+04  0.46999998093E+01 0. -1.
       -5    1    3    3    0  502 -0.18184016307E+03 -0.12731009218E+04 -0.55467556514E+03  0.14005494902E+04  0.46999998093E+01 0.  1.
</event>
<event>
 5   0  0.2632875E-08  0.3908370E+04  0.7818609E-02  0.8023291E-01
        1   -1    0    0  501    0  0.00000000000E+00  0.00000000000E+00  0.28819140123E+04  0.28819140123E+04  0.50400001928E-02 0. -1.
       -1   -1    0    0    0  501  0.00000000000E+00  0.00000000000E+00 -0.13251051266E+04  0.13251051266E+04  0.50400001928E-02 0.  1.
    10030    2    1    2    0    0  0.00000000000E+00  0.00000000000E+00  0.15568088857E+04  0.42070191389E+04  0.39083700092E+04 0.  0.
        5    1    3    3  502    0 -0.49026769734E+03 -0.11288215950E+03  0.28110046047E+04  0.28556739615E+04  0.46999998093E+01 0. -1.
       -5    1    3    3    0  502  0.49026769734E+03  0.11288215950E+03 -0.12541957190E+04  0.13513451774E+04  0.46999998093E+01 0.  1.
</event>
<event>
 5   0  0.8476262E-08  0.3921878E+04  0.7818609E-02  0.8020494E-01
       -2   -1    0    0    0  501  0.00000000000E+00  0.00000000000E+00  0.22791990096E+04  0.22791990096E+04  0.25500000920E-02 0.  1.
        2   -1    0    0  501    0  0.00000000000E+00  0.00000000000E+00 -0.16871196273E+04  0.16871196273E+04  0.25500000920E-02 0. -1.
    10030    2    1    2    0    0  0.00000000000E+00  0.00000000000E+00  0.59207938226E+03  0.39663186368E+04  0.39218778071E+04 0.  0.
        2    1    3    3  502    0  0.17999767620E+04  0.45588168838E+03  0.93368956745E+03  0.20783456560E+04  0.25500000920E-02 0.  1.
       -2    1    3    3    0  502 -0.17999767620E+04 -0.45588168838E+03 -0.34161018519E+03  0.18879729808E+04  0.25500000920E-02 0. -1.
</event>
<event>
 5   0  0.8676098E-08  0.3904039E+04  0.7818609E-02  0.8024190E-01
        2   -1    0    0  501    0  0.00000000000E+00  0.00000000000E+00  0.31391880339E+04  0.31391880339E+04  0.25500000920E-02 0. -1.
       -2   -1    0    0    0  501  0.00000000000E+00  0.00000000000E+00 -0.12138108091E+04  0.12138108091E+04  0.25500000920E-02 0.  1.
    10030    2    1    2    0    0  0.00000000000E+00  0.00000000000E+00  0.19253772248E+04  0.43529988430E+04  0.39040391225E+04 0.  0.
        3    1    3    3  502    0 -0.62854093081E+03 -0.65266685137E+03 -0.96511255474E+03  0.13238126658E+04  0.10100000352E+00 0.  1.
       -3    1    3    3    0  502  0.62854093081E+03  0.65266685137E+03  0.28904897795E+04  0.30291861772E+04  0.10100000352E+00 0. -1.
</event>
<event>
 5   0  0.8551754E-08  0.3894608E+04  0.7818609E-02  0.8026152E-01
        2   -1    0    0  501    0  0.00000000000E+00  0.00000000000E+00  0.17528777641E+04  0.17528777641E+04  0.25500000920E-02 0.  1.
       -2   -1    0    0    0  501  0.00000000000E+00  0.00000000000E+00 -0.21632957389E+04  0.21632957389E+04  0.25500000920E-02 0. -1.
    10030    2    1    2    0    0  0.00000000000E+00  0.00000000000E+00 -0.41041797479E+03  0.39161735030E+04  0.38946080664E+04 0.  0.
        1    1    3    3  502    0 -0.80415989270E+03  0.95686496965E+03  0.12962872059E+04  0.18007288034E+04  0.50400001928E-02 0.  1.
       -1    1    3    3    0  502  0.80415989270E+03 -0.95686496965E+03 -0.17067051807E+04  0.21154446996E+04  0.50400001928E-02 0. -1.
</event>
<event>
 5   0  0.8476262E-08  0.3907156E+04  0.7818609E-02  0.8023542E-01
       -2   -1    0    0    0  501  0.00000000000E+00  0.00000000000E+00  0.12797343034E+04  0.12797343034E+04  0.25500000920E-02 0.  1.
        2   -1    0    0  501    0  0.00000000000E+00  0.00000000000E+00 -0.29822344293E+04  0.29822344293E+04  0.25500000920E-02 0. -1.
    10030    2    1    2    0    0  0.00000000000E+00  0.00000000000E+00 -0.17025001259E+04  0.42619687327E+04  0.39071563572E+04 0.  0.
        2    1    3    3  502    0 -0.48487164846E+03  0.37461722012E+03 -0.28747054900E+04  0.29392805636E+04  0.25500000920E-02 0. -1.
       -2    1    3    3    0  502  0.48487164846E+03 -0.37461722012E+03  0.11722053641E+04  0.13226881691E+04  0.25500000920E-02 0.  1.
</event>
<event>
 5   0  0.8676098E-08  0.3862878E+04  0.7818609E-02  0.8032794E-01
       -2   -1    0    0    0  501  0.00000000000E+00  0.00000000000E+00  0.13720033612E+04  0.13720033612E+04  0.25500000920E-02 0. -1.
        2   -1    0    0  501    0  0.00000000000E+00  0.00000000000E+00 -0.27189852838E+04  0.27189852838E+04  0.25500000920E-02 0.  1.
    10030    2    1    2    0    0  0.00000000000E+00  0.00000000000E+00 -0.13469819226E+04  0.40909886450E+04  0.38628781749E+04 0.  0.
        3    1    3    3  502    0  0.14396630382E+04 -0.72737682616E+03  0.45167396957E+03  0.16750271926E+04  0.10100000352E+00 0. -1.
       -3    1    3    3    0  502 -0.14396630382E+04  0.72737682616E+03 -0.17986558922E+04  0.24159614524E+04  0.10100000352E+00 0.  1.
</event>
<event>
 5   0  0.2632875E-08  0.3895578E+04  0.7818609E-02  0.8025949E-01
        1   -1    0    0  501    0  0.00000000000E+00  0.00000000000E+00  0.27704091261E+04  0.27704091261E+04  0.50400001928E-02 0. -1.
       -1   -1    0    0    0  501  0.00000000000E+00  0.00000000000E+00 -0.13694304494E+04  0.13694304494E+04  0.50400001928E-02 0.  1.
    10030    2    1    2    0    0  0.00000000000E+00  0.00000000000E+00  0.14009786767E+04  0.41398395756E+04  0.38955783215E+04 0.  0.
        5    1    3    3  502    0  0.78637548290E+03 -0.25114598595E+03 -0.11743292994E+04  0.14354553632E+04  0.46999998093E+01 0.  1.
       -5    1    3    3    0  502 -0.78637548290E+03  0.25114598595E+03  0.25753079761E+04  0.27043842124E+04  0.46999998093E+01 0. -1.
</event>
<event>
 5   0  0.8438211E-08  0.3917885E+04  0.7818609E-02  0.8021320E-01
       -2   -1    0    0    0  501  0.00000000000E+00  0.00000000000E+00  0.16486064289E+04  0.16486064289E+04  0.25500000920E-02 0. -1.
        2   -1    0    0  501    0  0.00000000000E+00  0.00000000000E+00 -0.23276971860E+04  0.23276971860E+04  0.25500000920E-02 0.  1.
    10030    2    1    2    0    0  0.00000000000E+00  0.00000000000E+00 -0.67909075706E+03  0.39763036149E+04  0.39178854222E+04 0.  0.
        5    1    3    3  502    0  0.42784370248E+03  0.15284597878E+04 -0.15047913773E+04  0.21871576843E+04  0.46999998093E+01 0.  1.
       -5    1    3    3    0  502 -0.42784370248E+03 -0.15284597878E+04  0.82570062023E+03  0.17891459306E+04  0.46999998093E+01 0. -1.
</event>
<event>
 5   0  0.2632875E-08  0.3925682E+04  0.7818609E-02  0.8019709E-01
       -1   -1    0    0    0  501  0.00000000000E+00  0.00000000000E+00  0.29491158543E+04  0.29491158543E+04  0.50400001928E-02 0. -1.
        1   -1    0    0  501    0  0.00000000000E+00  0.00000000000E+00 -0.13064067458E+04  0.13064067458E+04  0.50400001928E-02 0.  1.
    10030    2    1    2    0    0  0.00000000000E+00  0.00000000000E+00  0.16427091085E+04  0.42555226002E+04  0.39256820280E+04 0.  0.
        5    1    3    3  502    0  0.84138978961E+02 -0.12241360384E+04  0.24821140949E+04  0.27688446830E+04  0.46999998093E+01 0. -1.
       -5    1    3    3    0  502 -0.84138978961E+02  0.12241360384E+04 -0.83940498639E+03  0.14866779172E+04  0.46999998093E+01 0.  1.
</event>
<event>
 5   0  0.2632875E-08  0.3910929E+04  0.7818609E-02  0.8022760E-01
       -1   -1    0    0    0  501  0.00000000000E+00  0.00000000000E+00  0.16331986380E+04  0.16331986380E+04  0.50400001928E-02 0. -1.
        1   -1    0    0  501    0  0.00000000000E+00  0.00000000000E+00 -0.23413203710E+04  0.23413203710E+04  0.50400001928E-02 0.  1.
    10030    2    1    2    0    0  0.00000000000E+00  0.00000000000E+00 -0.70812173306E+03  0.39745190090E+04  0.39109289132E+04 0.  0.
        3    1    3    3  502    0 -0.13211053755E+04 -0.10129169212E+04 -0.13966665010E+04  0.21730157450E+04  0.10100000352E+00 0.  1.
       -3    1    3    3    0  502  0.13211053755E+04  0.10129169212E+04  0.68854476797E+03  0.18015032640E+04  0.10100000352E+00 0. -1.
</event>
<event>
 5   0  0.8676098E-08  0.3889015E+04  0.7818609E-02  0.8027318E-01
       -2   -1    0    0    0  501  0.00000000000E+00  0.00000000000E+00  0.12427413649E+04  0.12427413649E+04  0.25500000920E-02 0. -1.
        2   -1    0    0  501    0  0.00000000000E+00  0.00000000000E+00 -0.30425545978E+04  0.30425545978E+04  0.25500000920E-02 0.  1.
    10030    2    1    2    0    0  0.00000000000E+00  0.00000000000E+00 -0.17998132329E+04  0.42852959628E+04  0.38890145044E+04 0.  0.
        3    1    3    3  502    0 -0.58751688395E+03 -0.16291427496E+04 -0.18742148766E+04  0.25518549334E+04  0.10100000352E+00 0.  1.
       -3    1    3    3    0  502  0.58751688395E+03  0.16291427496E+04  0.74401643744E+02  0.17334410293E+04  0.10100000352E+00 0. -1.
</event>
<event>
 5   0  0.2632875E-08  0.3886966E+04  0.7818609E-02  0.8027746E-01
        1   -1    0    0  501    0  0.00000000000E+00  0.00000000000E+00  0.24095283253E+04  0.24095283253E+04  0.50400001928E-02 0. -1.
       -1   -1    0    0    0  501  0.00000000000E+00  0.00000000000E+00 -0.15675786945E+04  0.15675786945E+04  0.50400001928E-02 0.  1.
    10030    2    1    2    0    0  0.00000000000E+00  0.00000000000E+00  0.84194963085E+03  0.39771070198E+04  0.38869655345E+04 0.  0.
        1    1    3    3  502    0  0.13708422779E+04  0.10171945488E+04 -0.52967451085E+03  0.17873019858E+04  0.50400001928E-02 0.  1.
       -1    1    3    3    0  502 -0.13708422779E+04 -0.10171945488E+04  0.13716241417E+04  0.21898050340E+04  0.50400001928E-02 0. -1.
</event>
<event>
 5   0  0.2632875E-08  0.3839884E+04  0.7818609E-02  0.8037650E-01
        1   -1    0    0  501    0  0.00000000000E+00  0.00000000000E+00  0.13746408104E+04  0.13746408104E+04  0.50400001928E-02 0.  1.
       -1   -1    0    0    0  501  0.00000000000E+00  0.00000000000E+00 -0.26815566271E+04  0.26815566271E+04  0.50400001928E-02 0. -1.
    10030    2    1    2    0    0  0.00000000000E+00  0.00000000000E+00 -0.13069158167E+04  0.40561974375E+04  0.38398839436E+04 0.  0.
        5    1    3    3  502    0 -0.60038954428E+03 -0.10015420301E+04  0.95640278299E+03  0.15093980311E+04  0.46999998093E+01 0.  1.
       -5    1    3    3    0  502  0.60038954428E+03  0.10015420301E+04 -0.22633185997E+04  0.25467994064E+04  0.46999998093E+01 0. -1.
</event>
<event>
 5   0  0.2632875E-08  0.3853887E+04  0.7818609E-02  0.8034689E-01
        1   -1    0    0  501    0  0.00000000000E+00  0.00000000000E+00  0.14961971543E+04  0.14961971543E+04  0.50400001928E-02 0. -1.
       -1   -1    0    0    0  501  0.00000000000E+00  0.00000000000E+00 -0.24816990218E+04  0.24816990218E+04  0.50400001928E-02 0.  1.
    10030    2    1    2    0    0  0.00000000000E+00  0.00000000000E+00 -0.98550186753E+03  0.39778961761E+04  0.38538868765E+04 0.  0.
        4    1    3    3  502    0 -0.91649940300E+03 -0.50780613152E+03 -0.21619681102E+04  0.24024874495E+04  0.12699999809E+01 0.  1.
       -4    1    3    3    0  502  0.91649940300E+03  0.50780613152E+03  0.11764662426E+04  0.15754087266E+04  0.12699999809E+01 0. -1.
</event>
<event>
 5   0  0.2632875E-08  0.3935975E+04  0.7818609E-02  0.8017588E-01
       -1   -1    0    0    0  501  0.00000000000E+00  0.00000000000E+00  0.14765694436E+04  0.14765694436E+04  0.50400001928E-02 0. -1.
        1   -1    0    0  501    0  0.00000000000E+00  0.00000000000E+00 -0.26229553873E+04  0.26229553873E+04  0.50400001928E-02 0.  1.
    10030    2    1    2    0    0  0.00000000000E+00  0.00000000000E+00 -0.11463859437E+04  0.40995248308E+04  0.39359754962E+04 0.  0.
        5    1    3    3  502    0  0.15123667093E+04  0.61372386347E+03  0.57206183739E+03  0.17295048077E+04  0.46999998093E+01 0. -1.
       -5    1    3    3    0  502 -0.15123667093E+04 -0.61372386347E+03 -0.17184477811E+04  0.23700200232E+04  0.46999998093E+01 0.  1.
</event>
<event>
 5   0  0.8342802E-08  0.3897009E+04  0.7818609E-02  0.8025652E-01
        2   -1    0    0  501    0  0.00000000000E+00  0.00000000000E+00  0.14294212792E+04  0.14294212793E+04  0.25500000920E-02 0.  1.
       -2   -1    0    0    0  501  0.00000000000E+00  0.00000000000E+00 -0.26560891024E+04  0.26560891024E+04  0.25500000920E-02 0. -1.
    10030    2    1    2    0    0  0.00000000000E+00  0.00000000000E+00 -0.12266678232E+04  0.40855103817E+04  0.38970092546E+04 0.  0.
        4    1    3    3  502    0  0.79653185416E+03 -0.11493644292E+04  0.80919624629E+03  0.16156428330E+04  0.12699999809E+01 0.  1.
       -4    1    3    3    0  502 -0.79653185416E+03  0.11493644292E+04 -0.20358640695E+04  0.24698675487E+04  0.12699999809E+01 0. -1.
</event>
<event>
 5   0  0.8551754E-08  0.3882456E+04  0.7818609E-02  0.8028688E-01
        2   -1    0    0  501    0  0.00000000000E+00  0.00000000000E+00  0.23312144960E+04  0.23312144960E+04  0.25500000920E-02 0. -1.
       -2   -1    0    0    0  501  0.00000000000E+00  0.00000000000E+00 -0.16164817098E+04  0.16164817098E+04  0.25500000920E-02 0.  1.
    10030    2    1    2    0    0  0.00000000000E+00  0.00000000000E+00  0.71473278627E+03  0.39476962058E+04  0.38824557148E+04 0.  0.
        1    1    3    3  502    0 -0.22150729287E+03  0.14633522943E+04 -0.91988673780E+03  0.17426006509E+04  0.50400001928E-02 0.  1.
       -1    1    3    3    0  502  0.22150729287E+03 -0.14633522943E+04  0.16346195241E+04  0.22050955549E+04  0.50400001928E-02 0. -1.
</event>
<event>
 5   0  0.2632875E-08  0.3896356E+04  0.7818609E-02  0.8025787E-01
        1   -1    0    0  501    0  0.00000000000E+00  0.00000000000E+00  0.10684274744E+04  0.10684274744E+04  0.50400001928E-02 0. -1.
       -1   -1    0    0    0  501  0.00000000000E+00  0.00000000000E+00 -0.35523213132E+04  0.35523213132E+04  0.50400001928E-02 0.  1.
    10030    2    1    2    0    0  0.00000000000E+00  0.00000000000E+00 -0.24838938388E+04  0.46207487875E+04  0.38963560868E+04 0.  0.
        4    1    3    3  502    0  0.14173485616E+04  0.70044494349E+03  0.10806870505E+03  0.15846704774E+04  0.12699999809E+01 0. -1.
       -4    1    3    3    0  502 -0.14173485616E+04 -0.70044494349E+03 -0.25919625438E+04  0.30360783102E+04  0.12699999809E+01 0.  1.
</event>
<event>
 5   0  0.8476262E-08  0.3911141E+04  0.7818609E-02  0.8022716E-01
       -2   -1    0    0    0  501  0.00000000000E+00  0.00000000000E+00  0.17233342328E+04  0.17233342328E+04  0.25500000920E-02 0.  1.
        2   -1    0    0  501    0  0.00000000000E+00  0.00000000000E+00 -0.22191030038E+04  0.22191030038E+04  0.25500000920E-02 0. -1.
    10030    2    1    2    0    0  0.00000000000E+00  0.00000000000E+00 -0.49576877101E+03  0.39424372366E+04  0.39111410982E+04 0.  0.
        2    1    3    3  502    0 -0.76341159300E+03 -0.17206282276E+04  0.28635410577E+03  0.19040371403E+04  0.25500000920E-02 0.  1.
       -2    1    3    3    0  502  0.76341159300E+03  0.17206282276E+04 -0.78212287678E+03  0.20384000962E+04  0.25500000920E-02 0. -1.
</event>
<event>
 5   0  0.2632875E-08  0.3927577E+04  0.7818609E-02  0.8019318E-01
        1   -1    0    0  501    0  0.00000000000E+00  0.00000000000E+00  0.15674153852E+04  0.15674153853E+04  0.50400001928E-02 0. -1.
       -1   -1    0    0    0  501  0.00000000000E+00  0.00000000000E+00 -0.24603976727E+04  0.24603976727E+04  0.50400001928E-02 0.  1.
    10030    2    1    2    0    0  0.00000000000E+00  0.00000000000E+00 -0.89298228742E+03  0.40278130579E+04  0.39275769456E+04 0.  0.
        5    1    3    3  502    0 -0.89870164819E+03 -0.10063396099E+04  0.10168304593E+04  0.16894822686E+04  0.46999998093E+01 0. -1.
       -5    1    3    3    0  502  0.89870164819E+03  0.10063396099E+04 -0.19098127467E+04  0.23383307893E+04  0.46999998093E+01 0.  1.
</event>
<event>
 5   0  0.8476262E-08  0.3900470E+04  0.7818609E-02  0.8024932E-01
        2   -1    0    0  501    0  0.00000000000E+00  0.00000000000E+00  0.15260131196E+04  0.15260131196E+04  0.25500000920E-02 0. -1.
       -2   -1    0    0    0  501  0.00000000000E+00  0.00000000000E+00 -0.24923875619E+04  0.24923875619E+04  0.25500000920E-02 0.  1.
    10030    2    1    2    0    0  0.00000000000E+00  0.00000000000E+00 -0.96637444231E+03  0.40184006814E+04  0.39004697760E+04 0.  0.
        2    1    3    3  502    0  0.12311038089E+04  0.64231448850E+03 -0.18939817977E+04  0.23484785586E+04  0.25500000920E-02 0.  1.
       -2    1    3    3    0  502 -0.12311038089E+04 -0.64231448850E+03  0.92760735540E+03  0.16699221228E+04  0.25500000920E-02 0. -1.
</event>
<event>
 5   0  0.2632875E-08  0.3896045E+04  0.7818609E-02  0.8025852E-01
        1   -1    0    0  501    0  0.00000000000E+00  0.00000000000E+00  0.32619700533E+04  0.32619700533E+04  0.50400001928E-02 0.  1.
       -1   -1    0    0    0  501  0.00000000000E+00  0.00000000000E+00 -0.11633434638E+04  0.11633434638E+04  0.50400001928E-02 0. -1.
    10030    2    1    2    0    0  0.00000000000E+00  0.00000000000E+00  0.20986265895E+04  0.44253135170E+04  0.38960449384E+04 0.  0.
        4    1    3    3  502    0 -0.16686420703E+04  0.98798967605E+03  0.12596751296E+04  0.23124171344E+04  0.12699999809E+01 0.  1.
       -4    1    3    3    0  502  0.16686420703E+04 -0.98798967605E+03  0.83895145992E+03  0.21128963826E+04  0.12699999809E+01 0. -1.
</event>
<event>
 5   0  0.2632875E-08  0.3895477E+04  0.7818609E-02  0.8025971E-01
       -1   -1    0    0    0  501  0.00000000000E+00  0.00000000000E+00  0.16089073417E+04  0.16089073417E+04  0.50400001928E-02 0. -1.
        1   -1    0    0  501    0  0.00000000000E+00  0.00000000000E+00 -0.23579261215E+04  0.23579261215E+04  0.50400001928E-02 0.  1.
    10030    2    1    2    0    0  0.00000000000E+00  0.00000000000E+00 -0.74901877979E+03  0.39668334633E+04  0.38954766837E+04 0.  0.
        4    1    3    3  502    0 -0.52746529883E+03  0.11083707805E+04  0.11654678955E+04  0.16926377217E+04  0.12699999809E+01 0. -1.
       -4    1    3    3    0  502  0.52746529883E+03 -0.11083707805E+04 -0.19144866753E+04  0.22741957416E+04  0.12699999809E+01 0.  1.
</event>
<event>
 5   0  0.2632875E-08  0.3905899E+04  0.7818609E-02  0.8023803E-01
       -1   -1    0    0    0  501  0.00000000000E+00  0.00000000000E+00  0.18983630651E+04  0.18983630651E+04  0.50400001928E-02 0.  1.
        1   -1    0    0  501    0  0.00000000000E+00  0.00000000000E+00 -0.20091056734E+04  0.20091056734E+04  0.50400001928E-02 0. -1.
    10030    2    1    2    0    0  0.00000000000E+00  0.00000000000E+00 -0.11074260830E+03  0.39074687385E+04  0.39058991304E+04 0.  0.
        4    1    3    3  502    0  0.17396880991E+04  0.62324937584E+03 -0.68733389401E+03  0.19716449887E+04  0.12699999809E+01 0. -1.
       -4    1    3    3    0  502 -0.17396880991E+04 -0.62324937584E+03  0.57659128571E+03  0.19358237498E+04  0.12699999809E+01 0.  1.
</event>
<event>
 5   0  0.8476262E-08  0.3896496E+04  0.7818609E-02  0.8025758E-01
        2   -1    0    0  501    0  0.00000000000E+00  0.00000000000E+00  0.22848065850E+04  0.22848065850E+04  0.25500000920E-02 0.  1.
       -2   -1    0    0    0  501  0.00000000000E+00  0.00000000000E+00 -0.16612658220E+04  0.16612658220E+04  0.25500000920E-02 0. -1.
    10030    2    1    2    0    0  0.00000000000E+00  0.00000000000E+00  0.62354076298E+03  0.39460724070E+04  0.38964964209E+04 0.  0.
        2    1    3    3  502    0  0.97561418662E+03  0.16855860093E+04  0.36388238207E+03  0.19812707094E+04  0.25500000920E-02 0.  1.
       -2    1    3    3    0  502 -0.97561418662E+03 -0.16855860093E+04  0.25965838092E+03  0.19648016976E+04  0.25500000920E-02 0. -1.
</event>
<event>
 5   0  0.8438211E-08  0.3918708E+04  0.7818609E-02  0.8021150E-01
        2   -1    0    0  501    0  0.00000000000E+00  0.00000000000E+00  0.23777140941E+04  0.23777140941E+04  0.25500000920E-02 0.  1.
       -2   -1    0    0    0  501  0.00000000000E+00  0.00000000000E+00 -0.16146043681E+04  0.16146043681E+04  0.25500000920E-02 0. -1.
    10030    2    1    2    0    0  0.00000000000E+00  0.00000000000E+00  0.76310972597E+03  0.39923184622E+04  0.39187077271E+04 0.  0.
        5    1    3    3  502    0 -0.13311413636E+04  0.14233450150E+04  0.58833826824E+03  0.20356847422E+04  0.46999998093E+01 0.  1.
       -5    1    3    3    0  502  0.13311413636E+04 -0.14233450150E+04  0.17477145773E+03  0.19566337200E+04  0.46999998093E+01 0. -1.
</event>
<event>
 5   0  0.8438211E-08  0.3892829E+04  0.7818609E-02  0.8026522E-01
       -2   -1    0    0    0  501  0.00000000000E+00  0.00000000000E+00  0.17304804311E+04  0.17304804311E+04  0.25500000920E-02 0. -1.
        2   -1    0    0  501    0  0.00000000000E+00  0.00000000000E+00 -0.21892929949E+04  0.21892929949E+04  0.25500000920E-02 0.  1.
    10030    2    1    2    0    0  0.00000000000E+00  0.00000000000E+00 -0.45881256387E+03  0.39197734260E+04  0.38928286300E+04 0.  0.
        5    1    3    3  502    0  0.11128383391E+04 -0.55677821532E+03 -0.17364607198E+04  0.21362886208E+04  0.46999998093E+01 0.  1.
       -5    1    3    3    0  502 -0.11128383391E+04  0.55677821532E+03  0.12776481559E+04  0.17834848052E+04  0.46999998093E+01 0. -1.
</event>
<event>
 5   0  0.8342802E-08  0.3902219E+04  0.7818609E-02  0.8024568E-01
       -2   -1    0    0    0  501  0.00000000000E+00  0.00000000000E+00  0.20752311479E+04  0.20752311479E+04  0.25500000920E-02 0. -1.
        2   -1    0    0  501    0  0.00000000000E+00  0.00000000000E+00 -0.18344113498E+04  0.18344113498E+04  0.25500000920E-02 0.  1.
    10030    2    1    2    0    0  0.00000000000E+00  0.00000000000E+00  0.24081979814E+03  0.39096424977E+04  0.39022186362E+04 0.  0.
        4    1    3    3  502    0  0.17337987062E+04 -0.82801545711E+03 -0.21958568272E+03  0.19338787541E+04  0.12699999809E+01 0. -1.
       -4    1    3    3    0  502 -0.17337987062E+04  0.82801545711E+03  0.46040548086E+03  0.19757637436E+04  0.12699999809E+01 0.  1.
</event>
<event>
 5   0  0.2632875E-08  0.3905275E+04  0.7818609E-02  0.8023933E-01
       -1   -1    0    0    0  501  0.00000000000E+00  0.00000000000E+00  0.18605330463E+04  0.18605330464E+04  0.50400001928E-02 0. -1.
        1   -1    0    0  501    0  0.00000000000E+00  0.00000000000E+00 -0.20493018813E+04  0.20493018813E+04  0.50400001928E-02 0.  1.
    10030    2    1    2    0    0  0.00000000000E+00  0.00000000000E+00 -0.18876883494E+03  0.39098349276E+04  0.39052753409E+04 0.  0.
        1    1    3    3  502    0  0.19100921550E+04  0.39815246712E+03 -0.18029757559E+02  0.19512310217E+04  0.50400001928E-02 0. -1.
       -1    1    3    3    0  502 -0.19100921550E+04 -0.39815246712E+03 -0.17073907738E+03  0.19586039060E+04  0.50400001928E-02 0.  1.
</event>
<event>
 5   0  0.2632875E-08  0.3900435E+04  0.7818609E-02  0.8024939E-01
        1   -1    0    0  501    0  0.00000000000E+00  0.00000000000E+00  0.24579373753E+04  0.24579373753E+04  0.50400001928E-02 0. -1.
       -1   -1    0    0    0  501  0.00000000000E+00  0.00000000000E+00 -0.15473740192E+04  0.15473740192E+04  0.50400001928E-02 0.  1.
    10030    2    1    2    0    0  0.00000000000E+00  0.00000000000E+00  0.91056335605E+03  0.40053113945E+04  0.39004350708E+04 0.  0.
        2    1    3    3  502    0 -0.17592809074E+03  0.19275522047E+04  0.21024399280E+03  0.19469490829E+04  0.25500000920E-02 0.  1.
       -2    1    3    3    0  502  0.17592809074E+03 -0.19275522047E+04  0.70031936325E+03  0.20583623115E+04  0.25500000920E-02 0. -1.
</event>
<event>
 5   0  0.8476262E-08  0.3913370E+04  0.7818609E-02  0.8022254E-01
        2   -1    0    0  501    0  0.00000000000E+00  0.00000000000E+00  0.14449461418E+04  0.14449461418E+04  0.25500000920E-02 0. -1.
       -2   -1    0    0    0  501  0.00000000000E+00  0.00000000000E+00 -0.26496606282E+04  0.26496606282E+04  0.25500000920E-02 0.  1.
    10030    2    1    2    0    0  0.00000000000E+00  0.00000000000E+00 -0.12047144864E+04  0.40946067699E+04  0.39133703641E+04 0.  0.
        2    1    3    3  502    0 -0.18342965862E+04  0.62778281168E+03 -0.32580272953E+03  0.19659355644E+04  0.25500000920E-02 0.  1.
       -2    1    3    3    0  502  0.18342965862E+04 -0.62778281168E+03 -0.87891175687E+03  0.21286712055E+04  0.25500000920E-02 0. -1.
</event>
<event>
 5   0  0.2632875E-08  0.3942783E+04  0.7818609E-02  0.8016190E-01
        1   -1    0    0  501    0  0.00000000000E+00  0.00000000000E+00  0.29221714297E+04  0.29221714297E+04  0.50400001928E-02 0.  1.
       -1   -1    0    0    0  501  0.00000000000E+00  0.00000000000E+00 -0.13299643190E+04  0.13299643190E+04  0.50400001928E-02 0. -1.
    10030    2    1    2    0    0  0.00000000000E+00  0.00000000000E+00  0.15922071108E+04  0.42521357487E+04  0.39427826395E+04 0.  0.
        2    1    3    3  502    0  0.54798006768E+03 -0.94884565243E+03 -0.97131982249E+03  0.14642583188E+04  0.25500000920E-02 0. -1.
       -2    1    3    3    0  502 -0.54798006768E+03  0.94884565243E+03  0.25635269332E+04  0.27878774299E+04  0.25500000920E-02 0.  1.
</event>
<event>
 5   0  0.8676098E-08  0.3887689E+04  0.7818609E-02  0.8027594E-01
       -2   -1    0    0    0  501  0.00000000000E+00  0.00000000000E+00  0.19393033670E+04  0.19393033670E+04  0.25500000920E-02 0.  1.
        2   -1    0    0  501    0  0.00000000000E+00  0.00000000000E+00 -0.19483965699E+04  0.19483965699E+04  0.25500000920E-02 0. -1.
    10030    2    1    2    0    0  0.00000000000E+00  0.00000000000E+00 -0.90932029059E+01  0.38876999369E+04  0.38876893025E+04 0.  0.
        3    1    3    3  502    0 -0.91539955447E+03  0.16727457484E+04 -0.38203582588E+03  0.19447329034E+04  0.10100000352E+00 0. -1.
       -3    1    3    3    0  502  0.91539955447E+03 -0.16727457484E+04  0.37294262298E+03  0.19429670335E+04  0.10100000352E+00 0.  1.
</event>
<event>
 5   0  0.8438211E-08  0.3886601E+04  0.7818609E-02  0.8027822E-01
       -2   -1    0    0    0  501  0.00000000000E+00  0.00000000000E+00  0.21160834493E+04  0.21160834493E+04  0.25500000920E-02 0.  1.
        2   -1    0    0  501    0  0.00000000000E+00  0.00000000000E+00 -0.17846255414E+04  0.17846255414E+04  0.25500000920E-02 0. -1.
    10030    2    1    2    0    0  0.00000000000E+00  0.00000000000E+00  0.33145790794E+03  0.39007089907E+04  0.38866008652E+04 0.  0.
        5    1    3    3  502    0 -0.11488242772E+04 -0.72404765486E+03  0.15608656353E+04  0.20689045043E+04  0.46999998093E+01 0.  1.
       -5    1    3    3    0  502  0.11488242772E+04  0.72404765486E+03 -0.12294077273E+04  0.18318044864E+04  0.46999998093E+01 0. -1.
</event>
<event>
 5   0  0.2632875E-08  0.3866995E+04  0.7818609E-02  0.8031929E-01
        1   -1    0    0  501    0  0.00000000000E+00  0.00000000000E+00  0.18891519234E+04  0.18891519234E+04  0.50400001928E-02 0. -1.
       -1   -1    0    0    0  501  0.00000000000E+00  0.00000000000E+00 -0.19788845184E+04  0.19788845184E+04  0.50400001928E-02 0.  1.
    10030    2    1    2    0    0  0.00000000000E+00  0.00000000000E+00 -0.89732594942E+02  0.38680364418E+04  0.38669954715E+04 0.  0.
        5    1    3    3  502    0 -0.74330064435E+03 -0.52933461105E+03  0.16602040905E+04  0.18944631669E+04  0.46999998093E+01 0. -1.
       -5    1    3    3    0  502  0.74330064435E+03  0.52933461105E+03 -0.17499366855E+04  0.19735732749E+04  0.46999998093E+01 0.  1.
</event>
<event>
 5   0  0.2632875E-08  0.3900636E+04  0.7818609E-02  0.8024897E-01
        1   -1    0    0  501    0  0.00000000000E+00  0.00000000000E+00  0.17529868863E+04  0.17529868863E+04  0.50400001928E-02 0.  1.
       -1   -1    0    0    0  501  0.00000000000E+00  0.00000000000E+00 -0.21698626126E+04  0.21698626126E+04  0.50400001928E-02 0. -1.
    10030    2    1    2    0    0  0.00000000000E+00  0.00000000000E+00 -0.41687572626E+03  0.39228494989E+04  0.39006362071E+04 0.  0.
        3    1    3    3  502    0  0.62664277828E+03 -0.18458580798E+04 -0.14589470246E+03  0.19547783753E+04  0.10100000352E+00 0. -1.
       -3    1    3    3    0  502 -0.62664277828E+03  0.18458580798E+04 -0.27098102381E+03  0.19680711236E+04  0.10100000352E+00 0.  1.
</event>
<event>
 5   0  0.8676098E-08  0.3909882E+04  0.7818609E-02  0.8022977E-01
       -2   -1    0    0    0  501  0.00000000000E+00  0.00000000000E+00  0.21404785771E+04  0.21404785771E+04  0.25500000920E-02 0. -1.
        2   -1    0    0  501    0  0.00000000000E+00  0.00000000000E+00 -0.17854858296E+04  0.17854858296E+04  0.25500000920E-02 0.  1.
    10030    2    1    2    0    0  0.00000000000E+00  0.00000000000E+00  0.35499274747E+03  0.39259644066E+04  0.39098819255E+04 0.  0.
        3    1    3    3  502    0  0.70361548240E+03  0.12201957444E+04 -0.11837501159E+04  0.18398958527E+04  0.10100000352E+00 0.  1.
       -3    1    3    3    0  502 -0.70361548240E+03 -0.12201957444E+04  0.15387428634E+04  0.20860685539E+04  0.10100000352E+00 0. -1.
</event>
<event>
 5   0  0.8551754E-08  0.3912186E+04  0.7818609E-02  0.8022500E-01
        2   -1    0    0  501    0  0.00000000000E+00  0.00000000000E+00  0.25048321179E+04  0.25048321179E+04  0.25500000920E-02 0. -1.
       -2   -1    0    0    0  501  0.00000000000E+00  0.00000000000E+00 -0.15275671750E+04  0.15275671750E+04  0.25500000920E-02 0.  1.
    10030    2    1    2    0    0  0.00000000000E+00  0.00000000000E+00  0.97726494282E+03  0.40323992929E+04  0.39121857431E+04 0.  0.
        1    1    3    3  502    0  0.12942376081E+04 -0.66455748311E+03 -0.85906620840E+03  0.16895805352E+04  0.50400001928E-02 0.  1.
       -1    1    3    3    0  502 -0.12942376081E+04  0.66455748311E+03  0.18363311512E+04  0.23428187577E+04  0.50400001928E-02 0. -1.
</event>
<event>
 5   0  0.8551754E-08  0.3891907E+04  0.7818609E-02  0.8026715E-01
       -2   -1    0    0    0  501  0.00000000000E+00  0.00000000000E+00  0.26419418060E+04  0.26419418060E+04  0.25500000920E-02 0. -1.
        2   -1    0    0  501    0  0.00000000000E+00  0.00000000000E+00 -0.14333147204E+04  0.14333147204E+04  0.25500000920E-02 0.  1.
    10030    2    1    2    0    0  0.00000000000E+00  0.00000000000E+00  0.12086270855E+04  0.40752565264E+04  0.38919065154E+04 0.  0.
        1    1    3    3  502    0 -0.18639733736E+04  0.30773919863E+03  0.10928037405E+04  0.21825031883E+04  0.50400001928E-02 0. -1.
       -1    1    3    3    0  502  0.18639733736E+04 -0.30773919863E+03  0.11582334508E+03  0.18927533381E+04  0.50400001928E-02 0.  1.
</event>
<event>
 5   0  0.8476262E-08  0.3901445E+04  0.7818609E-02  0.8024729E-01
        2   -1    0    0  501    0  0.00000000000E+00  0.00000000000E+00  0.19465167204E+04  0.19465167204E+04  0.25500000920E-02 0.  1.
       -2   -1    0    0    0  501  0.00000000000E+00  0.00000000000E+00 -0.19549378007E+04  0.19549378007E+04  0.25500000920E-02 0. -1.
    10030    2    1    2    0    0  0.00000000000E+00  0.00000000000E+00 -0.84210803006E+01  0.39014545211E+04  0.39014454328E+04 0.  0.
        2    1    3    3  502    0 -0.12356992277E+03  0.15108110959E+04  0.12235950008E+04  0.19480771081E+04  0.25500000920E-02 0.  1.
       -2    1    3    3    0  502  0.12356992277E+03 -0.15108110959E+04 -0.12320160811E+04  0.19533774129E+04  0.25500000920E-02 0. -1.
</event>
<event>
 5   0  0.2632875E-08  0.3918947E+04  0.7818609E-02  0.8021100E-01
        1   -1    0    0  501    0  0.00000000000E+00  0.00000000000E+00  0.28543023288E+04  0.28543023288E+04  0.50400001928E-02 0.  1.
       -1   -1    0    0    0  501  0.00000000000E+00  0.00000000000E+00 -0.13451749197E+04  0.13451749197E+04  0.50400001928E-02 0. -1.
    10030    2    1    2    0    0  0.00000000000E+00  0.00000000000E+00  0.15091274091E+04  0.41994772485E+04  0.39189467493E+04 0.  0.
        1    1    3    3  502    0 -0.13852506216E+04 -0.12608412394E+03 -0.72434503268E+03  0.15682768306E+04  0.50400001928E-02 0. -1.
       -1    1    3    3    0  502  0.13852506216E+04  0.12608412394E+03  0.22334724418E+04  0.26312004179E+04  0.50400001928E-02 0.  1.
</event>
<event>
 5   0  0.8551754E-08  0.3902778E+04  0.7818609E-02  0.8024452E-01
       -2   -1    0    0    0  501  0.00000000000E+00  0.00000000000E+00  0.15921495409E+04  0.15921495409E+04  0.25500000920E-02 0.  1.
        2   -1    0    0  501    0  0.00000000000E+00  0.00000000000E+00 -0.23916837135E+04  0.23916837135E+04  0.25500000920E-02 0. -1.
    10030    2    1    2    0    0  0.00000000000E+00  0.00000000000E+00 -0.79953417264E+03  0.39838332544E+04  0.39027775373E+04 0.  0.
        1    1    3    3  502    0 -0.15729614291E+04 -0.11090044563E+04 -0.72866945392E+03  0.20579255853E+04  0.50400001928E-02 0.  1.
       -1    1    3    3    0  502  0.15729614291E+04  0.11090044563E+04 -0.70864718720E+02  0.19259076691E+04  0.50400001928E-02 0. -1.
</event>
<event>
 5   0  0.8342802E-08  0.3820619E+04  0.7818609E-02  0.8041744E-01
       -2   -1    0    0    0  501  0.00000000000E+00  0.00000000000E+00  0.25991770774E+04  0.25991770774E+04  0.25500000920E-02 0. -1.
        2   -1    0    0  501    0  0.00000000000E+00  0.00000000000E+00 -0.14040148744E+04  0.14040148744E+04  0.25500000920E-02 0.  1.
    10030    2    1    2    0    0  0.00000000000E+00  0.00000000000E+00  0.11951622030E+04  0.40031919518E+04  0.38206194670E+04 0.  0.
        4    1    3    3  502    0 -0.10037645361E+04 -0.66188057139E+03  0.21529886022E+04  0.24659664776E+04  0.12699999809E+01 0. -1.
       -4    1    3    3    0  502  0.10037645361E+04  0.66188057139E+03 -0.95782639917E+03  0.15372254742E+04  0.12699999809E+01 0.  1.
</event>
<event>
 5   0  0.8676098E-08  0.3855909E+04  0.7818609E-02  0.8034262E-01
        2   -1    0    0  501    0  0.00000000000E+00  0.00000000000E+00  0.17916574593E+04  0.17916574593E+04  0.25500000920E-02 0.  1.
       -2   -1    0    0    0  501  0.00000000000E+00  0.00000000000E+00 -0.20746204509E+04  0.20746204509E+04  0.25500000920E-02 0. -1.
    10030    2    1    2    0    0  0.00000000000E+00  0.00000000000E+00 -0.28296299158E+03  0.38662779102E+04  0.38559093382E+04 0.  0.
        3    1    3    3  502    0 -0.15252360917E+04  0.71031600982E+03 -0.10853496943E+04  0.20022182544E+04  0.10100000352E+00 0. -1.
       -3    1    3    3    0  502  0.15252360917E+04 -0.71031600982E+03  0.80238670276E+03  0.18640596557E+04  0.10100000352E+00 0.  1.
</event>
<event>
 5   0  0.2632875E-08  0.3923239E+04  0.7818609E-02  0.8020213E-01
       -1   -1    0    0    0  501  0.00000000000E+00  0.00000000000E+00  0.13315783066E+04  0.13315783067E+04  0.50400001928E-02 0. -1.
        1   -1    0    0  501    0  0.00000000000E+00  0.00000000000E+00 -0.28897663741E+04  0.28897663741E+04  0.50400001928E-02 0.  1.
    10030    2    1    2    0    0  0.00000000000E+00  0.00000000000E+00 -0.15581880674E+04  0.42213446807E+04  0.39232385678E+04 0.  0.
        5    1    3    3  502    0  0.91977431406E+03  0.15175621707E+04 -0.16786509612E+04  0.24427179269E+04  0.46999998093E+01 0.  1.
       -5    1    3    3    0  502 -0.91977431406E+03 -0.15175621707E+04  0.12046289381E+03  0.17786267538E+04  0.46999998093E+01 0. -1.
</event>
<event>
 5   0  0.2632875E-08  0.3905035E+04  0.7818609E-02  0.8023983E-01
        1   -1    0    0  501    0  0.00000000000E+00  0.00000000000E+00  0.21421503757E+04  0.21421503757E+04  0.50400001928E-02 0.  1.
       -1   -1    0    0    0  501  0.00000000000E+00  0.00000000000E+00 -0.17796719420E+04  0.17796719420E+04  0.50400001928E-02 0. -1.
    10030    2    1    2    0    0  0.00000000000E+00  0.00000000000E+00  0.36247843373E+03  0.39218223177E+04  0.39050351697E+04 0.  0.
        2    1    3    3  502    0  0.99182710329E+03  0.10810166461E+04 -0.11127120323E+04  0.18413163929E+04  0.25500000920E-02 0. -1.
       -2    1    3    3    0  502 -0.99182710329E+03 -0.10810166461E+04  0.14751904660E+04  0.20805059248E+04  0.25500000920E-02 0.  1.
</event>
<event>
 5   0  0.8551754E-08  0.3906841E+04  0.7818609E-02  0.8023608E-01
        2   -1    0    0  501    0  0.00000000000E+00  0.00000000000E+00  0.17785238143E+04  0.17785238143E+04  0.25500000920E-02 0.  1.
       -2   -1    0    0    0  501  0.00000000000E+00  0.00000000000E+00 -0.21455162302E+04  0.21455162302E+04  0.25500000920E-02 0. -1.
    10030    2    1    2    0    0  0.00000000000E+00  0.00000000000E+00 -0.36699241593E+03  0.39240400445E+04  0.39068410305E+04 0.  0.
        1    1    3    3  502    0  0.35018199692E+03 -0.88263088315E+03  0.15311179243E+04  0.18016622339E+04  0.50400001928E-02 0.  1.
       -1    1    3    3    0  502 -0.35018199692E+03  0.88263088315E+03 -0.18981103403E+04  0.21223778106E+04  0.50400001928E-02 0. -1.
</event>
<event>
 5   0  0.8342802E-08  0.3926663E+04  0.7818609E-02  0.8019507E-01
       -2   -1    0    0    0  501  0.00000000000E+00  0.00000000000E+00  0.16439298237E+04  0.16439298237E+04  0.25500000920E-02 0. -1.
        2   -1    0    0  501    0  0.00000000000E+00  0.00000000000E+00 -0.23447900452E+04  0.23447900453E+04  0.25500000920E-02 0.  1.
    10030    2    1    2    0    0  0.00000000000E+00  0.00000000000E+00 -0.70086022152E+03  0.39887198690E+04  0.39266628507E+04 0.  0.
        4    1    3    3  502    0  0.89897497151E+03 -0.89166334820E+03  0.11737665081E+04  0.17265424855E+04  0.12699999809E+01 0. -1.
       -4    1    3    3    0  502 -0.89897497151E+03  0.89166334820E+03 -0.18746267296E+04  0.22621773835E+04  0.12699999809E+01 0.  1.
</event>
<event>
 5   0  0.8676098E-08  0.3890119E+04  0.7818609E-02  0.8027087E-01
       -2   -1    0    0    0  501  0.00000000000E+00  0.00000000000E+00  0.27275438246E+04  0.27275438246E+04  0.25500000920E-02 0.  1.
        2   -1    0    0  501    0  0.00000000000E+00  0.00000000000E+00 -0.13870565025E+04  0.13870565025E+04  0.25500000920E-02 0. -1.
    10030    2    1    2    0    0  0.00000000000E+00  0.00000000000E+00  0.13404873221E+04  0.41146003271E+04  0.38901194828E+04 0.  0.
        3    1    3    3  502    0 -0.12693067249E+04  0.11353794907E+04 -0.32367935892E+03  0.17334919923E+04  0.10100000352E+00 0. -1.
       -3    1    3    3    0  502  0.12693067249E+04 -0.11353794907E+04  0.16641666811E+04  0.23811083348E+04  0.10100000352E+00 0.  1.
</event>
<event>
 5   0  0.2632875E-08  0.3939844E+04  0.7818609E-02  0.8016793E-01
       -1   -1    0    0    0  501  0.00000000000E+00  0.00000000000E+00  0.19057406178E+04  0.19057406178E+04  0.50400001928E-02 0.  1.
        1   -1    0    0  501    0  0.00000000000E+00  0.00000000000E+00 -0.20362651406E+04  0.20362651406E+04  0.50400001928E-02 0. -1.
    10030    2    1    2    0    0  0.00000000000E+00  0.00000000000E+00 -0.13052452281E+03  0.39420057585E+04  0.39398442544E+04 0.  0.
        3    1    3    3  502    0 -0.15062917056E+04  0.15935570287E+03  0.11949064845E+04  0.19292771857E+04  0.10100000352E+00 0.  1.
       -3    1    3    3    0  502  0.15062917056E+04 -0.15935570287E+03 -0.13254310073E+04  0.20127285728E+04  0.10100000352E+00 0. -1.
</event>
<event>
 5   0  0.8476262E-08  0.3896021E+04  0.7818609E-02  0.8025857E-01
        2   -1    0    0  501    0  0.00000000000E+00  0.00000000000E+00  0.21344861832E+04  0.21344861832E+04  0.25500000920E-02 0. -1.
       -2   -1    0    0    0  501  0.00000000000E+00  0.00000000000E+00 -0.17778260047E+04  0.17778260047E+04  0.25500000920E-02 0.  1.
    10030    2    1    2    0    0  0.00000000000E+00  0.00000000000E+00  0.35666017851E+03  0.39123121879E+04  0.38960210693E+04 0.  0.
        2    1    3    3  502    0  0.74745007331E+03 -0.64900405856E+03  0.18630991819E+04  0.21097455869E+04  0.25500000920E-02 0. -1.
       -2    1    3    3    0  502 -0.74745007331E+03  0.64900405856E+03 -0.15064390034E+04  0.18025666010E+04  0.25500000920E-02 0.  1.
</event>
<event>
 5   0  0.2632875E-08  0.3896673E+04  0.7818609E-02  0.8025721E-01
        1   -1    0    0  501    0  0.00000000000E+00  0.00000000000E+00  0.22708245941E+04  0.22708245941E+04  0.50400001928E-02 0. -1.
       -1   -1    0    0    0  501  0.00000000000E+00  0.00000000000E+00 -0.16716462374E+04  0.16716462374E+04  0.50400001928E-02 0.  1.
    10030    2    1    2    0    0  0.00000000000E+00  0.00000000000E+00  0.59917835663E+03  0.39424708315E+04  0.38966731393E+04 0.  0.
        1    1    3    3  502    0  0.10717241580E+04  0.10210268010E+04 -0.98215735429E+03  0.17764350447E+04  0.50400001928E-02 0.  1.
       -1    1    3    3    0  502 -0.10717241580E+04 -0.10210268010E+04  0.15813357109E+04  0.21660357869E+04  0.50400001928E-02 0. -1.
</event>
<event>
 5   0  0.2632875E-08  0.3910074E+04  0.7818609E-02  0.8022937E-01
        1   -1    0    0  501    0  0.00000000000E+00  0.00000000000E+00  0.24868542068E+04  0.24868542069E+04  0.50400001928E-02 0. -1.
       -1   -1    0    0    0  501  0.00000000000E+00  0.00000000000E+00 -0.15369493132E+04  0.15369493132E+04  0.50400001928E-02 0.  1.
    10030    2    1    2    0    0  0.00000000000E+00  0.00000000000E+00  0.94990489369E+03  0.40238035200E+04  0.39100735876E+04 0.  0.
        2    1    3    3  502    0  0.12180830744E+04  0.24827040217E+03  0.20277494581E+04  0.23784727102E+04  0.25500000920E-02 0. -1.
       -2    1    3    3    0  502 -0.12180830744E+04 -0.24827040217E+03 -0.10778445644E+04  0.16453308098E+04  0.25500000920E-02 0.  1.
</event>
<event>
 5   0  0.8438211E-08  0.3906646E+04  0.7818609E-02  0.8023648E-01
        2   -1    0    0  501    0  0.00000000000E+00  0.00000000000E+00  0.24434016088E+04  0.24434016088E+04  0.25500000920E-02 0.  1.
       -2   -1    0    0    0  501  0.00000000000E+00  0.00000000000E+00 -0.15615406627E+04  0.15615406627E+04  0.25500000920E-02 0. -1.
    10030    2    1    2    0    0  0.00000000000E+00  0.00000000000E+00  0.88186094608E+03  0.40049422716E+04  0.39066461153E+04 0.  0.
        5    1    3    3  502    0  0.28031779031E+03  0.14664995519E+04  0.17320843064E+04  0.22867743951E+04  0.46999998093E+01 0.  1.
       -5    1    3    3    0  502 -0.28031779031E+03 -0.14664995519E+04 -0.85022336037E+03  0.17181678765E+04  0.46999998093E+01 0. -1.
</event>
<event>
 5   0  0.2632875E-08  0.3899300E+04  0.7818609E-02  0.8025175E-01
        1   -1    0    0  501    0  0.00000000000E+00  0.00000000000E+00  0.22149844825E+04  0.22149844825E+04  0.50400001928E-02 0.  1.
       -1   -1    0    0    0  501  0.00000000000E+00  0.00000000000E+00 -0.17160996844E+04  0.17160996844E+04  0.50400001928E-02 0. -1.
    10030    2    1    2    0    0  0.00000000000E+00  0.00000000000E+00  0.49888479805E+03  0.39310841669E+04  0.38992995122E+04 0.  0.
        1    1    3    3  502    0  0.73716167921E+03  0.14290814285E+04  0.13609049899E+04  0.21065952298E+04  0.50400001928E-02 0.  1.
       -1    1    3    3    0  502 -0.73716167921E+03 -0.14290814285E+04 -0.86202019183E+03  0.18244889372E+04  0.50400001928E-02 0. -1.
</event>
<event>
 5   0  0.8342802E-08  0.3926724E+04  0.7818609E-02  0.8019494E-01
        2   -1    0    0  501    0  0.00000000000E+00  0.00000000000E+00  0.13265648182E+04  0.13265648182E+04  0.25500000920E-02 0.  1.
       -2   -1    0    0    0  501  0.00000000000E+00  0.00000000000E+00 -0.29058435836E+04  0.29058435836E+04  0.25500000920E-02 0. -1.
    10030    2    1    2    0    0  0.00000000000E+00  0.00000000000E+00 -0.15792787654E+04  0.42324084018E+04  0.39267237566E+04 0.  0.
        4    1    3    3  502    0 -0.48601115300E+03  0.18807290427E+04 -0.10972315312E+04  0.22309789821E+04  0.12699999809E+01 0. -1.
       -4    1    3    3    0  502  0.48601115300E+03 -0.18807290427E+04 -0.48204723420E+03  0.20014294196E+04  0.12699999809E+01 0.  1.
</event>
<event>
 5   0  0.8676098E-08  0.3899929E+04  0.7818609E-02  0.8025044E-01
       -2   -1    0    0    0  501  0.00000000000E+00  0.00000000000E+00  0.16581693874E+04  0.16581693874E+04  0.25500000920E-02 0. -1.
        2   -1    0    0  501    0  0.00000000000E+00  0.00000000000E+00 -0.22931078955E+04  0.22931078955E+04  0.25500000920E-02 0.  1.
    10030    2    1    2    0    0  0.00000000000E+00  0.00000000000E+00 -0.63493850808E+03  0.39512772829E+04  0.38999288785E+04 0.  0.
        3    1    3    3  502    0  0.16285478917E+04 -0.10507151918E+04 -0.99719397218E+02  0.19406479893E+04  0.10100000352E+00 0. -1.
       -3    1    3    3    0  502 -0.16285478917E+04  0.10507151918E+04 -0.53521911086E+03  0.20106292937E+04  0.10100000352E+00 0.  1.
</event>
<event>
 5   0  0.8676098E-08  0.3899495E+04  0.7818609E-02  0.8025134E-01
       -2   -1    0    0    0  501  0.00000000000E+00  0.00000000000E+00  0.25291220420E+04  0.25291220420E+04  0.25500000920E-02 0. -1.
        2   -1    0    0  501    0  0.00000000000E+00  0.00000000000E+00 -0.15030971473E+04  0.15030971473E+04  0.25500000920E-02 0.  1.
    10030    2    1    2    0    0  0.00000000000E+00  0.00000000000E+00  0.10260248948E+04  0.40322191893E+04  0.38994954168E+04 0.  0.
        3    1    3    3  502    0 -0.15039539532E+04  0.95250395810E+03  0.13352986565E+04  0.22253457699E+04  0.10100000352E+00 0.  1.
       -3    1    3    3    0  502  0.15039539532E+04 -0.95250395810E+03 -0.30927376173E+03  0.18068734193E+04  0.10100000352E+00 0. -1.
</event>
<event>
 5   0  0.2632875E-08  0.3890972E+04  0.7818609E-02  0.8026909E-01
       -1   -1    0    0    0  501  0.00000000000E+00  0.00000000000E+00  0.15463462698E+04  0.15463462698E+04  0.50400001928E-02 0. -1.
        1   -1    0    0  501    0  0.00000000000E+00  0.00000000000E+00 -0.24476510682E+04  0.24476510682E+04  0.50400001928E-02 0.  1.
    10030    2    1    2    0    0  0.00000000000E+00  0.00000000000E+00 -0.90130479838E+03  0.39939973380E+04  0.38909721659E+04 0.  0.
        5    1    3    3  502    0 -0.65210703489E+03 -0.12106386521E+04 -0.18633205299E+04  0.23157882066E+04  0.46999998093E+01 0.  1.
       -5    1    3    3    0  502  0.65210703489E+03  0.12106386521E+04  0.96201573152E+03  0.16782091313E+04  0.46999998093E+01 0. -1.
</event>
<event>
 5   0  0.8476262E-08  0.3896147E+04  0.7818609E-02  0.8025831E-01
       -2   -1    0    0    0  501  0.00000000000E+00  0.00000000000E+00  0.14147331322E+04  0.14147331322E+04  0.25500000920E-02 0. -1.
        2   -1    0    0  501    0  0.00000000000E+00  0.00000000000E+00 -0.26824779207E+04  0.26824779207E+04  0.25500000920E-02 0.  1.
    10030    2    1    2    0    0  0.00000000000E+00  0.00000000000E+00 -0.12677447885E+04  0.40972110530E+04  0.38961470152E+04 0.  0.
        2    1    3    3  502    0 -0.43532127889E+03 -0.30242089106E+03 -0.26051853228E+04  0.26585623140E+04  0.25500000920E-02 0.  1.
       -2    1    3    3    0  502  0.43532127889E+03  0.30242089106E+03  0.13374405343E+04  0.14386487390E+04  0.25500000920E-02 0. -1.
</event>
<event>
 5   0  0.8342802E-08  0.3901930E+04  0.7818609E-02  0.8024628E-01
        2   -1    0    0  501    0  0.00000000000E+00  0.00000000000E+00  0.13916618769E+04  0.13916618769E+04  0.25500000920E-02 0. -1.
       -2   -1    0    0    0  501  0.00000000000E+00  0.00000000000E+00 -0.27350495998E+04  0.27350495998E+04  0.25500000920E-02 0.  1.
    10030    2    1    2    0    0  0.00000000000E+00  0.00000000000E+00 -0.13433877229E+04  0.41267114767E+04  0.39019299119E+04 0.  0.
        4    1    3    3  502    0 -0.12837561895E+04  0.12043322792E+04  0.21809091004E+03  0.17736999325E+04  0.12699999809E+01 0. -1.
       -4    1    3    3    0  502  0.12837561895E+04 -0.12043322792E+04 -0.15614786329E+04  0.23530115441E+04  0.12699999809E+01 0.  1.
</event>
<event>
 5   0  0.8342802E-08  0.3884051E+04  0.7818609E-02  0.8028354E-01
       -2   -1    0    0    0  501  0.00000000000E+00  0.00000000000E+00  0.20766886316E+04  0.20766886316E+04  0.25500000920E-02 0.  1.
        2   -1    0    0  501    0  0.00000000000E+00  0.00000000000E+00 -0.18160947656E+04  0.18160947656E+04  0.25500000920E-02 0. -1.
    10030    2    1    2    0    0  0.00000000000E+00  0.00000000000E+00  0.26059386602E+03  0.38927833971E+04  0.38840511601E+04 0.  0.
        4    1    3    3  502    0  0.13859127630E+04  0.82455364882E+03 -0.95417957217E+03  0.18737937921E+04  0.12699999809E+01 0. -1.
       -4    1    3    3    0  502 -0.13859127630E+04 -0.82455364882E+03  0.12147734382E+04  0.20189896051E+04  0.12699999809E+01 0.  1.
</event>
<event>
 5   0  0.2632875E-08  0.3871772E+04  0.7818609E-02  0.8030926E-01
       -1   -1    0    0    0  501  0.00000000000E+00  0.00000000000E+00  0.27666993644E+04  0.27666993644E+04  0.50400001928E-02 0.  1.
        1   -1    0    0  501    0  0.00000000000E+00  0.00000000000E+00 -0.13545579949E+04  0.13545579949E+04  0.50400001928E-02 0. -1.
    10030    2    1    2    0    0  0.00000000000E+00  0.00000000000E+00  0.14121413695E+04  0.41212573594E+04  0.38717720716E+04 0.  0.
        4    1    3    3  502    0 -0.93894828774E+03 -0.77679802934E+03 -0.89505415115E+03  0.15120061547E+04  0.12699999809E+01 0. -1.
       -4    1    3    3    0  502  0.93894828774E+03  0.77679802934E+03  0.23071955207E+04  0.26092512047E+04  0.12699999809E+01 0.  1.
</event>
<event>
 5   0  0.2632875E-08  0.3896540E+04  0.7818609E-02  0.8025749E-01
       -1   -1    0    0    0  501  0.00000000000E+00  0.00000000000E+00  0.22030216177E+04  0.22030216177E+04  0.50400001928E-02 0.  1.
        1   -1    0    0  501    0  0.00000000000E+00  0.00000000000E+00 -0.17229769000E+04  0.17229769000E+04  0.50400001928E-02 0. -1.
    10030    2    1    2    0    0  0.00000000000E+00  0.00000000000E+00  0.48004471770E+03  0.39259985177E+04  0.38965396739E+04 0.  0.
        5    1    3    3  502    0  0.35438755730E+03  0.12929256693E+04 -0.11843435724E+04  0.17888373639E+04  0.46999998093E+01 0. -1.
       -5    1    3    3    0  502 -0.35438755730E+03 -0.12929256693E+04  0.16643882901E+04  0.21371611538E+04  0.46999998093E+01 0.  1.
</event>
<event>
 5   0  0.2632875E-08  0.3892878E+04  0.7818609E-02  0.8026512E-01
        1   -1    0    0  501    0  0.00000000000E+00  0.00000000000E+00  0.15649261667E+04  0.15649261667E+04  0.50400001928E-02 0. -1.
       -1   -1    0    0    0  501  0.00000000000E+00  0.00000000000E+00 -0.24209613013E+04  0.24209613013E+04  0.50400001928E-02 0.  1.
    10030    2    1    2    0    0  0.00000000000E+00  0.00000000000E+00 -0.85603513459E+03  0.39858874679E+04  0.38928784666E+04 0.  0.
        1    1    3    3  502    0 -0.55474124912E+01 -0.18127222912E+04 -0.11539222616E+04  0.21488437506E+04  0.50400001928E-02 0.  1.
       -1    1    3    3    0  502  0.55474124912E+01  0.18127222912E+04  0.29788712705E+03  0.18370437173E+04  0.50400001928E-02 0. -1.
</event>
<event>
 5   0  0.2632875E-08  0.3928356E+04  0.7818609E-02  0.8019157E-01
       -1   -1    0    0    0  501  0.00000000000E+00  0.00000000000E+00  0.23909572083E+04  0.23909572083E+04  0.50400001928E-02 0. -1.
        1   -1    0    0  501    0  0.00000000000E+00  0.00000000000E+00 -0.16135777536E+04  0.16135777536E+04  0.50400001928E-02 0.  1.
    10030    2    1    2    0    0  0.00000000000E+00  0.00000000000E+00  0.77737945470E+03  0.40045349619E+04  0.39283560740E+04 0.  0.
        4    1    3    3  502    0 -0.55988382303E+03  0.11540597990E+04 -0.11276606053E+04  0.17079063114E+04  0.12699999809E+01 0.  1.
       -4    1    3    3    0  502  0.55988382303E+03 -0.11540597990E+04  0.19050400600E+04  0.22966286504E+04  0.12699999809E+01 0. -1.
</event>
<event>
 5   0  0.2632875E-08  0.3905027E+04  0.7818609E-02  0.8023984E-01
       -1   -1    0    0    0  501  0.00000000000E+00  0.00000000000E+00  0.12868879172E+04  0.12868879172E+04  0.50400001928E-02 0. -1.
        1   -1    0    0  501    0  0.00000000000E+00  0.00000000000E+00 -0.29624254653E+04  0.29624254653E+04  0.50400001928E-02 0.  1.
    10030    2    1    2    0    0  0.00000000000E+00  0.00000000000E+00 -0.16755375481E+04  0.42493133825E+04  0.39050272915E+04 0.  0.
        1    1    3    3  502    0 -0.71895934547E+03 -0.93109857567E+03 -0.25335131404E+04  0.27933019762E+04  0.50400001928E-02 0.  1.
       -1    1    3    3    0  502  0.71895934547E+03  0.93109857567E+03  0.85797559229E+03  0.14560114062E+04  0.50400001928E-02 0. -1.
</event>
<event>
 5   0  0.8476262E-08  0.3891921E+04  0.7818609E-02  0.8026712E-01
       -2   -1    0    0    0  501  0.00000000000E+00  0.00000000000E+00  0.17649750137E+04  0.17649750137E+04  0.25500000920E-02 0.  1.
        2   -1    0    0  501    0  0.00000000000E+00  0.00000000000E+00 -0.21455050195E+04  0.21455050195E+04  0.25500000920E-02 0. -1.
    10030    2    1    2    0    0  0.00000000000E+00  0.00000000000E+00 -0.38053000576E+03  0.39104800332E+04  0.38919212485E+04 0.  0.
        2    1    3    3  502    0  0.32256690390E+02 -0.18566678325E+04  0.39432278438E+03  0.18983536005E+04  0.25500000920E-02 0.  1.
       -2    1    3    3    0  502 -0.32256690390E+02  0.18566678325E+04 -0.77485279014E+03  0.20121264326E+04  0.25500000920E-02 0. -1.
</event>
<event>
 5   0  0.2632875E-08  0.3880388E+04  0.7818609E-02  0.8029121E-01
        1   -1    0    0  501    0  0.00000000000E+00  0.00000000000E+00  0.19363306698E+04  0.19363306698E+04  0.50400001928E-02 0. -1.
       -1   -1    0    0    0  501  0.00000000000E+00  0.00000000000E+00 -0.19440646165E+04  0.19440646166E+04  0.50400001928E-02 0.  1.
    10030    2    1    2    0    0  0.00000000000E+00  0.00000000000E+00 -0.77339467252E+01  0.38803952864E+04  0.38803875792E+04 0.  0.
        4    1    3    3  502    0 -0.11537384350E+04  0.11463485514E+04  0.10540212041E+04  0.19380891851E+04  0.12699999809E+01 0. -1.
       -4    1    3    3    0  502  0.11537384350E+04 -0.11463485514E+04 -0.10617551509E+04  0.19423061013E+04  0.12699999809E+01 0.  1.
</event>
<event>
 5   0  0.8476262E-08  0.3877842E+04  0.7818609E-02  0.8029653E-01
        2   -1    0    0  501    0  0.00000000000E+00  0.00000000000E+00  0.16482656641E+04  0.16482656641E+04  0.25500000920E-02 0. -1.
       -2   -1    0    0    0  501  0.00000000000E+00  0.00000000000E+00 -0.22808307970E+04  0.22808307970E+04  0.25500000920E-02 0.  1.
    10030    2    1    2    0    0  0.00000000000E+00  0.00000000000E+00 -0.63256513290E+03  0.39290964612E+04  0.38778422291E+04 0.  0.
        2    1    3    3  502    0 -0.13025913991E+04 -0.23328010233E+03 -0.17521408079E+04  0.21957143189E+04  0.25500000920E-02 0.  1.
       -2    1    3    3    0  502  0.13025913991E+04  0.23328010233E+03  0.11195756750E+04  0.17333821423E+04  0.25500000920E-02 0. -1.
</event>
<event>
 5   0  0.2632875E-08  0.3895255E+04  0.7818609E-02  0.8026017E-01
        1   -1    0    0  501    0  0.00000000000E+00  0.00000000000E+00  0.23034976367E+04  0.23034976367E+04  0.50400001928E-02 0. -1.
       -1   -1    0    0    0  501  0.00000000000E+00  0.00000000000E+00 -0.16467364968E+04  0.16467364969E+04  0.50400001928E-02 0.  1.
    10030    2    1    2    0    0  0.00000000000E+00  0.00000000000E+00  0.65676113981E+03  0.39502341335E+04  0.38952553851E+04 0.  0.
        1    1    3    3  502    0  0.48457955605E+03  0.17756751340E+04 -0.31732766611E+03  0.18677623980E+04  0.50400001928E-02 0.  1.
       -1    1    3    3    0  502 -0.48457955605E+03 -0.17756751340E+04  0.97408880593E+03  0.20824717356E+04  0.50400001928E-02 0. -1.
</event>
<event>
 5   0  0.2632875E-08  0.3880147E+04  0.7818609E-02  0.8029171E-01
        1   -1    0    0  501    0  0.00000000000E+00  0.00000000000E+00  0.28027710040E+04  0.28027710040E+04  0.50400001928E-02 0. -1.
       -1   -1    0    0    0  501  0.00000000000E+00  0.00000000000E+00 -0.13429156694E+04  0.13429156694E+04  0.50400001928E-02 0.  1.
    10030    2    1    2    0    0  0.00000000000E+00  0.00000000000E+00  0.14598553346E+04  0.41456866734E+04  0.38801469554E+04 0.  0.
        5    1    3    3  502    0 -0.26091991389E+03  0.38415103838E+03 -0.12826519426E+04  0.13641368397E+04  0.46999998093E+01 0.  1.
       -5    1    3    3    0  502  0.26091991389E+03 -0.38415103838E+03  0.27425072771E+04  0.27815498336E+04  0.46999998093E+01 0. -1.
</event>
<event>
 5   0  0.8476262E-08  0.3709453E+04  0.7818609E-02  0.8065870E-01
        2   -1    0    0  501    0  0.00000000000E+00  0.00000000000E+00  0.23665125259E+04  0.23665125259E+04  0.25500000920E-02 0. -1.
       -2   -1    0    0    0  501  0.00000000000E+00  0.00000000000E+00 -0.14536201163E+04  0.14536201163E+04  0.25500000920E-02 0.  1.
    10030    2    1    2    0    0  0.00000000000E+00  0.00000000000E+00  0.91289240960E+03  0.38201326422E+04  0.37094529047E+04 0.  0.
        2    1    3    3  502    0 -0.77859054148E+03 -0.45354764680E+03  0.21259586056E+04  0.23090276507E+04  0.25500000920E-02 0. -1.
       -2    1    3    3    0  502  0.77859054148E+03  0.45354764680E+03 -0.12130661960E+04  0.15111049914E+04  0.25500000920E-02 0.  1.
</event>
<event>
 5   0  0.8676098E-08  0.3905770E+04  0.7818609E-02  0.8023830E-01
        2   -1    0    0  501    0  0.00000000000E+00  0.00000000000E+00  0.28041560030E+04  0.28041560030E+04  0.25500000920E-02 0. -1.
       -2   -1    0    0    0  501  0.00000000000E+00  0.00000000000E+00 -0.13600383849E+04  0.13600383849E+04  0.25500000920E-02 0.  1.
    10030    2    1    2    0    0  0.00000000000E+00  0.00000000000E+00  0.14441176180E+04  0.41641943879E+04  0.39057699888E+04 0.  0.
        3    1    3    3  502    0 -0.11224533056E+04 -0.10900722203E+04 -0.52384992764E+03  0.16500235227E+04  0.10100000352E+00 0.  1.
       -3    1    3    3    0  502  0.11224533056E+04  0.10900722203E+04  0.19679675457E+04  0.25141708652E+04  0.10100000352E+00 0. -1.
</event>
<event>
 5   0  0.8438211E-08  0.3866783E+04  0.7818609E-02  0.8031973E-01
        2   -1    0    0  501    0  0.00000000000E+00  0.00000000000E+00  0.25538544393E+04  0.25538544393E+04  0.25500000920E-02 0.  1.
       -2   -1    0    0    0  501  0.00000000000E+00  0.00000000000E+00 -0.14636708755E+04  0.14636708755E+04  0.25500000920E-02 0. -1.
    10030    2    1    2    0    0  0.00000000000E+00  0.00000000000E+00  0.10901835638E+04  0.40175253149E+04  0.38667828298E+04 0.  0.
        5    1    3    3  502    0 -0.10424129493E+04 -0.45948311183E+01  0.22368609045E+04  0.24678360289E+04  0.46999998093E+01 0.  1.
       -5    1    3    3    0  502  0.10424129493E+04  0.45948311183E+01 -0.11466773407E+04  0.15496892860E+04  0.46999998093E+01 0. -1.
</event>
<event>
 5   0  0.2632875E-08  0.3902649E+04  0.7818609E-02  0.8024478E-01
       -1   -1    0    0    0  501  0.00000000000E+00  0.00000000000E+00  0.25500558250E+04  0.25500558250E+04  0.50400001928E-02 0.  1.
        1   -1    0    0  501    0  0.00000000000E+00  0.00000000000E+00 -0.14931701644E+04  0.14931701644E+04  0.50400001928E-02 0. -1.
    10030    2    1    2    0    0  0.00000000000E+00  0.00000000000E+00  0.10568856605E+04  0.40432259894E+04  0.39026489852E+04 0.  0.
        4    1    3    3  502    0 -0.10739129521E+04  0.19583678057E+03 -0.11472308014E+04  0.15835975492E+04  0.12699999809E+01 0. -1.
       -4    1    3    3    0  502  0.10739129521E+04 -0.19583678057E+03  0.22041164619E+04  0.24596284402E+04  0.12699999809E+01 0.  1.
</event>
<event>
 5   0  0.2632875E-08  0.3887910E+04  0.7818609E-02  0.8027548E-01
        1   -1    0    0  501    0  0.00000000000E+00  0.00000000000E+00  0.13427621600E+04  0.13427621600E+04  0.50400001928E-02 0. -1.
       -1   -1    0    0    0  501  0.00000000000E+00  0.00000000000E+00 -0.28143193965E+04  0.28143193965E+04  0.50400001928E-02 0.  1.
    10030    2    1    2    0    0  0.00000000000E+00  0.00000000000E+00 -0.14715572365E+04  0.41570815565E+04  0.38879102829E+04 0.  0.
        1    1    3    3  502    0  0.11386442284E+02  0.18594751102E+04 -0.13417462604E+04  0.22930460885E+04  0.50400001928E-02 0.  1.
       -1    1    3    3    0  502 -0.11386442284E+02 -0.18594751102E+04 -0.12981097603E+03  0.18640354680E+04  0.50400001928E-02 0. -1.
</event>
<event>
 5   0  0.2632875E-08  0.3898272E+04  0.7818609E-02  0.8025389E-01
       -1   -1    0    0    0  501  0.00000000000E+00  0.00000000000E+00  0.15050223267E+04  0.15050223267E+04  0.50400001928E-02 0.  1.
        1   -1    0    0  501    0  0.00000000000E+00  0.00000000000E+00 -0.25243021145E+04  0.25243021145E+04  0.50400001928E-02 0. -1.
    10030    2    1    2    0    0  0.00000000000E+00  0.00000000000E+00 -0.10192797877E+04  0.40293244412E+04  0.38982719462E+04 0.  0.
        5    1    3    3  502    0 -0.10622928622E+04 -0.67754508317E+03 -0.20467712768E+04  0.24035033210E+04  0.46999998093E+01 0. -1.
       -5    1    3    3    0  502  0.10622928622E+04  0.67754508317E+03  0.10274914890E+04  0.16258211202E+04  0.46999998093E+01 0.  1.
</event>
<event>
 5   0  0.8676098E-08  0.3859925E+04  0.7818609E-02  0.8033416E-01
        2   -1    0    0  501    0  0.00000000000E+00  0.00000000000E+00  0.15846425181E+04  0.15846425181E+04  0.25500000920E-02 0. -1.
       -2   -1    0    0    0  501  0.00000000000E+00  0.00000000000E+00 -0.23505337679E+04  0.23505337679E+04  0.25500000920E-02 0.  1.
    10030    2    1    2    0    0  0.00000000000E+00  0.00000000000E+00 -0.76589124975E+03  0.39351762860E+04  0.38599252577E+04 0.  0.
        3    1    3    3  502    0 -0.98430178415E+03 -0.12303069055E+04  0.75334628429E+03  0.17464351457E+04  0.10100000352E+00 0. -1.
       -3    1    3    3    0  502  0.98430178415E+03  0.12303069055E+04 -0.15192375340E+04  0.21887411402E+04  0.10100000352E+00 0.  1.
</event>
<event>
 5   0  0.8476262E-08  0.3896498E+04  0.7818609E-02  0.8025758E-01
        2   -1    0    0  501    0  0.00000000000E+00  0.00000000000E+00  0.21828096920E+04  0.21828096920E+04  0.25500000920E-02 0. -1.
       -2   -1    0    0    0  501  0.00000000000E+00  0.00000000000E+00 -0.17388939746E+04  0.17388939746E+04  0.25500000920E-02 0.  1.
    10030    2    1    2    0    0  0.00000000000E+00  0.00000000000E+00  0.44391571739E+03  0.39217036667E+04  0.38964982337E+04 0.  0.
        2    1    3    3  502    0  0.11573713452E+04 -0.12634691135E+04  0.11552165410E+04  0.20664916860E+04  0.25500000920E-02 0. -1.
       -2    1    3    3    0  502 -0.11573713452E+04  0.12634691135E+04 -0.71130082360E+03  0.18552119807E+04  0.25500000920E-02 0.  1.
</event>
<event>
 5   0  0.2632875E-08  0.3738072E+04  0.7818609E-02  0.8059577E-01
       -1   -1    0    0    0  501  0.00000000000E+00  0.00000000000E+00  0.17490807743E+04  0.17490807743E+04  0.50400001928E-02 0. -1.
        1   -1    0    0  501    0  0.00000000000E+00  0.00000000000E+00 -0.19972178396E+04  0.19972178396E+04  0.50400001928E-02 0.  1.
    10030    2    1    2    0    0  0.00000000000E+00  0.00000000000E+00 -0.24813706529E+03  0.37462986140E+04  0.37380718695E+04 0.  0.
        2    1    3    3  502    0 -0.35375502427E+03 -0.22707249955E+03  0.17010904059E+04  0.17522594289E+04  0.25500000920E-02 0. -1.
       -2    1    3    3    0  502  0.35375502427E+03  0.22707249955E+03 -0.19492274712E+04  0.19940391851E+04  0.25500000920E-02 0.  1.
</event>
<event>
 5   0  0.2632875E-08  0.3812911E+04  0.7818609E-02  0.8043390E-01
        1   -1    0    0  501    0  0.00000000000E+00  0.00000000000E+00  0.25405541381E+04  0.25405541381E+04  0.50400001928E-02 0. -1.
       -1   -1    0    0    0  501  0.00000000000E+00  0.00000000000E+00 -0.14306218657E+04  0.14306218657E+04  0.50400001928E-02 0.  1.
    10030    2    1    2    0    0  0.00000000000E+00  0.00000000000E+00  0.11099322724E+04  0.39711760038E+04  0.38129108571E+04 0.  0.
        2    1    3    3  502    0  0.73492450419E+03  0.10467148158E+04 -0.91752331215E+03  0.15740314358E+04  0.25500000920E-02 0.  1.
       -2    1    3    3    0  502 -0.73492450419E+03 -0.10467148158E+04  0.20274555846E+04  0.23971445680E+04  0.25500000920E-02 0. -1.
</event>
<event>
 5   0  0.8342802E-08  0.3902814E+04  0.7818609E-02  0.8024444E-01
       -2   -1    0    0    0  501  0.00000000000E+00  0.00000000000E+00  0.17705673013E+04  0.17705673013E+04  0.25500000920E-02 0.  1.
        2   -1    0    0  501    0  0.00000000000E+00  0.00000000000E+00 -0.21507173353E+04  0.21507173353E+04  0.25500000920E-02 0. -1.
    10030    2    1    2    0    0  0.00000000000E+00  0.00000000000E+00 -0.38015003397E+03  0.39212846366E+04  0.39028142606E+04 0.  0.
        4    1    3    3  502    0  0.10010848547E+04  0.14670261573E+04  0.62223840629E+03  0.18818923667E+04  0.12699999809E+01 0.  1.
       -4    1    3    3    0  502 -0.10010848547E+04 -0.14670261573E+04 -0.10023884403E+04  0.20393922699E+04  0.12699999809E+01 0. -1.
</event>
<event>
 5   0  0.2632875E-08  0.3907268E+04  0.7818609E-02  0.8023519E-01
       -1   -1    0    0    0  501  0.00000000000E+00  0.00000000000E+00  0.15956493809E+04  0.15956493809E+04  0.50400001928E-02 0.  1.
        1   -1    0    0  501    0  0.00000000000E+00  0.00000000000E+00 -0.23919322211E+04  0.23919322212E+04  0.50400001928E-02 0. -1.
    10030    2    1    2    0    0  0.00000000000E+00  0.00000000000E+00 -0.79628284024E+03  0.39875816021E+04  0.39072676734E+04 0.  0.
        3    1    3    3  502    0  0.19573218962E+03 -0.17480840213E+04 -0.12656589962E+04  0.21670259667E+04  0.10100000352E+00 0. -1.
       -3    1    3    3    0  502 -0.19573218962E+03  0.17480840213E+04  0.46937615594E+03  0.18205556354E+04  0.10100000352E+00 0.  1.
</event>
<event>
 5   0  0.8551754E-08  0.3902348E+04  0.7818609E-02  0.8024541E-01
       -2   -1    0    0    0  501  0.00000000000E+00  0.00000000000E+00  0.14910540488E+04  0.14910540488E+04  0.25500000920E-02 0.  1.
        2   -1    0    0  501    0  0.00000000000E+00  0.00000000000E+00 -0.25532807283E+04  0.25532807283E+04  0.25500000920E-02 0. -1.
    10030    2    1    2    0    0  0.00000000000E+00  0.00000000000E+00 -0.10622266796E+04  0.40443347771E+04  0.39023477896E+04 0.  0.
        1    1    3    3  502    0 -0.34309037596E+03  0.17374179948E+03  0.14513864575E+04  0.15014725665E+04  0.50400001928E-02 0.  1.
       -1    1    3    3    0  502  0.34309037596E+03 -0.17374179948E+03 -0.25136131371E+04  0.25428622106E+04  0.50400001928E-02 0. -1.
</event>
<event>
 5   0  0.2632875E-08  0.3909190E+04  0.7818609E-02  0.8023121E-01
       -1   -1    0    0    0  501  0.00000000000E+00  0.00000000000E+00  0.26110979850E+04  0.26110979850E+04  0.50400001928E-02 0. -1.
        1   -1    0    0  501    0  0.00000000000E+00  0.00000000000E+00 -0.14631553877E+04  0.14631553877E+04  0.50400001928E-02 0.  1.
    10030    2    1    2    0    0  0.00000000000E+00  0.00000000000E+00  0.11479425973E+04  0.40742533727E+04  0.39091902407E+04 0.  0.
        2    1    3    3  502    0  0.35573648607E+03 -0.13414214005E+04  0.20084909423E+04  0.24413102397E+04  0.25500000920E-02 0. -1.
       -2    1    3    3    0  502 -0.35573648607E+03  0.13414214005E+04 -0.86054834498E+03  0.16329431329E+04  0.25500000920E-02 0.  1.
</event>
<event>
 5   0  0.2632875E-08  0.3785405E+04  0.7818609E-02  0.8049294E-01
        1   -1    0    0  501    0  0.00000000000E+00  0.00000000000E+00  0.27309233227E+04  0.27309233227E+04  0.50400001928E-02 0. -1.
       -1   -1    0    0    0  501  0.00000000000E+00  0.00000000000E+00 -0.13117626507E+04  0.13117626507E+04  0.50400001928E-02 0.  1.
    10030    2    1    2    0    0  0.00000000000E+00  0.00000000000E+00  0.14191606720E+04  0.40426859734E+04  0.37854052447E+04 0.  0.
        4    1    3    3  502    0  0.12013770594E+04 -0.13025795386E+04 -0.67865712582E+00  0.17720108257E+04  0.12699999809E+01 0.  1.
       -4    1    3    3    0  502 -0.12013770594E+04  0.13025795386E+04  0.14198393291E+04  0.22706751477E+04  0.12699999809E+01 0. -1.
</event>
<event>
 5   0  0.8342802E-08  0.3787028E+04  0.7818609E-02  0.8048944E-01
       -2   -1    0    0    0  501  0.00000000000E+00  0.00000000000E+00  0.13547222288E+04  0.13547222288E+04  0.25500000920E-02 0. -1.
        2   -1    0    0  501    0  0.00000000000E+00  0.00000000000E+00 -0.26465910207E+04  0.26465910207E+04  0.25500000920E-02 0.  1.
    10030    2    1    2    0    0  0.00000000000E+00  0.00000000000E+00 -0.12918687919E+04  0.40013132495E+04  0.37870282208E+04 0.  0.
        4    1    3    3  502    0 -0.82478575249E+03  0.27530794941E+03  0.11313039077E+04  0.14268553357E+04  0.12699999809E+01 0. -1.
       -4    1    3    3    0  502  0.82478575249E+03 -0.27530794941E+03 -0.24231726996E+04  0.25744579138E+04  0.12699999809E+01 0.  1.
</event>
<event>
 5   0  0.8476262E-08  0.3897769E+04  0.7818609E-02  0.8025493E-01
       -2   -1    0    0    0  501  0.00000000000E+00  0.00000000000E+00  0.14326189311E+04  0.14326189311E+04  0.25500000920E-02 0.  1.
        2   -1    0    0  501    0  0.00000000000E+00  0.00000000000E+00 -0.26511939705E+04  0.26511939705E+04  0.25500000920E-02 0. -1.
    10030    2    1    2    0    0  0.00000000000E+00  0.00000000000E+00 -0.12185750393E+04  0.40838129016E+04  0.38977689373E+04 0.  0.
        2    1    3    3  502    0 -0.17361280500E+04 -0.58723521450E+03 -0.13036137020E+04  0.22490874787E+04  0.25500000920E-02 0. -1.
       -2    1    3    3    0  502  0.17361280500E+04  0.58723521450E+03  0.85038662648E+02  0.18347254229E+04  0.25500000920E-02 0.  1.
</event>
<event>
 5   0  0.2632875E-08  0.3957041E+04  0.7818609E-02  0.8013269E-01
        1   -1    0    0  501    0  0.00000000000E+00  0.00000000000E+00  0.17281809687E+04  0.17281809687E+04  0.50400001928E-02 0.  1.
       -1   -1    0    0    0  501  0.00000000000E+00  0.00000000000E+00 -0.22651231384E+04  0.22651231384E+04  0.50400001928E-02 0. -1.
    10030    2    1    2    0    0  0.00000000000E+00  0.00000000000E+00 -0.53694216965E+03  0.39933041071E+04  0.39570406617E+04 0.  0.
        5    1    3    3  502    0 -0.50322091120E+03 -0.10503873246E+04 -0.18824954515E+04  0.22136747801E+04  0.46999998093E+01 0. -1.
       -5    1    3    3    0  502  0.50322091120E+03  0.10503873246E+04  0.13455532819E+04  0.17796293270E+04  0.46999998093E+01 0.  1.
</event>
<event>
 5   0  0.8438211E-08  0.3895058E+04  0.7818609E-02  0.8026058E-01
       -2   -1    0    0    0  501  0.00000000000E+00  0.00000000000E+00  0.15166553139E+04  0.15166553139E+04  0.25500000920E-02 0. -1.
        2   -1    0    0  501    0  0.00000000000E+00  0.00000000000E+00 -0.25008112952E+04  0.25008112952E+04  0.25500000920E-02 0.  1.
    10030    2    1    2    0    0  0.00000000000E+00  0.00000000000E+00 -0.98415598134E+03  0.40174666091E+04  0.38950577608E+04 0.  0.
        5    1    3    3  502    0 -0.98690952033E+03 -0.14608468373E+04 -0.13456001181E+04  0.22178200223E+04  0.46999998093E+01 0.  1.
       -5    1    3    3    0  502  0.98690952033E+03  0.14608468373E+04  0.36144413680E+03  0.17996465868E+04  0.46999998093E+01 0. -1.
</event>
<event>
 5   0  0.8476262E-08  0.3905205E+04  0.7818609E-02  0.8023948E-01
        2   -1    0    0  501    0  0.00000000000E+00  0.00000000000E+00  0.28193925706E+04  0.28193925706E+04  0.25500000920E-02 0.  1.
       -2   -1    0    0    0  501  0.00000000000E+00  0.00000000000E+00 -0.13522971408E+04  0.13522971408E+04  0.25500000920E-02 0. -1.
    10030    2    1    2    0    0  0.00000000000E+00  0.00000000000E+00  0.14670954298E+04  0.41716897113E+04  0.39052049943E+04 0.  0.
        2    1    3    3  502    0 -0.66550059188E+03 -0.12994691327E+04  0.21186147932E+04  0.25729437823E+04  0.25500000920E-02 0.  1.
       -2    1    3    3    0  502  0.66550059188E+03  0.12994691327E+04 -0.65151936344E+03  0.15987459291E+04  0.25500000920E-02 0. -1.
</event>
<event>
 5   0  0.2632875E-08  0.3857330E+04  0.7818609E-02  0.8033963E-01
        1   -1    0    0  501    0  0.00000000000E+00  0.00000000000E+00  0.24749225315E+04  0.24749225315E+04  0.50400001928E-02 0. -1.
       -1   -1    0    0    0  501  0.00000000000E+00  0.00000000000E+00 -0.15029760007E+04  0.15029760007E+04  0.50400001928E-02 0.  1.
    10030    2    1    2    0    0  0.00000000000E+00  0.00000000000E+00  0.97194653075E+03  0.39778985322E+04  0.38573302521E+04 0.  0.
        2    1    3    3  502    0 -0.33802600467E+03  0.14487520026E+04  0.17517776978E+04  0.22982317218E+04  0.25500000920E-02 0. -1.
       -2    1    3    3    0  502  0.33802600467E+03 -0.14487520026E+04 -0.77983116702E+03  0.16796668104E+04  0.25500000920E-02 0.  1.
</event>
<event>
 5   0  0.2632875E-08  0.3889433E+04  0.7818609E-02  0.8027230E-01
       -1   -1    0    0    0  501  0.00000000000E+00  0.00000000000E+00  0.24452639886E+04  0.24452639886E+04  0.50400001928E-02 0. -1.
        1   -1    0    0  501    0  0.00000000000E+00  0.00000000000E+00 -0.15466318612E+04  0.15466318612E+04  0.50400001928E-02 0.  1.
    10030    2    1    2    0    0  0.00000000000E+00  0.00000000000E+00  0.89863212741E+03  0.39918958498E+04  0.38894334774E+04 0.  0.
        3    1    3    3  502    0 -0.21978916865E+03 -0.32739302225E+03  0.24038017137E+04  0.24359302450E+04  0.10100000352E+00 0. -1.
       -3    1    3    3    0  502  0.21978916865E+03  0.32739302225E+03 -0.15051695862E+04  0.15559656048E+04  0.10100000352E+00 0.  1.
</event>
<event>
 5   0  0.8551754E-08  0.3892724E+04  0.7818609E-02  0.8026544E-01
        2   -1    0    0  501    0  0.00000000000E+00  0.00000000000E+00  0.12041200911E+04  0.12041200911E+04  0.25500000920E-02 0.  1.
       -2   -1    0    0    0  501  0.00000000000E+00  0.00000000000E+00 -0.31461362713E+04  0.31461362713E+04  0.25500000920E-02 0. -1.
    10030    2    1    2    0    0  0.00000000000E+00  0.00000000000E+00 -0.19420161802E+04  0.43502563624E+04  0.38927244412E+04 0.  0.
        1    1    3    3  502    0  0.14428798175E+04  0.44106645198E+03 -0.23451147370E+04  0.27885488901E+04  0.50400001928E-02 0. -1.
       -1    1    3    3    0  502 -0.14428798175E+04 -0.44106645198E+03  0.40309855683E+03  0.15617074724E+04  0.50400001928E-02 0.  1.
</event>
<event>
 5   0  0.2632875E-08  0.3902606E+04  0.7818609E-02  0.8024487E-01
       -1   -1    0    0    0  501  0.00000000000E+00  0.00000000000E+00  0.17136089263E+04  0.17136089263E+04  0.50400001928E-02 0. -1.
        1   -1    0    0  501    0  0.00000000000E+00  0.00000000000E+00 -0.22219675358E+04  0.22219675358E+04  0.50400001928E-02 0.  1.
    10030    2    1    2    0    0  0.00000000000E+00  0.00000000000E+00 -0.50835860954E+03  0.39355764621E+04  0.39026060028E+04 0.  0.
        3    1    3    3  502    0 -0.15375977750E+04  0.46991730515E+03 -0.13692122708E+04  0.21118170953E+04  0.10100000352E+00 0.  1.
       -3    1    3    3    0  502  0.15375977750E+04 -0.46991730515E+03  0.86085366130E+03  0.18237593667E+04  0.10100000352E+00 0. -1.
</event>
<event>
 5   0  0.8476262E-08  0.3909216E+04  0.7818609E-02  0.8023115E-01
        2   -1    0    0  501    0  0.00000000000E+00  0.00000000000E+00  0.17339673540E+04  0.17339673540E+04  0.25500000920E-02 0.  1.
       -2   -1    0    0    0  501  0.00000000000E+00  0.00000000000E+00 -0.22033247811E+04  0.22033247811E+04  0.25500000920E-02 0. -1.
    10030    2    1    2    0    0  0.00000000000E+00  0.00000000000E+00 -0.46935742703E+03  0.39372921351E+04  0.39092164129E+04 0.  0.
        2    1    3    3  502    0  0.75397002887E+03 -0.14927767162E+04 -0.12536960522E+04  0.20901212692E+04  0.25500000920E-02 0.  1.
       -2    1    3    3    0  502 -0.75397002887E+03  0.14927767162E+04  0.78433862520E+03  0.18471708659E+04  0.25500000920E-02 0. -1.
</event>
<event>
 5   0  0.8676098E-08  0.3863865E+04  0.7818609E-02  0.8032587E-01
        2   -1    0    0  501    0  0.00000000000E+00  0.00000000000E+00  0.13048026556E+04  0.13048026556E+04  0.25500000920E-02 0. -1.
       -2   -1    0    0    0  501  0.00000000000E+00  0.00000000000E+00 -0.28604810753E+04  0.28604810753E+04  0.25500000920E-02 0.  1.
    10030    2    1    2    0    0  0.00000000000E+00  0.00000000000E+00 -0.15556784197E+04  0.41652837308E+04  0.38638650614E+04 0.  0.
        3    1    3    3  502    0 -0.24097047333E+03 -0.15139850216E+04  0.48951957772E+03  0.16093001093E+04  0.10100000352E+00 0. -1.
       -3    1    3    3    0  502  0.24097047333E+03  0.15139850216E+04 -0.20451979974E+04  0.25559836215E+04  0.10100000352E+00 0.  1.
</event>
<event>
 5   0  0.8551754E-08  0.3889321E+04  0.7818609E-02  0.8027254E-01
        2   -1    0    0  501    0  0.00000000000E+00  0.00000000000E+00  0.25775731100E+04  0.25775731100E+04  0.25500000920E-02 0. -1.
       -2   -1    0    0    0  501  0.00000000000E+00  0.00000000000E+00 -0.14671566659E+04  0.14671566659E+04  0.25500000920E-02 0.  1.
    10030    2    1    2    0    0  0.00000000000E+00  0.00000000000E+00  0.11104164441E+04  0.40447297759E+04  0.38893205423E+04 0.  0.
        1    1    3    3  502    0  0.22452812924E+03 -0.76805178844E+03  0.23984253841E+04  0.25283909417E+04  0.50400001928E-02 0. -1.
       -1    1    3    3    0  502 -0.22452812924E+03  0.76805178844E+03 -0.12880089401E+04  0.15163388343E+04  0.50400001928E-02 0.  1.
</event>
<event>
 5   0  0.8438211E-08  0.3862990E+04  0.7818609E-02  0.8032771E-01
        2   -1    0    0  501    0  0.00000000000E+00  0.00000000000E+00  0.29046206940E+04  0.29046206940E+04  0.25500000920E-02 0. -1.
       -2   -1    0    0    0  501  0.00000000000E+00  0.00000000000E+00 -0.12843922244E+04  0.12843922244E+04  0.25500000920E-02 0.  1.
    10030    2    1    2    0    0  0.00000000000E+00  0.00000000000E+00  0.16202284697E+04  0.41890129184E+04  0.38629896371E+04 0.  0.
        5    1    3    3  502    0 -0.82900910360E+03  0.17118113906E+04  0.44543467624E+03  0.19534555208E+04  0.46999998093E+01 0. -1.
       -5    1    3    3    0  502  0.82900910360E+03 -0.17118113906E+04  0.11747937934E+04  0.22355573976E+04  0.46999998093E+01 0.  1.
</event>
<event>
 5   0  0.2632875E-08  0.3898797E+04  0.7818609E-02  0.8025279E-01
        1   -1    0    0  501    0  0.00000000000E+00  0.00000000000E+00  0.22506070693E+04  0.22506070693E+04  0.50400001928E-02 0.  1.
       -1   -1    0    0    0  501  0.00000000000E+00  0.00000000000E+00 -0.16885021692E+04  0.16885021692E+04  0.50400001928E-02 0. -1.
    10030    2    1    2    0    0  0.00000000000E+00  0.00000000000E+00  0.56210490016E+03  0.39391092385E+04  0.38987972086E+04 0.  0.
        4    1    3    3  502    0  0.30498193764E+03 -0.18969016325E+04 -0.52365008567E+02  0.19219764548E+04  0.12699999809E+01 0.  1.
       -4    1    3    3    0  502 -0.30498193764E+03  0.18969016325E+04  0.61446990872E+03  0.20171327837E+04  0.12699999809E+01 0. -1.
</event>
<event>
 5   0  0.2632875E-08  0.3900784E+04  0.7818609E-02  0.8024866E-01
        1   -1    0    0  501    0  0.00000000000E+00  0.00000000000E+00  0.25205983861E+04  0.25205983861E+04  0.50400001928E-02 0. -1.
       -1   -1    0    0    0  501  0.00000000000E+00  0.00000000000E+00 -0.15091770918E+04  0.15091770918E+04  0.50400001928E-02 0.  1.
    10030    2    1    2    0    0  0.00000000000E+00  0.00000000000E+00  0.10114212943E+04  0.40297754779E+04  0.39007841991E+04 0.  0.
        5    1    3    3  502    0  0.17988869920E+04 -0.30810467726E+03 -0.20484519695E+03  0.18365474529E+04  0.46999998093E+01 0.  1.
       -5    1    3    3    0  502 -0.17988869920E+04  0.30810467726E+03  0.12162664913E+04  0.21932280250E+04  0.46999998093E+01 0. -1.
</event>
<event>
 5   0  0.8342802E-08  0.3892661E+04  0.7818609E-02  0.8026557E-01
       -2   -1    0    0    0  501  0.00000000000E+00  0.00000000000E+00  0.24308820257E+04  0.24308820257E+04  0.25500000920E-02 0.  1.
        2   -1    0    0  501    0  0.00000000000E+00  0.00000000000E+00 -0.15583653808E+04  0.15583653808E+04  0.25500000920E-02 0. -1.
    10030    2    1    2    0    0  0.00000000000E+00  0.00000000000E+00  0.87251664487E+03  0.39892474064E+04  0.38926609889E+04 0.  0.
        4    1    3    3  502    0  0.17604862960E+04  0.40890836403E+03 -0.30393918700E+03  0.18327298466E+04  0.12699999809E+01 0. -1.
       -4    1    3    3    0  502 -0.17604862960E+04 -0.40890836403E+03  0.11764558319E+04  0.21565175598E+04  0.12699999809E+01 0.  1.
</event>
<event>
 5   0  0.2632875E-08  0.3882135E+04  0.7818609E-02  0.8028755E-01
       -1   -1    0    0    0  501  0.00000000000E+00  0.00000000000E+00  0.15185417433E+04  0.15185417433E+04  0.50400001928E-02 0.  1.
        1   -1    0    0  501    0  0.00000000000E+00  0.00000000000E+00 -0.24811592831E+04  0.24811592831E+04  0.50400001928E-02 0. -1.
    10030    2    1    2    0    0  0.00000000000E+00  0.00000000000E+00 -0.96261753977E+03  0.39997010264E+04  0.38821354656E+04 0.  0.
        4    1    3    3  502    0  0.16180484300E+04 -0.54656234078E+03 -0.14317036140E+04  0.22285842962E+04  0.12699999809E+01 0. -1.
       -4    1    3    3    0  502 -0.16180484300E+04  0.54656234078E+03  0.46908607419E+03  0.17711167302E+04  0.12699999809E+01 0.  1.
</event>
<event>
 5   0  0.2632875E-08  0.3892826E+04  0.7818609E-02  0.8026523E-01
       -1   -1    0    0    0  501  0.00000000000E+00  0.00000000000E+00  0.23299516288E+04  0.23299516289E+04  0.50400001928E-02 0.  1.
        1   -1    0    0  501    0  0.00000000000E+00  0.00000000000E+00 -0.16260094552E+04  0.16260094552E+04  0.50400001928E-02 0. -1.
    10030    2    1    2    0    0  0.00000000000E+00  0.00000000000E+00  0.70394217364E+03  0.39559610841E+04  0.38928259035E+04 0.  0.
        3    1    3    3  502    0 -0.15647667693E+03 -0.10101419086E+04 -0.13312901468E+04  0.16784531841E+04  0.10100000352E+00 0. -1.
       -3    1    3    3    0  502  0.15647667693E+03  0.10101419086E+04  0.20352323205E+04  0.22775079000E+04  0.10100000352E+00 0.  1.
</event>
<event>
 5   0  0.8551754E-08  0.3910381E+04  0.7818609E-02  0.8022874E-01
        2   -1    0    0  501    0  0.00000000000E+00  0.00000000000E+00  0.16662098584E+04  0.16662098584E+04  0.25500000920E-02 0. -1.
       -2   -1    0    0    0  501  0.00000000000E+00  0.00000000000E+00 -0.22942903837E+04  0.22942903837E+04  0.25500000920E-02 0.  1.
    10030    2    1    2    0    0  0.00000000000E+00  0.00000000000E+00 -0.62808052538E+03  0.39605002421E+04  0.39103806747E+04 0.  0.
        1    1    3    3  502    0  0.51647802749E+03 -0.14046663019E+04 -0.15883123627E+04  0.21823320403E+04  0.50400001928E-02 0.  1.
       -1    1    3    3    0  502 -0.51647802749E+03  0.14046663019E+04  0.96023183732E+03  0.17781682018E+04  0.50400001928E-02 0. -1.
</event>
<event>
 5   0  0.2632875E-08  0.4038576E+04  0.7818609E-02  0.7996810E-01
        1   -1    0    0  501    0  0.00000000000E+00  0.00000000000E+00  0.29774144281E+04  0.29774144281E+04  0.50400001928E-02 0. -1.
       -1   -1    0    0    0  501  0.00000000000E+00  0.00000000000E+00 -0.13694846934E+04  0.13694846934E+04  0.50400001928E-02 0.  1.
    10030    2    1    2    0    0  0.00000000000E+00  0.00000000000E+00  0.16079297347E+04  0.43468991215E+04  0.40385757318E+04 0.  0.
        5    1    3    3  502    0  0.16412421919E+04  0.36675683792E+03  0.20070248678E+04  0.26184647068E+04  0.46999998093E+01 0. -1.
       -5    1    3    3    0  502 -0.16412421919E+04 -0.36675683792E+03 -0.39909513313E+03  0.17284344147E+04  0.46999998093E+01 0.  1.
</event>
<event>
 5   0  0.8342802E-08  0.3892668E+04  0.7818609E-02  0.8026556E-01
        2   -1    0    0  501    0  0.00000000000E+00  0.00000000000E+00  0.15052208787E+04  0.15052208787E+04  0.25500000920E-02 0. -1.
       -2   -1    0    0    0  501  0.00000000000E+00  0.00000000000E+00 -0.25167181064E+04  0.25167181064E+04  0.25500000920E-02 0.  1.
    10030    2    1    2    0    0  0.00000000000E+00  0.00000000000E+00 -0.10114972276E+04  0.40219389851E+04  0.38926683083E+04 0.  0.
        4    1    3    3  502    0 -0.23915850088E+03  0.14735125830E+04  0.78463725936E+03  0.16864439992E+04  0.12699999809E+01 0. -1.
       -4    1    3    3    0  502  0.23915850088E+03 -0.14735125830E+04 -0.17961344870E+04  0.23354949859E+04  0.12699999809E+01 0.  1.
</event>
<event>
 5   0  0.8551754E-08  0.3896210E+04  0.7818609E-02  0.8025818E-01
        2   -1    0    0  501    0  0.00000000000E+00  0.00000000000E+00  0.21407669889E+04  0.21407669889E+04  0.25500000920E-02 0. -1.
       -2   -1    0    0    0  501  0.00000000000E+00  0.00000000000E+00 -0.17727820741E+04  0.17727820741E+04  0.25500000920E-02 0.  1.
    10030    2    1    2    0    0  0.00000000000E+00  0.00000000000E+00  0.36798491473E+03  0.39135490630E+04  0.38962101292E+04 0.  0.
        1    1    3    3  502    0 -0.23532814860E+03  0.70155322288E+03 -0.16261252144E+04  0.17865719899E+04  0.50400001928E-02 0.  1.
       -1    1    3    3    0  502  0.23532814860E+03 -0.70155322288E+03  0.19941101292E+04  0.21269770731E+04  0.50400001928E-02 0. -1.
</event>
<event>
 5   0  0.8676098E-08  0.3818337E+04  0.7818609E-02  0.8042231E-01
        2   -1    0    0  501    0  0.00000000000E+00  0.00000000000E+00  0.23512652170E+04  0.23512652170E+04  0.25500000920E-02 0. -1.
       -2   -1    0    0    0  501  0.00000000000E+00  0.00000000000E+00 -0.15501974173E+04  0.15501974173E+04  0.25500000920E-02 0.  1.
    10030    2    1    2    0    0  0.00000000000E+00  0.00000000000E+00  0.80106779969E+03  0.39014626343E+04  0.38183374743E+04 0.  0.
        3    1    3    3  502    0  0.75053197264E+03 -0.72519804473E+03 -0.12329292331E+04  0.16153405060E+04  0.10100000352E+00 0.  1.
       -3    1    3    3    0  502 -0.75053197264E+03  0.72519804473E+03  0.20339970328E+04  0.22861221284E+04  0.10100000352E+00 0. -1.
</event>
<event>
 5   0  0.8476262E-08  0.3905581E+04  0.7818609E-02  0.8023869E-01
        2   -1    0    0  501    0  0.00000000000E+00  0.00000000000E+00  0.24039557126E+04  0.24039557126E+04  0.25500000920E-02 0.  1.
       -2   -1    0    0    0  501  0.00000000000E+00  0.00000000000E+00 -0.15862981233E+04  0.15862981233E+04  0.25500000920E-02 0. -1.
    10030    2    1    2    0    0  0.00000000000E+00  0.00000000000E+00  0.81765758925E+03  0.39902538359E+04  0.39055808456E+04 0.  0.
        2    1    3    3  502    0 -0.14970574098E+04 -0.18226840250E+03 -0.85862599483E+03  0.17354080955E+04  0.25500000920E-02 0.  1.
       -2    1    3    3    0  502  0.14970574098E+04  0.18226840250E+03  0.16762835841E+04  0.22548457404E+04  0.25500000920E-02 0. -1.
</event>
<event>
 5   0  0.8551754E-08  0.3906247E+04  0.7818609E-02  0.8023731E-01
       -2   -1    0    0    0  501  0.00000000000E+00  0.00000000000E+00  0.18185991224E+04  0.18185991224E+04  0.25500000920E-02 0.  1.
        2   -1    0    0  501    0  0.00000000000E+00  0.00000000000E+00 -0.20975991975E+04  0.20975991975E+04  0.25500000920E-02 0. -1.
    10030    2    1    2    0    0  0.00000000000E+00  0.00000000000E+00 -0.27900007506E+03  0.39161983199E+04  0.39062473346E+04 0.  0.
        1    1    3    3  502    0  0.76239100813E+03  0.13494841871E+04  0.10519483959E+04  0.18732172987E+04  0.50400001928E-02 0.  1.
       -1    1    3    3    0  502 -0.76239100813E+03 -0.13494841871E+04 -0.13309484710E+04  0.20429810212E+04  0.50400001928E-02 0. -1.
</event>
<event>
 5   0  0.8438211E-08  0.3896766E+04  0.7818609E-02  0.8025702E-01
        2   -1    0    0  501    0  0.00000000000E+00  0.00000000000E+00  0.21674248529E+04  0.21674248529E+04  0.25500000920E-02 0.  1.
       -2   -1    0    0    0  501  0.00000000000E+00  0.00000000000E+00 -0.17514774131E+04  0.17514774131E+04  0.25500000920E-02 0. -1.
    10030    2    1    2    0    0  0.00000000000E+00  0.00000000000E+00  0.41594743983E+03  0.39189022660E+04  0.38967656714E+04 0.  0.
        5    1    3    3  502    0 -0.13981209378E+04  0.52485670649E+03  0.14664645041E+04  0.20930257884E+04  0.46999998093E+01 0.  1.
       -5    1    3    3    0  502  0.13981209378E+04 -0.52485670649E+03 -0.10505170643E+04  0.18258764776E+04  0.46999998093E+01 0. -1.
</event>
<event>
 5   0  0.8476262E-08  0.3904657E+04  0.7818609E-02  0.8024061E-01
        2   -1    0    0  501    0  0.00000000000E+00  0.00000000000E+00  0.24639132111E+04  0.24639132111E+04  0.25500000920E-02 0.  1.
       -2   -1    0    0    0  501  0.00000000000E+00  0.00000000000E+00 -0.15469649544E+04  0.15469649544E+04  0.25500000920E-02 0. -1.
    10030    2    1    2    0    0  0.00000000000E+00  0.00000000000E+00  0.91694825667E+03  0.40108781655E+04  0.39046574182E+04 0.  0.
        2    1    3    3  502    0 -0.12383282485E+04 -0.73866282969E+03  0.18105284111E+04  0.23145394260E+04  0.25500000920E-02 0.  1.
       -2    1    3    3    0  502  0.12383282485E+04  0.73866282969E+03 -0.89358015445E+03  0.16963387396E+04  0.25500000920E-02 0. -1.
</event>
<event>
 5   0  0.2632875E-08  0.3908657E+04  0.7818609E-02  0.8023231E-01
        1   -1    0    0  501    0  0.00000000000E+00  0.00000000000E+00  0.21816088089E+04  0.21816088089E+04  0.50400001928E-02 0. -1.
       -1   -1    0    0    0  501  0.00000000000E+00  0.00000000000E+00 -0.17507264673E+04  0.17507264674E+04  0.50400001928E-02 0.  1.
    10030    2    1    2    0    0  0.00000000000E+00  0.00000000000E+00  0.43088234155E+03  0.39323352763E+04  0.39086572033E+04 0.  0.
        3    1    3    3  502    0  0.17992171107E+04  0.20227949675E+03 -0.52474743785E+03  0.18850620918E+04  0.10100000352E+00 0.  1.
       -3    1    3    3    0  502 -0.17992171107E+04 -0.20227949675E+03  0.95562977940E+03  0.20472731844E+04  0.10100000352E+00 0. -1.
</event>
<event>
 5   0  0.2632875E-08  0.3904768E+04  0.7818609E-02  0.8024038E-01
       -1   -1    0    0    0  501  0.00000000000E+00  0.00000000000E+00  0.17599679044E+04  0.17599679044E+04  0.50400001928E-02 0.  1.
        1   -1    0    0  501    0  0.00000000000E+00  0.00000000000E+00 -0.21658370536E+04  0.21658370536E+04  0.50400001928E-02 0. -1.
    10030    2    1    2    0    0  0.00000000000E+00  0.00000000000E+00 -0.40586914921E+03  0.39258049580E+04  0.39047682136E+04 0.  0.
        1    1    3    3  502    0  0.18523118235E+04 -0.48349734941E+03  0.18250391350E+03  0.19230539402E+04  0.50400001928E-02 0.  1.
       -1    1    3    3    0  502 -0.18523118235E+04  0.48349734941E+03 -0.58837306271E+03  0.20027510178E+04  0.50400001928E-02 0. -1.
</event>
<event>
 5   0  0.8476262E-08  0.3866062E+04  0.7818609E-02  0.8032125E-01
        2   -1    0    0  501    0  0.00000000000E+00  0.00000000000E+00  0.22118311009E+04  0.22118311009E+04  0.25500000920E-02 0.  1.
       -2   -1    0    0    0  501  0.00000000000E+00  0.00000000000E+00 -0.16893733019E+04  0.16893733019E+04  0.25500000920E-02 0. -1.
    10030    2    1    2    0    0  0.00000000000E+00  0.00000000000E+00  0.52245779896E+03  0.39012044028E+04  0.38660617741E+04 0.  0.
        2    1    3    3  502    0  0.17501254526E+04  0.25790372017E+03  0.10475133693E+04  0.20559031319E+04  0.25500000920E-02 0.  1.
       -2    1    3    3    0  502 -0.17501254526E+04 -0.25790372017E+03 -0.52505557039E+03  0.18453012710E+04  0.25500000920E-02 0. -1.
</event>
<event>
 5   0  0.8438211E-08  0.3908188E+04  0.7818609E-02  0.8023328E-01
        2   -1    0    0  501    0  0.00000000000E+00  0.00000000000E+00  0.24797379746E+04  0.24797379746E+04  0.25500000920E-02 0.  1.
       -2   -1    0    0    0  501  0.00000000000E+00  0.00000000000E+00 -0.15398734555E+04  0.15398734555E+04  0.25500000920E-02 0. -1.
    10030    2    1    2    0    0  0.00000000000E+00  0.00000000000E+00  0.93986451911E+03  0.40196114301E+04  0.39081876535E+04 0.  0.
        5    1    3    3  502    0  0.77596670410E+03  0.94463896745E+03 -0.10979957469E+04  0.16431931886E+04  0.46999998093E+01 0. -1.
       -5    1    3    3    0  502 -0.77596670410E+03 -0.94463896745E+03  0.20378602660E+04  0.23764182415E+04  0.46999998093E+01 0.  1.
</event>
<event>
 5   0  0.8438211E-08  0.3915786E+04  0.7818609E-02  0.8021754E-01
       -2   -1    0    0    0  501  0.00000000000E+00  0.00000000000E+00  0.20286296373E+04  0.20286296373E+04  0.25500000920E-02 0.  1.
        2   -1    0    0  501    0  0.00000000000E+00  0.00000000000E+00 -0.18896225586E+04  0.18896225586E+04  0.25500000920E-02 0. -1.
    10030    2    1    2    0    0  0.00000000000E+00  0.00000000000E+00  0.13900707873E+03  0.39182521959E+04  0.39157856558E+04 0.  0.
        5    1    3    3  502    0  0.17812304369E+04  0.31187841762E+03  0.82049092202E+03  0.19857687327E+04  0.46999998093E+01 0. -1.
       -5    1    3    3    0  502 -0.17812304369E+04 -0.31187841762E+03 -0.68148384329E+03  0.19324834631E+04  0.46999998093E+01 0.  1.
</event>
<event>
 5   0  0.2632875E-08  0.3887734E+04  0.7818609E-02  0.8027585E-01
        1   -1    0    0  501    0  0.00000000000E+00  0.00000000000E+00  0.14979394605E+04  0.14979394605E+04  0.50400001928E-02 0. -1.
       -1   -1    0    0    0  501  0.00000000000E+00  0.00000000000E+00 -0.25225444307E+04  0.25225444307E+04  0.50400001928E-02 0.  1.
    10030    2    1    2    0    0  0.00000000000E+00  0.00000000000E+00 -0.10246049702E+04  0.40204838912E+04  0.38877339640E+04 0.  0.
        4    1    3    3  502    0 -0.11781554390E+03 -0.16231121620E+04  0.58712812223E+03  0.17300562528E+04  0.12699999809E+01 0. -1.
       -4    1    3    3    0  502  0.11781554390E+03  0.16231121620E+04 -0.16117330924E+04  0.22904276384E+04  0.12699999809E+01 0.  1.
</event>
<event>
 5   0  0.2632875E-08  0.3907852E+04  0.7818609E-02  0.8023398E-01
       -3   -1    0    0    0  501  0.00000000000E+00  0.00000000000E+00  0.24917419255E+04  0.24917419275E+04  0.10100000352E+00 0.  1.
        3   -1    0    0  501    0  0.00000000000E+00  0.00000000000E+00 -0.15321916742E+04  0.15321916775E+04  0.10100000352E+00 0. -1.
    10030    2    1    2    0    0  0.00000000000E+00  0.00000000000E+00  0.95955025132E+03  0.40239336050E+04  0.39078517082E+04 0.  0.
        5    1    3    3  502    0  0.19263727517E+04  0.31611476789E+03  0.56570229817E+03  0.20324570611E+04  0.46999998093E+01 0.  1.
       -5    1    3    3    0  502 -0.19263727517E+04 -0.31611476789E+03  0.39384795315E+03  0.19914765440E+04  0.46999998093E+01 0. -1.
</event>
<event>
 5   0  0.8551754E-08  0.3898982E+04  0.7818609E-02  0.8025241E-01
       -2   -1    0    0    0  501  0.00000000000E+00  0.00000000000E+00  0.22308048027E+04  0.22308048027E+04  0.25500000920E-02 0.  1.
        2   -1    0    0  501    0  0.00000000000E+00  0.00000000000E+00 -0.17036518990E+04  0.17036518990E+04  0.25500000920E-02 0. -1.
    10030    2    1    2    0    0  0.00000000000E+00  0.00000000000E+00  0.52715290371E+03  0.39344567017E+04  0.38989818355E+04 0.  0.
        1    1    3    3  502    0 -0.17038339335E+04 -0.79101596435E+01  0.12195087207E+04  0.20953076536E+04  0.50400001928E-02 0.  1.
       -1    1    3    3    0  502  0.17038339335E+04  0.79101596435E+01 -0.69235581698E+03  0.18391490480E+04  0.50400001928E-02 0. -1.
</event>
<event>
 5   0  0.8342802E-08  0.3973504E+04  0.7818609E-02  0.8009913E-01
       -2   -1    0    0    0  501  0.00000000000E+00  0.00000000000E+00  0.14811786109E+04  0.14811786110E+04  0.25500000920E-02 0.  1.
        2   -1    0    0  501    0  0.00000000000E+00  0.00000000000E+00 -0.26648933330E+04  0.26648933330E+04  0.25500000920E-02 0. -1.
    10030    2    1    2    0    0  0.00000000000E+00  0.00000000000E+00 -0.11837147221E+04  0.41460719440E+04  0.39735037462E+04 0.  0.
        4    1    3    3  502    0  0.50308320634E+03 -0.15299400493E+04  0.62201163958E+03  0.17264730985E+04  0.12699999809E+01 0.  1.
       -4    1    3    3    0  502 -0.50308320634E+03  0.15299400493E+04 -0.18057263617E+04  0.24195988455E+04  0.12699999809E+01 0. -1.
</event>
<event>
 5   0  0.8476262E-08  0.3894254E+04  0.7818609E-02  0.8026225E-01
       -2   -1    0    0    0  501  0.00000000000E+00  0.00000000000E+00  0.17858407396E+04  0.17858407396E+04  0.25500000920E-02 0. -1.
        2   -1    0    0  501    0  0.00000000000E+00  0.00000000000E+00 -0.21229793442E+04  0.21229793442E+04  0.25500000920E-02 0.  1.
    10030    2    1    2    0    0  0.00000000000E+00  0.00000000000E+00 -0.33713860455E+03  0.39088200838E+04  0.38942537165E+04 0.  0.
        2    1    3    3  502    0 -0.18389154231E+04  0.41637051403E+03  0.31938554652E+03  0.19123235776E+04  0.25500000920E-02 0. -1.
       -2    1    3    3    0  502  0.18389154231E+04 -0.41637051403E+03 -0.65652415107E+03  0.19964965062E+04  0.25500000920E-02 0.  1.
</event>
<event>
 5   0  0.8476262E-08  0.3907302E+04  0.7818609E-02  0.8023512E-01
        2   -1    0    0  501    0  0.00000000000E+00  0.00000000000E+00  0.12692132507E+04  0.12692132507E+04  0.25500000920E-02 0.  1.
       -2   -1    0    0    0  501  0.00000000000E+00  0.00000000000E+00 -0.30071801145E+04  0.30071801145E+04  0.25500000920E-02 0. -1.
    10030    2    1    2    0    0  0.00000000000E+00  0.00000000000E+00 -0.17379668638E+04  0.42763933652E+04  0.39073023167E+04 0.  0.
        2    1    3    3  502    0 -0.41458850400E+02 -0.17867319929E+03  0.12597687746E+04  0.12730515755E+04  0.25500000920E-02 0.  1.
       -2    1    3    3    0  502  0.41458850400E+02  0.17867319929E+03 -0.29977356384E+04  0.30033417897E+04  0.25500000920E-02 0. -1.
</event>
<event>
 5   0  0.2632875E-08  0.3896887E+04  0.7818609E-02  0.8025677E-01
       -1   -1    0    0    0  501  0.00000000000E+00  0.00000000000E+00  0.19015217601E+04  0.19015217601E+04  0.50400001928E-02 0. -1.
        1   -1    0    0  501    0  0.00000000000E+00  0.00000000000E+00 -0.19965235075E+04  0.19965235075E+04  0.50400001928E-02 0.  1.
    10030    2    1    2    0    0  0.00000000000E+00  0.00000000000E+00 -0.95001747415E+02  0.38980452676E+04  0.38968874216E+04 0.  0.
        2    1    3    3  502    0 -0.17083953473E+03 -0.17212380550E+04  0.84975298951E+03  0.19271550876E+04  0.25500000920E-02 0. -1.
       -2    1    3    3    0  502  0.17083953473E+03  0.17212380550E+04 -0.94475473693E+03  0.19708901800E+04  0.25500000920E-02 0.  1.
</event>
<event>
 5   0  0.2632875E-08  0.3908520E+04  0.7818609E-02  0.8023260E-01
        1   -1    0    0  501    0  0.00000000000E+00  0.00000000000E+00  0.17617234629E+04  0.17617234629E+04  0.50400001928E-02 0. -1.
       -1   -1    0    0    0  501  0.00000000000E+00  0.00000000000E+00 -0.21678386606E+04  0.21678386606E+04  0.50400001928E-02 0.  1.
    10030    2    1    2    0    0  0.00000000000E+00  0.00000000000E+00 -0.40611519770E+03  0.39295621234E+04  0.39085200432E+04 0.  0.
        3    1    3    3  502    0 -0.15629741276E+04 -0.50339169772E+03 -0.12684042053E+04  0.20748832650E+04  0.10100000352E+00 0.  1.
       -3    1    3    3    0  502  0.15629741276E+04  0.50339169772E+03  0.86228900764E+03  0.18546788584E+04  0.10100000352E+00 0. -1.
</event>
<event>
 5   0  0.8438211E-08  0.4009993E+04  0.7818609E-02  0.8002534E-01
        2   -1    0    0  501    0  0.00000000000E+00  0.00000000000E+00  0.25253162665E+04  0.25253162665E+04  0.25500000920E-02 0. -1.
       -2   -1    0    0    0  501  0.00000000000E+00  0.00000000000E+00 -0.15918840177E+04  0.15918840177E+04  0.25500000920E-02 0.  1.
    10030    2    1    2    0    0  0.00000000000E+00  0.00000000000E+00  0.93343224875E+03  0.41172002842E+04  0.40099928201E+04 0.  0.
        5    1    3    3  502    0 -0.18356324461E+03 -0.13274264282E+04  0.19979744176E+04  0.24057598073E+04  0.46999998093E+01 0.  1.
       -5    1    3    3    0  502  0.18356324461E+03  0.13274264282E+04 -0.10645421688E+04  0.17114404770E+04  0.46999998093E+01 0. -1.
</event>
<event>
 5   0  0.8551754E-08  0.3848748E+04  0.7818609E-02  0.8035774E-01
       -2   -1    0    0    0  501  0.00000000000E+00  0.00000000000E+00  0.19673616550E+04  0.19673616550E+04  0.25500000920E-02 0.  1.
        2   -1    0    0  501    0  0.00000000000E+00  0.00000000000E+00 -0.18823256937E+04  0.18823256937E+04  0.25500000920E-02 0. -1.
    10030    2    1    2    0    0  0.00000000000E+00  0.00000000000E+00  0.85035961258E+02  0.38496873487E+04  0.38487480520E+04 0.  0.
        1    1    3    3  502    0 -0.10765584412E+03  0.19131696342E+04  0.21978301976E+03  0.19287592918E+04  0.50400001928E-02 0. -1.
       -1    1    3    3    0  502  0.10765584412E+03 -0.19131696342E+04 -0.13474705851E+03  0.19209280569E+04  0.50400001928E-02 0.  1.
</event>
<event>
 5   0  0.2632875E-08  0.3861793E+04  0.7818609E-02  0.8033023E-01
        1   -1    0    0  501    0  0.00000000000E+00  0.00000000000E+00  0.19003945059E+04  0.19003945059E+04  0.50400001928E-02 0. -1.
       -1   -1    0    0    0  501  0.00000000000E+00  0.00000000000E+00 -0.19618876018E+04  0.19618876018E+04  0.50400001928E-02 0.  1.
    10030    2    1    2    0    0  0.00000000000E+00  0.00000000000E+00 -0.61493095872E+02  0.38622821077E+04  0.38617925473E+04 0.  0.
        4    1    3    3  502    0  0.12336691191E+04 -0.84534466334E+03  0.11908057309E+04  0.19116921816E+04  0.12699999809E+01 0. -1.
       -4    1    3    3    0  502 -0.12336691191E+04  0.84534466334E+03 -0.12522988268E+04  0.19505899261E+04  0.12699999809E+01 0.  1.
</event>
<event>
 5   0  0.2632875E-08  0.3898019E+04  0.7818609E-02  0.8025441E-01
        1   -1    0    0  501    0  0.00000000000E+00  0.00000000000E+00  0.14099476848E+04  0.14099476848E+04  0.50400001928E-02 0. -1.
       -1   -1    0    0    0  501  0.00000000000E+00  0.00000000000E+00 -0.26941687997E+04  0.26941687997E+04  0.50400001928E-02 0.  1.
    10030    2    1    2    0    0  0.00000000000E+00  0.00000000000E+00 -0.12842211150E+04  0.41041164845E+04  0.38980185026E+04 0.  0.
        3    1    3    3  502    0  0.30734817155E+03  0.55360150765E+03  0.12986335087E+04  0.14447790585E+04  0.10100000352E+00 0. -1.
       -3    1    3    3    0  502 -0.30734817155E+03 -0.55360150765E+03 -0.25828546237E+04  0.26593374260E+04  0.10100000352E+00 0.  1.
</event>
<event>
 5   0  0.8438211E-08  0.3920039E+04  0.7818609E-02  0.8020874E-01
        2   -1    0    0  501    0  0.00000000000E+00  0.00000000000E+00  0.27791031290E+04  0.27791031290E+04  0.25500000920E-02 0.  1.
       -2   -1    0    0    0  501  0.00000000000E+00  0.00000000000E+00 -0.13823439866E+04  0.13823439866E+04  0.25500000920E-02 0. -1.
    10030    2    1    2    0    0  0.00000000000E+00  0.00000000000E+00  0.13967591424E+04  0.41614471156E+04  0.39200390297E+04 0.  0.
        5    1    3    3  502    0  0.14470996862E+04 -0.55189809725E+03 -0.57683112600E+03  0.16527084587E+04  0.46999998093E+01 0. -1.
       -5    1    3    3    0  502 -0.14470996862E+04  0.55189809725E+03  0.19735902684E+04  0.25087386570E+04  0.46999998093E+01 0.  1.
</event>
<event>
 5   0  0.2632875E-08  0.3908388E+04  0.7818609E-02  0.8023287E-01
        4   -1    0    0  501    0  0.00000000000E+00  0.00000000000E+00  0.19012781331E+04  0.19012785573E+04  0.12699999809E+01 0. -1.
       -4   -1    0    0    0  501  0.00000000000E+00  0.00000000000E+00 -0.20085812984E+04  0.20085816999E+04  0.12699999809E+01 0.  1.
    10030    2    1    2    0    0  0.00000000000E+00  0.00000000000E+00 -0.10730316528E+03  0.39098602572E+04  0.39083875526E+04 0.  0.
        3    1    3    3  502    0 -0.11234621114E+04  0.11622035634E+04  0.10449375517E+04  0.19247801785E+04  0.10100000352E+00 0. -1.
       -3    1    3    3    0  502  0.11234621114E+04 -0.11622035634E+04 -0.11522407169E+04  0.19850800786E+04  0.10100000352E+00 0.  1.
</event>
<event>
 5   0  0.8476262E-08  0.3902796E+04  0.7818609E-02  0.8024448E-01
        2   -1    0    0  501    0  0.00000000000E+00  0.00000000000E+00  0.21152955975E+04  0.21152955975E+04  0.25500000920E-02 0. -1.
       -2   -1    0    0    0  501  0.00000000000E+00  0.00000000000E+00 -0.18001998097E+04  0.18001998097E+04  0.25500000920E-02 0.  1.
    10030    2    1    2    0    0  0.00000000000E+00  0.00000000000E+00  0.31509578782E+03  0.39154954072E+04  0.39027962960E+04 0.  0.
        2    1    3    3  502    0  0.93112520976E+03  0.15855817981E+04 -0.49794698383E+03  0.19049973736E+04  0.25500000920E-02 0.  1.
       -2    1    3    3    0  502 -0.93112520976E+03 -0.15855817981E+04  0.81304277165E+03  0.20104980336E+04  0.25500000920E-02 0. -1.
</event>
<event>
 5   0  0.8342802E-08  0.3898763E+04  0.7818609E-02  0.8025286E-01
       -2   -1    0    0    0  501  0.00000000000E+00  0.00000000000E+00  0.20353915250E+04  0.20353915250E+04  0.25500000920E-02 0.  1.
        2   -1    0    0  501    0  0.00000000000E+00  0.00000000000E+00 -0.18670064582E+04  0.18670064582E+04  0.25500000920E-02 0. -1.
    10030    2    1    2    0    0  0.00000000000E+00  0.00000000000E+00  0.16838506680E+03  0.39023979832E+04  0.38987634564E+04 0.  0.
        4    1    3    3  502    0 -0.15206317257E+04 -0.11895947828E+04  0.35394500667E+03  0.19628385754E+04  0.12699999809E+01 0.  1.
       -4    1    3    3    0  502  0.15206317257E+04  0.11895947828E+04 -0.18555993987E+03  0.19395594079E+04  0.12699999809E+01 0. -1.
</event>
<event>
 5   0  0.2632875E-08  0.3897981E+04  0.7818609E-02  0.8025449E-01
       -1   -1    0    0    0  501  0.00000000000E+00  0.00000000000E+00  0.21534618939E+04  0.21534618939E+04  0.50400001928E-02 0.  1.
        1   -1    0    0  501    0  0.00000000000E+00  0.00000000000E+00 -0.17639333861E+04  0.17639333861E+04  0.50400001928E-02 0. -1.
    10030    2    1    2    0    0  0.00000000000E+00  0.00000000000E+00  0.38952850782E+03  0.39173952800E+04  0.38979806722E+04 0.  0.
        1    1    3    3  502    0 -0.17874224022E+04 -0.18723153725E+03  0.95259488429E+03  0.20340529752E+04  0.50400001928E-02 0. -1.
       -1    1    3    3    0  502  0.17874224022E+04  0.18723153725E+03 -0.56306637647E+03  0.18833423047E+04  0.50400001928E-02 0.  1.
</event>
<event>
 5   0  0.2632875E-08  0.3829006E+04  0.7818609E-02  0.8039959E-01
       -1   -1    0    0    0  501  0.00000000000E+00  0.00000000000E+00  0.17162494448E+04  0.17162494448E+04  0.50400001928E-02 0.  1.
        1   -1    0    0  501    0  0.00000000000E+00  0.00000000000E+00 -0.21356579588E+04  0.21356579588E+04  0.50400001928E-02 0. -1.
    10030    2    1    2    0    0  0.00000000000E+00  0.00000000000E+00 -0.41940851401E+03  0.38519074036E+04  0.38290060257E+04 0.  0.
        1    1    3    3  502    0  0.18714351517E+04  0.39930267138E+03 -0.14926467107E+03  0.19193728383E+04  0.50400001928E-02 0.  1.
       -1    1    3    3    0  502 -0.18714351517E+04 -0.39930267138E+03 -0.27014384295E+03  0.19325345653E+04  0.50400001928E-02 0. -1.
</event>
<event>
 5   0  0.2632875E-08  0.3888309E+04  0.7818609E-02  0.8027465E-01
       -1   -1    0    0    0  501  0.00000000000E+00  0.00000000000E+00  0.18473651914E+04  0.18473651914E+04  0.50400001928E-02 0.  1.
        1   -1    0    0  501    0  0.00000000000E+00  0.00000000000E+00 -0.20460144605E+04  0.20460144605E+04  0.50400001928E-02 0. -1.
    10030    2    1    2    0    0  0.00000000000E+00  0.00000000000E+00 -0.19864926912E+03  0.38933796519E+04  0.38883085760E+04 0.  0.
        5    1    3    3  502    0 -0.59235908961E+03 -0.18165552673E+04 -0.45889110698E+03  0.19650357422E+04  0.46999998093E+01 0.  1.
       -5    1    3    3    0  502  0.59235908961E+03  0.18165552673E+04  0.26024183786E+03  0.19283439097E+04  0.46999998093E+01 0. -1.
</event>
<event>
 5   0  0.8551754E-08  0.3898266E+04  0.7818609E-02  0.8025390E-01
        2   -1    0    0  501    0  0.00000000000E+00  0.00000000000E+00  0.15450084267E+04  0.15450084267E+04  0.25500000920E-02 0.  1.
       -2   -1    0    0    0  501  0.00000000000E+00  0.00000000000E+00 -0.24589637963E+04  0.24589637963E+04  0.25500000920E-02 0. -1.
    10030    2    1    2    0    0  0.00000000000E+00  0.00000000000E+00 -0.91395536956E+03  0.40039722231E+04  0.38982661717E+04 0.  0.
        1    1    3    3  502    0  0.16231619282E+04 -0.11420375986E+03  0.64516278462E+03  0.17504091415E+04  0.50400001928E-02 0.  1.
       -1    1    3    3    0  502 -0.16231619282E+04  0.11420375986E+03 -0.15591181542E+04  0.22535630816E+04  0.50400001928E-02 0. -1.
</event>
<event>
 5   0  0.8342802E-08  0.3914661E+04  0.7818609E-02  0.8021987E-01
       -2   -1    0    0    0  501  0.00000000000E+00  0.00000000000E+00  0.16832344638E+04  0.16832344638E+04  0.25500000920E-02 0.  1.
        2   -1    0    0  501    0  0.00000000000E+00  0.00000000000E+00 -0.22760605573E+04  0.22760605573E+04  0.25500000920E-02 0. -1.
    10030    2    1    2    0    0  0.00000000000E+00  0.00000000000E+00 -0.59282609350E+03  0.39592950212E+04  0.39146614525E+04 0.  0.
        4    1    3    3  502    0  0.14338356371E+04 -0.36057817435E+03  0.10008808572E+04  0.17854034158E+04  0.12699999809E+01 0.  1.
       -4    1    3    3    0  502 -0.14338356371E+04  0.36057817435E+03 -0.15937069507E+04  0.21738916053E+04  0.12699999809E+01 0. -1.
</event>
<event>
 5   0  0.2632875E-08  0.3894892E+04  0.7818609E-02  0.8026092E-01
        1   -1    0    0  501    0  0.00000000000E+00  0.00000000000E+00  0.24432955848E+04  0.24432955848E+04  0.50400001928E-02 0.  1.
       -1   -1    0    0    0  501  0.00000000000E+00  0.00000000000E+00 -0.15522253957E+04  0.15522253957E+04  0.50400001928E-02 0. -1.
    10030    2    1    2    0    0  0.00000000000E+00  0.00000000000E+00  0.89107018912E+03  0.39955209805E+04  0.38948917602E+04 0.  0.
        4    1    3    3  502    0  0.97230589767E+03 -0.10265278678E+04  0.18193153991E+04  0.23041372261E+04  0.12699999809E+01 0.  1.
       -4    1    3    3    0  502 -0.97230589767E+03  0.10265278678E+04 -0.92824521002E+03  0.16913837545E+04  0.12699999809E+01 0. -1.
</event>
<event>
 5   0  0.2632875E-08  0.3905823E+04  0.7818609E-02  0.8023819E-01
       -3   -1    0    0    0  501  0.00000000000E+00  0.00000000000E+00  0.14319699849E+04  0.14319699884E+04  0.10100000352E+00 0. -1.
        3   -1    0    0  501    0  0.00000000000E+00  0.00000000000E+00 -0.26633679381E+04  0.26633679401E+04  0.10100000352E+00 0.  1.
    10030    2    1    2    0    0  0.00000000000E+00  0.00000000000E+00 -0.12313979533E+04  0.40953379285E+04  0.39058228108E+04 0.  0.
        3    1    3    3  502    0 -0.72107271368E+03 -0.36115498470E+03  0.12492203025E+04  0.14869196870E+04  0.10100000352E+00 0. -1.
       -3    1    3    3    0  502  0.72107271368E+03  0.36115498470E+03 -0.24806182558E+04  0.26084182415E+04  0.10100000352E+00 0.  1.
</event>
<event>
 5   0  0.8551754E-08  0.3911459E+04  0.7818609E-02  0.8022650E-01
        2   -1    0    0  501    0  0.00000000000E+00  0.00000000000E+00  0.15496117313E+04  0.15496117313E+04  0.25500000920E-02 0. -1.
       -2   -1    0    0    0  501  0.00000000000E+00  0.00000000000E+00 -0.24682808651E+04  0.24682808651E+04  0.25500000920E-02 0.  1.
    10030    2    1    2    0    0  0.00000000000E+00  0.00000000000E+00 -0.91866913375E+03  0.40178925964E+04  0.39114585437E+04 0.  0.
        1    1    3    3  502    0  0.14461972364E+04  0.12366839382E+04  0.46230062295E+01  0.19028649405E+04  0.50400001928E-02 0.  1.
       -1    1    3    3    0  502 -0.14461972364E+04 -0.12366839382E+04 -0.92329213998E+03  0.21150276559E+04  0.50400001928E-02 0. -1.
</event>
<event>
 5   0  0.2632875E-08  0.3901096E+04  0.7818609E-02  0.8024801E-01
        1   -1    0    0  501    0  0.00000000000E+00  0.00000000000E+00  0.14520285294E+04  0.14520285294E+04  0.50400001928E-02 0.  1.
       -1   -1    0    0    0  501  0.00000000000E+00  0.00000000000E+00 -0.26202218608E+04  0.26202218608E+04  0.50400001928E-02 0. -1.
    10030    2    1    2    0    0  0.00000000000E+00  0.00000000000E+00 -0.11681933314E+04  0.40722503902E+04  0.39010956897E+04 0.  0.
        5    1    3    3  502    0 -0.89567214703E+03 -0.98078224588E+03  0.90701821371E+03  0.16083738803E+04  0.46999998093E+01 0.  1.
       -5    1    3    3    0  502  0.89567214703E+03  0.98078224588E+03 -0.20752115451E+04  0.24638765099E+04  0.46999998093E+01 0. -1.
</event>
<event>
 5   0  0.8476262E-08  0.3892955E+04  0.7818609E-02  0.8026496E-01
       -2   -1    0    0    0  501  0.00000000000E+00  0.00000000000E+00  0.28063870993E+04  0.28063870993E+04  0.25500000920E-02 0. -1.
        2   -1    0    0  501    0  0.00000000000E+00  0.00000000000E+00 -0.13500540515E+04  0.13500540515E+04  0.25500000920E-02 0.  1.
    10030    2    1    2    0    0  0.00000000000E+00  0.00000000000E+00  0.14563330478E+04  0.41564411508E+04  0.38929548024E+04 0.  0.
        2    1    3    3  502    0  0.40514406033E+03  0.15540119504E+03  0.27540882350E+04  0.27880626333E+04  0.25500000920E-02 0. -1.
       -2    1    3    3    0  502 -0.40514406033E+03 -0.15540119504E+03 -0.12977551872E+04  0.13683785175E+04  0.25500000920E-02 0.  1.
</event>
<event>
 5   0  0.8476262E-08  0.3910599E+04  0.7818609E-02  0.8022828E-01
        2   -1    0    0  501    0  0.00000000000E+00  0.00000000000E+00  0.19820660167E+04  0.19820660167E+04  0.25500000920E-02 0.  1.
       -2   -1    0    0    0  501  0.00000000000E+00  0.00000000000E+00 -0.19288942358E+04  0.19288942358E+04  0.25500000920E-02 0. -1.
    10030    2    1    2    0    0  0.00000000000E+00  0.00000000000E+00  0.53171780872E+02  0.39109602525E+04  0.39105987851E+04 0.  0.
        2    1    3    3  502    0  0.17194618755E+04 -0.36385542835E+03  0.88355236906E+03  0.19671310843E+04  0.25500000920E-02 0.  1.
       -2    1    3    3    0  502 -0.17194618755E+04  0.36385542835E+03 -0.83038058819E+03  0.19438291682E+04  0.25500000920E-02 0. -1.
</event>
<event>
 5   0  0.8342802E-08  0.3897772E+04  0.7818609E-02  0.8025493E-01
        2   -1    0    0  501    0  0.00000000000E+00  0.00000000000E+00  0.14202772072E+04  0.14202772072E+04  0.25500000920E-02 0.  1.
       -2   -1    0    0    0  501  0.00000000000E+00  0.00000000000E+00 -0.26742360583E+04  0.26742360583E+04  0.25500000920E-02 0. -1.
    10030    2    1    2    0    0  0.00000000000E+00  0.00000000000E+00 -0.12539588512E+04  0.40945132655E+04  0.38977719380E+04 0.  0.
        4    1    3    3  502    0  0.58416574492E+03 -0.53246977666E+03 -0.24982947841E+04  0.26203534345E+04  0.12699999809E+01 0. -1.
       -4    1    3    3    0  502 -0.58416574492E+03  0.53246977666E+03  0.12443359329E+04  0.14741598310E+04  0.12699999809E+01 0.  1.
</event>
<event>
 5   0  0.8438211E-08  0.3848836E+04  0.7818609E-02  0.8035755E-01
       -2   -1    0    0    0  501  0.00000000000E+00  0.00000000000E+00  0.17111889537E+04  0.17111889537E+04  0.25500000920E-02 0.  1.
        2   -1    0    0  501    0  0.00000000000E+00  0.00000000000E+00 -0.21642168695E+04  0.21642168695E+04  0.25500000920E-02 0. -1.
    10030    2    1    2    0    0  0.00000000000E+00  0.00000000000E+00 -0.45302791585E+03  0.38754058232E+04  0.38488356683E+04 0.  0.
        5    1    3    3  502    0 -0.37370605312E+03  0.17424908567E+04  0.50474428183E+03  0.18522201489E+04  0.46999998093E+01 0.  1.
       -5    1    3    3    0  502  0.37370605312E+03 -0.17424908567E+04 -0.95777219768E+03  0.20231856743E+04  0.46999998093E+01 0. -1.
</event>
<event>
 5   0  0.8551754E-08  0.3891171E+04  0.7818609E-02  0.8026868E-01
        2   -1    0    0  501    0  0.00000000000E+00  0.00000000000E+00  0.18962999554E+04  0.18962999554E+04  0.25500000920E-02 0.  1.
       -2   -1    0    0    0  501  0.00000000000E+00  0.00000000000E+00 -0.19961519074E+04  0.19961519074E+04  0.25500000920E-02 0. -1.
    10030    2    1    2    0    0  0.00000000000E+00  0.00000000000E+00 -0.99851952013E+02  0.38924518629E+04  0.38911709153E+04 0.  0.
        1    1    3    3  502    0 -0.29232902681E+03 -0.31715592154E+01  0.18742031201E+04  0.18968667992E+04  0.50400001928E-02 0.  1.
       -1    1    3    3    0  502  0.29232902681E+03  0.31715592154E+01 -0.19740550721E+04  0.19955850637E+04  0.50400001928E-02 0. -1.
</event>
<event>
 5   0  0.8438211E-08  0.3891184E+04  0.7818609E-02  0.8026865E-01
        2   -1    0    0  501    0  0.00000000000E+00  0.00000000000E+00  0.15353819976E+04  0.15353819976E+04  0.25500000920E-02 0.  1.
       -2   -1    0    0    0  501  0.00000000000E+00  0.00000000000E+00 -0.24653987809E+04  0.24653987809E+04  0.25500000920E-02 0. -1.
    10030    2    1    2    0    0  0.00000000000E+00  0.00000000000E+00 -0.93001678327E+03  0.40007807785E+04  0.38911843467E+04 0.  0.
        5    1    3    3  502    0 -0.77251880313E+03 -0.95061687136E+03  0.10891372260E+04  0.16391155311E+04  0.46999998093E+01 0.  1.
       -5    1    3    3    0  502  0.77251880313E+03  0.95061687136E+03 -0.20191540093E+04  0.23616652473E+04  0.46999998093E+01 0. -1.
</event>
<event>
 5   0  0.2632875E-08  0.3921706E+04  0.7818609E-02  0.8020530E-01
        1   -1    0    0  501    0  0.00000000000E+00  0.00000000000E+00  0.19481223439E+04  0.19481223439E+04  0.50400001928E-02 0. -1.
       -1   -1    0    0    0  501  0.00000000000E+00  0.00000000000E+00 -0.19736669491E+04  0.19736669491E+04  0.50400001928E-02 0.  1.
    10030    2    1    2    0    0  0.00000000000E+00  0.00000000000E+00 -0.25544605227E+02  0.39217892930E+04  0.39217060996E+04 0.  0.
        4    1    3    3  502    0 -0.17079775539E+04  0.11837541346E+03  0.94314703229E+03  0.19546682584E+04  0.12699999809E+01 0. -1.
       -4    1    3    3    0  502  0.17079775539E+04 -0.11837541346E+03 -0.96869163752E+03  0.19671210346E+04  0.12699999809E+01 0.  1.
</event>
<event>
 5   0  0.2632875E-08  0.3924444E+04  0.7818609E-02  0.8019964E-01
       -1   -1    0    0    0  501  0.00000000000E+00  0.00000000000E+00  0.25002030006E+04  0.25002030006E+04  0.50400001928E-02 0. -1.
        1   -1    0    0  501    0  0.00000000000E+00  0.00000000000E+00 -0.15400010422E+04  0.15400010422E+04  0.50400001928E-02 0.  1.
    10030    2    1    2    0    0  0.00000000000E+00  0.00000000000E+00  0.96020195847E+03  0.40402040428E+04  0.39244440251E+04 0.  0.
        5    1    3    3  502    0  0.10522275324E+04  0.15451948766E+04 -0.13371002471E+03  0.18742226247E+04  0.46999998093E+01 0. -1.
       -5    1    3    3    0  502 -0.10522275324E+04 -0.15451948766E+04  0.10939119832E+04  0.21659814181E+04  0.46999998093E+01 0.  1.
</event>
<event>
 5   0  0.8342802E-08  0.3894583E+04  0.7818609E-02  0.8026157E-01
        2   -1    0    0  501    0  0.00000000000E+00  0.00000000000E+00  0.23172616547E+04  0.23172616547E+04  0.25500000920E-02 0. -1.
       -2   -1    0    0    0  501  0.00000000000E+00  0.00000000000E+00 -0.16363901058E+04  0.16363901058E+04  0.25500000920E-02 0.  1.
    10030    2    1    2    0    0  0.00000000000E+00  0.00000000000E+00  0.68087154894E+03  0.39536517605E+04  0.38945829272E+04 0.  0.
        4    1    3    3  502    0 -0.19423484821E+03 -0.10254848757E+04  0.20093269755E+04  0.22642311971E+04  0.12699999809E+01 0. -1.
       -4    1    3    3    0  502  0.19423484821E+03  0.10254848757E+04 -0.13284554266E+04  0.16894205633E+04  0.12699999809E+01 0.  1.
</event>
<event>
 5   0  0.8476262E-08  0.3907725E+04  0.7818609E-02  0.8023424E-01
        2   -1    0    0  501    0  0.00000000000E+00  0.00000000000E+00  0.11997068713E+04  0.11997068713E+04  0.25500000920E-02 0.  1.
       -2   -1    0    0    0  501  0.00000000000E+00  0.00000000000E+00 -0.31820927604E+04  0.31820927604E+04  0.25500000920E-02 0. -1.
    10030    2    1    2    0    0  0.00000000000E+00  0.00000000000E+00 -0.19823858891E+04  0.43817996317E+04  0.39077249390E+04 0.  0.
        2    1    3    3  502    0 -0.14091811012E+04  0.11847774085E+04 -0.17248547330E+04  0.25228184107E+04  0.25500000920E-02 0. -1.
       -2    1    3    3    0  502  0.14091811012E+04 -0.11847774085E+04 -0.25753115607E+03  0.18589812210E+04  0.25500000920E-02 0.  1.
</event>
<event>
 5   0  0.2632875E-08  0.3910672E+04  0.7818609E-02  0.8022813E-01
       -1   -1    0    0    0  501  0.00000000000E+00  0.00000000000E+00  0.13866861727E+04  0.13866861727E+04  0.50400001928E-02 0.  1.
        1   -1    0    0  501    0  0.00000000000E+00  0.00000000000E+00 -0.27571774106E+04  0.27571774106E+04  0.50400001928E-02 0. -1.
    10030    2    1    2    0    0  0.00000000000E+00  0.00000000000E+00 -0.13704912379E+04  0.41438635833E+04  0.39106724695E+04 0.  0.
        5    1    3    3  502    0 -0.16209605616E+04  0.10377949046E+04 -0.10504510046E+04  0.21927153964E+04  0.46999998093E+01 0. -1.
       -5    1    3    3    0  502  0.16209605616E+04 -0.10377949046E+04 -0.32004023334E+03  0.19511481870E+04  0.46999998093E+01 0.  1.
</event>
<event>
 5   0  0.2632875E-08  0.3894364E+04  0.7818609E-02  0.8026202E-01
        1   -1    0    0  501    0  0.00000000000E+00  0.00000000000E+00  0.16908117567E+04  0.16908117567E+04  0.50400001928E-02 0. -1.
       -1   -1    0    0    0  501  0.00000000000E+00  0.00000000000E+00 -0.22424240682E+04  0.22424240682E+04  0.50400001928E-02 0.  1.
    10030    2    1    2    0    0  0.00000000000E+00  0.00000000000E+00 -0.55161231146E+03  0.39332358249E+04  0.38943636081E+04 0.  0.
        4    1    3    3  502    0 -0.12689118987E+04 -0.87505574509E+03 -0.14774956466E+04  0.21351475271E+04  0.12699999809E+01 0.  1.
       -4    1    3    3    0  502  0.12689118987E+04  0.87505574509E+03  0.92588333517E+03  0.17980882979E+04  0.12699999809E+01 0. -1.
</event>
<event>
 5   0  0.8438211E-08  0.3896907E+04  0.7818609E-02  0.8025673E-01
       -2   -1    0    0    0  501  0.00000000000E+00  0.00000000000E+00  0.20467100675E+04  0.20467100675E+04  0.25500000920E-02 0.  1.
        2   -1    0    0  501    0  0.00000000000E+00  0.00000000000E+00 -0.18549136284E+04  0.18549136284E+04  0.25500000920E-02 0. -1.
    10030    2    1    2    0    0  0.00000000000E+00  0.00000000000E+00  0.19179643910E+03  0.39016236959E+04  0.38969066694E+04 0.  0.
        5    1    3    3  502    0 -0.13012370956E+04  0.51772424852E+03 -0.12604341331E+04  0.18841371156E+04  0.46999998093E+01 0. -1.
       -5    1    3    3    0  502  0.13012370956E+04 -0.51772424852E+03  0.14522305722E+04  0.20174865802E+04  0.46999998093E+01 0.  1.
</event>
<event>
 5   0  0.2632875E-08  0.3964900E+04  0.7818609E-02  0.8011665E-01
        1   -1    0    0  501    0  0.00000000000E+00  0.00000000000E+00  0.18494187789E+04  0.18494187789E+04  0.50400001928E-02 0. -1.
       -1   -1    0    0    0  501  0.00000000000E+00  0.00000000000E+00 -0.21250498126E+04  0.21250498126E+04  0.50400001928E-02 0.  1.
    10030    2    1    2    0    0  0.00000000000E+00  0.00000000000E+00 -0.27563103366E+03  0.39744685915E+04  0.39648995092E+04 0.  0.
        2    1    3    3  502    0  0.14551921479E+04 -0.73374267926E+03 -0.12693198738E+04  0.20657045889E+04  0.25500000920E-02 0.  1.
       -2    1    3    3    0  502 -0.14551921479E+04  0.73374267926E+03  0.99368884014E+03  0.19087640026E+04  0.25500000920E-02 0. -1.
</event>
<event>
 5   0  0.2632875E-08  0.3934327E+04  0.7818609E-02  0.8017927E-01
        1   -1    0    0  501    0  0.00000000000E+00  0.00000000000E+00  0.16095276838E+04  0.16095276838E+04  0.50400001928E-02 0.  1.
       -1   -1    0    0    0  501  0.00000000000E+00  0.00000000000E+00 -0.24042660710E+04  0.24042660710E+04  0.50400001928E-02 0. -1.
    10030    2    1    2    0    0  0.00000000000E+00  0.00000000000E+00 -0.79473838723E+03  0.40137937548E+04  0.39343272871E+04 0.  0.
        3    1    3    3  502    0 -0.16992815335E+03  0.15590578253E+04  0.81413324689E+03  0.17670172138E+04  0.10100000352E+00 0.  1.
       -3    1    3    3    0  502  0.16992815335E+03 -0.15590578253E+04 -0.16088716341E+04  0.22467765410E+04  0.10100000352E+00 0. -1.
</event>
<event>
 5   0  0.2632875E-08  0.3781266E+04  0.7818609E-02  0.8050187E-01
        1   -1    0    0  501    0  0.00000000000E+00  0.00000000000E+00  0.15698350629E+04  0.15698350629E+04  0.50400001928E-02 0. -1.
       -1   -1    0    0    0  501  0.00000000000E+00  0.00000000000E+00 -0.22769862813E+04  0.22769862813E+04  0.50400001928E-02 0.  1.
    10030    2    1    2    0    0  0.00000000000E+00  0.00000000000E+00 -0.70715121835E+03  0.38468213442E+04  0.37812658738E+04 0.  0.
        1    1    3    3  502    0  0.21480789617E+03 -0.62229918805E+03 -0.21566152776E+04  0.22548587910E+04  0.50400001928E-02 0.  1.
       -1    1    3    3    0  502 -0.21480789617E+03  0.62229918805E+03  0.14494640593E+04  0.15919625532E+04  0.50400001928E-02 0. -1.
</event>
<event>
 5   0  0.8551754E-08  0.3892763E+04  0.7818609E-02  0.8026536E-01
        2   -1    0    0  501    0  0.00000000000E+00  0.00000000000E+00  0.17436491037E+04  0.17436491037E+04  0.25500000920E-02 0.  1.
       -2   -1    0    0    0  501  0.00000000000E+00  0.00000000000E+00 -0.21726850552E+04  0.21726850552E+04  0.25500000920E-02 0. -1.
    10030    2    1    2    0    0  0.00000000000E+00  0.00000000000E+00 -0.42903595146E+03  0.39163341589E+04  0.38927626946E+04 0.  0.
        1    1    3    3  502    0  0.17159026063E+03  0.18831239169E+04 -0.67861533508E+03  0.20090091282E+04  0.50400001928E-02 0.  1.
       -1    1    3    3    0  502 -0.17159026063E+03 -0.18831239169E+04  0.24957938362E+03  0.19073250307E+04  0.50400001928E-02 0. -1.
</event>
<event>
 5   0  0.8676098E-08  0.3831255E+04  0.7818609E-02  0.8039481E-01
       -2   -1    0    0    0  501  0.00000000000E+00  0.00000000000E+00  0.29624072022E+04  0.29624072022E+04  0.25500000920E-02 0.  1.
        2   -1    0    0  501    0  0.00000000000E+00  0.00000000000E+00 -0.12387317932E+04  0.12387317932E+04  0.25500000920E-02 0. -1.
    10030    2    1    2    0    0  0.00000000000E+00  0.00000000000E+00  0.17236754090E+04  0.42011389954E+04  0.38312546173E+04 0.  0.
        3    1    3    3  502    0 -0.17894820669E+04 -0.36612026124E+03  0.14949319385E+04  0.23603202376E+04  0.10100000352E+00 0.  1.
       -3    1    3    3    0  502  0.17894820669E+04  0.36612026124E+03  0.22874347056E+03  0.18408187577E+04  0.10100000352E+00 0. -1.
</event>
<event>
 5   0  0.8438211E-08  0.3901799E+04  0.7818609E-02  0.8024655E-01
        2   -1    0    0  501    0  0.00000000000E+00  0.00000000000E+00  0.30400477846E+04  0.30400477846E+04  0.25500000920E-02 0.  1.
       -2   -1    0    0    0  501  0.00000000000E+00  0.00000000000E+00 -0.12519566158E+04  0.12519566158E+04  0.25500000920E-02 0. -1.
    10030    2    1    2    0    0  0.00000000000E+00  0.00000000000E+00  0.17880911688E+04  0.42920044004E+04  0.39017985269E+04 0.  0.
        5    1    3    3  502    0  0.10444214221E+04 -0.16090333912E+04  0.50330115861E+03  0.19832142364E+04  0.46999998093E+01 0. -1.
       -5    1    3    3    0  502 -0.10444214221E+04  0.16090333912E+04  0.12847900102E+04  0.23087901640E+04  0.46999998093E+01 0.  1.
</event>
<event>
 5   0  0.8342802E-08  0.3884226E+04  0.7818609E-02  0.8028318E-01
       -2   -1    0    0    0  501  0.00000000000E+00  0.00000000000E+00  0.12733234343E+04  0.12733234343E+04  0.25500000920E-02 0. -1.
        2   -1    0    0  501    0  0.00000000000E+00  0.00000000000E+00 -0.29621716561E+04  0.29621716561E+04  0.25500000920E-02 0.  1.
    10030    2    1    2    0    0  0.00000000000E+00  0.00000000000E+00 -0.16888482218E+04  0.42354950903E+04  0.38842258359E+04 0.  0.
        4    1    3    3  502    0  0.67196660988E+03 -0.98437218954E+03 -0.25164818129E+04  0.27844586655E+04  0.12699999809E+01 0.  1.
       -4    1    3    3    0  502 -0.67196660988E+03  0.98437218954E+03  0.82763359108E+03  0.14510364249E+04  0.12699999809E+01 0. -1.
</event>
<event>
 5   0  0.8551754E-08  0.3897235E+04  0.7818609E-02  0.8025604E-01
       -2   -1    0    0    0  501  0.00000000000E+00  0.00000000000E+00  0.18071225156E+04  0.18071225156E+04  0.25500000920E-02 0. -1.
        2   -1    0    0  501    0  0.00000000000E+00  0.00000000000E+00 -0.21011917730E+04  0.21011917730E+04  0.25500000920E-02 0.  1.
    10030    2    1    2    0    0  0.00000000000E+00  0.00000000000E+00 -0.29406925736E+03  0.39083142886E+04  0.38972354112E+04 0.  0.
        1    1    3    3  502    0 -0.67518742472E+03  0.86051878303E+03 -0.17643001819E+04  0.20758433868E+04  0.50400001928E-02 0.  1.
       -1    1    3    3    0  502  0.67518742472E+03 -0.86051878303E+03  0.14702309246E+04  0.18324709018E+04  0.50400001928E-02 0. -1.
</event>
<event>
 5   0  0.2632875E-08  0.3903512E+04  0.7818609E-02  0.8024299E-01
       -1   -1    0    0    0  501  0.00000000000E+00  0.00000000000E+00  0.28319659845E+04  0.28319659845E+04  0.50400001928E-02 0.  1.
        1   -1    0    0  501    0  0.00000000000E+00  0.00000000000E+00 -0.13451264525E+04  0.13451264525E+04  0.50400001928E-02 0. -1.
    10030    2    1    2    0    0  0.00000000000E+00  0.00000000000E+00  0.14868395320E+04  0.41770924369E+04  0.39035124482E+04 0.  0.
        4    1    3    3  502    0 -0.88401874162E+03 -0.13149360768E+04 -0.47610450247E+03  0.16544555394E+04  0.12699999809E+01 0. -1.
       -4    1    3    3    0  502  0.88401874162E+03  0.13149360768E+04  0.19629440345E+04  0.25226368976E+04  0.12699999809E+01 0.  1.
</event>
<event>
 5   0  0.2632875E-08  0.3902949E+04  0.7818609E-02  0.8024416E-01
       -1   -1    0    0    0  501  0.00000000000E+00  0.00000000000E+00  0.27901856171E+04  0.27901856171E+04  0.50400001928E-02 0.  1.
        1   -1    0    0  501    0  0.00000000000E+00  0.00000000000E+00 -0.13648740519E+04  0.13648740519E+04  0.50400001928E-02 0. -1.
    10030    2    1    2    0    0  0.00000000000E+00  0.00000000000E+00  0.14253115652E+04  0.41550596690E+04  0.39029486027E+04 0.  0.
        3    1    3    3  502    0  0.10289472104E+04  0.90743536636E+03 -0.76482440159E+03  0.15707092924E+04  0.10100000352E+00 0. -1.
       -3    1    3    3    0  502 -0.10289472104E+04 -0.90743536636E+03  0.21901359667E+04  0.25843503766E+04  0.10100000352E+00 0.  1.
</event>
<event>
 5   0  0.8676098E-08  0.3897699E+04  0.7818609E-02  0.8025508E-01
        2   -1    0    0  501    0  0.00000000000E+00  0.00000000000E+00  0.25911866483E+04  0.25911866483E+04  0.25500000920E-02 0.  1.
       -2   -1    0    0    0  501  0.00000000000E+00  0.00000000000E+00 -0.14657436326E+04  0.14657436326E+04  0.25500000920E-02 0. -1.
    10030    2    1    2    0    0  0.00000000000E+00  0.00000000000E+00  0.11254430157E+04  0.40569302810E+04  0.38976994911E+04 0.  0.
        3    1    3    3  502    0 -0.17860627575E+04  0.74075606955E+03  0.30930952708E+03  0.19581654991E+04  0.10100000352E+00 0. -1.
       -3    1    3    3    0  502  0.17860627575E+04 -0.74075606955E+03  0.81613348864E+03  0.20987647819E+04  0.10100000352E+00 0.  1.
</event>
<event>
 5   0  0.8676098E-08  0.3903323E+04  0.7818609E-02  0.8024339E-01
       -2   -1    0    0    0  501  0.00000000000E+00  0.00000000000E+00  0.18143038632E+04  0.18143038632E+04  0.25500000920E-02 0.  1.
        2   -1    0    0  501    0  0.00000000000E+00  0.00000000000E+00 -0.20994179004E+04  0.20994179004E+04  0.25500000920E-02 0. -1.
    10030    2    1    2    0    0  0.00000000000E+00  0.00000000000E+00 -0.28511403724E+03  0.39137217636E+04  0.39033226908E+04 0.  0.
        3    1    3    3  502    0  0.11537157314E+04 -0.62261277370E+03  0.13070732206E+04  0.18512555386E+04  0.10100000352E+00 0.  1.
       -3    1    3    3    0  502 -0.11537157314E+04  0.62261277370E+03 -0.15921872579E+04  0.20624662250E+04  0.10100000352E+00 0. -1.
</event>
<event>
 5   0  0.2632875E-08  0.3884340E+04  0.7818609E-02  0.8028294E-01
       -1   -1    0    0    0  501  0.00000000000E+00  0.00000000000E+00  0.16549522566E+04  0.16549522566E+04  0.50400001928E-02 0.  1.
        1   -1    0    0  501    0  0.00000000000E+00  0.00000000000E+00 -0.22792340211E+04  0.22792340211E+04  0.50400001928E-02 0. -1.
    10030    2    1    2    0    0  0.00000000000E+00  0.00000000000E+00 -0.62428176449E+03  0.39341862777E+04  0.38843395766E+04 0.  0.
        4    1    3    3  502    0 -0.76531956788E+03 -0.12679628234E+04  0.96039714071E+03  0.17651651603E+04  0.12699999809E+01 0.  1.
       -4    1    3    3    0  502  0.76531956788E+03  0.12679628234E+04 -0.15846789052E+04  0.21690211174E+04  0.12699999809E+01 0. -1.
</event>
<event>
 5   0  0.2632875E-08  0.3898987E+04  0.7818609E-02  0.8025240E-01
       -1   -1    0    0    0  501  0.00000000000E+00  0.00000000000E+00  0.16113923873E+04  0.16113923873E+04  0.50400001928E-02 0.  1.
        1   -1    0    0  501    0  0.00000000000E+00  0.00000000000E+00 -0.23585347122E+04  0.23585347122E+04  0.50400001928E-02 0. -1.
    10030    2    1    2    0    0  0.00000000000E+00  0.00000000000E+00 -0.74714232492E+03  0.39699270995E+04  0.38989869866E+04 0.  0.
        1    1    3    3  502    0 -0.21979103202E+03 -0.18470103280E+04 -0.96794705725E+03  0.20968253993E+04  0.50400001928E-02 0.  1.
       -1    1    3    3    0  502  0.21979103202E+03  0.18470103280E+04  0.22080473233E+03  0.18731017002E+04  0.50400001928E-02 0. -1.
</event>
<event>
 5   0  0.8438211E-08  0.3902062E+04  0.7818609E-02  0.8024600E-01
       -2   -1    0    0    0  501  0.00000000000E+00  0.00000000000E+00  0.17923052204E+04  0.17923052204E+04  0.25500000920E-02 0.  1.
        2   -1    0    0  501    0  0.00000000000E+00  0.00000000000E+00 -0.21238136424E+04  0.21238136424E+04  0.25500000920E-02 0. -1.
    10030    2    1    2    0    0  0.00000000000E+00  0.00000000000E+00 -0.33150842196E+03  0.39161188628E+04  0.39020621617E+04 0.  0.
        5    1    3    3  502    0 -0.13499594088E+03  0.18664965783E+03  0.17786041668E+04  0.17934650460E+04  0.46999998093E+01 0.  1.
       -5    1    3    3    0  502  0.13499594088E+03 -0.18664965783E+03 -0.21101125888E+04  0.21226538168E+04  0.46999998093E+01 0. -1.
</event>
<event>
 5   0  0.2632875E-08  0.3897783E+04  0.7818609E-02  0.8025491E-01
        1   -1    0    0  501    0  0.00000000000E+00  0.00000000000E+00  0.15254295384E+04  0.15254295384E+04  0.50400001928E-02 0. -1.
       -1   -1    0    0    0  501  0.00000000000E+00  0.00000000000E+00 -0.24899067953E+04  0.24899067953E+04  0.50400001928E-02 0.  1.
    10030    2    1    2    0    0  0.00000000000E+00  0.00000000000E+00 -0.96447725694E+03  0.40153363337E+04  0.38977826381E+04 0.  0.
        1    1    3    3  502    0 -0.13132620543E+04  0.10369489993E+04  0.54702227694E+03  0.17604413713E+04  0.50400001928E-02 0. -1.
       -1    1    3    3    0  502  0.13132620543E+04 -0.10369489993E+04 -0.15114995339E+04  0.22548949624E+04  0.50400001928E-02 0.  1.
</event>
<event>
 5   0  0.2632875E-08  0.3895212E+04  0.7818609E-02  0.8026026E-01
        1   -1    0    0  501    0  0.00000000000E+00  0.00000000000E+00  0.18844565231E+04  0.18844565231E+04  0.50400001928E-02 0.  1.
       -1   -1    0    0    0  501  0.00000000000E+00  0.00000000000E+00 -0.20128716145E+04  0.20128716145E+04  0.50400001928E-02 0. -1.
    10030    2    1    2    0    0  0.00000000000E+00  0.00000000000E+00 -0.12841509140E+03  0.38973281376E+04  0.38952119552E+04 0.  0.
        1    1    3    3  502    0 -0.86461164807E+03 -0.13282337091E+04 -0.11968167716E+04  0.19859829991E+04  0.50400001928E-02 0. -1.
       -1    1    3    3    0  502  0.86461164807E+03  0.13282337091E+04  0.10684016802E+04  0.19113451385E+04  0.50400001928E-02 0.  1.
</event>
<event>
 5   0  0.8342802E-08  0.3879570E+04  0.7818609E-02  0.8029292E-01
       -2   -1    0    0    0  501  0.00000000000E+00  0.00000000000E+00  0.17110283139E+04  0.17110283139E+04  0.25500000920E-02 0.  1.
        2   -1    0    0  501    0  0.00000000000E+00  0.00000000000E+00 -0.21991252227E+04  0.21991252227E+04  0.25500000920E-02 0. -1.
    10030    2    1    2    0    0  0.00000000000E+00  0.00000000000E+00 -0.48809690874E+03  0.39101535366E+04  0.38795698328E+04 0.  0.
        4    1    3    3  502    0  0.69739169508E+03 -0.13230175466E+04  0.10010171712E+04  0.17996576326E+04  0.12699999809E+01 0.  1.
       -4    1    3    3    0  502 -0.69739169508E+03  0.13230175466E+04 -0.14891140799E+04  0.21104959040E+04  0.12699999809E+01 0. -1.
</event>
<event>
 5   0  0.2632875E-08  0.3907553E+04  0.7818609E-02  0.8023460E-01
       -1   -1    0    0    0  501  0.00000000000E+00  0.00000000000E+00  0.15894717405E+04  0.15894717405E+04  0.50400001928E-02 0.  1.
        1   -1    0    0  501    0  0.00000000000E+00  0.00000000000E+00 -0.24015790421E+04  0.24015790421E+04  0.50400001928E-02 0. -1.
    10030    2    1    2    0    0  0.00000000000E+00  0.00000000000E+00 -0.81210730155E+03  0.39910507826E+04  0.39075526971E+04 0.  0.
        3    1    3    3  502    0 -0.17925503772E+04 -0.60501244462E+03  0.92186866068E+02  0.18941423762E+04  0.10100000352E+00 0.  1.
       -3    1    3    3    0  502  0.17925503772E+04  0.60501244462E+03 -0.90429416762E+03  0.20969084064E+04  0.10100000352E+00 0. -1.
</event>
<event>
 5   0  0.2632875E-08  0.3888332E+04  0.7818609E-02  0.8027460E-01
        1   -1    0    0  501    0  0.00000000000E+00  0.00000000000E+00  0.30786258290E+04  0.30786258290E+04  0.50400001928E-02 0.  1.
       -1   -1    0    0    0  501  0.00000000000E+00  0.00000000000E+00 -0.12277498294E+04  0.12277498294E+04  0.50400001928E-02 0. -1.
    10030    2    1    2    0    0  0.00000000000E+00  0.00000000000E+00  0.18508759995E+04  0.43063756584E+04  0.38883324634E+04 0.  0.
        3    1    3    3  502    0 -0.15984733968E+04  0.26226664717E+03  0.21161456544E+04  0.26649528017E+04  0.10100000352E+00 0.  1.
       -3    1    3    3    0  502  0.15984733968E+04 -0.26226664717E+03 -0.26526965486E+03  0.16414228567E+04  0.10100000352E+00 0. -1.
</event>
<event>
 5   0  0.2632875E-08  0.3906744E+04  0.7818609E-02  0.8023628E-01
        1   -1    0    0  501    0  0.00000000000E+00  0.00000000000E+00  0.14473700353E+04  0.14473700353E+04  0.50400001928E-02 0. -1.
       -1   -1    0    0    0  501  0.00000000000E+00  0.00000000000E+00 -0.26362728922E+04  0.26362728922E+04  0.50400001928E-02 0.  1.
    10030    2    1    2    0    0  0.00000000000E+00  0.00000000000E+00 -0.11889028569E+04  0.40836429275E+04  0.39067441120E+04 0.  0.
        3    1    3    3  502    0  0.10412848525E+04  0.13325643293E+04  0.42739262504E+03  0.17443240243E+04  0.10100000352E+00 0.  1.
       -3    1    3    3    0  502 -0.10412848525E+04 -0.13325643293E+04 -0.16162954819E+04  0.23393189032E+04  0.10100000352E+00 0. -1.
</event>
<event>
 5   0  0.2632875E-08  0.3910440E+04  0.7818609E-02  0.8022861E-01
        1   -1    0    0  501    0  0.00000000000E+00  0.00000000000E+00  0.26552738436E+04  0.26552738436E+04  0.50400001928E-02 0.  1.
       -1   -1    0    0    0  501  0.00000000000E+00  0.00000000000E+00 -0.14397331787E+04  0.14397331787E+04  0.50400001928E-02 0. -1.
    10030    2    1    2    0    0  0.00000000000E+00  0.00000000000E+00  0.12155406649E+04  0.40950070223E+04  0.39104403083E+04 0.  0.
        5    1    3    3  502    0  0.13075710826E+04  0.11639082777E+04 -0.30421816392E+03  0.17767935717E+04  0.46999998093E+01 0. -1.
       -5    1    3    3    0  502 -0.13075710826E+04 -0.11639082777E+04  0.15197588288E+04  0.23182134507E+04  0.46999998093E+01 0.  1.
</event>
<event>
 5   0  0.2632875E-08  0.3925353E+04  0.7818609E-02  0.8019777E-01
        1   -1    0    0  501    0  0.00000000000E+00  0.00000000000E+00  0.22182501353E+04  0.22182501353E+04  0.50400001928E-02 0.  1.
       -1   -1    0    0    0  501  0.00000000000E+00  0.00000000000E+00 -0.17365488638E+04  0.17365488638E+04  0.50400001928E-02 0. -1.
    10030    2    1    2    0    0  0.00000000000E+00  0.00000000000E+00  0.48170127149E+03  0.39547989992E+04  0.39253533610E+04 0.  0.
        5    1    3    3  502    0  0.11618662624E+04 -0.83415384310E+03  0.15949309468E+04  0.21423287938E+04  0.46999998093E+01 0.  1.
       -5    1    3    3    0  502 -0.11618662624E+04  0.83415384310E+03 -0.11132296753E+04  0.18124702054E+04  0.46999998093E+01 0. -1.
</event>
<event>
 5   0  0.2632875E-08  0.3884682E+04  0.7818609E-02  0.8028223E-01
       -1   -1    0    0    0  501  0.00000000000E+00  0.00000000000E+00  0.27140780971E+04  0.27140780971E+04  0.50400001928E-02 0.  1.
        1   -1    0    0  501    0  0.00000000000E+00  0.00000000000E+00 -0.13900442054E+04  0.13900442054E+04  0.50400001928E-02 0. -1.
    10030    2    1    2    0    0  0.00000000000E+00  0.00000000000E+00  0.13240338917E+04  0.41041223026E+04  0.38846819854E+04 0.  0.
        2    1    3    3  502    0  0.10958704584E+04 -0.83909476935E+03 -0.78181166198E+03  0.15862665502E+04  0.25500000920E-02 0. -1.
       -2    1    3    3    0  502 -0.10958704584E+04  0.83909476935E+03  0.21058455537E+04  0.25178557523E+04  0.25500000920E-02 0.  1.
</event>
<event>
 5   0  0.2632875E-08  0.3943244E+04  0.7818609E-02  0.8016095E-01
       -1   -1    0    0    0  501  0.00000000000E+00  0.00000000000E+00  0.26338799252E+04  0.26338799252E+04  0.50400001928E-02 0. -1.
        1   -1    0    0  501    0  0.00000000000E+00  0.00000000000E+00 -0.14758808545E+04  0.14758808545E+04  0.50400001928E-02 0.  1.
    10030    2    1    2    0    0  0.00000000000E+00  0.00000000000E+00  0.11579990707E+04  0.41097607798E+04  0.39432438194E+04 0.  0.
        2    1    3    3  502    0  0.12861379860E+04 -0.95294098422E+03  0.17787151475E+04  0.23929218571E+04  0.25500000920E-02 0. -1.
       -2    1    3    3    0  502 -0.12861379860E+04  0.95294098422E+03 -0.62071607679E+03  0.17168389226E+04  0.25500000920E-02 0.  1.
</event>
<event>
 5   0  0.2632875E-08  0.3897774E+04  0.7818609E-02  0.8025492E-01
        1   -1    0    0  501    0  0.00000000000E+00  0.00000000000E+00  0.19258541113E+04  0.19258541113E+04  0.50400001928E-02 0. -1.
       -1   -1    0    0    0  501  0.00000000000E+00  0.00000000000E+00 -0.19721951854E+04  0.19721951855E+04  0.50400001928E-02 0.  1.
    10030    2    1    2    0    0  0.00000000000E+00  0.00000000000E+00 -0.46341074105E+02  0.38980492968E+04  0.38977738294E+04 0.  0.
        2    1    3    3  502    0  0.82636352795E+03 -0.17290822257E+04 -0.37753748013E+03  0.19532374594E+04  0.25500000920E-02 0.  1.
       -2    1    3    3    0  502 -0.82636352795E+03  0.17290822257E+04  0.33119640603E+03  0.19448118374E+04  0.25500000920E-02 0. -1.
</event>
<event>
 5   0  0.8438211E-08  0.3902890E+04  0.7818609E-02  0.8024428E-01
       -2   -1    0    0    0  501  0.00000000000E+00  0.00000000000E+00  0.12077317331E+04  0.12077317331E+04  0.25500000920E-02 0. -1.
        2   -1    0    0  501    0  0.00000000000E+00  0.00000000000E+00 -0.31531318002E+04  0.31531318002E+04  0.25500000920E-02 0.  1.
    10030    2    1    2    0    0  0.00000000000E+00  0.00000000000E+00 -0.19454000671E+04  0.43608635332E+04  0.39028898696E+04 0.  0.
        5    1    3    3  502    0  0.40734177508E+03  0.69811902882E+03 -0.29573016327E+04  0.30657711162E+04  0.46999998093E+01 0.  1.
       -5    1    3    3    0  502 -0.40734177508E+03 -0.69811902882E+03  0.10119015656E+04  0.12950924170E+04  0.46999998093E+01 0. -1.
</event>
<event>
 5   0  0.2632875E-08  0.3897449E+04  0.7818609E-02  0.8025560E-01
        1   -1    0    0  501    0  0.00000000000E+00  0.00000000000E+00  0.23293020279E+04  0.23293020280E+04  0.50400001928E-02 0. -1.
       -1   -1    0    0    0  501  0.00000000000E+00  0.00000000000E+00 -0.16303284006E+04  0.16303284006E+04  0.50400001928E-02 0.  1.
    10030    2    1    2    0    0  0.00000000000E+00  0.00000000000E+00  0.69897362731E+03  0.39596304286E+04  0.38974490374E+04 0.  0.
        3    1    3    3  502    0 -0.19365601923E+04  0.20367104206E+03  0.42672586397E+03  0.19934498350E+04  0.10100000352E+00 0. -1.
       -3    1    3    3    0  502  0.19365601923E+04 -0.20367104206E+03  0.27224776334E+03  0.19661805936E+04  0.10100000352E+00 0.  1.
</event>
<event>
 5   0  0.8438211E-08  0.3873421E+04  0.7818609E-02  0.8030580E-01
        2   -1    0    0  501    0  0.00000000000E+00  0.00000000000E+00  0.21807302121E+04  0.21807302121E+04  0.25500000920E-02 0.  1.
       -2   -1    0    0    0  501  0.00000000000E+00  0.00000000000E+00 -0.17199962972E+04  0.17199962972E+04  0.25500000920E-02 0. -1.
    10030    2    1    2    0    0  0.00000000000E+00  0.00000000000E+00  0.46073391491E+03  0.39007265093E+04  0.38734211699E+04 0.  0.
        5    1    3    3  502    0 -0.54214890996E+03 -0.13568366563E+04  0.15105064656E+04  0.21015668024E+04  0.46999998093E+01 0.  1.
       -5    1    3    3    0  502  0.54214890996E+03  0.13568366563E+04 -0.10497725507E+04  0.17991597068E+04  0.46999998093E+01 0. -1.
</event>
<event>
 5   0  0.2632875E-08  0.3895913E+04  0.7818609E-02  0.8025880E-01
       -1   -1    0    0    0  501  0.00000000000E+00  0.00000000000E+00  0.18355175339E+04  0.18355175339E+04  0.50400001928E-02 0.  1.
        1   -1    0    0  501    0  0.00000000000E+00  0.00000000000E+00 -0.20672836719E+04  0.20672836719E+04  0.50400001928E-02 0. -1.
    10030    2    1    2    0    0  0.00000000000E+00  0.00000000000E+00 -0.23176613804E+03  0.39028012058E+04  0.38959134628E+04 0.  0.
        4    1    3    3  502    0 -0.19138199936E+04  0.19806166879E+03  0.18895480298E+03  0.19332979396E+04  0.12699999809E+01 0.  1.
       -4    1    3    3    0  502  0.19138199936E+04 -0.19806166879E+03 -0.42072094102E+03  0.19695032662E+04  0.12699999809E+01 0. -1.
</event>
<event>
 5   0  0.8342802E-08  0.3902399E+04  0.7818609E-02  0.8024531E-01
        2   -1    0    0  501    0  0.00000000000E+00  0.00000000000E+00  0.27925561145E+04  0.27925561145E+04  0.25500000920E-02 0. -1.
       -2   -1    0    0    0  501  0.00000000000E+00  0.00000000000E+00 -0.13633310866E+04  0.13633310866E+04  0.25500000920E-02 0.  1.
    10030    2    1    2    0    0  0.00000000000E+00  0.00000000000E+00  0.14292250279E+04  0.41558872011E+04  0.39023985250E+04 0.  0.
        4    1    3    3  502    0 -0.13931013231E+04  0.10565468458E+04 -0.20776236742E+03  0.17607354566E+04  0.12699999809E+01 0.  1.
       -4    1    3    3    0  502  0.13931013231E+04 -0.10565468458E+04  0.16369873954E+04  0.23951517445E+04  0.12699999809E+01 0. -1.
</event>
<event>
 5   0  0.8551754E-08  0.3886228E+04  0.7818609E-02  0.8027900E-01
        2   -1    0    0  501    0  0.00000000000E+00  0.00000000000E+00  0.17987387838E+04  0.17987387838E+04  0.25500000920E-02 0. -1.
       -2   -1    0    0    0  501  0.00000000000E+00  0.00000000000E+00 -0.20990779599E+04  0.20990779599E+04  0.25500000920E-02 0.  1.
    10030    2    1    2    0    0  0.00000000000E+00  0.00000000000E+00 -0.30033917611E+03  0.38978167437E+04  0.38862284733E+04 0.  0.
        1    1    3    3  502    0 -0.14655814844E+04 -0.10853924808E+04 -0.82275626389E+03  0.20007333142E+04  0.50400001928E-02 0.  1.
       -1    1    3    3    0  502  0.14655814844E+04  0.10853924808E+04  0.52241708778E+03  0.18970834295E+04  0.50400001928E-02 0. -1.
</event>
<event>
 5   0  0.2632875E-08  0.3892215E+04  0.7818609E-02  0.8026650E-01
        1   -1    0    0  501    0  0.00000000000E+00  0.00000000000E+00  0.27388197347E+04  0.27388197347E+04  0.50400001928E-02 0. -1.
       -1   -1    0    0    0  501  0.00000000000E+00  0.00000000000E+00 -0.13828342511E+04  0.13828342511E+04  0.50400001928E-02 0.  1.
    10030    2    1    2    0    0  0.00000000000E+00  0.00000000000E+00  0.13559854836E+04  0.41216539858E+04  0.38922146584E+04 0.  0.
        3    1    3    3  502    0  0.28920745825E+03  0.40612622672E+03  0.26700414282E+04  0.27161923173E+04  0.10100000352E+00 0. -1.
       -3    1    3    3    0  502 -0.28920745825E+03 -0.40612622672E+03 -0.13140559446E+04  0.14054616685E+04  0.10100000352E+00 0.  1.
</event>
<event>
 5   0  0.8676098E-08  0.3876391E+04  0.7818609E-02  0.8029958E-01
        2   -1    0    0  501    0  0.00000000000E+00  0.00000000000E+00  0.26590776959E+04  0.26590776959E+04  0.25500000920E-02 0.  1.
       -2   -1    0    0    0  501  0.00000000000E+00  0.00000000000E+00 -0.14127458343E+04  0.14127458343E+04  0.25500000920E-02 0. -1.
    10030    2    1    2    0    0  0.00000000000E+00  0.00000000000E+00  0.12463318616E+04  0.40718235302E+04  0.38763905572E+04 0.  0.
        3    1    3    3  502    0 -0.18559494257E+03  0.12731105029E+04  0.21458510756E+04  0.25019857482E+04  0.10100000352E+00 0.  1.
       -3    1    3    3    0  502  0.18559494257E+03 -0.12731105029E+04 -0.89951921399E+03  0.15698377820E+04  0.10100000352E+00 0. -1.
</event>
<event>
 5   0  0.2632875E-08  0.3908754E+04  0.7818609E-02  0.8023211E-01
        1   -1    0    0  501    0  0.00000000000E+00  0.00000000000E+00  0.13641709224E+04  0.13641709225E+04  0.50400001928E-02 0.  1.
       -1   -1    0    0    0  501  0.00000000000E+00  0.00000000000E+00 -0.27999346356E+04  0.27999346356E+04  0.50400001928E-02 0. -1.
    10030    2    1    2    0    0  0.00000000000E+00  0.00000000000E+00 -0.14357637131E+04  0.41641055580E+04  0.39087539777E+04 0.  0.
        1    1    3    3  502    0 -0.67200148372E+03  0.23406366168E+03  0.12212546174E+04  0.14134477820E+04  0.50400001928E-02 0.  1.
       -1    1    3    3    0  502  0.67200148372E+03 -0.23406366168E+03 -0.26570183306E+04  0.27506577760E+04  0.50400001928E-02 0. -1.
</event>
<event>
 5   0  0.8476262E-08  0.3905590E+04  0.7818609E-02  0.8023868E-01
       -2   -1    0    0    0  501  0.00000000000E+00  0.00000000000E+00  0.16902911459E+04  0.16902911459E+04  0.25500000920E-02 0. -1.
        2   -1    0    0  501    0  0.00000000000E+00  0.00000000000E+00 -0.22560655635E+04  0.22560655635E+04  0.25500000920E-02 0.  1.
    10030    2    1    2    0    0  0.00000000000E+00  0.00000000000E+00 -0.56577441757E+03  0.39463567094E+04  0.39055896592E+04 0.  0.
        2    1    3    3  502    0 -0.23944565933E+03 -0.19196332132E+04 -0.55228174301E+03  0.20118004426E+04  0.25500000920E-02 0.  1.
       -2    1    3    3    0  502  0.23944565933E+03  0.19196332132E+04 -0.13492674557E+02  0.19345562668E+04  0.25500000920E-02 0. -1.
</event>
<event>
 5   0  0.2632875E-08  0.3896456E+04  0.7818609E-02  0.8025767E-01
        1   -1    0    0  501    0  0.00000000000E+00  0.00000000000E+00  0.10958796612E+04  0.10958796612E+04  0.50400001928E-02 0. -1.
       -1   -1    0    0    0  501  0.00000000000E+00  0.00000000000E+00 -0.34635114821E+04  0.34635114821E+04  0.50400001928E-02 0.  1.
    10030    2    1    2    0    0  0.00000000000E+00  0.00000000000E+00 -0.23676318209E+04  0.45593911433E+04  0.38964557174E+04 0.  0.
        4    1    3    3  502    0 -0.69413511678E+03 -0.13840388901E+04  0.19982124572E+03  0.15611910045E+04  0.12699999809E+01 0. -1.
       -4    1    3    3    0  502  0.69413511678E+03  0.13840388901E+04 -0.25674530666E+04  0.29982001387E+04  0.12699999809E+01 0.  1.
</event>
<event>
 5   0  0.2632875E-08  0.3892792E+04  0.7818609E-02  0.8026530E-01
       -1   -1    0    0    0  501  0.00000000000E+00  0.00000000000E+00  0.16834167317E+04  0.16834167317E+04  0.50400001928E-02 0.  1.
        1   -1    0    0  501    0  0.00000000000E+00  0.00000000000E+00 -0.22504576343E+04  0.22504576343E+04  0.50400001928E-02 0. -1.
    10030    2    1    2    0    0  0.00000000000E+00  0.00000000000E+00 -0.56704090260E+03  0.39338743659E+04  0.38927923322E+04 0.  0.
        1    1    3    3  502    0  0.17027002527E+04  0.33784069365E+03 -0.11732284958E+04  0.20951824714E+04  0.50400001928E-02 0. -1.
       -1    1    3    3    0  502 -0.17027002527E+04 -0.33784069365E+03  0.60618759324E+03  0.18386918946E+04  0.50400001928E-02 0.  1.
</event>
<event>
 5   0  0.2632875E-08  0.3820836E+04  0.7818609E-02  0.8041698E-01
       -1   -1    0    0    0  501  0.00000000000E+00  0.00000000000E+00  0.16402167767E+04  0.16402167767E+04  0.50400001928E-02 0.  1.
        1   -1    0    0  501    0  0.00000000000E+00  0.00000000000E+00 -0.22251304469E+04  0.22251304469E+04  0.50400001928E-02 0. -1.
    10030    2    1    2    0    0  0.00000000000E+00  0.00000000000E+00 -0.58491367018E+03  0.38653472236E+04  0.38208356622E+04 0.  0.
        2    1    3    3  502    0  0.68065708173E+03 -0.17768231406E+04 -0.46562855010E+03  0.19588783736E+04  0.25500000920E-02 0. -1.
       -2    1    3    3    0  502 -0.68065708173E+03  0.17768231406E+04 -0.11928512008E+03  0.19064688500E+04  0.25500000920E-02 0.  1.
</event>
<event>
 5   0  0.8476262E-08  0.3900558E+04  0.7818609E-02  0.8024913E-01
       -2   -1    0    0    0  501  0.00000000000E+00  0.00000000000E+00  0.14778058419E+04  0.14778058419E+04  0.25500000920E-02 0. -1.
        2   -1    0    0  501    0  0.00000000000E+00  0.00000000000E+00 -0.25738079372E+04  0.25738079372E+04  0.25500000920E-02 0.  1.
    10030    2    1    2    0    0  0.00000000000E+00  0.00000000000E+00 -0.10960020954E+04  0.40516137791E+04  0.39005581168E+04 0.  0.
        2    1    3    3  502    0 -0.31271004740E+03 -0.19097341883E+03  0.14417313497E+04  0.14875643532E+04  0.25500000920E-02 0. -1.
       -2    1    3    3    0  502  0.31271004740E+03  0.19097341883E+03 -0.25377334450E+04  0.25640494259E+04  0.25500000920E-02 0.  1.
</event>
<event>
 5   0  0.8551754E-08  0.3906631E+04  0.7818609E-02  0.8023652E-01
       -2   -1    0    0    0  501  0.00000000000E+00  0.00000000000E+00  0.30010460468E+04  0.30010460468E+04  0.25500000920E-02 0. -1.
        2   -1    0    0  501    0  0.00000000000E+00  0.00000000000E+00 -0.12713705017E+04  0.12713705017E+04  0.25500000920E-02 0.  1.
    10030    2    1    2    0    0  0.00000000000E+00  0.00000000000E+00  0.17296755451E+04  0.42724165484E+04  0.39066309874E+04 0.  0.
        1    1    3    3  502    0 -0.19514459794E+04  0.43323583055E+02  0.94537450093E+03  0.21688133369E+04  0.50400001928E-02 0.  1.
       -1    1    3    3    0  502  0.19514459794E+04 -0.43323583055E+02  0.78430104417E+03  0.21036032115E+04  0.50400001928E-02 0. -1.
</event>
<event>
 5   0  0.2632875E-08  0.3907639E+04  0.7818609E-02  0.8023442E-01
        1   -1    0    0  501    0  0.00000000000E+00  0.00000000000E+00  0.18664524325E+04  0.18664524325E+04  0.50400001928E-02 0. -1.
       -1   -1    0    0    0  501  0.00000000000E+00  0.00000000000E+00 -0.20452756253E+04  0.20452756253E+04  0.50400001928E-02 0.  1.
    10030    2    1    2    0    0  0.00000000000E+00  0.00000000000E+00 -0.17882319286E+03  0.39117280578E+04  0.39076385022E+04 0.  0.
        2    1    3    3  502    0  0.13005420396E+04  0.13630876246E+04  0.42880981104E+03  0.19321737301E+04  0.25500000920E-02 0. -1.
       -2    1    3    3    0  502 -0.13005420396E+04 -0.13630876246E+04 -0.60763300391E+03  0.19795543278E+04  0.25500000920E-02 0.  1.
</event>
<event>
 5   0  0.8551754E-08  0.3910436E+04  0.7818609E-02  0.8022862E-01
        2   -1    0    0  501    0  0.00000000000E+00  0.00000000000E+00  0.17886738739E+04  0.17886738739E+04  0.25500000920E-02 0.  1.
       -2   -1    0    0    0  501  0.00000000000E+00  0.00000000000E+00 -0.21372686572E+04  0.21372686572E+04  0.25500000920E-02 0. -1.
    10030    2    1    2    0    0  0.00000000000E+00  0.00000000000E+00 -0.34859478324E+03  0.39259425311E+04  0.39104355812E+04 0.  0.
        1    1    3    3  502    0  0.12827241943E+04 -0.14588230154E+04  0.48688437267E+02  0.19431717662E+04  0.50400001928E-02 0. -1.
       -1    1    3    3    0  502 -0.12827241943E+04  0.14588230154E+04 -0.39728322051E+03  0.19827707649E+04  0.50400001928E-02 0.  1.
</event>
<event>
 5   0  0.2632875E-08  0.3922862E+04  0.7818609E-02  0.8020291E-01
        1   -1    0    0  501    0  0.00000000000E+00  0.00000000000E+00  0.25833331954E+04  0.25833331954E+04  0.50400001928E-02 0.  1.
       -1   -1    0    0    0  501  0.00000000000E+00  0.00000000000E+00 -0.14892430254E+04  0.14892430254E+04  0.50400001928E-02 0. -1.
    10030    2    1    2    0    0  0.00000000000E+00  0.00000000000E+00  0.10940901700E+04  0.40725762208E+04  0.39228616818E+04 0.  0.
        1    1    3    3  502    0  0.78671937369E+03  0.14228211453E+04  0.16861267466E+04  0.23423003202E+04  0.50400001928E-02 0.  1.
       -1    1    3    3    0  502 -0.78671937369E+03 -0.14228211453E+04 -0.59203657658E+03  0.17302759007E+04  0.50400001928E-02 0. -1.
</event>
<event>
 5   0  0.8438211E-08  0.3892528E+04  0.7818609E-02  0.8026585E-01
        2   -1    0    0  501    0  0.00000000000E+00  0.00000000000E+00  0.21493003251E+04  0.21493003251E+04  0.25500000920E-02 0. -1.
       -2   -1    0    0    0  501  0.00000000000E+00  0.00000000000E+00 -0.17624080239E+04  0.17624080239E+04  0.25500000920E-02 0.  1.
    10030    2    1    2    0    0  0.00000000000E+00  0.00000000000E+00  0.38689230115E+03  0.39117083490E+04  0.38925282985E+04 0.  0.
        5    1    3    3  502    0 -0.15359250769E+04  0.11950932931E+04  0.21822994445E+03  0.19583054460E+04  0.46999998093E+01 0.  1.
       -5    1    3    3    0  502  0.15359250769E+04 -0.11950932931E+04  0.16866235670E+03  0.19534029030E+04  0.46999998093E+01 0. -1.
</event>
<event>
 5   0  0.8342802E-08  0.3917770E+04  0.7818609E-02  0.8021344E-01
        2   -1    0    0  501    0  0.00000000000E+00  0.00000000000E+00  0.20781346940E+04  0.20781346940E+04  0.25500000920E-02 0. -1.
       -2   -1    0    0    0  501  0.00000000000E+00  0.00000000000E+00 -0.18464780574E+04  0.18464780574E+04  0.25500000920E-02 0.  1.
    10030    2    1    2    0    0  0.00000000000E+00  0.00000000000E+00  0.23165663663E+03  0.39246127514E+04  0.39177698313E+04 0.  0.
        4    1    3    3  502    0 -0.11814669683E+04 -0.13279319577E+04  0.94065035359E+03  0.20109928349E+04  0.12699999809E+01 0.  1.
       -4    1    3    3    0  502  0.11814669683E+04  0.13279319577E+04 -0.70899371696E+03  0.19136199165E+04  0.12699999809E+01 0. -1.
</event>
<event>
 5   0  0.8342802E-08  0.3898488E+04  0.7818609E-02  0.8025344E-01
       -2   -1    0    0    0  501  0.00000000000E+00  0.00000000000E+00  0.17315342539E+04  0.17315342539E+04  0.25500000920E-02 0. -1.
        2   -1    0    0  501    0  0.00000000000E+00  0.00000000000E+00 -0.21943269083E+04  0.21943269083E+04  0.25500000920E-02 0.  1.
    10030    2    1    2    0    0  0.00000000000E+00  0.00000000000E+00 -0.46279265437E+03  0.39258611622E+04  0.38984880177E+04 0.  0.
        4    1    3    3  502    0 -0.48165406061E+02  0.10869686782E+04 -0.18600741073E+04  0.21549241544E+04  0.12699999809E+01 0.  1.
       -4    1    3    3    0  502  0.48165406061E+02 -0.10869686782E+04  0.13972814530E+04  0.17709370077E+04  0.12699999809E+01 0. -1.
</event>
<event>
 5   0  0.2632875E-08  0.3900800E+04  0.7818609E-02  0.8024863E-01
        1   -1    0    0  501    0  0.00000000000E+00  0.00000000000E+00  0.14681005025E+04  0.14681005025E+04  0.50400001928E-02 0. -1.
       -1   -1    0    0    0  501  0.00000000000E+00  0.00000000000E+00 -0.25911442179E+04  0.25911442179E+04  0.50400001928E-02 0.  1.
    10030    2    1    2    0    0  0.00000000000E+00  0.00000000000E+00 -0.11230437154E+04  0.40592447204E+04  0.39007999838E+04 0.  0.
        2    1    3    3  502    0  0.58844826117E+03 -0.18008211406E+04 -0.79195461715E+02  0.18961803864E+04  0.25500000920E-02 0.  1.
       -2    1    3    3    0  502 -0.58844826117E+03  0.18008211406E+04 -0.10438482537E+04  0.21630643341E+04  0.25500000920E-02 0. -1.
</event>
<event>
 5   0  0.2632875E-08  0.3908044E+04  0.7818609E-02  0.8023358E-01
       -1   -1    0    0    0  501  0.00000000000E+00  0.00000000000E+00  0.15308402049E+04  0.15308402049E+04  0.50400001928E-02 0. -1.
        1   -1    0    0  501    0  0.00000000000E+00  0.00000000000E+00 -0.24941872655E+04  0.24941872655E+04  0.50400001928E-02 0.  1.
    10030    2    1    2    0    0  0.00000000000E+00  0.00000000000E+00 -0.96334706062E+03  0.40250274705E+04  0.39080440861E+04 0.  0.
        3    1    3    3  502    0 -0.95051967541E+02 -0.94658440735E+03  0.12762114750E+04  0.15917828545E+04  0.10100000352E+00 0. -1.
       -3    1    3    3    0  502  0.95051967541E+02  0.94658440735E+03 -0.22395585356E+04  0.24332446160E+04  0.10100000352E+00 0.  1.
</event>
<event>
 5   0  0.2632875E-08  0.3885943E+04  0.7818609E-02  0.8027959E-01
       -1   -1    0    0    0  501  0.00000000000E+00  0.00000000000E+00  0.21891978537E+04  0.21891978538E+04  0.50400001928E-02 0.  1.
        1   -1    0    0  501    0  0.00000000000E+00  0.00000000000E+00 -0.17244386521E+04  0.17244386521E+04  0.50400001928E-02 0. -1.
    10030    2    1    2    0    0  0.00000000000E+00  0.00000000000E+00  0.46475920163E+03  0.39136365059E+04  0.38859425606E+04 0.  0.
        5    1    3    3  502    0  0.10267722518E+04  0.19103563313E+03 -0.14176982824E+04  0.17608652362E+04  0.46999998093E+01 0. -1.
       -5    1    3    3    0  502 -0.10267722518E+04 -0.19103563313E+03  0.18824574841E+04  0.21527712697E+04  0.46999998093E+01 0.  1.
</event>
<event>
 5   0  0.8342802E-08  0.3904188E+04  0.7818609E-02  0.8024159E-01
       -2   -1    0    0    0  501  0.00000000000E+00  0.00000000000E+00  0.14308394221E+04  0.14308394221E+04  0.25500000920E-02 0.  1.
        2   -1    0    0  501    0  0.00000000000E+00  0.00000000000E+00 -0.26632415916E+04  0.26632415916E+04  0.25500000920E-02 0. -1.
    10030    2    1    2    0    0  0.00000000000E+00  0.00000000000E+00 -0.12324021695E+04  0.40940810137E+04  0.39041880384E+04 0.  0.
        4    1    3    3  502    0 -0.14609426802E+04  0.11274670266E+04  0.51258649041E+02  0.18461214676E+04  0.12699999809E+01 0.  1.
       -4    1    3    3    0  502  0.14609426802E+04 -0.11274670266E+04 -0.12836608186E+04  0.22479595461E+04  0.12699999809E+01 0. -1.
</event>
<event>
 5   0  0.8438211E-08  0.3904263E+04  0.7818609E-02  0.8024143E-01
       -2   -1    0    0    0  501  0.00000000000E+00  0.00000000000E+00  0.15480089857E+04  0.15480089857E+04  0.25500000920E-02 0.  1.
        2   -1    0    0  501    0  0.00000000000E+00  0.00000000000E+00 -0.24617544570E+04  0.24617544570E+04  0.25500000920E-02 0. -1.
    10030    2    1    2    0    0  0.00000000000E+00  0.00000000000E+00 -0.91374547131E+03  0.40097634428E+04  0.39042633211E+04 0.  0.
        5    1    3    3  502    0  0.55051024277E+03 -0.15048429446E+04  0.68823679174E+03  0.17439339972E+04  0.46999998093E+01 0. -1.
       -5    1    3    3    0  502 -0.55051024277E+03  0.15048429446E+04 -0.16019822630E+04  0.22658294455E+04  0.46999998093E+01 0.  1.
</event>
<event>
 5   0  0.8551754E-08  0.3896482E+04  0.7818609E-02  0.8025761E-01
        2   -1    0    0  501    0  0.00000000000E+00  0.00000000000E+00  0.24785267627E+04  0.24785267627E+04  0.25500000920E-02 0.  1.
       -2   -1    0    0    0  501  0.00000000000E+00  0.00000000000E+00 -0.15314113134E+04  0.15314113134E+04  0.25500000920E-02 0. -1.
    10030    2    1    2    0    0  0.00000000000E+00  0.00000000000E+00  0.94711544927E+03  0.40099380761E+04  0.38964824779E+04 0.  0.
        1    1    3    3  502    0  0.19157335112E+04  0.33192613813E+03  0.34570638522E+03  0.19747715696E+04  0.50400001928E-02 0. -1.
       -1    1    3    3    0  502 -0.19157335112E+04 -0.33192613813E+03  0.60140906405E+03  0.20351665066E+04  0.50400001928E-02 0.  1.
</event>
<event>
 5   0  0.8551754E-08  0.3902218E+04  0.7818609E-02  0.8024568E-01
       -2   -1    0    0    0  501  0.00000000000E+00  0.00000000000E+00  0.17129952069E+04  0.17129952069E+04  0.25500000920E-02 0.  1.
        2   -1    0    0  501    0  0.00000000000E+00  0.00000000000E+00 -0.22223217396E+04  0.22223217396E+04  0.25500000920E-02 0. -1.
    10030    2    1    2    0    0  0.00000000000E+00  0.00000000000E+00 -0.50932653278E+03  0.39353169465E+04  0.39022180811E+04 0.  0.
        1    1    3    3  502    0 -0.44022570402E+03 -0.35551944846E+03  0.16284278868E+04  0.17239402922E+04  0.50400001928E-02 0.  1.
       -1    1    3    3    0  502  0.44022570402E+03  0.35551944846E+03 -0.21377544196E+04  0.22113766543E+04  0.50400001928E-02 0. -1.
</event>
<event>
 5   0  0.8342802E-08  0.4031016E+04  0.7818609E-02  0.7998319E-01
        2   -1    0    0  501    0  0.00000000000E+00  0.00000000000E+00  0.13101322341E+04  0.13101322341E+04  0.25500000920E-02 0.  1.
       -2   -1    0    0    0  501  0.00000000000E+00  0.00000000000E+00 -0.31006588473E+04  0.31006588473E+04  0.25500000920E-02 0. -1.
    10030    2    1    2    0    0  0.00000000000E+00  0.00000000000E+00 -0.17905266132E+04  0.44107910814E+04  0.40310163001E+04 0.  0.
        4    1    3    3  502    0  0.62873192937E+03  0.12830383847E+04 -0.24507326911E+04  0.28368263379E+04  0.12699999809E+01 0. -1.
       -4    1    3    3    0  502 -0.62873192937E+03 -0.12830383847E+04  0.66020607789E+03  0.15739647435E+04  0.12699999809E+01 0.  1.
</event>
<event>
 5   0  0.2632875E-08  0.3880324E+04  0.7818609E-02  0.8029134E-01
       -1   -1    0    0    0  501  0.00000000000E+00  0.00000000000E+00  0.17775264451E+04  0.17775264451E+04  0.50400001928E-02 0.  1.
        1   -1    0    0  501    0  0.00000000000E+00  0.00000000000E+00 -0.21176778087E+04  0.21176778087E+04  0.50400001928E-02 0. -1.
    10030    2    1    2    0    0  0.00000000000E+00  0.00000000000E+00 -0.34015136360E+03  0.38952042538E+04  0.38803238561E+04 0.  0.
        4    1    3    3  502    0  0.14473700056E+03 -0.11863845649E+04  0.13641076467E+04  0.18136285231E+04  0.12699999809E+01 0.  1.
       -4    1    3    3    0  502 -0.14473700056E+03  0.11863845649E+04 -0.17042590103E+04  0.20815757306E+04  0.12699999809E+01 0. -1.
</event>
<event>
 5   0  0.8342802E-08  0.3898286E+04  0.7818609E-02  0.8025386E-01
       -2   -1    0    0    0  501  0.00000000000E+00  0.00000000000E+00  0.16877999957E+04  0.16877999957E+04  0.25500000920E-02 0. -1.
        2   -1    0    0  501    0  0.00000000000E+00  0.00000000000E+00 -0.22509527151E+04  0.22509527151E+04  0.25500000920E-02 0.  1.
    10030    2    1    2    0    0  0.00000000000E+00  0.00000000000E+00 -0.56315271943E+03  0.39387527108E+04  0.38982857683E+04 0.  0.
        4    1    3    3  502    0  0.40739301576E+03 -0.37777086078E+03 -0.21692521261E+04  0.22392713753E+04  0.12699999809E+01 0.  1.
       -4    1    3    3    0  502 -0.40739301576E+03  0.37777086078E+03  0.16060994067E+04  0.16994813355E+04  0.12699999809E+01 0. -1.
</event>
<event>
 5   0  0.2632875E-08  0.3935098E+04  0.7818609E-02  0.8017769E-01
       -1   -1    0    0    0  501  0.00000000000E+00  0.00000000000E+00  0.19785877359E+04  0.19785877359E+04  0.50400001928E-02 0. -1.
        1   -1    0    0  501    0  0.00000000000E+00  0.00000000000E+00 -0.19565722639E+04  0.19565722639E+04  0.50400001928E-02 0.  1.
    10030    2    1    2    0    0  0.00000000000E+00  0.00000000000E+00  0.22015472032E+02  0.39351599999E+04  0.39350984160E+04 0.  0.
        3    1    3    3  502    0 -0.91570449247E+03  0.29812508317E+03  0.17268016443E+04  0.19771791046E+04  0.10100000352E+00 0. -1.
       -3    1    3    3    0  502  0.91570449247E+03 -0.29812508317E+03 -0.17047861723E+04  0.19579808952E+04  0.10100000352E+00 0.  1.
</event>
<event>
 5   0  0.2632875E-08  0.3895207E+04  0.7818609E-02  0.8026027E-01
       -1   -1    0    0    0  501  0.00000000000E+00  0.00000000000E+00  0.31375855445E+04  0.31375855445E+04  0.50400001928E-02 0.  1.
        1   -1    0    0  501    0  0.00000000000E+00  0.00000000000E+00 -0.12089421080E+04  0.12089421080E+04  0.50400001928E-02 0. -1.
    10030    2    1    2    0    0  0.00000000000E+00  0.00000000000E+00  0.19286434365E+04  0.43465276525E+04  0.38952069430E+04 0.  0.
        4    1    3    3  502    0  0.14162588084E+03  0.12758574669E+03  0.31271508007E+04  0.31329554347E+04  0.12699999809E+01 0.  1.
       -4    1    3    3    0  502 -0.14162588084E+03 -0.12758574669E+03 -0.11985073642E+04  0.12135722178E+04  0.12699999809E+01 0. -1.
</event>
<event>
 5   0  0.2632875E-08  0.3946137E+04  0.7818609E-02  0.8015501E-01
       -1   -1    0    0    0  501  0.00000000000E+00  0.00000000000E+00  0.16957238005E+04  0.16957238005E+04  0.50400001928E-02 0. -1.
        1   -1    0    0  501    0  0.00000000000E+00  0.00000000000E+00 -0.22957741947E+04  0.22957741947E+04  0.50400001928E-02 0.  1.
    10030    2    1    2    0    0  0.00000000000E+00  0.00000000000E+00 -0.60005039416E+03  0.39914979953E+04  0.39461368160E+04 0.  0.
        2    1    3    3  502    0 -0.54690252950E+03 -0.30064455889E+03 -0.21933077004E+04  0.22803701884E+04  0.25500000920E-02 0.  1.
       -2    1    3    3    0  502  0.54690252950E+03  0.30064455889E+03  0.15932573062E+04  0.17111278069E+04  0.25500000920E-02 0. -1.
</event>
<event>
 5   0  0.8551754E-08  0.3911606E+04  0.7818609E-02  0.8022620E-01
        2   -1    0    0  501    0  0.00000000000E+00  0.00000000000E+00  0.19888760443E+04  0.19888760443E+04  0.25500000920E-02 0.  1.
       -2   -1    0    0    0  501  0.00000000000E+00  0.00000000000E+00 -0.19232797997E+04  0.19232797997E+04  0.25500000920E-02 0. -1.
    10030    2    1    2    0    0  0.00000000000E+00  0.00000000000E+00  0.65596244516E+02  0.39121558440E+04  0.39116058698E+04 0.  0.
        1    1    3    3  502    0 -0.15726257004E+03  0.19171515107E+04  0.38634986066E+03  0.19620060259E+04  0.50400001928E-02 0.  1.
       -1    1    3    3    0  502  0.15726257004E+03 -0.19171515107E+04 -0.32075361614E+03  0.19501498181E+04  0.50400001928E-02 0. -1.
</event>
<event>
 5   0  0.2632875E-08  0.3897242E+04  0.7818609E-02  0.8025603E-01
       -1   -1    0    0    0  501  0.00000000000E+00  0.00000000000E+00  0.19517116024E+04  0.19517116024E+04  0.50400001928E-02 0.  1.
        1   -1    0    0  501    0  0.00000000000E+00  0.00000000000E+00 -0.19455354974E+04  0.19455354974E+04  0.50400001928E-02 0. -1.
    10030    2    1    2    0    0  0.00000000000E+00  0.00000000000E+00  0.61761049298E+01  0.38972470998E+04  0.38972422060E+04 0.  0.
        3    1    3    3  502    0  0.93217668553E+03  0.11693581310E+04 -0.12462222777E+04  0.19466437237E+04  0.10100000352E+00 0. -1.
       -3    1    3    3    0  502 -0.93217668553E+03 -0.11693581310E+04  0.12523983827E+04  0.19506033760E+04  0.10100000352E+00 0.  1.
</event>
<event>
 5   0  0.8551754E-08  0.3892787E+04  0.7818609E-02  0.8026531E-01
        2   -1    0    0  501    0  0.00000000000E+00  0.00000000000E+00  0.23146669463E+04  0.23146669463E+04  0.25500000920E-02 0. -1.
       -2   -1    0    0    0  501  0.00000000000E+00  0.00000000000E+00 -0.16367137810E+04  0.16367137810E+04  0.25500000920E-02 0.  1.
    10030    2    1    2    0    0  0.00000000000E+00  0.00000000000E+00  0.67795316523E+03  0.39513807273E+04  0.38927868113E+04 0.  0.
        1    1    3    3  502    0 -0.18815912977E+04 -0.36079457065E+03  0.68749396919E+03  0.20354867947E+04  0.50400001928E-02 0. -1.
       -1    1    3    3    0  502  0.18815912977E+04  0.36079457065E+03 -0.95408039677E+01  0.19158939326E+04  0.50400001928E-02 0.  1.
</event>
<event>
 5   0  0.8476262E-08  0.3777523E+04  0.7818609E-02  0.8050996E-01
       -2   -1    0    0    0  501  0.00000000000E+00  0.00000000000E+00  0.13175765686E+04  0.13175765686E+04  0.25500000920E-02 0.  1.
        2   -1    0    0  501    0  0.00000000000E+00  0.00000000000E+00 -0.27075621411E+04  0.27075621411E+04  0.25500000920E-02 0. -1.
    10030    2    1    2    0    0  0.00000000000E+00  0.00000000000E+00 -0.13899855726E+04  0.40251387097E+04  0.37775232283E+04 0.  0.
        2    1    3    3  502    0  0.52924722974E+03 -0.43286249514E+03 -0.25710708376E+04  0.26604281275E+04  0.25500000920E-02 0. -1.
       -2    1    3    3    0  502 -0.52924722974E+03  0.43286249514E+03  0.11810852650E+04  0.13647105822E+04  0.25500000920E-02 0.  1.
</event>
<event>
 5   0  0.8342802E-08  0.3894419E+04  0.7818609E-02  0.8026191E-01
       -2   -1    0    0    0  501  0.00000000000E+00  0.00000000000E+00  0.14359802350E+04  0.14359802350E+04  0.25500000920E-02 0. -1.
        2   -1    0    0  501    0  0.00000000000E+00  0.00000000000E+00 -0.26404430448E+04  0.26404430448E+04  0.25500000920E-02 0.  1.
    10030    2    1    2    0    0  0.00000000000E+00  0.00000000000E+00 -0.12044628098E+04  0.40764232798E+04  0.38944185826E+04 0.  0.
        4    1    3    3  502    0 -0.50922766988E+03  0.14923463089E+04 -0.17980827257E+04  0.23915504232E+04  0.12699999809E+01 0.  1.
       -4    1    3    3    0  502  0.50922766988E+03 -0.14923463089E+04  0.59361991587E+03  0.16848728566E+04  0.12699999809E+01 0. -1.
</event>
<event>
 5   0  0.2632875E-08  0.3921957E+04  0.7818609E-02  0.8020478E-01
        1   -1    0    0  501    0  0.00000000000E+00  0.00000000000E+00  0.12818824158E+04  0.12818824158E+04  0.50400001928E-02 0. -1.
       -1   -1    0    0    0  501  0.00000000000E+00  0.00000000000E+00 -0.29998350856E+04  0.29998350856E+04  0.50400001928E-02 0.  1.
    10030    2    1    2    0    0  0.00000000000E+00  0.00000000000E+00 -0.17179526698E+04  0.42817175014E+04  0.39219565762E+04 0.  0.
        4    1    3    3  502    0  0.16764668253E+03 -0.18487077521E+04 -0.15491089813E+04  0.24177605365E+04  0.12699999809E+01 0.  1.
       -4    1    3    3    0  502 -0.16764668253E+03  0.18487077521E+04 -0.16884368855E+03  0.18639569649E+04  0.12699999809E+01 0. -1.
</event>
<event>
 5   0  0.2632875E-08  0.3969369E+04  0.7818609E-02  0.8010754E-01
       -1   -1    0    0    0  501  0.00000000000E+00  0.00000000000E+00  0.17537801428E+04  0.17537801428E+04  0.50400001928E-02 0.  1.
        1   -1    0    0  501    0  0.00000000000E+00  0.00000000000E+00 -0.22459904082E+04  0.22459904082E+04  0.50400001928E-02 0. -1.
    10030    2    1    2    0    0  0.00000000000E+00  0.00000000000E+00 -0.49221026541E+03  0.39997705510E+04  0.39693694103E+04 0.  0.
        1    1    3    3  502    0 -0.15310190326E+03 -0.28903442441E+03  0.17264351143E+04  0.17571452118E+04  0.50400001928E-02 0.  1.
       -1    1    3    3    0  502  0.15310190326E+03  0.28903442441E+03 -0.22186453797E+04  0.22426253393E+04  0.50400001928E-02 0. -1.
</event>
<event>
 5   0  0.8342802E-08  0.3886433E+04  0.7818609E-02  0.8027857E-01
        2   -1    0    0  501    0  0.00000000000E+00  0.00000000000E+00  0.19676582992E+04  0.19676582992E+04  0.25500000920E-02 0.  1.
       -2   -1    0    0    0  501  0.00000000000E+00  0.00000000000E+00 -0.19190784238E+04  0.19190784238E+04  0.25500000920E-02 0. -1.
    10030    2    1    2    0    0  0.00000000000E+00  0.00000000000E+00  0.48579875400E+02  0.38867367230E+04  0.38864331140E+04 0.  0.
        4    1    3    3  502    0  0.54240893965E+03 -0.37867627822E+03 -0.18030051725E+04  0.19205292100E+04  0.12699999809E+01 0. -1.
       -4    1    3    3    0  502 -0.54240893965E+03  0.37867627822E+03  0.18515850479E+04  0.19662075130E+04  0.12699999809E+01 0.  1.
</event>
<event>
 5   0  0.8438211E-08  0.3903108E+04  0.7818609E-02  0.8024383E-01
       -2   -1    0    0    0  501  0.00000000000E+00  0.00000000000E+00  0.16987091329E+04  0.16987091329E+04  0.25500000920E-02 0.  1.
        2   -1    0    0  501    0  0.00000000000E+00  0.00000000000E+00 -0.22420331845E+04  0.22420331845E+04  0.25500000920E-02 0. -1.
    10030    2    1    2    0    0  0.00000000000E+00  0.00000000000E+00 -0.54332405162E+03  0.39407423174E+04  0.39031076064E+04 0.  0.
        5    1    3    3  502    0 -0.80122662537E+03  0.63784037604E+03 -0.19489253832E+04  0.22016213774E+04  0.46999998093E+01 0. -1.
       -5    1    3    3    0  502  0.80122662537E+03 -0.63784037604E+03  0.14056013315E+04  0.17391209399E+04  0.46999998093E+01 0.  1.
</event>
<event>
 5   0  0.2632875E-08  0.3902984E+04  0.7818609E-02  0.8024409E-01
       -1   -1    0    0    0  501  0.00000000000E+00  0.00000000000E+00  0.21270170333E+04  0.21270170333E+04  0.50400001928E-02 0. -1.
        1   -1    0    0  501    0  0.00000000000E+00  0.00000000000E+00 -0.17904513751E+04  0.17904513751E+04  0.50400001928E-02 0.  1.
    10030    2    1    2    0    0  0.00000000000E+00  0.00000000000E+00  0.33656565816E+03  0.39174684084E+04  0.39029837674E+04 0.  0.
        2    1    3    3  502    0  0.37624191336E+03  0.15378714538E+03  0.20840601413E+04  0.21233264318E+04  0.25500000920E-02 0. -1.
       -2    1    3    3    0  502 -0.37624191336E+03 -0.15378714538E+03 -0.17474944832E+04  0.17941419766E+04  0.25500000920E-02 0.  1.
</event>
<event>
 5   0  0.2632875E-08  0.3902072E+04  0.7818609E-02  0.8024598E-01
        1   -1    0    0  501    0  0.00000000000E+00  0.00000000000E+00  0.15871776256E+04  0.15871776256E+04  0.50400001928E-02 0.  1.
       -1   -1    0    0    0  501  0.00000000000E+00  0.00000000000E+00 -0.23983085543E+04  0.23983085543E+04  0.50400001928E-02 0. -1.
    10030    2    1    2    0    0  0.00000000000E+00  0.00000000000E+00 -0.81113092869E+03  0.39854861799E+04  0.39020721042E+04 0.  0.
        3    1    3    3  502    0 -0.16250591481E+03 -0.99904229730E+03  0.12980372576E+04  0.16460238202E+04  0.10100000352E+00 0.  1.
       -3    1    3    3    0  502  0.16250591481E+03  0.99904229730E+03 -0.21091681863E+04  0.23394623597E+04  0.10100000352E+00 0. -1.
</event>
<event>
 5   0  0.8476262E-08  0.3894010E+04  0.7818609E-02  0.8026276E-01
        2   -1    0    0  501    0  0.00000000000E+00  0.00000000000E+00  0.16203935553E+04  0.16203935553E+04  0.25500000920E-02 0.  1.
       -2   -1    0    0    0  501  0.00000000000E+00  0.00000000000E+00 -0.23394494565E+04  0.23394494565E+04  0.25500000920E-02 0. -1.
    10030    2    1    2    0    0  0.00000000000E+00  0.00000000000E+00 -0.71905590116E+03  0.39598430118E+04  0.38940101809E+04 0.  0.
        2    1    3    3  502    0 -0.16516931210E+04 -0.40731306713E+03  0.60349601040E+03  0.18050489011E+04  0.25500000920E-02 0.  1.
       -2    1    3    3    0  502  0.16516931210E+04  0.40731306713E+03 -0.13225519116E+04  0.21547941107E+04  0.25500000920E-02 0. -1.
</event>
<event>
 5   0  0.8342802E-08  0.3898097E+04  0.7818609E-02  0.8025425E-01
        2   -1    0    0  501    0  0.00000000000E+00  0.00000000000E+00  0.25669583001E+04  0.25669583001E+04  0.25500000920E-02 0. -1.
       -2   -1    0    0    0  501  0.00000000000E+00  0.00000000000E+00 -0.14798797423E+04  0.14798797423E+04  0.25500000920E-02 0.  1.
    10030    2    1    2    0    0  0.00000000000E+00  0.00000000000E+00  0.10870785578E+04  0.40468380424E+04  0.38980967600E+04 0.  0.
        4    1    3    3  502    0  0.75404352033E+03  0.77227696621E+02 -0.13205943430E+04  0.15226676523E+04  0.12699999809E+01 0.  1.
       -4    1    3    3    0  502 -0.75404352033E+03 -0.77227696621E+02  0.24076729009E+04  0.25241703901E+04  0.12699999809E+01 0. -1.
</event>
<event>
 5   0  0.2632875E-08  0.3913915E+04  0.7818609E-02  0.8022141E-01
        1   -1    0    0  501    0  0.00000000000E+00  0.00000000000E+00  0.17645119550E+04  0.17645119550E+04  0.50400001928E-02 0. -1.
       -1   -1    0    0    0  501  0.00000000000E+00  0.00000000000E+00 -0.21703925651E+04  0.21703925651E+04  0.50400001928E-02 0.  1.
    10030    2    1    2    0    0  0.00000000000E+00  0.00000000000E+00 -0.40588061011E+03  0.39349045201E+04  0.39139154964E+04 0.  0.
        1    1    3    3  502    0 -0.10123314928E+04 -0.67386818213E+03 -0.17443846433E+04  0.21264503667E+04  0.50400001928E-02 0.  1.
       -1    1    3    3    0  502  0.10123314928E+04  0.67386818213E+03  0.13385040332E+04  0.18084541534E+04  0.50400001928E-02 0. -1.
</event>
<event>
 5   0  0.2632875E-08  0.3803825E+04  0.7818609E-02  0.8045335E-01
        1   -1    0    0  501    0  0.00000000000E+00  0.00000000000E+00  0.20762830950E+04  0.20762830950E+04  0.50400001928E-02 0. -1.
       -1   -1    0    0    0  501  0.00000000000E+00  0.00000000000E+00 -0.17421856559E+04  0.17421856560E+04  0.50400001928E-02 0.  1.
    10030    2    1    2    0    0  0.00000000000E+00  0.00000000000E+00  0.33409743905E+03  0.38184687510E+04  0.38038247204E+04 0.  0.
        1    1    3    3  502    0 -0.10207551905E+04  0.27554456436E+03 -0.14199882073E+04  0.17703763652E+04  0.50400001928E-02 0.  1.
       -1    1    3    3    0  502  0.10207551905E+04 -0.27554456436E+03  0.17540856463E+04  0.20480923857E+04  0.50400001928E-02 0. -1.
</event>
<event>
 5   0  0.8676098E-08  0.3896267E+04  0.7818609E-02  0.8025806E-01
       -2   -1    0    0    0  501  0.00000000000E+00  0.00000000000E+00  0.22039151599E+04  0.22039151599E+04  0.25500000920E-02 0. -1.
        2   -1    0    0  501    0  0.00000000000E+00  0.00000000000E+00 -0.17220372401E+04  0.17220372401E+04  0.25500000920E-02 0.  1.
    10030    2    1    2    0    0  0.00000000000E+00  0.00000000000E+00  0.48187791974E+03  0.39259524000E+04  0.38962669207E+04 0.  0.
        3    1    3    3  502    0  0.69779022312E+03 -0.17567152004E+04 -0.23410232906E+03  0.19046688430E+04  0.10100000352E+00 0. -1.
       -3    1    3    3    0  502 -0.69779022312E+03  0.17567152004E+04  0.71598024880E+03  0.20212835570E+04  0.10100000352E+00 0.  1.
</event>
<event>
 5   0  0.2632875E-08  0.3903134E+04  0.7818609E-02  0.8024378E-01
        1   -1    0    0  501    0  0.00000000000E+00  0.00000000000E+00  0.26888231186E+04  0.26888231186E+04  0.50400001928E-02 0. -1.
       -1   -1    0    0    0  501  0.00000000000E+00  0.00000000000E+00 -0.14164611358E+04  0.14164611358E+04  0.50400001928E-02 0.  1.
    10030    2    1    2    0    0  0.00000000000E+00  0.00000000000E+00  0.12723619828E+04  0.41052842544E+04  0.39031338427E+04 0.  0.
        1    1    3    3  502    0 -0.79504304568E+03 -0.14176410700E+04 -0.49995565447E+03  0.17005161876E+04  0.50400001928E-02 0.  1.
       -1    1    3    3    0  502  0.79504304568E+03  0.14176410700E+04  0.17723176373E+04  0.24047680668E+04  0.50400001928E-02 0. -1.
</event>
<event>
 5   0  0.2632875E-08  0.3887573E+04  0.7818609E-02  0.8027619E-01
        1   -1    0    0  501    0  0.00000000000E+00  0.00000000000E+00  0.18481558277E+04  0.18481558277E+04  0.50400001928E-02 0. -1.
       -1   -1    0    0    0  501  0.00000000000E+00  0.00000000000E+00 -0.20443651696E+04  0.20443651696E+04  0.50400001928E-02 0.  1.
    10030    2    1    2    0    0  0.00000000000E+00  0.00000000000E+00 -0.19620934187E+03  0.38925209973E+04  0.38875727142E+04 0.  0.
        3    1    3    3  502    0 -0.11590458631E+04 -0.30236726677E+02  0.14640105582E+04  0.18675193432E+04  0.10100000352E+00 0. -1.
       -3    1    3    3    0  502  0.11590458631E+04  0.30236726677E+02 -0.16602199001E+04  0.20250016541E+04  0.10100000352E+00 0.  1.
</event>
<event>
 5   0  0.2632875E-08  0.3868114E+04  0.7818609E-02  0.8031694E-01
        1   -1    0    0  501    0  0.00000000000E+00  0.00000000000E+00  0.25589178214E+04  0.25589178214E+04  0.50400001928E-02 0.  1.
       -1   -1    0    0    0  501  0.00000000000E+00  0.00000000000E+00 -0.14617803926E+04  0.14617803926E+04  0.50400001928E-02 0. -1.
    10030    2    1    2    0    0  0.00000000000E+00  0.00000000000E+00  0.10971374288E+04  0.40206982140E+04  0.38681136992E+04 0.  0.
        1    1    3    3  502    0  0.20705762309E+03  0.65691996810E+03 -0.13299733318E+04  0.14977468969E+04  0.50400001928E-02 0. -1.
       -1    1    3    3    0  502 -0.20705762309E+03 -0.65691996810E+03  0.24271107607E+04  0.25229513171E+04  0.50400001928E-02 0.  1.
</event>
<event>
 5   0  0.2632875E-08  0.3900090E+04  0.7818609E-02  0.8025011E-01
       -1   -1    0    0    0  501  0.00000000000E+00  0.00000000000E+00  0.21767367835E+04  0.21767367835E+04  0.50400001928E-02 0. -1.
        1   -1    0    0  501    0  0.00000000000E+00  0.00000000000E+00 -0.17469614215E+04  0.17469614215E+04  0.50400001928E-02 0.  1.
    10030    2    1    2    0    0  0.00000000000E+00  0.00000000000E+00  0.42977536197E+03  0.39236982049E+04  0.39000898377E+04 0.  0.
        3    1    3    3  502    0  0.84317280559E+03  0.12514640958E+04 -0.10277296258E+04  0.18257412076E+04  0.10100000352E+00 0.  1.
       -3    1    3    3    0  502 -0.84317280559E+03 -0.12514640958E+04  0.14575049878E+04  0.20979569974E+04  0.10100000352E+00 0. -1.
</event>
<event>
 5   0  0.8438211E-08  0.3811775E+04  0.7818609E-02  0.8043633E-01
        2   -1    0    0  501    0  0.00000000000E+00  0.00000000000E+00  0.24158415204E+04  0.24158415204E+04  0.25500000920E-02 0.  1.
       -2   -1    0    0    0  501  0.00000000000E+00  0.00000000000E+00 -0.15035783818E+04  0.15035783818E+04  0.25500000920E-02 0. -1.
    10030    2    1    2    0    0  0.00000000000E+00  0.00000000000E+00  0.91226313861E+03  0.39194199023E+04  0.38117749588E+04 0.  0.
        5    1    3    3  502    0  0.12823817742E+03 -0.10998007186E+04 -0.11389264913E+04  0.15884527986E+04  0.46999998093E+01 0. -1.
       -5    1    3    3    0  502 -0.12823817742E+03  0.10998007186E+04  0.20511896299E+04  0.23309671037E+04  0.46999998093E+01 0.  1.
</event>
<event>
 5   0  0.2632875E-08  0.3893608E+04  0.7818609E-02  0.8026360E-01
       -1   -1    0    0    0  501  0.00000000000E+00  0.00000000000E+00  0.19920245113E+04  0.19920245113E+04  0.50400001928E-02 0.  1.
        1   -1    0    0  501    0  0.00000000000E+00  0.00000000000E+00 -0.19026104372E+04  0.19026104372E+04  0.50400001928E-02 0. -1.
    10030    2    1    2    0    0  0.00000000000E+00  0.00000000000E+00  0.89414074128E+02  0.38946349485E+04  0.38936084171E+04 0.  0.
        4    1    3    3  502    0  0.11294507423E+04  0.15094154572E+04 -0.44127186725E+03  0.19361602402E+04  0.12699999809E+01 0. -1.
       -4    1    3    3    0  502 -0.11294507423E+04 -0.15094154572E+04  0.53068594138E+03  0.19584747083E+04  0.12699999809E+01 0.  1.
</event>
<event>
 5   0  0.2632875E-08  0.3895221E+04  0.7818609E-02  0.8026024E-01
       -1   -1    0    0    0  501  0.00000000000E+00  0.00000000000E+00  0.31159238052E+04  0.31159238052E+04  0.50400001928E-02 0. -1.
        1   -1    0    0  501    0  0.00000000000E+00  0.00000000000E+00 -0.12173555750E+04  0.12173555750E+04  0.50400001928E-02 0.  1.
    10030    2    1    2    0    0  0.00000000000E+00  0.00000000000E+00  0.18985682303E+04  0.43332793802E+04  0.38952212854E+04 0.  0.
        1    1    3    3  502    0  0.19377004502E+04  0.19602262392E+03  0.93937686744E+03  0.21622989624E+04  0.50400001928E-02 0.  1.
       -1    1    3    3    0  502 -0.19377004502E+04 -0.19602262392E+03  0.95919136282E+03  0.21709804178E+04  0.50400001928E-02 0. -1.
</event>
<event>
 5   0  0.2632875E-08  0.3904087E+04  0.7818609E-02  0.8024180E-01
        1   -1    0    0  501    0  0.00000000000E+00  0.00000000000E+00  0.22404559059E+04  0.22404559059E+04  0.50400001928E-02 0.  1.
       -1   -1    0    0    0  501  0.00000000000E+00  0.00000000000E+00 -0.17007585591E+04  0.17007585591E+04  0.50400001928E-02 0. -1.
    10030    2    1    2    0    0  0.00000000000E+00  0.00000000000E+00  0.53969734687E+03  0.39412144650E+04  0.39040873752E+04 0.  0.
        3    1    3    3  502    0 -0.46017887520E+02  0.44550488690E+03  0.21878860242E+04  0.22332571539E+04  0.10100000352E+00 0.  1.
       -3    1    3    3    0  502  0.46017887520E+02 -0.44550488690E+03 -0.16481886773E+04  0.17079573111E+04  0.10100000352E+00 0. -1.
</event>
<event>
 5   0  0.8438211E-08  0.3903182E+04  0.7818609E-02  0.8024368E-01
       -2   -1    0    0    0  501  0.00000000000E+00  0.00000000000E+00  0.13418654898E+04  0.13418654898E+04  0.25500000920E-02 0.  1.
        2   -1    0    0  501    0  0.00000000000E+00  0.00000000000E+00 -0.28383677209E+04  0.28383677209E+04  0.25500000920E-02 0. -1.
    10030    2    1    2    0    0  0.00000000000E+00  0.00000000000E+00 -0.14965022312E+04  0.41802332107E+04  0.39031821336E+04 0.  0.
        5    1    3    3  502    0  0.11303192052E+04  0.11691013683E+04  0.40734964177E+03  0.16764174109E+04  0.46999998093E+01 0. -1.
       -5    1    3    3    0  502 -0.11303192052E+04 -0.11691013683E+04 -0.19038518729E+04  0.25038157997E+04  0.46999998093E+01 0.  1.
</event>
<event>
 5   0  0.8342802E-08  0.3890119E+04  0.7818609E-02  0.8027087E-01
        2   -1    0    0  501    0  0.00000000000E+00  0.00000000000E+00  0.20463539417E+04  0.20463539417E+04  0.25500000920E-02 0. -1.
       -2   -1    0    0    0  501  0.00000000000E+00  0.00000000000E+00 -0.18487790614E+04  0.18487790614E+04  0.25500000920E-02 0.  1.
    10030    2    1    2    0    0  0.00000000000E+00  0.00000000000E+00  0.19757488029E+03  0.38951330032E+04  0.38901189286E+04 0.  0.
        4    1    3    3  502    0  0.84640773702E+03  0.14232711582E+04  0.11204691490E+04  0.19993898003E+04  0.12699999809E+01 0. -1.
       -4    1    3    3    0  502 -0.84640773702E+03 -0.14232711582E+04 -0.92289426871E+03  0.18957432028E+04  0.12699999809E+01 0.  1.
</event>
<event>
 5   0  0.2632875E-08  0.3896226E+04  0.7818609E-02  0.8025815E-01
       -3   -1    0    0    0  501  0.00000000000E+00  0.00000000000E+00  0.15253120615E+04  0.15253120648E+04  0.10100000352E+00 0. -1.
        3   -1    0    0  501    0  0.00000000000E+00  0.00000000000E+00 -0.24881104311E+04  0.24881104332E+04  0.10100000352E+00 0.  1.
    10030    2    1    2    0    0  0.00000000000E+00  0.00000000000E+00 -0.96279836961E+03  0.40134224980E+04  0.38962263085E+04 0.  0.
        1    1    3    3  502    0  0.45818178982E+03 -0.11144871001E+04  0.10953737594E+04  0.16284519402E+04  0.50400001928E-02 0. -1.
       -1    1    3    3    0  502 -0.45818178982E+03  0.11144871001E+04 -0.20581721290E+04  0.23849705578E+04  0.50400001928E-02 0.  1.
</event>
<event>
 5   0  0.8342802E-08  0.3902946E+04  0.7818609E-02  0.8024417E-01
       -2   -1    0    0    0  501  0.00000000000E+00  0.00000000000E+00  0.14116528242E+04  0.14116528242E+04  0.25500000920E-02 0. -1.
        2   -1    0    0  501    0  0.00000000000E+00  0.00000000000E+00 -0.26977225279E+04  0.26977225279E+04  0.25500000920E-02 0.  1.
    10030    2    1    2    0    0  0.00000000000E+00  0.00000000000E+00 -0.12860697037E+04  0.41093753521E+04  0.39029463872E+04 0.  0.
        4    1    3    3  502    0 -0.37444105448E+03 -0.17952957303E+04  0.59293772141E+02  0.18348869793E+04  0.12699999809E+01 0. -1.
       -4    1    3    3    0  502  0.37444105448E+03  0.17952957303E+04 -0.13453634758E+04  0.22744883727E+04  0.12699999809E+01 0.  1.
</event>
<event>
 5   0  0.2632875E-08  0.3893533E+04  0.7818609E-02  0.8026376E-01
        1   -1    0    0  501    0  0.00000000000E+00  0.00000000000E+00  0.18841594502E+04  0.18841594502E+04  0.50400001928E-02 0.  1.
       -1   -1    0    0    0  501  0.00000000000E+00  0.00000000000E+00 -0.20114538427E+04  0.20114538427E+04  0.50400001928E-02 0. -1.
    10030    2    1    2    0    0  0.00000000000E+00  0.00000000000E+00 -0.12729439248E+03  0.38956132930E+04  0.38935329800E+04 0.  0.
        5    1    3    3  502    0  0.22075007923E+03  0.80897414337E+03  0.16941944488E+04  0.18903668116E+04  0.46999998093E+01 0.  1.
       -5    1    3    3    0  502 -0.22075007923E+03 -0.80897414337E+03 -0.18214888413E+04  0.20052464814E+04  0.46999998093E+01 0. -1.
</event>
<event>
 5   0  0.8476262E-08  0.3924948E+04  0.7818609E-02  0.8019860E-01
        2   -1    0    0  501    0  0.00000000000E+00  0.00000000000E+00  0.23769137050E+04  0.23769137050E+04  0.25500000920E-02 0.  1.
       -2   -1    0    0    0  501  0.00000000000E+00  0.00000000000E+00 -0.16202959898E+04  0.16202959898E+04  0.25500000920E-02 0. -1.
    10030    2    1    2    0    0  0.00000000000E+00  0.00000000000E+00  0.75661771520E+03  0.39972096949E+04  0.39249477676E+04 0.  0.
        2    1    3    3  502    0 -0.67282681746E+03  0.83190946036E+03  0.20537525298E+04  0.23157436668E+04  0.25500000920E-02 0.  1.
       -2    1    3    3    0  502  0.67282681746E+03 -0.83190946036E+03 -0.12971348146E+04  0.16814660281E+04  0.25500000920E-02 0. -1.
</event>
<event>
 5   0  0.8551754E-08  0.3843058E+04  0.7818609E-02  0.8036977E-01
       -2   -1    0    0    0  501  0.00000000000E+00  0.00000000000E+00  0.13873186554E+04  0.13873186554E+04  0.25500000920E-02 0. -1.
        2   -1    0    0  501    0  0.00000000000E+00  0.00000000000E+00 -0.26614460655E+04  0.26614460655E+04  0.25500000920E-02 0.  1.
    10030    2    1    2    0    0  0.00000000000E+00  0.00000000000E+00 -0.12741274101E+04  0.40487647209E+04  0.38430580412E+04 0.  0.
        1    1    3    3  502    0  0.54156545661E+03 -0.12970635981E+04 -0.20173875565E+04  0.24587638509E+04  0.50400001928E-02 0.  1.
       -1    1    3    3    0  502 -0.54156545661E+03  0.12970635981E+04  0.74326014642E+03  0.15900008700E+04  0.50400001928E-02 0. -1.
</event>
<event>
 5   0  0.2632875E-08  0.3890146E+04  0.7818609E-02  0.8027082E-01
        1   -1    0    0  501    0  0.00000000000E+00  0.00000000000E+00  0.12321223061E+04  0.12321223061E+04  0.50400001928E-02 0.  1.
       -1   -1    0    0    0  501  0.00000000000E+00  0.00000000000E+00 -0.30705621000E+04  0.30705621000E+04  0.50400001928E-02 0. -1.
    10030    2    1    2    0    0  0.00000000000E+00  0.00000000000E+00 -0.18384397940E+04  0.43026844061E+04  0.38901455272E+04 0.  0.
        4    1    3    3  502    0 -0.17448647228E+04 -0.11317112740E+03  0.23159438144E+02  0.17486848136E+04  0.12699999809E+01 0. -1.
       -4    1    3    3    0  502  0.17448647228E+04  0.11317112740E+03 -0.18615992321E+04  0.25539995925E+04  0.12699999809E+01 0.  1.
</event>
<event>
 5   0  0.8551754E-08  0.3884488E+04  0.7818609E-02  0.8028263E-01
       -2   -1    0    0    0  501  0.00000000000E+00  0.00000000000E+00  0.16830199296E+04  0.16830199296E+04  0.25500000920E-02 0. -1.
        2   -1    0    0  501    0  0.00000000000E+00  0.00000000000E+00 -0.22413946691E+04  0.22413946691E+04  0.25500000920E-02 0.  1.
    10030    2    1    2    0    0  0.00000000000E+00  0.00000000000E+00 -0.55837473951E+03  0.39244145988E+04  0.38844880735E+04 0.  0.
        1    1    3    3  502    0  0.10549672998E+04 -0.10208143958E+04  0.10056127241E+04  0.17794029856E+04  0.50400001928E-02 0. -1.
       -1    1    3    3    0  502 -0.10549672998E+04  0.10208143958E+04 -0.15639874636E+04  0.21450116132E+04  0.50400001928E-02 0.  1.
</event>
<event>
 5   0  0.2632875E-08  0.3926998E+04  0.7818609E-02  0.8019437E-01
        1   -1    0    0  501    0  0.00000000000E+00  0.00000000000E+00  0.28301852795E+04  0.28301852795E+04  0.50400001928E-02 0.  1.
       -1   -1    0    0    0  501  0.00000000000E+00  0.00000000000E+00 -0.13622177356E+04  0.13622177356E+04  0.50400001928E-02 0. -1.
    10030    2    1    2    0    0  0.00000000000E+00  0.00000000000E+00  0.14679675439E+04  0.41924030151E+04  0.39269981322E+04 0.  0.
        2    1    3    3  502    0  0.14046805148E+04  0.65345420988E+03  0.20218284818E+04  0.25471396041E+04  0.25500000920E-02 0.  1.
       -2    1    3    3    0  502 -0.14046805148E+04 -0.65345420988E+03 -0.55386093783E+03  0.16452634110E+04  0.25500000920E-02 0. -1.
</event>
<event>
 5   0  0.8342802E-08  0.3920113E+04  0.7818609E-02  0.8020859E-01
        2   -1    0    0  501    0  0.00000000000E+00  0.00000000000E+00  0.20484800416E+04  0.20484800416E+04  0.25500000920E-02 0. -1.
       -2   -1    0    0    0  501  0.00000000000E+00  0.00000000000E+00 -0.18754501937E+04  0.18754501937E+04  0.25500000920E-02 0.  1.
    10030    2    1    2    0    0  0.00000000000E+00  0.00000000000E+00  0.17302984795E+03  0.39239302353E+04  0.39201134120E+04 0.  0.
        4    1    3    3  502    0  0.42203818864E+03  0.12449464047E+04  0.15418262761E+04  0.20261386087E+04  0.12699999809E+01 0. -1.
       -4    1    3    3    0  502 -0.42203818864E+03 -0.12449464047E+04 -0.13687964282E+04  0.18977916266E+04  0.12699999809E+01 0.  1.
</event>
<event>
 5   0  0.8676098E-08  0.3897561E+04  0.7818609E-02  0.8025537E-01
        2   -1    0    0  501    0  0.00000000000E+00  0.00000000000E+00  0.26462972555E+04  0.26462972555E+04  0.25500000920E-02 0. -1.
       -2   -1    0    0    0  501  0.00000000000E+00  0.00000000000E+00 -0.14351165885E+04  0.14351165885E+04  0.25500000920E-02 0.  1.
    10030    2    1    2    0    0  0.00000000000E+00  0.00000000000E+00  0.12111806670E+04  0.40814138440E+04  0.38975608216E+04 0.  0.
        3    1    3    3  502    0 -0.33099562983E+03 -0.16432026663E+04 -0.43531688848E+03  0.17318123204E+04  0.10100000352E+00 0.  1.
       -3    1    3    3    0  502  0.33099562983E+03  0.16432026663E+04  0.16464975555E+04  0.23496015236E+04  0.10100000352E+00 0. -1.
</event>
<event>
 5   0  0.2632875E-08  0.3892109E+04  0.7818609E-02  0.8026672E-01
        1   -1    0    0  501    0  0.00000000000E+00  0.00000000000E+00  0.13295234842E+04  0.13295234842E+04  0.50400001928E-02 0. -1.
       -1   -1    0    0    0  501  0.00000000000E+00  0.00000000000E+00 -0.28484858757E+04  0.28484858757E+04  0.50400001928E-02 0.  1.
    10030    2    1    2    0    0  0.00000000000E+00  0.00000000000E+00 -0.15189623914E+04  0.41780093599E+04  0.38921093850E+04 0.  0.
        2    1    3    3  502    0  0.11619558644E+04  0.99630850483E+03 -0.20495759707E+04  0.25580331755E+04  0.25500000920E-02 0.  1.
       -2    1    3    3    0  502 -0.11619558644E+04 -0.99630850483E+03  0.53061357925E+03  0.16199761844E+04  0.25500000920E-02 0. -1.
</event>
<event>
 5   0  0.2632875E-08  0.3896890E+04  0.7818609E-02  0.8025676E-01
       -1   -1    0    0    0  501  0.00000000000E+00  0.00000000000E+00  0.23457161069E+04  0.23457161069E+04  0.50400001928E-02 0.  1.
        1   -1    0    0  501    0  0.00000000000E+00  0.00000000000E+00 -0.16184557724E+04  0.16184557724E+04  0.50400001928E-02 0. -1.
    10030    2    1    2    0    0  0.00000000000E+00  0.00000000000E+00  0.72726033447E+03  0.39641718793E+04  0.38968899259E+04 0.  0.
        1    1    3    3  502    0 -0.14222330021E+03  0.19270477683E+04  0.10891287507E+03  0.19353559318E+04  0.50400001928E-02 0.  1.
       -1    1    3    3    0  502  0.14222330021E+03 -0.19270477683E+04  0.61834745940E+03  0.20288159475E+04  0.50400001928E-02 0. -1.
</event>
<event>
 5   0  0.2632875E-08  0.3901048E+04  0.7818609E-02  0.8024811E-01
       -1   -1    0    0    0  501  0.00000000000E+00  0.00000000000E+00  0.29665222202E+04  0.29665222202E+04  0.50400001928E-02 0.  1.
        1   -1    0    0  501    0  0.00000000000E+00  0.00000000000E+00 -0.12824927310E+04  0.12824927310E+04  0.50400001928E-02 0. -1.
    10030    2    1    2    0    0  0.00000000000E+00  0.00000000000E+00  0.16840294892E+04  0.42490149512E+04  0.39010476458E+04 0.  0.
        5    1    3    3  502    0 -0.13776419328E+04 -0.13803850637E+04  0.87912548769E+03  0.21392157283E+04  0.46999998093E+01 0.  1.
       -5    1    3    3    0  502  0.13776419328E+04  0.13803850637E+04  0.80490400155E+03  0.21097992229E+04  0.46999998093E+01 0. -1.
</event>
<event>
 5   0  0.2632875E-08  0.3907372E+04  0.7818609E-02  0.8023498E-01
       -1   -1    0    0    0  501  0.00000000000E+00  0.00000000000E+00  0.21091692557E+04  0.21091692557E+04  0.50400001928E-02 0. -1.
        1   -1    0    0  501    0  0.00000000000E+00  0.00000000000E+00 -0.18096648936E+04  0.18096648936E+04  0.50400001928E-02 0.  1.
    10030    2    1    2    0    0  0.00000000000E+00  0.00000000000E+00  0.29950436212E+03  0.39188341493E+04  0.39073722918E+04 0.  0.
        3    1    3    3  502    0 -0.74133522151E+03 -0.18067176838E+04  0.94065920001E+02  0.19551611461E+04  0.10100000352E+00 0.  1.
       -3    1    3    3    0  502  0.74133522151E+03  0.18067176838E+04  0.20543844212E+03  0.19636730032E+04  0.10100000352E+00 0. -1.
</event>
<event>
 5   0  0.8676098E-08  0.3881147E+04  0.7818609E-02  0.8028962E-01
        2   -1    0    0  501    0  0.00000000000E+00  0.00000000000E+00  0.17341352771E+04  0.17341352771E+04  0.25500000920E-02 0. -1.
       -2   -1    0    0    0  501  0.00000000000E+00  0.00000000000E+00 -0.21715872776E+04  0.21715872776E+04  0.25500000920E-02 0.  1.
    10030    2    1    2    0    0  0.00000000000E+00  0.00000000000E+00 -0.43745200056E+03  0.39057225547E+04  0.38811473074E+04 0.  0.
        3    1    3    3  502    0  0.18382946172E+04 -0.62103222539E+03 -0.18994471659E+03  0.19496376920E+04  0.10100000352E+00 0. -1.
       -3    1    3    3    0  502 -0.18382946172E+04  0.62103222539E+03 -0.24750728396E+03  0.19560848627E+04  0.10100000352E+00 0.  1.
</event>
<event>
 5   0  0.8438211E-08  0.3896085E+04  0.7818609E-02  0.8025844E-01
       -2   -1    0    0    0  501  0.00000000000E+00  0.00000000000E+00  0.11816839483E+04  0.11816839483E+04  0.25500000920E-02 0. -1.
        2   -1    0    0  501    0  0.00000000000E+00  0.00000000000E+00 -0.32114078004E+04  0.32114078004E+04  0.25500000920E-02 0.  1.
    10030    2    1    2    0    0  0.00000000000E+00  0.00000000000E+00 -0.20297238522E+04  0.43930917487E+04  0.38960847266E+04 0.  0.
        5    1    3    3  502    0  0.91677332950E+03 -0.50754649703E+03  0.83680917655E+03  0.13410251572E+04  0.46999998093E+01 0. -1.
       -5    1    3    3    0  502 -0.91677332950E+03  0.50754649703E+03 -0.28665330287E+04  0.30520665915E+04  0.46999998093E+01 0.  1.
</event>
<event>
 5   0  0.8476262E-08  0.3896029E+04  0.7818609E-02  0.8025856E-01
       -2   -1    0    0    0  501  0.00000000000E+00  0.00000000000E+00  0.23645438312E+04  0.23645438312E+04  0.25500000920E-02 0. -1.
        2   -1    0    0  501    0  0.00000000000E+00  0.00000000000E+00 -0.16048591734E+04  0.16048591734E+04  0.25500000920E-02 0.  1.
    10030    2    1    2    0    0  0.00000000000E+00  0.00000000000E+00  0.75968465777E+03  0.39694030046E+04  0.38960286747E+04 0.  0.
        2    1    3    3  502    0 -0.68131768928E+03 -0.17941049602E+04  0.72043361438E+03  0.20498856053E+04  0.25500000920E-02 0. -1.
       -2    1    3    3    0  502  0.68131768928E+03  0.17941049602E+04  0.39251043389E+02  0.19195173993E+04  0.25500000920E-02 0.  1.
</event>
<event>
 5   0  0.2632875E-08  0.3897528E+04  0.7818609E-02  0.8025543E-01
        1   -1    0    0  501    0  0.00000000000E+00  0.00000000000E+00  0.27449970352E+04  0.27449970352E+04  0.50400001928E-02 0. -1.
       -1   -1    0    0    0  501  0.00000000000E+00  0.00000000000E+00 -0.13834920694E+04  0.13834920694E+04  0.50400001928E-02 0.  1.
    10030    2    1    2    0    0  0.00000000000E+00  0.00000000000E+00  0.13615049657E+04  0.41284891046E+04  0.38975282571E+04 0.  0.
        3    1    3    3  502    0 -0.13051483594E+03 -0.14276995784E+04 -0.71743692244E+03  0.16031456441E+04  0.10100000352E+00 0.  1.
       -3    1    3    3    0  502  0.13051483594E+03  0.14276995784E+04  0.20789418882E+04  0.25253434604E+04  0.10100000352E+00 0. -1.
</event>
<event>
 5   0  0.8476262E-08  0.3895672E+04  0.7818609E-02  0.8025930E-01
        2   -1    0    0  501    0  0.00000000000E+00  0.00000000000E+00  0.19194060941E+04  0.19194060941E+04  0.25500000920E-02 0.  1.
       -2   -1    0    0    0  501  0.00000000000E+00  0.00000000000E+00 -0.19766874190E+04  0.19766874190E+04  0.25500000920E-02 0. -1.
    10030    2    1    2    0    0  0.00000000000E+00  0.00000000000E+00 -0.57281324933E+02  0.38960935131E+04  0.38956724082E+04 0.  0.
        2    1    3    3  502    0 -0.13247938104E+04  0.83699424999E+03 -0.11856701502E+04  0.19650576886E+04  0.25500000920E-02 0. -1.
       -2    1    3    3    0  502  0.13247938104E+04 -0.83699424999E+03  0.11283888252E+04  0.19310358245E+04  0.25500000920E-02 0.  1.
</event>
<event>
 5   0  0.2632875E-08  0.3881924E+04  0.7818609E-02  0.8028799E-01
        1   -1    0    0  501    0  0.00000000000E+00  0.00000000000E+00  0.25376314587E+04  0.25376314587E+04  0.50400001928E-02 0.  1.
       -1   -1    0    0    0  501  0.00000000000E+00  0.00000000000E+00 -0.14845868551E+04  0.14845868551E+04  0.50400001928E-02 0. -1.
    10030    2    1    2    0    0  0.00000000000E+00  0.00000000000E+00  0.10530446036E+04  0.40222183137E+04  0.38819244230E+04 0.  0.
        1    1    3    3  502    0 -0.24845418578E+03  0.12116548423E+04 -0.10233639635E+04  0.16053382015E+04  0.50400001928E-02 0. -1.
       -1    1    3    3    0  502  0.24845418578E+03 -0.12116548423E+04  0.20764085671E+04  0.24168801122E+04  0.50400001928E-02 0.  1.
</event>
<event>
 5   0  0.2632875E-08  0.3905057E+04  0.7818609E-02  0.8023978E-01
       -3   -1    0    0    0  501  0.00000000000E+00  0.00000000000E+00  0.17056626075E+04  0.17056626105E+04  0.10100000352E+00 0.  1.
        3   -1    0    0  501    0  0.00000000000E+00  0.00000000000E+00 -0.22351243083E+04  0.22351243106E+04  0.10100000352E+00 0. -1.
    10030    2    1    2    0    0  0.00000000000E+00  0.00000000000E+00 -0.52946170082E+03  0.39407869211E+04  0.39050572166E+04 0.  0.
        3    1    3    3  502    0 -0.41453996672E+03 -0.16628685868E+04 -0.12089156312E+04  0.20972487537E+04  0.10100000352E+00 0. -1.
       -3    1    3    3    0  502  0.41453996672E+03  0.16628685868E+04  0.67945393039E+03  0.18435381675E+04  0.10100000352E+00 0.  1.
</event>
<event>
 5   0  0.8342802E-08  0.3899819E+04  0.7818609E-02  0.8025067E-01
       -2   -1    0    0    0  501  0.00000000000E+00  0.00000000000E+00  0.16034007066E+04  0.16034007066E+04  0.25500000920E-02 0.  1.
        2   -1    0    0  501    0  0.00000000000E+00  0.00000000000E+00 -0.23713014429E+04  0.23713014429E+04  0.25500000920E-02 0. -1.
    10030    2    1    2    0    0  0.00000000000E+00  0.00000000000E+00 -0.76790073629E+03  0.39747021495E+04  0.38998186671E+04 0.  0.
        4    1    3    3  502    0 -0.28258153577E+03  0.31267508767E+03 -0.23243260864E+04  0.23622259425E+04  0.12699999809E+01 0. -1.
       -4    1    3    3    0  502  0.28258153577E+03 -0.31267508767E+03  0.15564253501E+04  0.16124762070E+04  0.12699999809E+01 0.  1.
</event>
<event>
 5   0  0.2632875E-08  0.3899100E+04  0.7818609E-02  0.8025216E-01
        1   -1    0    0  501    0  0.00000000000E+00  0.00000000000E+00  0.21406474574E+04  0.21406474574E+04  0.50400001928E-02 0. -1.
       -1   -1    0    0    0  501  0.00000000000E+00  0.00000000000E+00 -0.17755123413E+04  0.17755123413E+04  0.50400001928E-02 0.  1.
    10030    2    1    2    0    0  0.00000000000E+00  0.00000000000E+00  0.36513511607E+03  0.39161597986E+04  0.38991003982E+04 0.  0.
        3    1    3    3  502    0 -0.76863523735E+03  0.49259477385E+03 -0.15475532890E+04  0.17967667996E+04  0.10100000352E+00 0.  1.
       -3    1    3    3    0  502  0.76863523735E+03 -0.49259477385E+03  0.19126884051E+04  0.21193929991E+04  0.10100000352E+00 0. -1.
</event>
<event>
 5   0  0.2632875E-08  0.3896558E+04  0.7818609E-02  0.8025746E-01
       -1   -1    0    0    0  501  0.00000000000E+00  0.00000000000E+00  0.15138027191E+04  0.15138027191E+04  0.50400001928E-02 0.  1.
        1   -1    0    0  501    0  0.00000000000E+00  0.00000000000E+00 -0.25074537286E+04  0.25074537286E+04  0.50400001928E-02 0. -1.
    10030    2    1    2    0    0  0.00000000000E+00  0.00000000000E+00 -0.99365100951E+03  0.40212564476E+04  0.38965575947E+04 0.  0.
        1    1    3    3  502    0  0.39997016995E+03 -0.50566470815E+02 -0.24639359290E+04  0.24967004961E+04  0.50400001928E-02 0. -1.
       -1    1    3    3    0  502 -0.39997016995E+03  0.50566470815E+02  0.14702849195E+04  0.15245559516E+04  0.50400001928E-02 0.  1.
</event>
<event>
 5   0  0.2632875E-08  0.3887012E+04  0.7818609E-02  0.8027736E-01
       -1   -1    0    0    0  501  0.00000000000E+00  0.00000000000E+00  0.13910714913E+04  0.13910714913E+04  0.50400001928E-02 0.  1.
        1   -1    0    0  501    0  0.00000000000E+00  0.00000000000E+00 -0.27153288003E+04  0.27153288003E+04  0.50400001928E-02 0. -1.
    10030    2    1    2    0    0  0.00000000000E+00  0.00000000000E+00 -0.13242573090E+04  0.41064002916E+04  0.38870124690E+04 0.  0.
        2    1    3    3  502    0  0.16779930132E+03  0.19260008440E+04 -0.45195093147E+03  0.19854207366E+04  0.25500000920E-02 0.  1.
       -2    1    3    3    0  502 -0.16779930132E+03 -0.19260008440E+04 -0.87230637749E+03  0.21209795550E+04  0.25500000920E-02 0. -1.
</event>
<event>
 5   0  0.2632875E-08  0.3893732E+04  0.7818609E-02  0.8026334E-01
        1   -1    0    0  501    0  0.00000000000E+00  0.00000000000E+00  0.25795744544E+04  0.25795744544E+04  0.50400001928E-02 0.  1.
       -1   -1    0    0    0  501  0.00000000000E+00  0.00000000000E+00 -0.14693458982E+04  0.14693458982E+04  0.50400001928E-02 0. -1.
    10030    2    1    2    0    0  0.00000000000E+00  0.00000000000E+00  0.11102285562E+04  0.40489203526E+04  0.38937319598E+04 0.  0.
        4    1    3    3  502    0  0.17086297073E+04  0.91379183793E+03  0.35821450966E+03  0.19704695500E+04  0.12699999809E+01 0.  1.
       -4    1    3    3    0  502 -0.17086297073E+04 -0.91379183793E+03  0.75201404652E+03  0.20784508026E+04  0.12699999809E+01 0. -1.
</event>
<event>
 5   0  0.8551754E-08  0.3902120E+04  0.7818609E-02  0.8024588E-01
        2   -1    0    0  501    0  0.00000000000E+00  0.00000000000E+00  0.12823003870E+04  0.12823003870E+04  0.25500000920E-02 0.  1.
       -2   -1    0    0    0  501  0.00000000000E+00  0.00000000000E+00 -0.29685988922E+04  0.29685988922E+04  0.25500000920E-02 0. -1.
    10030    2    1    2    0    0  0.00000000000E+00  0.00000000000E+00 -0.16862985053E+04  0.42508992792E+04  0.39021201971E+04 0.  0.
        1    1    3    3  502    0 -0.13760364293E+04  0.94362590345E+03 -0.19448421360E+04  0.25624825920E+04  0.50400001928E-02 0. -1.
       -1    1    3    3    0  502  0.13760364293E+04 -0.94362590345E+03  0.25854363075E+03  0.16884166871E+04  0.50400001928E-02 0.  1.
</event>
<event>
 5   0  0.2632875E-08  0.3919291E+04  0.7818609E-02  0.8021029E-01
       -1   -1    0    0    0  501  0.00000000000E+00  0.00000000000E+00  0.20944265530E+04  0.20944265530E+04  0.50400001928E-02 0. -1.
        1   -1    0    0  501    0  0.00000000000E+00  0.00000000000E+00 -0.18335377985E+04  0.18335377986E+04  0.50400001928E-02 0.  1.
    10030    2    1    2    0    0  0.00000000000E+00  0.00000000000E+00  0.26088875441E+03  0.39279643515E+04  0.39192908803E+04 0.  0.
        2    1    3    3  502    0 -0.86188301521E+03 -0.16407497262E+04  0.76849151584E+03  0.20063601885E+04  0.25500000920E-02 0.  1.
       -2    1    3    3    0  502  0.86188301521E+03  0.16407497262E+04 -0.50760276143E+03  0.19216041630E+04  0.25500000920E-02 0. -1.
</event>
<event>
 5   0  0.8676098E-08  0.3908460E+04  0.7818609E-02  0.8023272E-01
        2   -1    0    0  501    0  0.00000000000E+00  0.00000000000E+00  0.28887444389E+04  0.28887444389E+04  0.25500000920E-02 0.  1.
       -2   -1    0    0    0  501  0.00000000000E+00  0.00000000000E+00 -0.13220331177E+04  0.13220331177E+04  0.25500000920E-02 0. -1.
    10030    2    1    2    0    0  0.00000000000E+00  0.00000000000E+00  0.15667113212E+04  0.42107775566E+04  0.39084604728E+04 0.  0.
        3    1    3    3  502    0  0.11374419309E+04 -0.49327461372E+03  0.24108030405E+04  0.27109159524E+04  0.10100000352E+00 0.  1.
       -3    1    3    3    0  502 -0.11374419309E+04  0.49327461372E+03 -0.84409171936E+03  0.14998616042E+04  0.10100000352E+00 0. -1.
</event>
<event>
 5   0  0.2632875E-08  0.3891074E+04  0.7818609E-02  0.8026888E-01
        1   -1    0    0  501    0  0.00000000000E+00  0.00000000000E+00  0.18586598934E+04  0.18586598934E+04  0.50400001928E-02 0. -1.
       -1   -1    0    0    0  501  0.00000000000E+00  0.00000000000E+00 -0.20364750117E+04  0.20364750117E+04  0.50400001928E-02 0.  1.
    10030    2    1    2    0    0  0.00000000000E+00  0.00000000000E+00 -0.17781511824E+03  0.38951349051E+04  0.38910741078E+04 0.  0.
        1    1    3    3  502    0 -0.12662618782E+03 -0.17438446038E+04 -0.94307775068E+03  0.19865608064E+04  0.50400001928E-02 0.  1.
       -1    1    3    3    0  502  0.12662618782E+03  0.17438446038E+04  0.76526263244E+03  0.19085740987E+04  0.50400001928E-02 0. -1.
</event>
<event>
 5   0  0.8551754E-08  0.3909831E+04  0.7818609E-02  0.8022988E-01
        2   -1    0    0  501    0  0.00000000000E+00  0.00000000000E+00  0.19917634384E+04  0.19917634384E+04  0.25500000920E-02 0. -1.
       -2   -1    0    0    0  501  0.00000000000E+00  0.00000000000E+00 -0.19187494420E+04  0.19187494420E+04  0.25500000920E-02 0.  1.
    10030    2    1    2    0    0  0.00000000000E+00  0.00000000000E+00  0.73013996353E+02  0.39105128804E+04  0.39098311913E+04 0.  0.
        1    1    3    3  502    0  0.90308524252E+03  0.54483016252E+03  0.16827867287E+04  0.19859944702E+04  0.50400001928E-02 0. -1.
       -1    1    3    3    0  502 -0.90308524252E+03 -0.54483016252E+03 -0.16097727324E+04  0.19245184102E+04  0.50400001928E-02 0.  1.
</event>
<event>
 5   0  0.2632875E-08  0.3907105E+04  0.7818609E-02  0.8023553E-01
        1   -1    0    0  501    0  0.00000000000E+00  0.00000000000E+00  0.23281692885E+04  0.23281692885E+04  0.50400001928E-02 0.  1.
       -1   -1    0    0    0  501  0.00000000000E+00  0.00000000000E+00 -0.16392140624E+04  0.16392140624E+04  0.50400001928E-02 0. -1.
    10030    2    1    2    0    0  0.00000000000E+00  0.00000000000E+00  0.68895522610E+03  0.39673833509E+04  0.39071052391E+04 0.  0.
        3    1    3    3  502    0  0.76775830927E+03 -0.75132788445E+03 -0.13123886548E+04  0.16959688684E+04  0.10100000352E+00 0. -1.
       -3    1    3    3    0  502 -0.76775830927E+03  0.75132788445E+03  0.20013438809E+04  0.22714144824E+04  0.10100000352E+00 0.  1.
</event>
<event>
 5   0  0.8342802E-08  0.3901241E+04  0.7818609E-02  0.8024771E-01
       -2   -1    0    0    0  501  0.00000000000E+00  0.00000000000E+00  0.20294526041E+04  0.20294526041E+04  0.25500000920E-02 0. -1.
        2   -1    0    0  501    0  0.00000000000E+00  0.00000000000E+00 -0.18748507714E+04  0.18748507714E+04  0.25500000920E-02 0.  1.
    10030    2    1    2    0    0  0.00000000000E+00  0.00000000000E+00  0.15460183267E+03  0.39043033755E+04  0.39012412283E+04 0.  0.
        4    1    3    3  502    0 -0.88619094768E+03  0.17252722584E+03 -0.16531656348E+04  0.18836290156E+04  0.12699999809E+01 0.  1.
       -4    1    3    3    0  502  0.88619094768E+03 -0.17252722584E+03  0.18077674675E+04  0.20206743599E+04  0.12699999809E+01 0. -1.
</event>
<event>
 5   0  0.8342802E-08  0.3891773E+04  0.7818609E-02  0.8026742E-01
       -2   -1    0    0    0  501  0.00000000000E+00  0.00000000000E+00  0.15496894763E+04  0.15496894763E+04  0.25500000920E-02 0. -1.
        2   -1    0    0  501    0  0.00000000000E+00  0.00000000000E+00 -0.24433765467E+04  0.24433765467E+04  0.25500000920E-02 0.  1.
    10030    2    1    2    0    0  0.00000000000E+00  0.00000000000E+00 -0.89368707043E+03  0.39930660230E+04  0.38917733341E+04 0.  0.
        4    1    3    3  502    0 -0.10459868912E+04  0.32219247750E+03  0.12039375163E+04  0.16270721327E+04  0.12699999809E+01 0. -1.
       -4    1    3    3    0  502  0.10459868912E+04 -0.32219247750E+03 -0.20976245867E+04  0.23659938903E+04  0.12699999809E+01 0.  1.
</event>
<event>
 5   0  0.8438211E-08  0.3901564E+04  0.7818609E-02  0.8024704E-01
        2   -1    0    0  501    0  0.00000000000E+00  0.00000000000E+00  0.28262697560E+04  0.28262697560E+04  0.25500000920E-02 0.  1.
       -2   -1    0    0    0  501  0.00000000000E+00  0.00000000000E+00 -0.13464921424E+04  0.13464921424E+04  0.25500000920E-02 0. -1.
    10030    2    1    2    0    0  0.00000000000E+00  0.00000000000E+00  0.14797776137E+04  0.41727618984E+04  0.39015637986E+04 0.  0.
        5    1    3    3  502    0  0.40655042167E+03  0.19062485316E+04  0.65391975680E+03  0.20558939291E+04  0.46999998093E+01 0. -1.
       -5    1    3    3    0  502 -0.40655042167E+03 -0.19062485316E+04  0.82585785685E+03  0.21168679693E+04  0.46999998093E+01 0.  1.
</event>
<event>
 5   0  0.8476262E-08  0.3905776E+04  0.7818609E-02  0.8023829E-01
        2   -1    0    0  501    0  0.00000000000E+00  0.00000000000E+00  0.28180122713E+04  0.28180122713E+04  0.25500000920E-02 0. -1.
       -2   -1    0    0    0  501  0.00000000000E+00  0.00000000000E+00 -0.13533553112E+04  0.13533553112E+04  0.25500000920E-02 0.  1.
    10030    2    1    2    0    0  0.00000000000E+00  0.00000000000E+00  0.14646569601E+04  0.41713675825E+04  0.39057761709E+04 0.  0.
        2    1    3    3  502    0  0.86310913910E+03 -0.12459134641E+04  0.20475361733E+04  0.25474815264E+04  0.25500000920E-02 0. -1.
       -2    1    3    3    0  502 -0.86310913910E+03  0.12459134641E+04 -0.58287921319E+03  0.16238860561E+04  0.25500000920E-02 0.  1.
</event>
<event>
 5   0  0.8676098E-08  0.3932436E+04  0.7818609E-02  0.8018317E-01
       -2   -1    0    0    0  501  0.00000000000E+00  0.00000000000E+00  0.18122396506E+04  0.18122396506E+04  0.25500000920E-02 0.  1.
        2   -1    0    0  501    0  0.00000000000E+00  0.00000000000E+00 -0.21332789879E+04  0.21332789879E+04  0.25500000920E-02 0. -1.
    10030    2    1    2    0    0  0.00000000000E+00  0.00000000000E+00 -0.32103933732E+03  0.39455186385E+04  0.39324357682E+04 0.  0.
        3    1    3    3  502    0 -0.80581183712E+03 -0.14017754146E+04 -0.12830383605E+04  0.20640965274E+04  0.10100000352E+00 0. -1.
       -3    1    3    3    0  502  0.80581183712E+03  0.14017754146E+04  0.96199902315E+03  0.18814221112E+04  0.10100000352E+00 0.  1.
</event>
<event>
 5   0  0.8676098E-08  0.3865962E+04  0.7818609E-02  0.8032146E-01
       -2   -1    0    0    0  501  0.00000000000E+00  0.00000000000E+00  0.15526552739E+04  0.15526552739E+04  0.25500000920E-02 0. -1.
        2   -1    0    0  501    0  0.00000000000E+00  0.00000000000E+00 -0.24064686254E+04  0.24064686254E+04  0.25500000920E-02 0.  1.
    10030    2    1    2    0    0  0.00000000000E+00  0.00000000000E+00 -0.85381335154E+03  0.39591238993E+04  0.38659623395E+04 0.  0.
        3    1    3    3  502    0 -0.77860384688E+03 -0.12663346603E+04 -0.16922328904E+04  0.22524385869E+04  0.10100000352E+00 0.  1.
       -3    1    3    3    0  502  0.77860384688E+03  0.12663346603E+04  0.83841953883E+03  0.17066853124E+04  0.10100000352E+00 0. -1.
</event>
<event>
 5   0  0.8476262E-08  0.3916242E+04  0.7818609E-02  0.8021660E-01
        2   -1    0    0  501    0  0.00000000000E+00  0.00000000000E+00  0.21728672253E+04  0.21728672253E+04  0.25500000920E-02 0.  1.
       -2   -1    0    0    0  501  0.00000000000E+00  0.00000000000E+00 -0.17645980321E+04  0.17645980321E+04  0.25500000920E-02 0. -1.
    10030    2    1    2    0    0  0.00000000000E+00  0.00000000000E+00  0.40826919312E+03  0.39374652574E+04  0.39162416829E+04 0.  0.
        2    1    3    3  502    0 -0.72283083254E+03  0.15672758814E+04  0.11340247544E+04  0.20651513853E+04  0.25500000920E-02 0.  1.
       -2    1    3    3    0  502  0.72283083254E+03 -0.15672758814E+04 -0.72575556125E+03  0.18723138721E+04  0.25500000920E-02 0. -1.
</event>
<event>
 5   0  0.2632875E-08  0.3892889E+04  0.7818609E-02  0.8026510E-01
        1   -1    0    0  501    0  0.00000000000E+00  0.00000000000E+00  0.19939762447E+04  0.19939762447E+04  0.50400001928E-02 0. -1.
       -1   -1    0    0    0  501  0.00000000000E+00  0.00000000000E+00 -0.19000458928E+04  0.19000458928E+04  0.50400001928E-02 0.  1.
    10030    2    1    2    0    0  0.00000000000E+00  0.00000000000E+00  0.93930351827E+02  0.38940221375E+04  0.38928890938E+04 0.  0.
        2    1    3    3  502    0  0.12445766771E+04  0.75324701158E+03 -0.12465833576E+04  0.19158085063E+04  0.25500000920E-02 0.  1.
       -2    1    3    3    0  502 -0.12445766771E+04 -0.75324701158E+03  0.13405137094E+04  0.19782136312E+04  0.25500000920E-02 0. -1.
</event>
<event>
 5   0  0.8676098E-08  0.3907531E+04  0.7818609E-02  0.8023465E-01
        2   -1    0    0  501    0  0.00000000000E+00  0.00000000000E+00  0.26461339733E+04  0.26461339733E+04  0.25500000920E-02 0. -1.
       -2   -1    0    0    0  501  0.00000000000E+00  0.00000000000E+00 -0.14425572738E+04  0.14425572738E+04  0.25500000920E-02 0.  1.
    10030    2    1    2    0    0  0.00000000000E+00  0.00000000000E+00  0.12035766995E+04  0.40886912471E+04  0.39075310929E+04 0.  0.
        3    1    3    3  502    0 -0.39340738511E+02 -0.18179976193E+04 -0.14585656575E+03  0.18242634639E+04  0.10100000352E+00 0.  1.
       -3    1    3    3    0  502  0.39340738511E+02  0.18179976193E+04  0.13494332653E+04  0.22644277832E+04  0.10100000352E+00 0. -1.
</event>
<event>
 5   0  0.2632875E-08  0.3924727E+04  0.7818609E-02  0.8019906E-01
        1   -1    0    0  501    0  0.00000000000E+00  0.00000000000E+00  0.26570413929E+04  0.26570413929E+04  0.50400001928E-02 0. -1.
       -1   -1    0    0    0  501  0.00000000000E+00  0.00000000000E+00 -0.14493079282E+04  0.14493079282E+04  0.50400001928E-02 0.  1.
    10030    2    1    2    0    0  0.00000000000E+00  0.00000000000E+00  0.12077334647E+04  0.41063493212E+04  0.39247273314E+04 0.  0.
        1    1    3    3  502    0  0.35097107056E+03  0.41019135485E+03 -0.13700864340E+04  0.14726080526E+04  0.50400001928E-02 0.  1.
       -1    1    3    3    0  502 -0.35097107056E+03 -0.41019135485E+03  0.25778198987E+04  0.26337412686E+04  0.50400001928E-02 0. -1.
</event>
<event>
 5   0  0.8551754E-08  0.3914096E+04  0.7818609E-02  0.8022104E-01
        2   -1    0    0  501    0  0.00000000000E+00  0.00000000000E+00  0.24721976791E+04  0.24721976791E+04  0.25500000920E-02 0.  1.
       -2   -1    0    0    0  501  0.00000000000E+00  0.00000000000E+00 -0.15492438935E+04  0.15492438935E+04  0.25500000920E-02 0. -1.
    10030    2    1    2    0    0  0.00000000000E+00  0.00000000000E+00  0.92295378555E+03  0.40214415726E+04  0.39140961449E+04 0.  0.
        1    1    3    3  502    0  0.12654540756E+04 -0.16448746426E+03  0.19859514269E+04  0.23606001807E+04  0.50400001928E-02 0.  1.
       -1    1    3    3    0  502 -0.12654540756E+04  0.16448746426E+03 -0.10629976413E+04  0.16608413919E+04  0.50400001928E-02 0. -1.
</event>
<event>
 5   0  0.8476262E-08  0.3904065E+04  0.7818609E-02  0.8024184E-01
       -2   -1    0    0    0  501  0.00000000000E+00  0.00000000000E+00  0.18726855206E+04  0.18726855206E+04  0.25500000920E-02 0. -1.
        2   -1    0    0  501    0  0.00000000000E+00  0.00000000000E+00 -0.20347409963E+04  0.20347409963E+04  0.25500000920E-02 0.  1.
    10030    2    1    2    0    0  0.00000000000E+00  0.00000000000E+00 -0.16205547569E+03  0.39074265168E+04  0.39040645496E+04 0.  0.
        2    1    3    3  502    0 -0.59947021530E+03 -0.51340050923E+03  0.17058627234E+04  0.18796042809E+04  0.25500000920E-02 0. -1.
       -2    1    3    3    0  502  0.59947021530E+03  0.51340050923E+03 -0.18679181991E+04  0.20278222359E+04  0.25500000920E-02 0.  1.
</event>
<event>
 5   0  0.2632875E-08  0.3918412E+04  0.7818609E-02  0.8021211E-01
        1   -1    0    0  501    0  0.00000000000E+00  0.00000000000E+00  0.12822149914E+04  0.12822149914E+04  0.50400001928E-02 0. -1.
       -1   -1    0    0    0  501  0.00000000000E+00  0.00000000000E+00 -0.29936389960E+04  0.29936389960E+04  0.50400001928E-02 0.  1.
    10030    2    1    2    0    0  0.00000000000E+00  0.00000000000E+00 -0.17114240046E+04  0.42758539873E+04  0.39184123312E+04 0.  0.
        4    1    3    3  502    0  0.29876840208E+03  0.12092516063E+04  0.79449968908E+03  0.14774245748E+04  0.12699999809E+01 0. -1.
       -4    1    3    3    0  502 -0.29876840208E+03 -0.12092516063E+04 -0.25059236937E+04  0.27984294125E+04  0.12699999809E+01 0.  1.
</event>
<event>
 5   0  0.8438211E-08  0.3984803E+04  0.7818609E-02  0.8007619E-01
        2   -1    0    0  501    0  0.00000000000E+00  0.00000000000E+00  0.26578253937E+04  0.26578253937E+04  0.25500000920E-02 0. -1.
       -2   -1    0    0    0  501  0.00000000000E+00  0.00000000000E+00 -0.14935757644E+04  0.14935757644E+04  0.25500000920E-02 0.  1.
    10030    2    1    2    0    0  0.00000000000E+00  0.00000000000E+00  0.11642496293E+04  0.41514011581E+04  0.39848029282E+04 0.  0.
        5    1    3    3  502    0  0.31303832694E+03  0.11576073517E+04  0.22397443637E+04  0.25405756591E+04  0.46999998093E+01 0. -1.
       -5    1    3    3    0  502 -0.31303832694E+03 -0.11576073517E+04 -0.10754947344E+04  0.16108254991E+04  0.46999998093E+01 0.  1.
</event>
<event>
 5   0  0.2632875E-08  0.3832987E+04  0.7818609E-02  0.8039113E-01
       -1   -1    0    0    0  501  0.00000000000E+00  0.00000000000E+00  0.21565458254E+04  0.21565458254E+04  0.50400001928E-02 0. -1.
        1   -1    0    0  501    0  0.00000000000E+00  0.00000000000E+00 -0.17031623262E+04  0.17031623262E+04  0.50400001928E-02 0.  1.
    10030    2    1    2    0    0  0.00000000000E+00  0.00000000000E+00  0.45338349921E+03  0.38597081516E+04  0.38329871404E+04 0.  0.
        5    1    3    3  502    0  0.39574218717E+03 -0.11851969279E+04 -0.12365806515E+04  0.17579696909E+04  0.46999998093E+01 0.  1.
       -5    1    3    3    0  502 -0.39574218717E+03  0.11851969279E+04  0.16899641507E+04  0.21017384607E+04  0.46999998093E+01 0. -1.
</event>
<event>
 5   0  0.2632875E-08  0.3915031E+04  0.7818609E-02  0.8021910E-01
       -1   -1    0    0    0  501  0.00000000000E+00  0.00000000000E+00  0.26190152341E+04  0.26190152342E+04  0.50400001928E-02 0. -1.
        1   -1    0    0  501    0  0.00000000000E+00  0.00000000000E+00 -0.14630949288E+04  0.14630949288E+04  0.50400001928E-02 0.  1.
    10030    2    1    2    0    0  0.00000000000E+00  0.00000000000E+00  0.11559203053E+04  0.40821101630E+04  0.39150314980E+04 0.  0.
        5    1    3    3  502    0 -0.88068022170E+02 -0.48825752122E+03 -0.13964441955E+04  0.14819682402E+04  0.46999998093E+01 0.  1.
       -5    1    3    3    0  502  0.88068022170E+02  0.48825752122E+03  0.25523645009E+04  0.26001419228E+04  0.46999998093E+01 0. -1.
</event>
<event>
 5   0  0.2632875E-08  0.3901642E+04  0.7818609E-02  0.8024688E-01
       -1   -1    0    0    0  501  0.00000000000E+00  0.00000000000E+00  0.17156550317E+04  0.17156550317E+04  0.50400001928E-02 0. -1.
        1   -1    0    0  501    0  0.00000000000E+00  0.00000000000E+00 -0.22182208888E+04  0.22182208888E+04  0.50400001928E-02 0.  1.
    10030    2    1    2    0    0  0.00000000000E+00  0.00000000000E+00 -0.50256585714E+03  0.39338759205E+04  0.39016416182E+04 0.  0.
        4    1    3    3  502    0 -0.17659249794E+04 -0.82714356172E+03 -0.30689943392E+03  0.19740431555E+04  0.12699999809E+01 0.  1.
       -4    1    3    3    0  502  0.17659249794E+04  0.82714356172E+03 -0.19566642322E+03  0.19598327649E+04  0.12699999809E+01 0. -1.
</event>
<event>
 5   0  0.8342802E-08  0.3899881E+04  0.7818609E-02  0.8025054E-01
        2   -1    0    0  501    0  0.00000000000E+00  0.00000000000E+00  0.21066687494E+04  0.21066687494E+04  0.25500000920E-02 0. -1.
       -2   -1    0    0    0  501  0.00000000000E+00  0.00000000000E+00 -0.18048721836E+04  0.18048721836E+04  0.25500000920E-02 0.  1.
    10030    2    1    2    0    0  0.00000000000E+00  0.00000000000E+00  0.30179656578E+03  0.39115409330E+04  0.38998809346E+04 0.  0.
        4    1    3    3  502    0 -0.16067669079E+04  0.13688860318E+03  0.12504550585E+04  0.20406072264E+04  0.12699999809E+01 0. -1.
       -4    1    3    3    0  502  0.16067669079E+04 -0.13688860318E+03 -0.94865849271E+03  0.18709337067E+04  0.12699999809E+01 0.  1.
</event>
<event>
 5   0  0.8476262E-08  0.3871565E+04  0.7818609E-02  0.8030969E-01
       -2   -1    0    0    0  501  0.00000000000E+00  0.00000000000E+00  0.22478315235E+04  0.22478315235E+04  0.25500000920E-02 0. -1.
        2   -1    0    0  501    0  0.00000000000E+00  0.00000000000E+00 -0.16670524715E+04  0.16670524715E+04  0.25500000920E-02 0.  1.
    10030    2    1    2    0    0  0.00000000000E+00  0.00000000000E+00  0.58077905204E+03  0.39148839950E+04  0.38715645916E+04 0.  0.
        2    1    3    3  502    0 -0.70026009753E+03  0.11497523678E+04 -0.11162026683E+04  0.17487718856E+04  0.25500000920E-02 0.  1.
       -2    1    3    3    0  502  0.70026009753E+03 -0.11497523678E+04  0.16969817203E+04  0.21661121094E+04  0.25500000920E-02 0. -1.
</event>
<event>
 5   0  0.8342802E-08  0.3884408E+04  0.7818609E-02  0.8028280E-01
       -2   -1    0    0    0  501  0.00000000000E+00  0.00000000000E+00  0.22024798965E+04  0.22024798965E+04  0.25500000920E-02 0.  1.
        2   -1    0    0  501    0  0.00000000000E+00  0.00000000000E+00 -0.17126858084E+04  0.17126858084E+04  0.25500000920E-02 0. -1.
    10030    2    1    2    0    0  0.00000000000E+00  0.00000000000E+00  0.48979408810E+03  0.39151657050E+04  0.38844078376E+04 0.  0.
        4    1    3    3  502    0  0.77023110706E+03  0.16356328084E+04  0.96016674470E+03  0.20470643450E+04  0.12699999809E+01 0.  1.
       -4    1    3    3    0  502 -0.77023110706E+03 -0.16356328084E+04 -0.47037265660E+03  0.18681013600E+04  0.12699999809E+01 0. -1.
</event>
<event>
 5   0  0.8551754E-08  0.3896670E+04  0.7818609E-02  0.8025722E-01
       -2   -1    0    0    0  501  0.00000000000E+00  0.00000000000E+00  0.16920595095E+04  0.16920595095E+04  0.25500000920E-02 0.  1.
        2   -1    0    0  501    0  0.00000000000E+00  0.00000000000E+00 -0.22434255595E+04  0.22434255595E+04  0.25500000920E-02 0. -1.
    10030    2    1    2    0    0  0.00000000000E+00  0.00000000000E+00 -0.55136604995E+03  0.39354850690E+04  0.38966701435E+04 0.  0.
        1    1    3    3  502    0  0.13529905917E+04 -0.27150345969E+03 -0.16647785779E+04  0.21623564422E+04  0.50400001928E-02 0. -1.
       -1    1    3    3    0  502 -0.13529905917E+04  0.27150345969E+03  0.11134125280E+04  0.17731286268E+04  0.50400001928E-02 0.  1.
</event>
<event>
 5   0  0.8676098E-08  0.3897157E+04  0.7818609E-02  0.8025621E-01
        2   -1    0    0  501    0  0.00000000000E+00  0.00000000000E+00  0.25788407769E+04  0.25788407769E+04  0.25500000920E-02 0.  1.
       -2   -1    0    0    0  501  0.00000000000E+00  0.00000000000E+00 -0.14723507676E+04  0.14723507676E+04  0.25500000920E-02 0. -1.
    10030    2    1    2    0    0  0.00000000000E+00  0.00000000000E+00  0.11064900093E+04  0.40511915445E+04  0.38971570137E+04 0.  0.
        3    1    3    3  502    0 -0.64796086230E+03  0.17353525109E+04  0.11818409352E+04  0.21972823265E+04  0.10100000352E+00 0.  1.
       -3    1    3    3    0  502  0.64796086230E+03 -0.17353525109E+04 -0.75350925964E+02  0.18539092180E+04  0.10100000352E+00 0. -1.
</event>
<event>
 5   0  0.2632875E-08  0.3891547E+04  0.7818609E-02  0.8026790E-01
       -1   -1    0    0    0  501  0.00000000000E+00  0.00000000000E+00  0.19633059593E+04  0.19633059593E+04  0.50400001928E-02 0. -1.
        1   -1    0    0  501    0  0.00000000000E+00  0.00000000000E+00 -0.19283976603E+04  0.19283976603E+04  0.50400001928E-02 0.  1.
    10030    2    1    2    0    0  0.00000000000E+00  0.00000000000E+00  0.34908299077E+02  0.38917036196E+04  0.38915470540E+04 0.  0.
        1    1    3    3  502    0  0.18286500235E+04  0.65995714513E+03  0.98267526033E+02  0.19465766999E+04  0.50400001928E-02 0.  1.
       -1    1    3    3    0  502 -0.18286500235E+04 -0.65995714513E+03 -0.63359226956E+02  0.19451269197E+04  0.50400001928E-02 0. -1.
</event>
<event>
 5   0  0.8476262E-08  0.3909352E+04  0.7818609E-02  0.8023087E-01
       -2   -1    0    0    0  501  0.00000000000E+00  0.00000000000E+00  0.12246962710E+04  0.12246962710E+04  0.25500000920E-02 0. -1.
        2   -1    0    0  501    0  0.00000000000E+00  0.00000000000E+00 -0.31197596432E+04  0.31197596432E+04  0.25500000920E-02 0.  1.
    10030    2    1    2    0    0  0.00000000000E+00  0.00000000000E+00 -0.18950633722E+04  0.43444559141E+04  0.39093518651E+04 0.  0.
        2    1    3    3  502    0  0.40480612672E+03 -0.12395734985E+04 -0.25657389968E+04  0.28780943449E+04  0.25500000920E-02 0.  1.
       -2    1    3    3    0  502 -0.40480612672E+03  0.12395734985E+04  0.67067562460E+03  0.14663615692E+04  0.25500000920E-02 0. -1.
</event>
<event>
 5   0  0.2632875E-08  0.3923463E+04  0.7818609E-02  0.8020167E-01
       -1   -1    0    0    0  501  0.00000000000E+00  0.00000000000E+00  0.27056637717E+04  0.27056637717E+04  0.50400001928E-02 0. -1.
        1   -1    0    0  501    0  0.00000000000E+00  0.00000000000E+00 -0.14223464774E+04  0.14223464774E+04  0.50400001928E-02 0.  1.
    10030    2    1    2    0    0  0.00000000000E+00  0.00000000000E+00  0.12833172943E+04  0.41280102491E+04  0.39234634367E+04 0.  0.
        4    1    3    3  502    0 -0.11742490718E+04  0.15483243093E+04  0.92440819648E+03  0.21519064050E+04  0.12699999809E+01 0. -1.
       -4    1    3    3    0  502  0.11742490718E+04 -0.15483243093E+04  0.35890909782E+03  0.19761038441E+04  0.12699999809E+01 0.  1.
</event>
<event>
 5   0  0.8342802E-08  0.3886311E+04  0.7818609E-02  0.8027882E-01
        2   -1    0    0  501    0  0.00000000000E+00  0.00000000000E+00  0.15415231890E+04  0.15415231890E+04  0.25500000920E-02 0. -1.
       -2   -1    0    0    0  501  0.00000000000E+00  0.00000000000E+00 -0.24494303343E+04  0.24494303343E+04  0.25500000920E-02 0.  1.
    10030    2    1    2    0    0  0.00000000000E+00  0.00000000000E+00 -0.90790714530E+03  0.39909535233E+04  0.38863111868E+04 0.  0.
        4    1    3    3  502    0  0.27244439116E+02 -0.29216834731E+03 -0.24265462556E+04  0.24442244058E+04  0.12699999809E+01 0.  1.
       -4    1    3    3    0  502 -0.27244439116E+02  0.29216834731E+03  0.15186391103E+04  0.15467291175E+04  0.12699999809E+01 0. -1.
</event>
<event>
 5   0  0.8342802E-08  0.3997191E+04  0.7818609E-02  0.8005114E-01
       -2   -1    0    0    0  501  0.00000000000E+00  0.00000000000E+00  0.16967358472E+04  0.16967358472E+04  0.25500000920E-02 0.  1.
        2   -1    0    0  501    0  0.00000000000E+00  0.00000000000E+00 -0.23541575301E+04  0.23541575301E+04  0.25500000920E-02 0. -1.
    10030    2    1    2    0    0  0.00000000000E+00  0.00000000000E+00 -0.65742168289E+03  0.40508933773E+04  0.39971907492E+04 0.  0.
        4    1    3    3  502    0 -0.16241304923E+04 -0.39985442438E+03 -0.14373451170E+04  0.22053675464E+04  0.12699999809E+01 0. -1.
       -4    1    3    3    0  502  0.16241304923E+04  0.39985442438E+03  0.77992343410E+03  0.18455258309E+04  0.12699999809E+01 0.  1.
</event>
<event>
 5   0  0.2632875E-08  0.3883399E+04  0.7818609E-02  0.8028491E-01
        1   -1    0    0  501    0  0.00000000000E+00  0.00000000000E+00  0.12269667368E+04  0.12269667368E+04  0.50400001928E-02 0. -1.
       -1   -1    0    0    0  501  0.00000000000E+00  0.00000000000E+00 -0.30727782653E+04  0.30727782653E+04  0.50400001928E-02 0.  1.
    10030    2    1    2    0    0  0.00000000000E+00  0.00000000000E+00 -0.18458115285E+04  0.42997450021E+04  0.38833988830E+04 0.  0.
        1    1    3    3  502    0  0.64480146067E+03 -0.29973799910E+03  0.10776224680E+04  0.12910778348E+04  0.50400001928E-02 0. -1.
       -1    1    3    3    0  502 -0.64480146067E+03  0.29973799910E+03 -0.29234339965E+04  0.30086671674E+04  0.50400001928E-02 0.  1.
</event>
<event>
 5   0  0.2632875E-08  0.3910150E+04  0.7818609E-02  0.8022921E-01
        1   -1    0    0  501    0  0.00000000000E+00  0.00000000000E+00  0.19771745287E+04  0.19771745287E+04  0.50400001928E-02 0. -1.
       -1   -1    0    0    0  501  0.00000000000E+00  0.00000000000E+00 -0.19332227405E+04  0.19332227405E+04  0.50400001928E-02 0.  1.
    10030    2    1    2    0    0  0.00000000000E+00  0.00000000000E+00  0.43951788196E+02  0.39103972693E+04  0.39101502585E+04 0.  0.
        5    1    3    3  502    0  0.17124858322E+04 -0.64184786176E+03 -0.66924087827E+03  0.19474295485E+04  0.46999998093E+01 0.  1.
       -5    1    3    3    0  502 -0.17124858322E+04  0.64184786176E+03  0.71319266647E+03  0.19629677208E+04  0.46999998093E+01 0. -1.
</event>
<event>
 5   0  0.8676098E-08  0.3870773E+04  0.7818609E-02  0.8031136E-01
       -2   -1    0    0    0  501  0.00000000000E+00  0.00000000000E+00  0.34621056034E+04  0.34621056034E+04  0.25500000920E-02 0.  1.
        2   -1    0    0  501    0  0.00000000000E+00  0.00000000000E+00 -0.10819196300E+04  0.10819196300E+04  0.25500000920E-02 0. -1.
    10030    2    1    2    0    0  0.00000000000E+00  0.00000000000E+00  0.23801859734E+04  0.45440252334E+04  0.38707725396E+04 0.  0.
        3    1    3    3  502    0 -0.10208985151E+04 -0.12790200811E+04 -0.22865998885E+02  0.16366578782E+04  0.10100000352E+00 0. -1.
       -3    1    3    3    0  502  0.10208985151E+04  0.12790200811E+04  0.24030519723E+04  0.29073673552E+04  0.10100000352E+00 0.  1.
</event>
<event>
 5   0  0.2632875E-08  0.3907695E+04  0.7818609E-02  0.8023431E-01
        3   -1    0    0  501    0  0.00000000000E+00  0.00000000000E+00  0.17715531537E+04  0.17715531565E+04  0.10100000352E+00 0.  1.
       -3   -1    0    0    0  501  0.00000000000E+00  0.00000000000E+00 -0.21549003023E+04  0.21549003047E+04  0.10100000352E+00 0. -1.
    10030    2    1    2    0    0  0.00000000000E+00  0.00000000000E+00 -0.38334714868E+03  0.39264534612E+04  0.39076951963E+04 0.  0.
        4    1    3    3  502    0  0.39547398251E+03  0.99367003795E+03 -0.18346800662E+04  0.21236365916E+04  0.12699999809E+01 0. -1.
       -4    1    3    3    0  502 -0.39547398251E+03 -0.99367003795E+03  0.14513329175E+04  0.18028168696E+04  0.12699999809E+01 0.  1.
</event>
<event>
 5   0  0.2632875E-08  0.3949130E+04  0.7818609E-02  0.8014888E-01
        1   -1    0    0  501    0  0.00000000000E+00  0.00000000000E+00  0.13436766147E+04  0.13436766147E+04  0.50400001928E-02 0. -1.
       -1   -1    0    0    0  501  0.00000000000E+00  0.00000000000E+00 -0.29016711429E+04  0.29016711429E+04  0.50400001928E-02 0.  1.
    10030    2    1    2    0    0  0.00000000000E+00  0.00000000000E+00 -0.15579945282E+04  0.42453477576E+04  0.39491303642E+04 0.  0.
        4    1    3    3  502    0 -0.76657457029E+03 -0.39016690824E+03  0.11316886957E+04  0.14214737792E+04  0.12699999809E+01 0. -1.
       -4    1    3    3    0  502  0.76657457029E+03  0.39016690824E+03 -0.26896832239E+04  0.28238739784E+04  0.12699999809E+01 0.  1.
</event>
<event>
 5   0  0.8342802E-08  0.3899093E+04  0.7818609E-02  0.8025218E-01
       -2   -1    0    0    0  501  0.00000000000E+00  0.00000000000E+00  0.24758362078E+04  0.24758362078E+04  0.25500000920E-02 0. -1.
        2   -1    0    0  501    0  0.00000000000E+00  0.00000000000E+00 -0.15351303000E+04  0.15351303000E+04  0.25500000920E-02 0.  1.
    10030    2    1    2    0    0  0.00000000000E+00  0.00000000000E+00  0.94070590776E+03  0.40109665078E+04  0.38990928075E+04 0.  0.
        4    1    3    3  502    0  0.18972591001E+04  0.35327566139E+03  0.75456589704E+03  0.20721407027E+04  0.12699999809E+01 0. -1.
       -4    1    3    3    0  502 -0.18972591001E+04 -0.35327566139E+03  0.18614001071E+03  0.19388258051E+04  0.12699999809E+01 0.  1.
</event>
<event>
 5   0  0.8551754E-08  0.3899008E+04  0.7818609E-02  0.8025235E-01
       -2   -1    0    0    0  501  0.00000000000E+00  0.00000000000E+00  0.19182129403E+04  0.19182129403E+04  0.25500000920E-02 0. -1.
        2   -1    0    0  501    0  0.00000000000E+00  0.00000000000E+00 -0.19813059007E+04  0.19813059007E+04  0.25500000920E-02 0.  1.
    10030    2    1    2    0    0  0.00000000000E+00  0.00000000000E+00 -0.63092960439E+02  0.38995188410E+04  0.38990083957E+04 0.  0.
        1    1    3    3  502    0  0.76566248813E+03 -0.14386909433E+04 -0.11014977072E+04  0.19670708872E+04  0.50400001928E-02 0.  1.
       -1    1    3    3    0  502 -0.76566248813E+03  0.14386909433E+04  0.10384047468E+04  0.19324479538E+04  0.50400001928E-02 0. -1.
</event>
<event>
 5   0  0.2632875E-08  0.3898529E+04  0.7818609E-02  0.8025335E-01
        1   -1    0    0  501    0  0.00000000000E+00  0.00000000000E+00  0.11702615511E+04  0.11702615511E+04  0.50400001928E-02 0. -1.
       -1   -1    0    0    0  501  0.00000000000E+00  0.00000000000E+00 -0.32468221645E+04  0.32468221645E+04  0.50400001928E-02 0.  1.
    10030    2    1    2    0    0  0.00000000000E+00  0.00000000000E+00 -0.20765606134E+04  0.44170837156E+04  0.38985285133E+04 0.  0.
        2    1    3    3  502    0  0.76100927510E+02  0.98073481586E+03 -0.29449763450E+04  0.31049183247E+04  0.25500000920E-02 0.  1.
       -2    1    3    3    0  502 -0.76100927510E+02 -0.98073481586E+03  0.86841573160E+03  0.13121653909E+04  0.25500000920E-02 0. -1.
</event>
<event>
 5   0  0.8476262E-08  0.3896643E+04  0.7818609E-02  0.8025728E-01
       -2   -1    0    0    0  501  0.00000000000E+00  0.00000000000E+00  0.18069788496E+04  0.18069788496E+04  0.25500000920E-02 0. -1.
        2   -1    0    0  501    0  0.00000000000E+00  0.00000000000E+00 -0.21007199638E+04  0.21007199638E+04  0.25500000920E-02 0.  1.
    10030    2    1    2    0    0  0.00000000000E+00  0.00000000000E+00 -0.29374111426E+03  0.39076988134E+04  0.38966429364E+04 0.  0.
        2    1    3    3  502    0 -0.15462025180E+04 -0.97635641190E+03 -0.82104463633E+03  0.20045269678E+04  0.25500000920E-02 0.  1.
       -2    1    3    3    0  502  0.15462025180E+04  0.97635641190E+03  0.52730352207E+03  0.19031718456E+04  0.25500000920E-02 0. -1.
</event>
<event>
 5   0  0.8551754E-08  0.3857498E+04  0.7818609E-02  0.8033927E-01
        2   -1    0    0  501    0  0.00000000000E+00  0.00000000000E+00  0.26230177567E+04  0.26230177567E+04  0.25500000920E-02 0. -1.
       -2   -1    0    0    0  501  0.00000000000E+00  0.00000000000E+00 -0.14182417096E+04  0.14182417096E+04  0.25500000920E-02 0.  1.
    10030    2    1    2    0    0  0.00000000000E+00  0.00000000000E+00  0.12047760471E+04  0.40412594663E+04  0.38574982502E+04 0.  0.
        1    1    3    3  502    0 -0.18658153983E+04 -0.22807570699E+03  0.14961038477E+03  0.18856481368E+04  0.50400001928E-02 0.  1.
       -1    1    3    3    0  502  0.18658153983E+04  0.22807570699E+03  0.10551656623E+04  0.21556113295E+04  0.50400001928E-02 0. -1.
</event>
<event>
 5   0  0.8676098E-08  0.3893487E+04  0.7818609E-02  0.8026385E-01
        2   -1    0    0  501    0  0.00000000000E+00  0.00000000000E+00  0.24543927535E+04  0.24543927535E+04  0.25500000920E-02 0. -1.
       -2   -1    0    0    0  501  0.00000000000E+00  0.00000000000E+00 -0.15440931762E+04  0.15440931762E+04  0.25500000920E-02 0.  1.
    10030    2    1    2    0    0  0.00000000000E+00  0.00000000000E+00  0.91029957730E+03  0.39984859296E+04  0.38934874353E+04 0.  0.
        3    1    3    3  502    0  0.54933250312E+03  0.37963281207E+03 -0.14228043497E+04  0.15717059199E+04  0.10100000352E+00 0.  1.
       -3    1    3    3    0  502 -0.54933250312E+03 -0.37963281207E+03  0.23331039270E+04  0.24267800097E+04  0.10100000352E+00 0. -1.
</event>
<event>
 5   0  0.8476262E-08  0.3887807E+04  0.7818609E-02  0.8027570E-01
        2   -1    0    0  501    0  0.00000000000E+00  0.00000000000E+00  0.18348084980E+04  0.18348084980E+04  0.25500000920E-02 0.  1.
       -2   -1    0    0    0  501  0.00000000000E+00  0.00000000000E+00 -0.20594850022E+04  0.20594850022E+04  0.25500000920E-02 0. -1.
    10030    2    1    2    0    0  0.00000000000E+00  0.00000000000E+00 -0.22467650418E+03  0.38942935001E+04  0.38878068797E+04 0.  0.
        2    1    3    3  502    0  0.43290347872E+03 -0.69943782431E+02 -0.20092938915E+04  0.20565892874E+04  0.25500000920E-02 0. -1.
       -2    1    3    3    0  502 -0.43290347872E+03  0.69943782431E+02  0.17846173873E+04  0.18377042128E+04  0.25500000920E-02 0.  1.
</event>
<event>
 5   0  0.2632875E-08  0.3655848E+04  0.7818609E-02  0.8077818E-01
       -1   -1    0    0    0  501  0.00000000000E+00  0.00000000000E+00  0.18338299443E+04  0.18338299443E+04  0.50400001928E-02 0.  1.
        1   -1    0    0  501    0  0.00000000000E+00  0.00000000000E+00 -0.18220368991E+04  0.18220368992E+04  0.50400001928E-02 0. -1.
    10030    2    1    2    0    0  0.00000000000E+00  0.00000000000E+00  0.11793045180E+02  0.36558668435E+04  0.36558478225E+04 0.  0.
        5    1    3    3  502    0 -0.17009036797E+04 -0.61384453989E+03 -0.26132254817E+03  0.18270714301E+04  0.46999998093E+01 0. -1.
       -5    1    3    3    0  502  0.17009036797E+04  0.61384453989E+03  0.27311559335E+03  0.18287954134E+04  0.46999998093E+01 0.  1.
</event>
<event>
 5   0  0.8342802E-08  0.3904817E+04  0.7818609E-02  0.8024028E-01
       -2   -1    0    0    0  501  0.00000000000E+00  0.00000000000E+00  0.16049535365E+04  0.16049535365E+04  0.25500000920E-02 0.  1.
        2   -1    0    0  501    0  0.00000000000E+00  0.00000000000E+00 -0.23750839206E+04  0.23750839206E+04  0.25500000920E-02 0. -1.
    10030    2    1    2    0    0  0.00000000000E+00  0.00000000000E+00 -0.77013038407E+03  0.39800374571E+04  0.39048171983E+04 0.  0.
        4    1    3    3  502    0  0.15796865798E+04 -0.97797342170E+03 -0.99667084500E+03  0.21083633677E+04  0.12699999809E+01 0. -1.
       -4    1    3    3    0  502 -0.15796865798E+04  0.97797342170E+03  0.22654046094E+03  0.18716740895E+04  0.12699999809E+01 0.  1.
</event>
<event>
 5   0  0.2632875E-08  0.3920737E+04  0.7818609E-02  0.8020730E-01
       -1   -1    0    0    0  501  0.00000000000E+00  0.00000000000E+00  0.16300125925E+04  0.16300125925E+04  0.50400001928E-02 0. -1.
        1   -1    0    0  501    0  0.00000000000E+00  0.00000000000E+00 -0.23576774443E+04  0.23576774443E+04  0.50400001928E-02 0.  1.
    10030    2    1    2    0    0  0.00000000000E+00  0.00000000000E+00 -0.72766485178E+03  0.39876900368E+04  0.39207366263E+04 0.  0.
        3    1    3    3  502    0 -0.17154394086E+04  0.58481548149E+03 -0.11237884663E+04  0.21325201146E+04  0.10100000352E+00 0. -1.
       -3    1    3    3    0  502  0.17154394086E+04 -0.58481548149E+03  0.39612361457E+03  0.18551699222E+04  0.10100000352E+00 0.  1.
</event>
<event>
 5   0  0.2632875E-08  0.3893691E+04  0.7818609E-02  0.8026343E-01
       -1   -1    0    0    0  501  0.00000000000E+00  0.00000000000E+00  0.23335426883E+04  0.23335426883E+04  0.50400001928E-02 0. -1.
        1   -1    0    0  501    0  0.00000000000E+00  0.00000000000E+00 -0.16242291230E+04  0.16242291230E+04  0.50400001928E-02 0.  1.
    10030    2    1    2    0    0  0.00000000000E+00  0.00000000000E+00  0.70931356532E+03  0.39577718112E+04  0.38936913046E+04 0.  0.
        3    1    3    3  502    0 -0.30352235335E+03 -0.52405442922E+03  0.22353639191E+04  0.23159470471E+04  0.10100000352E+00 0. -1.
       -3    1    3    3    0  502  0.30352235335E+03  0.52405442922E+03 -0.15260503538E+04  0.16418247642E+04  0.10100000352E+00 0.  1.
</event>
<event>
 5   0  0.8676098E-08  0.3903509E+04  0.7818609E-02  0.8024300E-01
        2   -1    0    0  501    0  0.00000000000E+00  0.00000000000E+00  0.17566326823E+04  0.17566326823E+04  0.25500000920E-02 0. -1.
       -2   -1    0    0    0  501  0.00000000000E+00  0.00000000000E+00 -0.21685501768E+04  0.21685501768E+04  0.25500000920E-02 0.  1.
    10030    2    1    2    0    0  0.00000000000E+00  0.00000000000E+00 -0.41191749451E+03  0.39251828590E+04  0.39035092487E+04 0.  0.
        3    1    3    3  502    0  0.33157756662E+03  0.53317924632E+03 -0.20642244535E+04  0.21576020013E+04  0.10100000352E+00 0.  1.
       -3    1    3    3    0  502 -0.33157756662E+03 -0.53317924632E+03  0.16523069590E+04  0.17675808577E+04  0.10100000352E+00 0. -1.
</event>
<event>
 5   0  0.2632875E-08  0.3866002E+04  0.7818609E-02  0.8032138E-01
       -1   -1    0    0    0  501  0.00000000000E+00  0.00000000000E+00  0.15481048278E+04  0.15481048278E+04  0.50400001928E-02 0.  1.
        1   -1    0    0  501    0  0.00000000000E+00  0.00000000000E+00 -0.24135911108E+04  0.24135911108E+04  0.50400001928E-02 0. -1.
    10030    2    1    2    0    0  0.00000000000E+00  0.00000000000E+00 -0.86548628300E+03  0.39616959386E+04  0.38660015784E+04 0.  0.
        3    1    3    3  502    0 -0.61613740309E+03  0.19649303500E+03 -0.22994414666E+04  0.23886535707E+04  0.10100000352E+00 0. -1.
       -3    1    3    3    0  502  0.61613740309E+03 -0.19649303500E+03  0.14339551836E+04  0.15730423679E+04  0.10100000352E+00 0.  1.
</event>
<event>
 5   0  0.2632875E-08  0.3898286E+04  0.7818609E-02  0.8025386E-01
        1   -1    0    0  501    0  0.00000000000E+00  0.00000000000E+00  0.28628548448E+04  0.28628548448E+04  0.50400001928E-02 0. -1.
       -1   -1    0    0    0  501  0.00000000000E+00  0.00000000000E+00 -0.13270521219E+04  0.13270521219E+04  0.50400001928E-02 0.  1.
    10030    2    1    2    0    0  0.00000000000E+00  0.00000000000E+00  0.15358027230E+04  0.41899069667E+04  0.38982855701E+04 0.  0.
        4    1    3    3  502    0  0.67082266862E+03  0.15240022511E+04  0.18568942120E+04  0.24941218178E+04  0.12699999809E+01 0. -1.
       -4    1    3    3    0  502 -0.67082266862E+03 -0.15240022511E+04 -0.32109148909E+03  0.16957851490E+04  0.12699999809E+01 0.  1.
</event>
<event>
 5   0  0.2632875E-08  0.3902592E+04  0.7818609E-02  0.8024490E-01
        3   -1    0    0  501    0  0.00000000000E+00  0.00000000000E+00  0.20846432869E+04  0.20846432893E+04  0.10100000352E+00 0. -1.
       -3   -1    0    0    0  501  0.00000000000E+00  0.00000000000E+00 -0.18264780811E+04  0.18264780838E+04  0.10100000352E+00 0.  1.
    10030    2    1    2    0    0  0.00000000000E+00  0.00000000000E+00  0.25816520584E+03  0.39111213732E+04  0.39025915905E+04 0.  0.
        4    1    3    3  502    0 -0.17485485875E+04  0.10547921928E+03  0.99061589681E+03  0.20124287556E+04  0.12699999809E+01 0.  1.
       -4    1    3    3    0  502  0.17485485875E+04 -0.10547921928E+03 -0.73245069097E+03  0.18986926176E+04  0.12699999809E+01 0. -1.
</event>
<event>
 5   0  0.2632875E-08  0.3918509E+04  0.7818609E-02  0.8021191E-01
       -1   -1    0    0    0  501  0.00000000000E+00  0.00000000000E+00  0.18764820240E+04  0.18764820240E+04  0.50400001928E-02 0.  1.
        1   -1    0    0  501    0  0.00000000000E+00  0.00000000000E+00 -0.20456786017E+04  0.20456786017E+04  0.50400001928E-02 0. -1.
    10030    2    1    2    0    0  0.00000000000E+00  0.00000000000E+00 -0.16919657771E+03  0.39221606257E+04  0.39185094732E+04 0.  0.
        4    1    3    3  502    0  0.64609228323E+01 -0.81120787256E+02  0.18747892953E+04  0.18765550459E+04  0.12699999809E+01 0.  1.
       -4    1    3    3    0  502 -0.64609228323E+01  0.81120787256E+02 -0.20439858730E+04  0.20456055797E+04  0.12699999809E+01 0. -1.
</event>
<event>
 5   0  0.8676098E-08  0.3870027E+04  0.7818609E-02  0.8031292E-01
        2   -1    0    0  501    0  0.00000000000E+00  0.00000000000E+00  0.16953844657E+04  0.16953844657E+04  0.25500000920E-02 0. -1.
       -2   -1    0    0    0  501  0.00000000000E+00  0.00000000000E+00 -0.22085120060E+04  0.22085120060E+04  0.25500000920E-02 0.  1.
    10030    2    1    2    0    0  0.00000000000E+00  0.00000000000E+00 -0.51312754028E+03  0.39038964718E+04  0.38700268461E+04 0.  0.
        3    1    3    3  502    0  0.21068463333E+03  0.96179877652E+03 -0.19369250446E+04  0.21728146584E+04  0.10100000352E+00 0.  1.
       -3    1    3    3    0  502 -0.21068463333E+03 -0.96179877652E+03  0.14237975043E+04  0.17310818134E+04  0.10100000352E+00 0. -1.
</event>
<event>
 5   0  0.2632875E-08  0.3859698E+04  0.7818609E-02  0.8033464E-01
       -1   -1    0    0    0  501  0.00000000000E+00  0.00000000000E+00  0.19978112062E+04  0.19978112062E+04  0.50400001928E-02 0.  1.
        1   -1    0    0  501    0  0.00000000000E+00  0.00000000000E+00 -0.18641985041E+04  0.18641985041E+04  0.50400001928E-02 0. -1.
    10030    2    1    2    0    0  0.00000000000E+00  0.00000000000E+00  0.13361270208E+03  0.38620097102E+04  0.38596977405E+04 0.  0.
        1    1    3    3  502    0  0.33175400467E+03 -0.13892521293E+04  0.13653643167E+04  0.19759306455E+04  0.50400001928E-02 0.  1.
       -1    1    3    3    0  502 -0.33175400467E+03  0.13892521293E+04 -0.12317516146E+04  0.18860790648E+04  0.50400001928E-02 0. -1.
</event>
<event>
 5   0  0.8676098E-08  0.3904532E+04  0.7818609E-02  0.8024087E-01
        2   -1    0    0  501    0  0.00000000000E+00  0.00000000000E+00  0.26959329598E+04  0.26959329598E+04  0.25500000920E-02 0.  1.
       -2   -1    0    0    0  501  0.00000000000E+00  0.00000000000E+00 -0.14137377392E+04  0.14137377392E+04  0.25500000920E-02 0. -1.
    10030    2    1    2    0    0  0.00000000000E+00  0.00000000000E+00  0.12821952206E+04  0.41096706989E+04  0.39045318119E+04 0.  0.
        3    1    3    3  502    0 -0.15507342403E+04 -0.10702791697E+04  0.11788902526E+04  0.22226237700E+04  0.10100000352E+00 0.  1.
       -3    1    3    3    0  502  0.15507342403E+04  0.10702791697E+04  0.10330496800E+03  0.18870469289E+04  0.10100000352E+00 0. -1.
</event>
<event>
 5   0  0.8342802E-08  0.3911687E+04  0.7818609E-02  0.8022603E-01
       -2   -1    0    0    0  501  0.00000000000E+00  0.00000000000E+00  0.16763447988E+04  0.16763447988E+04  0.25500000920E-02 0. -1.
        2   -1    0    0  501    0  0.00000000000E+00  0.00000000000E+00 -0.22819436522E+04  0.22819436522E+04  0.25500000920E-02 0.  1.
    10030    2    1    2    0    0  0.00000000000E+00  0.00000000000E+00 -0.60559885337E+03  0.39582884510E+04  0.39116872946E+04 0.  0.
        4    1    3    3  502    0 -0.27183363061E+03 -0.19363452760E+04 -0.25758819513E+03  0.19722271273E+04  0.12699999809E+01 0. -1.
       -4    1    3    3    0  502  0.27183363061E+03  0.19363452760E+04 -0.34801065824E+03  0.19860613237E+04  0.12699999809E+01 0.  1.
</event>
<event>
 5   0  0.2632875E-08  0.3931619E+04  0.7818609E-02  0.8018485E-01
        1   -1    0    0  501    0  0.00000000000E+00  0.00000000000E+00  0.26806441238E+04  0.26806441238E+04  0.50400001928E-02 0. -1.
       -1   -1    0    0    0  501  0.00000000000E+00  0.00000000000E+00 -0.14415966976E+04  0.14415966976E+04  0.50400001928E-02 0.  1.
    10030    2    1    2    0    0  0.00000000000E+00  0.00000000000E+00  0.12390474262E+04  0.41222408214E+04  0.39316193694E+04 0.  0.
        1    1    3    3  502    0  0.15142760278E+04  0.14507733627E+03  0.19250142987E+04  0.24535197925E+04  0.50400001928E-02 0. -1.
       -1    1    3    3    0  502 -0.15142760278E+04 -0.14507733627E+03 -0.68596687256E+03  0.16687210289E+04  0.50400001928E-02 0.  1.
</event>
<event>
 5   0  0.2632875E-08  0.3907174E+04  0.7818609E-02  0.8023539E-01
       -1   -1    0    0    0  501  0.00000000000E+00  0.00000000000E+00  0.32078653833E+04  0.32078653833E+04  0.50400001928E-02 0.  1.
        1   -1    0    0  501    0  0.00000000000E+00  0.00000000000E+00 -0.11897329161E+04  0.11897329162E+04  0.50400001928E-02 0. -1.
    10030    2    1    2    0    0  0.00000000000E+00  0.00000000000E+00  0.20181324672E+04  0.43975982995E+04  0.39071744456E+04 0.  0.
        3    1    3    3  502    0  0.14369401894E+04  0.62724264026E+03  0.23208015833E+04  0.28007767560E+04  0.10100000352E+00 0.  1.
       -3    1    3    3    0  502 -0.14369401894E+04 -0.62724264026E+03 -0.30266911612E+03  0.15968215435E+04  0.10100000352E+00 0. -1.
</event>
<event>
 5   0  0.8476262E-08  0.3894818E+04  0.7818609E-02  0.8026108E-01
        2   -1    0    0  501    0  0.00000000000E+00  0.00000000000E+00  0.17758740050E+04  0.17758740050E+04  0.25500000920E-02 0.  1.
       -2   -1    0    0    0  501  0.00000000000E+00  0.00000000000E+00 -0.21355133643E+04  0.21355133643E+04  0.25500000920E-02 0. -1.
    10030    2    1    2    0    0  0.00000000000E+00  0.00000000000E+00 -0.35963935932E+03  0.39113873693E+04  0.38948184405E+04 0.  0.
        2    1    3    3  502    0  0.15613246897E+04  0.13767809756E+03 -0.13404666098E+04  0.20624113986E+04  0.25500000920E-02 0. -1.
       -2    1    3    3    0  502 -0.15613246897E+04 -0.13767809756E+03  0.98082725045E+03  0.18489759707E+04  0.25500000920E-02 0.  1.
</event>
<event>
 5   0  0.8676098E-08  0.3897134E+04  0.7818609E-02  0.8025625E-01
       -2   -1    0    0    0  501  0.00000000000E+00  0.00000000000E+00  0.26545261345E+04  0.26545261345E+04  0.25500000920E-02 0.  1.
        2   -1    0    0  501    0  0.00000000000E+00  0.00000000000E+00 -0.14303546845E+04  0.14303546845E+04  0.25500000920E-02 0. -1.
    10030    2    1    2    0    0  0.00000000000E+00  0.00000000000E+00  0.12241714500E+04  0.40848808190E+04  0.38971342761E+04 0.  0.
        3    1    3    3  502    0  0.12695952371E+04 -0.38065044735E+03  0.21092338005E+04  0.24911110101E+04  0.10100000352E+00 0. -1.
       -3    1    3    3    0  502 -0.12695952371E+04  0.38065044735E+03 -0.88506235054E+03  0.15937698089E+04  0.10100000352E+00 0.  1.
</event>
<event>
 5   0  0.2632875E-08  0.3891293E+04  0.7818609E-02  0.8026843E-01
       -1   -1    0    0    0  501  0.00000000000E+00  0.00000000000E+00  0.27599632268E+04  0.27599632268E+04  0.50400001928E-02 0.  1.
        1   -1    0    0  501    0  0.00000000000E+00  0.00000000000E+00 -0.13715907758E+04  0.13715907758E+04  0.50400001928E-02 0. -1.
    10030    2    1    2    0    0  0.00000000000E+00  0.00000000000E+00  0.13883724509E+04  0.41315540026E+04  0.38912928975E+04 0.  0.
        4    1    3    3  502    0  0.17243214759E+04  0.86767827580E+03  0.43544231651E+03  0.19788283823E+04  0.12699999809E+01 0. -1.
       -4    1    3    3    0  502 -0.17243214759E+04 -0.86767827580E+03  0.95293013442E+03  0.21527256203E+04  0.12699999809E+01 0.  1.
</event>
<event>
 5   0  0.2632875E-08  0.3928725E+04  0.7818609E-02  0.8019081E-01
       -1   -1    0    0    0  501  0.00000000000E+00  0.00000000000E+00  0.16863744058E+04  0.16863744058E+04  0.50400001928E-02 0. -1.
        1   -1    0    0  501    0  0.00000000000E+00  0.00000000000E+00 -0.22881747577E+04  0.22881747577E+04  0.50400001928E-02 0.  1.
    10030    2    1    2    0    0  0.00000000000E+00  0.00000000000E+00 -0.60180035188E+03  0.39745491635E+04  0.39287246518E+04 0.  0.
        2    1    3    3  502    0 -0.14441113644E+04  0.44093431858E+03  0.97027427334E+03  0.17948016246E+04  0.25500000920E-02 0.  1.
       -2    1    3    3    0  502  0.14441113644E+04 -0.44093431858E+03 -0.15720746252E+04  0.21797475389E+04  0.25500000920E-02 0. -1.
</event>
<event>
 5   0  0.2632875E-08  0.3867906E+04  0.7818609E-02  0.8031737E-01
       -1   -1    0    0    0  501  0.00000000000E+00  0.00000000000E+00  0.19247364140E+04  0.19247364140E+04  0.50400001928E-02 0. -1.
        1   -1    0    0  501    0  0.00000000000E+00  0.00000000000E+00 -0.19432139741E+04  0.19432139741E+04  0.50400001928E-02 0.  1.
    10030    2    1    2    0    0  0.00000000000E+00  0.00000000000E+00 -0.18477560113E+02  0.38679503882E+04  0.38679062534E+04 0.  0.
        1    1    3    3  502    0 -0.15821626556E+04 -0.10522935783E+04 -0.36926268254E+03  0.19356950619E+04  0.50400001928E-02 0.  1.
       -1    1    3    3    0  502  0.15821626556E+04  0.10522935783E+04  0.35078512243E+03  0.19322553263E+04  0.50400001928E-02 0. -1.
</event>
<event>
 5   0  0.8476262E-08  0.3901283E+04  0.7818609E-02  0.8024762E-01
       -2   -1    0    0    0  501  0.00000000000E+00  0.00000000000E+00  0.20507667872E+04  0.20507667872E+04  0.25500000920E-02 0. -1.
        2   -1    0    0  501    0  0.00000000000E+00  0.00000000000E+00 -0.18554050458E+04  0.18554050458E+04  0.25500000920E-02 0.  1.
    10030    2    1    2    0    0  0.00000000000E+00  0.00000000000E+00  0.19536174142E+03  0.39061718331E+04  0.39012834016E+04 0.  0.
        2    1    3    3  502    0 -0.95198908678E+03 -0.11659520370E+04 -0.11445492247E+04  0.18909575092E+04  0.25500000920E-02 0.  1.
       -2    1    3    3    0  502  0.95198908678E+03  0.11659520370E+04  0.13399109661E+04  0.20152143238E+04  0.25500000920E-02 0. -1.
</event>
<event>
 5   0  0.2632875E-08  0.3909223E+04  0.7818609E-02  0.8023114E-01
       -1   -1    0    0    0  501  0.00000000000E+00  0.00000000000E+00  0.17503129045E+04  0.17503129045E+04  0.50400001928E-02 0.  1.
        1   -1    0    0  501    0  0.00000000000E+00  0.00000000000E+00 -0.21827559252E+04  0.21827559252E+04  0.50400001928E-02 0. -1.
    10030    2    1    2    0    0  0.00000000000E+00  0.00000000000E+00 -0.43244302070E+03  0.39330688297E+04  0.39092228707E+04 0.  0.
        5    1    3    3  502    0 -0.12781436162E+04  0.36804635172E+03 -0.16572202391E+04  0.21249729955E+04  0.46999998093E+01 0. -1.
       -5    1    3    3    0  502  0.12781436162E+04 -0.36804635172E+03  0.12247772184E+04  0.18080958342E+04  0.46999998093E+01 0.  1.
</event>
<event>
 5   0  0.2632875E-08  0.4020713E+04  0.7818609E-02  0.8000381E-01
        1   -1    0    0  501    0  0.00000000000E+00  0.00000000000E+00  0.34183761329E+04  0.34183761329E+04  0.50400001928E-02 0. -1.
       -1   -1    0    0    0  501  0.00000000000E+00  0.00000000000E+00 -0.11822960256E+04  0.11822960256E+04  0.50400001928E-02 0.  1.
    10030    2    1    2    0    0  0.00000000000E+00  0.00000000000E+00  0.22360801073E+04  0.46006721585E+04  0.40207126314E+04 0.  0.
        3    1    3    3  502    0 -0.11720262819E+04 -0.85827134561E+02 -0.74834636588E+03  0.13932100330E+04  0.10100000352E+00 0.  1.
       -3    1    3    3    0  502  0.11720262819E+04  0.85827134561E+02  0.29844264732E+04  0.32074621255E+04  0.10100000352E+00 0. -1.
</event>
<event>
 5   0  0.8676098E-08  0.3915605E+04  0.7818609E-02  0.8021791E-01
        2   -1    0    0  501    0  0.00000000000E+00  0.00000000000E+00  0.23051869383E+04  0.23051869383E+04  0.25500000920E-02 0.  1.
       -2   -1    0    0    0  501  0.00000000000E+00  0.00000000000E+00 -0.16627679821E+04  0.16627679821E+04  0.25500000920E-02 0. -1.
    10030    2    1    2    0    0  0.00000000000E+00  0.00000000000E+00  0.64241895622E+03  0.39679549204E+04  0.39156052068E+04 0.  0.
        3    1    3    3  502    0 -0.22783837572E+03 -0.71392262598E+03 -0.15116718081E+04  0.16872307213E+04  0.10100000352E+00 0. -1.
       -3    1    3    3    0  502  0.22783837572E+03  0.71392262598E+03  0.21540907643E+04  0.22807241991E+04  0.10100000352E+00 0.  1.
</event>
<event>
 5   0  0.8676098E-08  0.3922629E+04  0.7818609E-02  0.8020339E-01
        2   -1    0    0  501    0  0.00000000000E+00  0.00000000000E+00  0.20291056788E+04  0.20291056788E+04  0.25500000920E-02 0. -1.
       -2   -1    0    0    0  501  0.00000000000E+00  0.00000000000E+00 -0.18957886634E+04  0.18957886634E+04  0.25500000920E-02 0.  1.
    10030    2    1    2    0    0  0.00000000000E+00  0.00000000000E+00  0.13331701539E+03  0.39248943422E+04  0.39226294970E+04 0.  0.
        3    1    3    3  502    0  0.19906622974E+03  0.18650092694E+03 -0.18767156146E+04  0.18964365183E+04  0.10100000352E+00 0.  1.
       -3    1    3    3    0  502 -0.19906622974E+03 -0.18650092694E+03  0.20100326300E+04  0.20284578239E+04  0.10100000352E+00 0. -1.
</event>
<event>
 5   0  0.2632875E-08  0.3939144E+04  0.7818609E-02  0.8016937E-01
       -1   -1    0    0    0  501  0.00000000000E+00  0.00000000000E+00  0.12597176652E+04  0.12597176652E+04  0.50400001928E-02 0. -1.
        1   -1    0    0  501    0  0.00000000000E+00  0.00000000000E+00 -0.30794305898E+04  0.30794305898E+04  0.50400001928E-02 0.  1.
    10030    2    1    2    0    0  0.00000000000E+00  0.00000000000E+00 -0.18197129245E+04  0.43391482550E+04  0.39391436190E+04 0.  0.
        1    1    3    3  502    0  0.13925561072E+04  0.80109960584E+03 -0.21649617822E+04  0.26959288953E+04  0.50400001928E-02 0.  1.
       -1    1    3    3    0  502 -0.13925561072E+04 -0.80109960584E+03  0.34524885764E+03  0.16432193597E+04  0.50400001928E-02 0. -1.
</event>
<event>
 5   0  0.8551754E-08  0.3891483E+04  0.7818609E-02  0.8026803E-01
        2   -1    0    0  501    0  0.00000000000E+00  0.00000000000E+00  0.13797260473E+04  0.13797260473E+04  0.25500000920E-02 0. -1.
       -2   -1    0    0    0  501  0.00000000000E+00  0.00000000000E+00 -0.27439582866E+04  0.27439582866E+04  0.25500000920E-02 0.  1.
    10030    2    1    2    0    0  0.00000000000E+00  0.00000000000E+00 -0.13642322393E+04  0.41236843338E+04  0.38914833781E+04 0.  0.
        1    1    3    3  502    0  0.63318884622E+03 -0.16753152191E+04 -0.14879534845E+04  0.23284361212E+04  0.50400001928E-02 0.  1.
       -1    1    3    3    0  502 -0.63318884622E+03  0.16753152191E+04  0.12372124521E+03  0.17952482126E+04  0.50400001928E-02 0. -1.
</event>
<event>
 5   0  0.2632875E-08  0.3759379E+04  0.7818609E-02  0.8054929E-01
        1   -1    0    0  501    0  0.00000000000E+00  0.00000000000E+00  0.26207797678E+04  0.26207797678E+04  0.50400001928E-02 0. -1.
       -1   -1    0    0    0  501  0.00000000000E+00  0.00000000000E+00 -0.13481605837E+04  0.13481605837E+04  0.50400001928E-02 0.  1.
    10030    2    1    2    0    0  0.00000000000E+00  0.00000000000E+00  0.12726191842E+04  0.39689403515E+04  0.37593786622E+04 0.  0.
        4    1    3    3  502    0  0.10325035325E+04 -0.12437151327E+04 -0.37651101520E+03  0.16597147446E+04  0.12699999809E+01 0.  1.
       -4    1    3    3    0  502 -0.10325035325E+04  0.12437151327E+04  0.16491301994E+04  0.23092256069E+04  0.12699999809E+01 0. -1.
</event>
<event>
 5   0  0.2632875E-08  0.3889988E+04  0.7818609E-02  0.8027115E-01
        1   -1    0    0  501    0  0.00000000000E+00  0.00000000000E+00  0.17606429487E+04  0.17606429487E+04  0.50400001928E-02 0. -1.
       -1   -1    0    0    0  501  0.00000000000E+00  0.00000000000E+00 -0.21486481489E+04  0.21486481489E+04  0.50400001928E-02 0.  1.
    10030    2    1    2    0    0  0.00000000000E+00  0.00000000000E+00 -0.38800520024E+03  0.39092910976E+04  0.38899882841E+04 0.  0.
        1    1    3    3  502    0  0.16392819117E+03 -0.17589936744E+04  0.62371247529E+03  0.18734856419E+04  0.50400001928E-02 0. -1.
       -1    1    3    3    0  502 -0.16392819117E+03  0.17589936744E+04 -0.10117176755E+04  0.20358054557E+04  0.50400001928E-02 0.  1.
</event>
<event>
 5   0  0.2632875E-08  0.3903186E+04  0.7818609E-02  0.8024367E-01
        1   -1    0    0  501    0  0.00000000000E+00  0.00000000000E+00  0.17463918957E+04  0.17463918957E+04  0.50400001928E-02 0.  1.
       -1   -1    0    0    0  501  0.00000000000E+00  0.00000000000E+00 -0.21809055886E+04  0.21809055886E+04  0.50400001928E-02 0. -1.
    10030    2    1    2    0    0  0.00000000000E+00  0.00000000000E+00 -0.43451369284E+03  0.39272974843E+04  0.39031863113E+04 0.  0.
        2    1    3    3  502    0  0.19166391593E+04  0.22167420846E+03 -0.51244725639E+03  0.19963084211E+04  0.25500000920E-02 0. -1.
       -2    1    3    3    0  502 -0.19166391593E+04 -0.22167420846E+03  0.77933563549E+02  0.19309890632E+04  0.25500000920E-02 0.  1.
</event>
<event>
 5   0  0.8551754E-08  0.3905233E+04  0.7818609E-02  0.8023942E-01
       -2   -1    0    0    0  501  0.00000000000E+00  0.00000000000E+00  0.25199426045E+04  0.25199426045E+04  0.25500000920E-02 0. -1.
        2   -1    0    0  501    0  0.00000000000E+00  0.00000000000E+00 -0.15130151566E+04  0.15130151566E+04  0.25500000920E-02 0.  1.
    10030    2    1    2    0    0  0.00000000000E+00  0.00000000000E+00  0.10069274479E+04  0.40329577610E+04  0.39052330810E+04 0.  0.
        1    1    3    3  502    0  0.16790552158E+04  0.97523018145E+03  0.29078888046E+03  0.19633793565E+04  0.50400001928E-02 0.  1.
       -1    1    3    3    0  502 -0.16790552158E+04 -0.97523018145E+03  0.71613856748E+03  0.20695784045E+04  0.50400001928E-02 0. -1.
</event>
<event>
 5   0  0.2632875E-08  0.3880893E+04  0.7818609E-02  0.8029015E-01
        1   -1    0    0  501    0  0.00000000000E+00  0.00000000000E+00  0.21263274553E+04  0.21263274553E+04  0.50400001928E-02 0.  1.
       -1   -1    0    0    0  501  0.00000000000E+00  0.00000000000E+00 -0.17708154015E+04  0.17708154015E+04  0.50400001928E-02 0. -1.
    10030    2    1    2    0    0  0.00000000000E+00  0.00000000000E+00  0.35551205383E+03  0.38971428568E+04  0.38808934057E+04 0.  0.
        4    1    3    3  502    0 -0.13228332159E+04  0.21885136103E+03  0.15863223380E+04  0.20770661541E+04  0.12699999809E+01 0.  1.
       -4    1    3    3    0  502  0.13228332159E+04 -0.21885136103E+03 -0.12308102842E+04  0.18200767028E+04  0.12699999809E+01 0. -1.
</event>
<event>
 5   0  0.2632875E-08  0.3876729E+04  0.7818609E-02  0.8029887E-01
        1   -1    0    0  501    0  0.00000000000E+00  0.00000000000E+00  0.11946226007E+04  0.11946226007E+04  0.50400001928E-02 0. -1.
       -1   -1    0    0    0  501  0.00000000000E+00  0.00000000000E+00 -0.31451416327E+04  0.31451416327E+04  0.50400001928E-02 0.  1.
    10030    2    1    2    0    0  0.00000000000E+00  0.00000000000E+00 -0.19505190320E+04  0.43397642334E+04  0.38767291764E+04 0.  0.
        2    1    3    3  502    0  0.77951111601E+03  0.15429161600E+04 -0.19569445060E+04  0.26111031493E+04  0.25500000920E-02 0.  1.
       -2    1    3    3    0  502 -0.77951111601E+03 -0.15429161600E+04  0.64254740127E+01  0.17286610841E+04  0.25500000920E-02 0. -1.
</event>
<event>
 5   0  0.8476262E-08  0.3860870E+04  0.7818609E-02  0.8033217E-01
       -2   -1    0    0    0  501  0.00000000000E+00  0.00000000000E+00  0.19298234131E+04  0.19298234131E+04  0.25500000920E-02 0.  1.
        2   -1    0    0  501    0  0.00000000000E+00  0.00000000000E+00 -0.19310464642E+04  0.19310464642E+04  0.25500000920E-02 0. -1.
    10030    2    1    2    0    0  0.00000000000E+00  0.00000000000E+00 -0.12230510514E+01  0.38608698773E+04  0.38608696836E+04 0.  0.
        2    1    3    3  502    0  0.16928687098E+04 -0.63607883631E+03 -0.67602100846E+03  0.19306488957E+04  0.25500000920E-02 0. -1.
       -2    1    3    3    0  502 -0.16928687098E+04  0.63607883631E+03  0.67479795741E+03  0.19302209816E+04  0.25500000920E-02 0.  1.
</event>
<event>
 5   0  0.2632875E-08  0.3884958E+04  0.7818609E-02  0.8028165E-01
        1   -1    0    0  501    0  0.00000000000E+00  0.00000000000E+00  0.27691503303E+04  0.27691503303E+04  0.50400001928E-02 0.  1.
       -1   -1    0    0    0  501  0.00000000000E+00  0.00000000000E+00 -0.13625931006E+04  0.13625931006E+04  0.50400001928E-02 0. -1.
    10030    2    1    2    0    0  0.00000000000E+00  0.00000000000E+00  0.14065572297E+04  0.41317434309E+04  0.38849582415E+04 0.  0.
        3    1    3    3  502    0  0.17254685678E+04 -0.79807498229E+03  0.27912123601E+03  0.19214770700E+04  0.10100000352E+00 0. -1.
       -3    1    3    3    0  502 -0.17254685678E+04  0.79807498229E+03  0.11274359937E+04  0.22102663609E+04  0.10100000352E+00 0.  1.
</event>
<event>
 5   0  0.8438211E-08  0.3949285E+04  0.7818609E-02  0.8014856E-01
       -2   -1    0    0    0  501  0.00000000000E+00  0.00000000000E+00  0.23719999898E+04  0.23719999898E+04  0.25500000920E-02 0.  1.
        2   -1    0    0  501    0  0.00000000000E+00  0.00000000000E+00 -0.16438499396E+04  0.16438499396E+04  0.25500000920E-02 0. -1.
    10030    2    1    2    0    0  0.00000000000E+00  0.00000000000E+00  0.72815005014E+03  0.40158499294E+04  0.39492845124E+04 0.  0.
        5    1    3    3  502    0 -0.19700792980E+04  0.16195610656E+02  0.22873313797E+03  0.19833849038E+04  0.46999998093E+01 0. -1.
       -5    1    3    3    0  502  0.19700792980E+04 -0.16195610656E+02  0.49941691217E+03  0.20324650256E+04  0.46999998093E+01 0.  1.
</event>
<event>
 5   0  0.2632875E-08  0.3901287E+04  0.7818609E-02  0.8024762E-01
       -1   -1    0    0    0  501  0.00000000000E+00  0.00000000000E+00  0.21336407104E+04  0.21336407104E+04  0.50400001928E-02 0.  1.
        1   -1    0    0  501    0  0.00000000000E+00  0.00000000000E+00 -0.17833415575E+04  0.17833415575E+04  0.50400001928E-02 0. -1.
    10030    2    1    2    0    0  0.00000000000E+00  0.00000000000E+00  0.35029915285E+03  0.39169822679E+04  0.39012870428E+04 0.  0.
        3    1    3    3  502    0 -0.16198245114E+04  0.75050410033E+03 -0.61409322459E+03  0.18879084594E+04  0.10100000352E+00 0. -1.
       -3    1    3    3    0  502  0.16198245114E+04 -0.75050410033E+03  0.96439237744E+03  0.20290738085E+04  0.10100000352E+00 0.  1.
</event>
<event>
 5   0  0.8476262E-08  0.3972914E+04  0.7818609E-02  0.8010033E-01
       -2   -1    0    0    0  501  0.00000000000E+00  0.00000000000E+00  0.24658464523E+04  0.24658464523E+04  0.25500000920E-02 0.  1.
        2   -1    0    0  501    0  0.00000000000E+00  0.00000000000E+00 -0.16002668585E+04  0.16002668585E+04  0.25500000920E-02 0. -1.
    10030    2    1    2    0    0  0.00000000000E+00  0.00000000000E+00  0.86557959381E+03  0.40661133108E+04  0.39729144746E+04 0.  0.
        2    1    3    3  502    0 -0.12361379367E+04 -0.63258585879E+03 -0.10210295651E+04  0.17235728125E+04  0.25500000920E-02 0. -1.
       -2    1    3    3    0  502  0.12361379367E+04  0.63258585879E+03  0.18866091589E+04  0.23425404982E+04  0.25500000920E-02 0.  1.
</event>
<event>
 5   0  0.8476262E-08  0.3900692E+04  0.7818609E-02  0.8024885E-01
        2   -1    0    0  501    0  0.00000000000E+00  0.00000000000E+00  0.18832101774E+04  0.18832101774E+04  0.25500000920E-02 0.  1.
       -2   -1    0    0    0  501  0.00000000000E+00  0.00000000000E+00 -0.20198752359E+04  0.20198752359E+04  0.25500000920E-02 0. -1.
    10030    2    1    2    0    0  0.00000000000E+00  0.00000000000E+00 -0.13666505848E+03  0.39030854133E+04  0.39006920418E+04 0.  0.
        2    1    3    3  502    0  0.30473978489E+03  0.15331769407E+04  0.10987242834E+04  0.19106786540E+04  0.25500000920E-02 0.  1.
       -2    1    3    3    0  502 -0.30473978489E+03 -0.15331769407E+04 -0.12353893419E+04  0.19924067592E+04  0.25500000920E-02 0. -1.
</event>
<event>
 5   0  0.2632875E-08  0.3902303E+04  0.7818609E-02  0.8024550E-01
       -1   -1    0    0    0  501  0.00000000000E+00  0.00000000000E+00  0.14706462657E+04  0.14706462657E+04  0.50400001928E-02 0. -1.
        1   -1    0    0  501    0  0.00000000000E+00  0.00000000000E+00 -0.25886530613E+04  0.25886530613E+04  0.50400001928E-02 0.  1.
    10030    2    1    2    0    0  0.00000000000E+00  0.00000000000E+00 -0.11180067956E+04  0.40592993271E+04  0.39023034008E+04 0.  0.
        1    1    3    3  502    0 -0.17079851277E+03  0.23062909424E+03 -0.25665779126E+04  0.25825731534E+04  0.50400001928E-02 0.  1.
       -1    1    3    3    0  502  0.17079851277E+03 -0.23062909424E+03  0.14485711170E+04  0.14767261737E+04  0.50400001928E-02 0. -1.
</event>
<event>
 5   0  0.8676098E-08  0.3888136E+04  0.7818609E-02  0.8027501E-01
        2   -1    0    0  501    0  0.00000000000E+00  0.00000000000E+00  0.18492721615E+04  0.18492721615E+04  0.25500000920E-02 0.  1.
       -2   -1    0    0    0  501  0.00000000000E+00  0.00000000000E+00 -0.20437232780E+04  0.20437232780E+04  0.25500000920E-02 0. -1.
    10030    2    1    2    0    0  0.00000000000E+00  0.00000000000E+00 -0.19445111646E+03  0.38929954395E+04  0.38881360901E+04 0.  0.
        3    1    3    3  502    0 -0.12389941075E+04  0.68327096843E+02  0.14011826570E+04  0.18716537712E+04  0.10100000352E+00 0.  1.
       -3    1    3    3    0  502  0.12389941075E+04 -0.68327096843E+02 -0.15956337735E+04  0.20213416683E+04  0.10100000352E+00 0. -1.
</event>
<event>
 5   0  0.8476262E-08  0.3916642E+04  0.7818609E-02  0.8021577E-01
        2   -1    0    0  501    0  0.00000000000E+00  0.00000000000E+00  0.27998539352E+04  0.27998539352E+04  0.25500000920E-02 0.  1.
       -2   -1    0    0    0  501  0.00000000000E+00  0.00000000000E+00 -0.13697216859E+04  0.13697216859E+04  0.25500000920E-02 0. -1.
    10030    2    1    2    0    0  0.00000000000E+00  0.00000000000E+00  0.14301322493E+04  0.41695756211E+04  0.39166417515E+04 0.  0.
        2    1    3    3  502    0  0.12691047869E+04 -0.10429048210E+04 -0.41996871716E+03  0.16954796222E+04  0.25500000920E-02 0.  1.
       -2    1    3    3    0  502 -0.12691047869E+04  0.10429048210E+04  0.18501009664E+04  0.24740959989E+04  0.25500000920E-02 0. -1.
</event>
<event>
 5   0  0.2632875E-08  0.3891645E+04  0.7818609E-02  0.8026769E-01
        1   -1    0    0  501    0  0.00000000000E+00  0.00000000000E+00  0.15801996762E+04  0.15801996762E+04  0.50400001928E-02 0. -1.
       -1   -1    0    0    0  501  0.00000000000E+00  0.00000000000E+00 -0.23960417382E+04  0.23960417382E+04  0.50400001928E-02 0.  1.
    10030    2    1    2    0    0  0.00000000000E+00  0.00000000000E+00 -0.81584206199E+03  0.39762414144E+04  0.38916445773E+04 0.  0.
        3    1    3    3  502    0  0.18924300183E+04  0.38517173541E+03 -0.65094810280E+03  0.20379848092E+04  0.10100000352E+00 0.  1.
       -3    1    3    3    0  502 -0.18924300183E+04 -0.38517173541E+03 -0.16489395919E+03  0.19382566052E+04  0.10100000352E+00 0. -1.
</event>
<event>
 5   0  0.2632875E-08  0.3850029E+04  0.7818609E-02  0.8035503E-01
       -1   -1    0    0    0  501  0.00000000000E+00  0.00000000000E+00  0.12959293722E+04  0.12959293722E+04  0.50400001928E-02 0. -1.
        1   -1    0    0  501    0  0.00000000000E+00  0.00000000000E+00 -0.28594774748E+04  0.28594774748E+04  0.50400001928E-02 0.  1.
    10030    2    1    2    0    0  0.00000000000E+00  0.00000000000E+00 -0.15635481026E+04  0.41554068470E+04  0.38500290122E+04 0.  0.
        5    1    3    3  502    0 -0.10336725416E+04  0.51002861237E+03  0.88228512647E+03  0.14515706125E+04  0.46999998093E+01 0. -1.
       -5    1    3    3    0  502  0.10336725416E+04 -0.51002861237E+03 -0.24458332290E+04  0.27038362345E+04  0.46999998093E+01 0.  1.
</event>
<event>
 5   0  0.2632875E-08  0.3911665E+04  0.7818609E-02  0.8022607E-01
        1   -1    0    0  501    0  0.00000000000E+00  0.00000000000E+00  0.22193022657E+04  0.22193022657E+04  0.50400001928E-02 0. -1.
       -1   -1    0    0    0  501  0.00000000000E+00  0.00000000000E+00 -0.17236415944E+04  0.17236415944E+04  0.50400001928E-02 0.  1.
    10030    2    1    2    0    0  0.00000000000E+00  0.00000000000E+00  0.49566067131E+03  0.39429438601E+04  0.39116654743E+04 0.  0.
        4    1    3    3  502    0  0.11943005227E+04  0.78996226854E+02 -0.13113693394E+04  0.17754676284E+04  0.12699999809E+01 0.  1.
       -4    1    3    3    0  502 -0.11943005227E+04 -0.78996226854E+02  0.18070300107E+04  0.21674762317E+04  0.12699999809E+01 0. -1.
</event>
<event>
 5   0  0.8676098E-08  0.3912421E+04  0.7818609E-02  0.8022451E-01
        2   -1    0    0  501    0  0.00000000000E+00  0.00000000000E+00  0.20776650722E+04  0.20776650722E+04  0.25500000920E-02 0.  1.
       -2   -1    0    0    0  501  0.00000000000E+00  0.00000000000E+00 -0.18418556481E+04  0.18418556481E+04  0.25500000920E-02 0. -1.
    10030    2    1    2    0    0  0.00000000000E+00  0.00000000000E+00  0.23580942416E+03  0.39195207203E+04  0.39124208097E+04 0.  0.
        3    1    3    3  502    0  0.14452800515E+04  0.43564148214E+03  0.13644058809E+04  0.20347533871E+04  0.10100000352E+00 0.  1.
       -3    1    3    3    0  502 -0.14452800515E+04 -0.43564148214E+03 -0.11285964567E+04  0.18847673332E+04  0.10100000352E+00 0. -1.
</event>
<event>
 5   0  0.8476262E-08  0.3885183E+04  0.7818609E-02  0.8028118E-01
        2   -1    0    0  501    0  0.00000000000E+00  0.00000000000E+00  0.23708204611E+04  0.23708204611E+04  0.25500000920E-02 0. -1.
       -2   -1    0    0    0  501  0.00000000000E+00  0.00000000000E+00 -0.15917112141E+04  0.15917112141E+04  0.25500000920E-02 0.  1.
    10030    2    1    2    0    0  0.00000000000E+00  0.00000000000E+00  0.77910924691E+03  0.39625316752E+04  0.38851828861E+04 0.  0.
        2    1    3    3  502    0 -0.14562261550E+04 -0.27550358951E+03  0.16704091284E+04  0.22331062443E+04  0.25500000920E-02 0. -1.
       -2    1    3    3    0  502  0.14562261550E+04  0.27550358951E+03 -0.89129988149E+03  0.17294254309E+04  0.25500000920E-02 0.  1.
</event>
<event>
 5   0  0.8342802E-08  0.3973789E+04  0.7818609E-02  0.8009855E-01
       -2   -1    0    0    0  501  0.00000000000E+00  0.00000000000E+00  0.30616579380E+04  0.30616579380E+04  0.25500000920E-02 0.  1.
        2   -1    0    0  501    0  0.00000000000E+00  0.00000000000E+00 -0.12894158295E+04  0.12894158295E+04  0.25500000920E-02 0. -1.
    10030    2    1    2    0    0  0.00000000000E+00  0.00000000000E+00  0.17722421085E+04  0.43510737675E+04  0.39737892293E+04 0.  0.
        4    1    3    3  502    0  0.37317453700E+03 -0.11796953360E+04  0.25883294088E+04  0.28688658146E+04  0.12699999809E+01 0.  1.
       -4    1    3    3    0  502 -0.37317453700E+03  0.11796953360E+04 -0.81608730030E+03  0.14822079529E+04  0.12699999809E+01 0. -1.
</event>
<event>
 5   0  0.2632875E-08  0.3879290E+04  0.7818609E-02  0.8029350E-01
       -1   -1    0    0    0  501  0.00000000000E+00  0.00000000000E+00  0.19694335653E+04  0.19694335653E+04  0.50400001928E-02 0.  1.
        1   -1    0    0  501    0  0.00000000000E+00  0.00000000000E+00 -0.19103071698E+04  0.19103071698E+04  0.50400001928E-02 0. -1.
    10030    2    1    2    0    0  0.00000000000E+00  0.00000000000E+00  0.59126395499E+02  0.38797407352E+04  0.38792901724E+04 0.  0.
        2    1    3    3  502    0  0.69401648475E+03 -0.18059418733E+04  0.16791989470E+03  0.19419788932E+04  0.25500000920E-02 0.  1.
       -2    1    3    3    0  502 -0.69401648475E+03  0.18059418733E+04 -0.10879349920E+03  0.19377618420E+04  0.25500000920E-02 0. -1.
</event>
<event>
 5   0  0.8676098E-08  0.3885127E+04  0.7818609E-02  0.8028130E-01
        2   -1    0    0  501    0  0.00000000000E+00  0.00000000000E+00  0.29245679168E+04  0.29245679168E+04  0.25500000920E-02 0.  1.
       -2   -1    0    0    0  501  0.00000000000E+00  0.00000000000E+00 -0.12902938616E+04  0.12902938616E+04  0.25500000920E-02 0. -1.
    10030    2    1    2    0    0  0.00000000000E+00  0.00000000000E+00  0.16342740552E+04  0.42148617784E+04  0.38851265260E+04 0.  0.
        3    1    3    3  502    0  0.60167290174E+03  0.15196247138E+04 -0.32186532272E+03  0.16657931587E+04  0.10100000352E+00 0. -1.
       -3    1    3    3    0  502 -0.60167290174E+03 -0.15196247138E+04  0.19561393779E+04  0.25490686196E+04  0.10100000352E+00 0.  1.
</event>
<event>
 5   0  0.8476262E-08  0.3868630E+04  0.7818609E-02  0.8031585E-01
       -2   -1    0    0    0  501  0.00000000000E+00  0.00000000000E+00  0.22075939535E+04  0.22075939535E+04  0.25500000920E-02 0. -1.
        2   -1    0    0  501    0  0.00000000000E+00  0.00000000000E+00 -0.16948655485E+04  0.16948655485E+04  0.25500000920E-02 0.  1.
    10030    2    1    2    0    0  0.00000000000E+00  0.00000000000E+00  0.51272840506E+03  0.39024595020E+04  0.38686302159E+04 0.  0.
        2    1    3    3  502    0 -0.53104390379E+03  0.91339147306E+03  0.18908053055E+04  0.21659723715E+04  0.25500000920E-02 0. -1.
       -2    1    3    3    0  502  0.53104390379E+03 -0.91339147306E+03 -0.13780769004E+04  0.17364871305E+04  0.25500000920E-02 0.  1.
</event>
<event>
 5   0  0.2632875E-08  0.3898182E+04  0.7818609E-02  0.8025407E-01
        1   -1    0    0  501    0  0.00000000000E+00  0.00000000000E+00  0.12654103396E+04  0.12654103396E+04  0.50400001928E-02 0. -1.
       -1   -1    0    0    0  501  0.00000000000E+00  0.00000000000E+00 -0.30021532097E+04  0.30021532097E+04  0.50400001928E-02 0.  1.
    10030    2    1    2    0    0  0.00000000000E+00  0.00000000000E+00 -0.17367428702E+04  0.42675635493E+04  0.38981819930E+04 0.  0.
        1    1    3    3  502    0 -0.14444461799E+04  0.11501418316E+04 -0.18495453340E+03  0.18556559969E+04  0.50400001928E-02 0. -1.
       -1    1    3    3    0  502  0.14444461799E+04 -0.11501418316E+04 -0.15517883368E+04  0.24119075524E+04  0.50400001928E-02 0.  1.
</event>
<event>
 5   0  0.2632875E-08  0.3905516E+04  0.7818609E-02  0.8023883E-01
       -1   -1    0    0    0  501  0.00000000000E+00  0.00000000000E+00  0.27444456123E+04  0.27444456123E+04  0.50400001928E-02 0. -1.
        1   -1    0    0  501    0  0.00000000000E+00  0.00000000000E+00 -0.13894475022E+04  0.13894475022E+04  0.50400001928E-02 0.  1.
    10030    2    1    2    0    0  0.00000000000E+00  0.00000000000E+00  0.13549981101E+04  0.41338931146E+04  0.39055156387E+04 0.  0.
        5    1    3    3  502    0  0.14077294697E+03 -0.19465002361E+04  0.60601613395E+03  0.20435160475E+04  0.46999998093E+01 0. -1.
       -5    1    3    3    0  502 -0.14077294697E+03  0.19465002361E+04  0.74898197612E+03  0.20903770670E+04  0.46999998093E+01 0.  1.
</event>
<event>
 5   0  0.2632875E-08  0.3857589E+04  0.7818609E-02  0.8033908E-01
       -1   -1    0    0    0  501  0.00000000000E+00  0.00000000000E+00  0.19716155128E+04  0.19716155128E+04  0.50400001928E-02 0. -1.
        1   -1    0    0  501    0  0.00000000000E+00  0.00000000000E+00 -0.18869032400E+04  0.18869032400E+04  0.50400001928E-02 0.  1.
    10030    2    1    2    0    0  0.00000000000E+00  0.00000000000E+00  0.84712272783E+02  0.38585187528E+04  0.38575887283E+04 0.  0.
        4    1    3    3  502    0  0.36674343597E+03 -0.17258330570E+04  0.82180365497E+03  0.19463718424E+04  0.12699999809E+01 0.  1.
       -4    1    3    3    0  502 -0.36674343597E+03  0.17258330570E+04 -0.73709138218E+03  0.19121469105E+04  0.12699999809E+01 0. -1.
</event>
<event>
 5   0  0.2632875E-08  0.3905020E+04  0.7818609E-02  0.8023986E-01
        1   -1    0    0  501    0  0.00000000000E+00  0.00000000000E+00  0.17985920608E+04  0.17985920608E+04  0.50400001928E-02 0. -1.
       -1   -1    0    0    0  501  0.00000000000E+00  0.00000000000E+00 -0.21196001414E+04  0.21196001414E+04  0.50400001928E-02 0.  1.
    10030    2    1    2    0    0  0.00000000000E+00  0.00000000000E+00 -0.32100808066E+03  0.39181922022E+04  0.39050203515E+04 0.  0.
        3    1    3    3  502    0 -0.19374066100E+04 -0.10599999017E+03 -0.37922004845E+03  0.19770149786E+04  0.10100000352E+00 0.  1.
       -3    1    3    3    0  502  0.19374066100E+04  0.10599999017E+03  0.58211967793E+02  0.19411772236E+04  0.10100000352E+00 0. -1.
</event>
<event>
 5   0  0.8676098E-08  0.3897325E+04  0.7818609E-02  0.8025586E-01
        2   -1    0    0  501    0  0.00000000000E+00  0.00000000000E+00  0.11840559968E+04  0.11840559968E+04  0.25500000920E-02 0.  1.
       -2   -1    0    0    0  501  0.00000000000E+00  0.00000000000E+00 -0.32070150830E+04  0.32070150830E+04  0.25500000920E-02 0. -1.
    10030    2    1    2    0    0  0.00000000000E+00  0.00000000000E+00 -0.20229590862E+04  0.43910710799E+04  0.38973249498E+04 0.  0.
        3    1    3    3  502    0 -0.31120248234E+03  0.80353204623E+03 -0.29806959330E+04  0.31027502300E+04  0.10100000352E+00 0. -1.
       -3    1    3    3    0  502  0.31120248234E+03 -0.80353204623E+03  0.95773684682E+03  0.12883208499E+04  0.10100000352E+00 0.  1.
</event>
<event>
 5   0  0.2632875E-08  0.3906127E+04  0.7818609E-02  0.8023756E-01
        1   -1    0    0  501    0  0.00000000000E+00  0.00000000000E+00  0.20727704904E+04  0.20727704904E+04  0.50400001928E-02 0.  1.
       -1   -1    0    0    0  501  0.00000000000E+00  0.00000000000E+00 -0.18402696971E+04  0.18402696971E+04  0.50400001928E-02 0. -1.
    10030    2    1    2    0    0  0.00000000000E+00  0.00000000000E+00  0.23250079333E+03  0.39130401875E+04  0.39061268400E+04 0.  0.
        4    1    3    3  502    0 -0.16618912578E+04 -0.68652687347E+03 -0.64749872371E+03  0.19111404739E+04  0.12699999809E+01 0. -1.
       -4    1    3    3    0  502  0.16618912578E+04  0.68652687347E+03  0.87999951704E+03  0.20018997137E+04  0.12699999809E+01 0.  1.
</event>
<event>
 5   0  0.8551754E-08  0.3879323E+04  0.7818609E-02  0.8029343E-01
        2   -1    0    0  501    0  0.00000000000E+00  0.00000000000E+00  0.22727685875E+04  0.22727685875E+04  0.25500000920E-02 0.  1.
       -2   -1    0    0    0  501  0.00000000000E+00  0.00000000000E+00 -0.16553763489E+04  0.16553763490E+04  0.25500000920E-02 0. -1.
    10030    2    1    2    0    0  0.00000000000E+00  0.00000000000E+00  0.61739223854E+03  0.39281449364E+04  0.38793233257E+04 0.  0.
        1    1    3    3  502    0 -0.74421749075E+03 -0.37436859072E+03 -0.14649980026E+04  0.16852983898E+04  0.50400001928E-02 0. -1.
       -1    1    3    3    0  502  0.74421749075E+03  0.37436859072E+03  0.20823902411E+04  0.22428465466E+04  0.50400001928E-02 0.  1.
</event>
<event>
 5   0  0.2632875E-08  0.3900750E+04  0.7818609E-02  0.8024873E-01
        1   -1    0    0  501    0  0.00000000000E+00  0.00000000000E+00  0.25164334987E+04  0.25164334987E+04  0.50400001928E-02 0. -1.
       -1   -1    0    0    0  501  0.00000000000E+00  0.00000000000E+00 -0.15116484313E+04  0.15116484314E+04  0.50400001928E-02 0.  1.
    10030    2    1    2    0    0  0.00000000000E+00  0.00000000000E+00  0.10047850673E+04  0.40280819300E+04  0.39007500565E+04 0.  0.
        2    1    3    3  502    0  0.35557867288E+03  0.57677025223E+03  0.23909896205E+04  0.24851421452E+04  0.25500000920E-02 0. -1.
       -2    1    3    3    0  502 -0.35557867288E+03 -0.57677025223E+03 -0.13862045532E+04  0.15429397849E+04  0.25500000920E-02 0.  1.
</event>
<event>
 5   0  0.2632875E-08  0.3853345E+04  0.7818609E-02  0.8034803E-01
       -1   -1    0    0    0  501  0.00000000000E+00  0.00000000000E+00  0.23102432942E+04  0.23102432942E+04  0.50400001928E-02 0. -1.
        1   -1    0    0  501    0  0.00000000000E+00  0.00000000000E+00 -0.16067862636E+04  0.16067862637E+04  0.50400001928E-02 0.  1.
    10030    2    1    2    0    0  0.00000000000E+00  0.00000000000E+00  0.70345703059E+03  0.39170295579E+04  0.38533451394E+04 0.  0.
        5    1    3    3  502    0  0.16330395138E+04 -0.74775889272E+03  0.10604481443E+04  0.20857933196E+04  0.46999998093E+01 0. -1.
       -5    1    3    3    0  502 -0.16330395138E+04  0.74775889272E+03 -0.35699111370E+03  0.18312362383E+04  0.46999998093E+01 0.  1.
</event>
<event>
 5   0  0.8342802E-08  0.3881575E+04  0.7818609E-02  0.8028872E-01
        2   -1    0    0  501    0  0.00000000000E+00  0.00000000000E+00  0.14723645380E+04  0.14723645380E+04  0.25500000920E-02 0.  1.
       -2   -1    0    0    0  501  0.00000000000E+00  0.00000000000E+00 -0.25582362258E+04  0.25582362258E+04  0.25500000920E-02 0. -1.
    10030    2    1    2    0    0  0.00000000000E+00  0.00000000000E+00 -0.10858716878E+04  0.40306007638E+04  0.38815750920E+04 0.  0.
        4    1    3    3  502    0  0.14808610772E+04  0.52700274948E+03 -0.17250510681E+04  0.23337703889E+04  0.12699999809E+01 0. -1.
       -4    1    3    3    0  502 -0.14808610772E+04 -0.52700274948E+03  0.63917938035E+03  0.16968303748E+04  0.12699999809E+01 0.  1.
</event>
<event>
 5   0  0.2632875E-08  0.3911088E+04  0.7818609E-02  0.8022727E-01
       -1   -1    0    0    0  501  0.00000000000E+00  0.00000000000E+00  0.12084162863E+04  0.12084162863E+04  0.50400001928E-02 0. -1.
        1   -1    0    0  501    0  0.00000000000E+00  0.00000000000E+00 -0.31645988745E+04  0.31645988745E+04  0.50400001928E-02 0.  1.
    10030    2    1    2    0    0  0.00000000000E+00  0.00000000000E+00 -0.19561825882E+04  0.43730151608E+04  0.39110882473E+04 0.  0.
        4    1    3    3  502    0 -0.36293762289E+02 -0.12145543435E+04 -0.26912748675E+04  0.29528666607E+04  0.12699999809E+01 0.  1.
       -4    1    3    3    0  502  0.36293762289E+02  0.12145543435E+04  0.73509227932E+03  0.14201485001E+04  0.12699999809E+01 0. -1.
</event>
<event>
 5   0  0.8476262E-08  0.3936264E+04  0.7818609E-02  0.8017529E-01
       -2   -1    0    0    0  501  0.00000000000E+00  0.00000000000E+00  0.17851784590E+04  0.17851784590E+04  0.25500000920E-02 0. -1.
        2   -1    0    0  501    0  0.00000000000E+00  0.00000000000E+00 -0.21698355603E+04  0.21698355603E+04  0.25500000920E-02 0.  1.
    10030    2    1    2    0    0  0.00000000000E+00  0.00000000000E+00 -0.38465710129E+03  0.39550140193E+04  0.39362640673E+04 0.  0.
        2    1    3    3  502    0  0.99207412908E+03  0.16947786621E+04 -0.32355661375E+03  0.19902700002E+04  0.25500000920E-02 0. -1.
       -2    1    3    3    0  502 -0.99207412908E+03 -0.16947786621E+04 -0.61100487539E+02  0.19647440192E+04  0.25500000920E-02 0.  1.
</event>
<event>
 5   0  0.2632875E-08  0.4057338E+04  0.7818609E-02  0.7993078E-01
       -1   -1    0    0    0  501  0.00000000000E+00  0.00000000000E+00  0.27048533201E+04  0.27048533201E+04  0.50400001928E-02 0.  1.
        1   -1    0    0  501    0  0.00000000000E+00  0.00000000000E+00 -0.15215236349E+04  0.15215236349E+04  0.50400001928E-02 0. -1.
    10030    2    1    2    0    0  0.00000000000E+00  0.00000000000E+00  0.11833296853E+04  0.42263769550E+04  0.40573381695E+04 0.  0.
        5    1    3    3  502    0 -0.13459209189E+04 -0.66111210935E+03 -0.83160745272E+03  0.17146910469E+04  0.46999998093E+01 0. -1.
       -5    1    3    3    0  502  0.13459209189E+04  0.66111210935E+03  0.20149371380E+04  0.25116859081E+04  0.46999998093E+01 0.  1.
</event>
<event>
 5   0  0.8676098E-08  0.3923230E+04  0.7818609E-02  0.8020215E-01
        2   -1    0    0  501    0  0.00000000000E+00  0.00000000000E+00  0.25609961510E+04  0.25609961510E+04  0.25500000920E-02 0. -1.
       -2   -1    0    0    0  501  0.00000000000E+00  0.00000000000E+00 -0.15025141813E+04  0.15025141813E+04  0.25500000920E-02 0.  1.
    10030    2    1    2    0    0  0.00000000000E+00  0.00000000000E+00  0.10584819698E+04  0.40635103323E+04  0.39232298098E+04 0.  0.
        3    1    3    3  502    0 -0.28494257512E+03  0.10567811615E+04  0.22153156961E+04  0.24709517070E+04  0.10100000352E+00 0. -1.
       -3    1    3    3    0  502  0.28494257512E+03 -0.10567811615E+04 -0.11568337264E+04  0.15925586253E+04  0.10100000352E+00 0.  1.
</event>
<event>
 5   0  0.2632875E-08  0.3920341E+04  0.7818609E-02  0.8020812E-01
       -1   -1    0    0    0  501  0.00000000000E+00  0.00000000000E+00  0.11121192817E+04  0.11121192817E+04  0.50400001928E-02 0.  1.
        1   -1    0    0  501    0  0.00000000000E+00  0.00000000000E+00 -0.34549066718E+04  0.34549066718E+04  0.50400001928E-02 0. -1.
    10030    2    1    2    0    0  0.00000000000E+00  0.00000000000E+00 -0.23427873901E+04  0.45670259535E+04  0.39203409680E+04 0.  0.
        2    1    3    3  502    0 -0.75043842906E+03 -0.16083571292E+04 -0.21406890364E+04  0.27807409159E+04  0.25500000920E-02 0. -1.
       -2    1    3    3    0  502  0.75043842906E+03  0.16083571292E+04 -0.20209835365E+03  0.17862850376E+04  0.25500000920E-02 0.  1.
</event>
<event>
 5   0  0.8476262E-08  0.3904172E+04  0.7818609E-02  0.8024162E-01
       -2   -1    0    0    0  501  0.00000000000E+00  0.00000000000E+00  0.22807585528E+04  0.22807585528E+04  0.25500000920E-02 0.  1.
        2   -1    0    0  501    0  0.00000000000E+00  0.00000000000E+00 -0.16707773717E+04  0.16707773717E+04  0.25500000920E-02 0. -1.
    10030    2    1    2    0    0  0.00000000000E+00  0.00000000000E+00  0.60998118108E+03  0.39515359246E+04  0.39041720149E+04 0.  0.
        2    1    3    3  502    0  0.74429024462E+03  0.12845563326E+04 -0.97789844440E+03  0.17777340373E+04  0.25500000920E-02 0. -1.
       -2    1    3    3    0  502 -0.74429024462E+03 -0.12845563326E+04  0.15878796255E+04  0.21738018872E+04  0.25500000920E-02 0.  1.
</event>
<event>
 5   0  0.8551754E-08  0.3909253E+04  0.7818609E-02  0.8023108E-01
       -2   -1    0    0    0  501  0.00000000000E+00  0.00000000000E+00  0.18251852049E+04  0.18251852049E+04  0.25500000920E-02 0.  1.
        2   -1    0    0  501    0  0.00000000000E+00  0.00000000000E+00 -0.20932472718E+04  0.20932472718E+04  0.25500000920E-02 0. -1.
    10030    2    1    2    0    0  0.00000000000E+00  0.00000000000E+00 -0.26806206691E+03  0.39184324767E+04  0.39092525888E+04 0.  0.
        1    1    3    3  502    0 -0.11037641369E+04  0.15199597246E+04 -0.67566195996E+03  0.19962695005E+04  0.50400001928E-02 0.  1.
       -1    1    3    3    0  502  0.11037641369E+04 -0.15199597246E+04  0.40759989305E+03  0.19221629762E+04  0.50400001928E-02 0. -1.
</event>
<event>
 5   0  0.2632875E-08  0.3878480E+04  0.7818609E-02  0.8029520E-01
        1   -1    0    0  501    0  0.00000000000E+00  0.00000000000E+00  0.26251753983E+04  0.26251753983E+04  0.50400001928E-02 0. -1.
       -1   -1    0    0    0  501  0.00000000000E+00  0.00000000000E+00 -0.14325337999E+04  0.14325337999E+04  0.50400001928E-02 0.  1.
    10030    2    1    2    0    0  0.00000000000E+00  0.00000000000E+00  0.11926415985E+04  0.40577091982E+04  0.38784803667E+04 0.  0.
        3    1    3    3  502    0  0.12038084597E+04  0.12147402215E+04 -0.36020676332E+03  0.17477120861E+04  0.10100000352E+00 0.  1.
       -3    1    3    3    0  502 -0.12038084597E+04 -0.12147402215E+04  0.15528483618E+04  0.23099971122E+04  0.10100000352E+00 0. -1.
</event>
<event>
 5   0  0.2632875E-08  0.3896951E+04  0.7818609E-02  0.8025664E-01
        1   -1    0    0  501    0  0.00000000000E+00  0.00000000000E+00  0.16432869864E+04  0.16432869864E+04  0.50400001928E-02 0.  1.
       -1   -1    0    0    0  501  0.00000000000E+00  0.00000000000E+00 -0.23103431319E+04  0.23103431319E+04  0.50400001928E-02 0. -1.
    10030    2    1    2    0    0  0.00000000000E+00  0.00000000000E+00 -0.66705614544E+03  0.39536301183E+04  0.38969510147E+04 0.  0.
        4    1    3    3  502    0  0.82841984209E+03  0.14079479657E+04  0.74397274468E+03  0.17950192107E+04  0.12699999809E+01 0.  1.
       -4    1    3    3    0  502 -0.82841984209E+03 -0.14079479657E+04 -0.14110288901E+04  0.21586109076E+04  0.12699999809E+01 0. -1.
</event>
<event>
 5   0  0.8476262E-08  0.3909286E+04  0.7818609E-02  0.8023101E-01
        2   -1    0    0  501    0  0.00000000000E+00  0.00000000000E+00  0.26112148846E+04  0.26112148846E+04  0.25500000920E-02 0.  1.
       -2   -1    0    0    0  501  0.00000000000E+00  0.00000000000E+00 -0.14631617100E+04  0.14631617100E+04  0.25500000920E-02 0. -1.
    10030    2    1    2    0    0  0.00000000000E+00  0.00000000000E+00  0.11480531746E+04  0.40743765945E+04  0.39092861935E+04 0.  0.
        2    1    3    3  502    0 -0.15483258659E+04  0.79606446442E+03  0.15001454443E+04  0.22981444630E+04  0.25500000920E-02 0.  1.
       -2    1    3    3    0  502  0.15483258659E+04 -0.79606446442E+03 -0.35209226976E+03  0.17762321315E+04  0.25500000920E-02 0. -1.
</event>
<event>
 5   0  0.8342802E-08  0.3854644E+04  0.7818609E-02  0.8034529E-01
        2   -1    0    0  501    0  0.00000000000E+00  0.00000000000E+00  0.28298271644E+04  0.28298271644E+04  0.25500000920E-02 0.  1.
       -2   -1    0    0    0  501  0.00000000000E+00  0.00000000000E+00 -0.13126492229E+04  0.13126492229E+04  0.25500000920E-02 0. -1.
    10030    2    1    2    0    0  0.00000000000E+00  0.00000000000E+00  0.15171779415E+04  0.41424763873E+04  0.38546441747E+04 0.  0.
        4    1    3    3  502    0 -0.12377279623E+04  0.16228932618E+03  0.23366593175E+04  0.26492049209E+04  0.12699999809E+01 0.  1.
       -4    1    3    3    0  502  0.12377279623E+04 -0.16228932618E+03 -0.81948137600E+03  0.14932714664E+04  0.12699999809E+01 0. -1.
</event>
<event>
 5   0  0.8676098E-08  0.3898448E+04  0.7818609E-02  0.8025352E-01
        2   -1    0    0  501    0  0.00000000000E+00  0.00000000000E+00  0.13131053169E+04  0.13131053169E+04  0.25500000920E-02 0.  1.
       -2   -1    0    0    0  501  0.00000000000E+00  0.00000000000E+00 -0.28935025414E+04  0.28935025414E+04  0.25500000920E-02 0. -1.
    10030    2    1    2    0    0  0.00000000000E+00  0.00000000000E+00 -0.15803972245E+04  0.42066078584E+04  0.38984476766E+04 0.  0.
        3    1    3    3  502    0 -0.54340794219E+03 -0.18598352578E+04 -0.10195923681E+04  0.21894857810E+04  0.10100000352E+00 0.  1.
       -3    1    3    3    0  502  0.54340794219E+03  0.18598352578E+04 -0.56080485638E+03  0.20171220774E+04  0.10100000352E+00 0. -1.
</event>
<event>
 5   0  0.8438211E-08  0.3848500E+04  0.7818609E-02  0.8035826E-01
        2   -1    0    0  501    0  0.00000000000E+00  0.00000000000E+00  0.10820837725E+04  0.10820837725E+04  0.25500000920E-02 0.  1.
       -2   -1    0    0    0  501  0.00000000000E+00  0.00000000000E+00 -0.34218587142E+04  0.34218587142E+04  0.25500000920E-02 0. -1.
    10030    2    1    2    0    0  0.00000000000E+00  0.00000000000E+00 -0.23397749418E+04  0.45039424867E+04  0.38484998565E+04 0.  0.
        5    1    3    3  502    0 -0.77392570399E+02  0.18469161040E+04 -0.17953495495E+04  0.25768955742E+04  0.46999998093E+01 0.  1.
       -5    1    3    3    0  502  0.77392570399E+02 -0.18469161040E+04 -0.54442539222E+03  0.19270469125E+04  0.46999998093E+01 0. -1.
</event>
<event>
 5   0  0.2632875E-08  0.3732971E+04  0.7818609E-02  0.8060694E-01
        1   -1    0    0  501    0  0.00000000000E+00  0.00000000000E+00  0.20291789012E+04  0.20291789013E+04  0.50400001928E-02 0. -1.
       -1   -1    0    0    0  501  0.00000000000E+00  0.00000000000E+00 -0.17168367691E+04  0.17168367691E+04  0.50400001928E-02 0.  1.
    10030    2    1    2    0    0  0.00000000000E+00  0.00000000000E+00  0.31234213211E+03  0.37460156704E+04  0.37329714432E+04 0.  0.
        4    1    3    3  502    0 -0.12129111149E+04 -0.58043318515E+02 -0.12662604410E+04  0.17544057447E+04  0.12699999809E+01 0.  1.
       -4    1    3    3    0  502  0.12129111149E+04  0.58043318515E+02  0.15786025731E+04  0.19916099257E+04  0.12699999809E+01 0. -1.
</event>
<event>
 5   0  0.2632875E-08  0.3891271E+04  0.7818609E-02  0.8026847E-01
        1   -1    0    0  501    0  0.00000000000E+00  0.00000000000E+00  0.21691824225E+04  0.21691824225E+04  0.50400001928E-02 0.  1.
       -1   -1    0    0    0  501  0.00000000000E+00  0.00000000000E+00 -0.17451264134E+04  0.17451264134E+04  0.50400001928E-02 0. -1.
    10030    2    1    2    0    0  0.00000000000E+00  0.00000000000E+00  0.42405600905E+03  0.39143088359E+04  0.38912710216E+04 0.  0.
        5    1    3    3  502    0 -0.13834381733E+04  0.77719842025E+02  0.15859598210E+04  0.21059990971E+04  0.46999998093E+01 0.  1.
       -5    1    3    3    0  502  0.13834381733E+04 -0.77719842025E+02 -0.11619038119E+04  0.18083097388E+04  0.46999998093E+01 0. -1.
</event>
<event>
 5   0  0.2632875E-08  0.3965358E+04  0.7818609E-02  0.8011572E-01
        1   -1    0    0  501    0  0.00000000000E+00  0.00000000000E+00  0.15357110952E+04  0.15357110952E+04  0.50400001928E-02 0.  1.
       -1   -1    0    0    0  501  0.00000000000E+00  0.00000000000E+00 -0.25597369074E+04  0.25597369074E+04  0.50400001928E-02 0. -1.
    10030    2    1    2    0    0  0.00000000000E+00  0.00000000000E+00 -0.10240258122E+04  0.40954480026E+04  0.39653581778E+04 0.  0.
        1    1    3    3  502    0  0.75499387327E+03 -0.15120155708E+04 -0.15827546877E+04  0.23154522747E+04  0.50400001928E-02 0. -1.
       -1    1    3    3    0  502 -0.75499387327E+03  0.15120155708E+04  0.55872887547E+03  0.17799957279E+04  0.50400001928E-02 0.  1.
</event>
<event>
 5   0  0.8342802E-08  0.3893439E+04  0.7818609E-02  0.8026395E-01
       -2   -1    0    0    0  501  0.00000000000E+00  0.00000000000E+00  0.26455249156E+04  0.26455249156E+04  0.25500000920E-02 0.  1.
        2   -1    0    0  501    0  0.00000000000E+00  0.00000000000E+00 -0.14325012497E+04  0.14325012497E+04  0.25500000920E-02 0. -1.
    10030    2    1    2    0    0  0.00000000000E+00  0.00000000000E+00  0.12130236659E+04  0.40780261653E+04  0.38934394808E+04 0.  0.
        4    1    3    3  502    0 -0.45836046162E+02  0.18365889011E+04  0.12808975934E+04  0.22396115718E+04  0.12699999809E+01 0.  1.
       -4    1    3    3    0  502  0.45836046162E+02 -0.18365889011E+04 -0.67873927487E+02  0.18384145935E+04  0.12699999809E+01 0. -1.
</event>
<event>
 5   0  0.8342802E-08  0.3763688E+04  0.7818609E-02  0.8053993E-01
       -2   -1    0    0    0  501  0.00000000000E+00  0.00000000000E+00  0.20960817859E+04  0.20960817859E+04  0.25500000920E-02 0. -1.
        2   -1    0    0  501    0  0.00000000000E+00  0.00000000000E+00 -0.16895030421E+04  0.16895030421E+04  0.25500000920E-02 0.  1.
    10030    2    1    2    0    0  0.00000000000E+00  0.00000000000E+00  0.40657874379E+03  0.37855848280E+04  0.37636878478E+04 0.  0.
        4    1    3    3  502    0  0.12859857038E+04  0.11575942543E+04  0.94756153179E+03  0.19727286071E+04  0.12699999809E+01 0. -1.
       -4    1    3    3    0  502 -0.12859857038E+04 -0.11575942543E+04 -0.54098278800E+03  0.18128562209E+04  0.12699999809E+01 0.  1.
</event>
<event>
 5   0  0.8476262E-08  0.3889979E+04  0.7818609E-02  0.8027117E-01
       -2   -1    0    0    0  501  0.00000000000E+00  0.00000000000E+00  0.22383173091E+04  0.22383173091E+04  0.25500000920E-02 0.  1.
        2   -1    0    0  501    0  0.00000000000E+00  0.00000000000E+00 -0.16901017085E+04  0.16901017085E+04  0.25500000920E-02 0. -1.
    10030    2    1    2    0    0  0.00000000000E+00  0.00000000000E+00  0.54821560059E+03  0.39284190175E+04  0.38899788730E+04 0.  0.
        2    1    3    3  502    0  0.11590388027E+04 -0.52624665530E+03 -0.12110289161E+04  0.17569568931E+04  0.25500000920E-02 0.  1.
       -2    1    3    3    0  502 -0.11590388027E+04  0.52624665530E+03  0.17592445167E+04  0.21714621245E+04  0.25500000920E-02 0. -1.
</event>
<event>
 5   0  0.2632875E-08  0.3902757E+04  0.7818609E-02  0.8024456E-01
       -1   -1    0    0    0  501  0.00000000000E+00  0.00000000000E+00  0.17278324045E+04  0.17278324045E+04  0.50400001928E-02 0.  1.
        1   -1    0    0  501    0  0.00000000000E+00  0.00000000000E+00 -0.22038467142E+04  0.22038467142E+04  0.50400001928E-02 0. -1.
    10030    2    1    2    0    0  0.00000000000E+00  0.00000000000E+00 -0.47601430966E+03  0.39316791187E+04  0.39027568551E+04 0.  0.
        2    1    3    3  502    0 -0.17688756063E+04 -0.23063613128E+03  0.55890747494E+03  0.18693559055E+04  0.25500000920E-02 0.  1.
       -2    1    3    3    0  502  0.17688756063E+04  0.23063613128E+03 -0.10349217846E+04  0.20623232133E+04  0.25500000920E-02 0. -1.
</event>
<event>
 5   0  0.2632875E-08  0.3902421E+04  0.7818609E-02  0.8024526E-01
        1   -1    0    0  501    0  0.00000000000E+00  0.00000000000E+00  0.18324342044E+04  0.18324342044E+04  0.50400001928E-02 0.  1.
       -1   -1    0    0    0  501  0.00000000000E+00  0.00000000000E+00 -0.20776860684E+04  0.20776860684E+04  0.50400001928E-02 0. -1.
    10030    2    1    2    0    0  0.00000000000E+00  0.00000000000E+00 -0.24525186401E+03  0.39101202728E+04  0.39024213088E+04 0.  0.
        3    1    3    3  502    0 -0.87849234702E+03  0.10038198447E+04 -0.15494507496E+04  0.20445539171E+04  0.10100000352E+00 0. -1.
       -3    1    3    3    0  502  0.87849234702E+03 -0.10038198447E+04  0.13041988855E+04  0.18655663557E+04  0.10100000352E+00 0.  1.
</event>
<event>
 5   0  0.8438211E-08  0.3903764E+04  0.7818609E-02  0.8024247E-01
        2   -1    0    0  501    0  0.00000000000E+00  0.00000000000E+00  0.23885821468E+04  0.23885821468E+04  0.25500000920E-02 0.  1.
       -2   -1    0    0    0  501  0.00000000000E+00  0.00000000000E+00 -0.15950228907E+04  0.15950228907E+04  0.25500000920E-02 0. -1.
    10030    2    1    2    0    0  0.00000000000E+00  0.00000000000E+00  0.79355925615E+03  0.39836050375E+04  0.39037639275E+04 0.  0.
        5    1    3    3  502    0 -0.11667721133E+04  0.12929197297E+04 -0.50262191736E+03  0.18126360566E+04  0.46999998093E+01 0. -1.
       -5    1    3    3    0  502  0.11667721133E+04 -0.12929197297E+04  0.12961811735E+04  0.21709689810E+04  0.46999998093E+01 0.  1.
</event>
<event>
 5   0  0.8551754E-08  0.3895422E+04  0.7818609E-02  0.8025982E-01
       -2   -1    0    0    0  501  0.00000000000E+00  0.00000000000E+00  0.21021827882E+04  0.21021827882E+04  0.25500000920E-02 0. -1.
        2   -1    0    0  501    0  0.00000000000E+00  0.00000000000E+00 -0.18045901023E+04  0.18045901023E+04  0.25500000920E-02 0.  1.
    10030    2    1    2    0    0  0.00000000000E+00  0.00000000000E+00  0.29759268588E+03  0.39067728905E+04  0.38954220582E+04 0.  0.
        1    1    3    3  502    0  0.58336519662E+03 -0.27379477939E+03  0.19921672748E+04  0.20938025181E+04  0.50400001928E-02 0. -1.
       -1    1    3    3    0  502 -0.58336519662E+03  0.27379477939E+03 -0.16945745889E+04  0.18129703724E+04  0.50400001928E-02 0.  1.
</event>
<event>
 5   0  0.2632875E-08  0.3847761E+04  0.7818609E-02  0.8035983E-01
        1   -1    0    0  501    0  0.00000000000E+00  0.00000000000E+00  0.25484837924E+04  0.25484837925E+04  0.50400001928E-02 0. -1.
       -1   -1    0    0    0  501  0.00000000000E+00  0.00000000000E+00 -0.14523599531E+04  0.14523599531E+04  0.50400001928E-02 0.  1.
    10030    2    1    2    0    0  0.00000000000E+00  0.00000000000E+00  0.10961238393E+04  0.40008437456E+04  0.38477608041E+04 0.  0.
        4    1    3    3  502    0  0.13284482021E+04 -0.42519079595E+03  0.19258269357E+04  0.23778925203E+04  0.12699999809E+01 0. -1.
       -4    1    3    3    0  502 -0.13284482021E+04  0.42519079595E+03 -0.82970309641E+03  0.16229512253E+04  0.12699999809E+01 0.  1.
</event>
<event>
 5   0  0.2632875E-08  0.3896533E+04  0.7818609E-02  0.8025751E-01
        1   -1    0    0  501    0  0.00000000000E+00  0.00000000000E+00  0.12934254000E+04  0.12934254000E+04  0.50400001928E-02 0. -1.
       -1   -1    0    0    0  501  0.00000000000E+00  0.00000000000E+00 -0.29346434518E+04  0.29346434518E+04  0.50400001928E-02 0.  1.
    10030    2    1    2    0    0  0.00000000000E+00  0.00000000000E+00 -0.16412180519E+04  0.42280688518E+04  0.38965330131E+04 0.  0.
        4    1    3    3  502    0  0.13004277065E+04 -0.71875579214E+03 -0.21879961666E+04  0.26448158625E+04  0.12699999809E+01 0.  1.
       -4    1    3    3    0  502 -0.13004277065E+04  0.71875579214E+03  0.54677811472E+03  0.15832529893E+04  0.12699999809E+01 0. -1.
</event>
<event>
 5   0  0.2632875E-08  0.3896519E+04  0.7818609E-02  0.8025754E-01
        1   -1    0    0  501    0  0.00000000000E+00  0.00000000000E+00  0.31268164813E+04  0.31268164813E+04  0.50400001928E-02 0. -1.
       -1   -1    0    0    0  501  0.00000000000E+00  0.00000000000E+00 -0.12139230220E+04  0.12139230220E+04  0.50400001928E-02 0.  1.
    10030    2    1    2    0    0  0.00000000000E+00  0.00000000000E+00  0.19128934594E+04  0.43407395033E+04  0.38965187089E+04 0.  0.
        5    1    3    3  502    0 -0.17092356923E+04 -0.74992405583E+03  0.15785159587E+04  0.24445055662E+04  0.46999998093E+01 0. -1.
       -5    1    3    3    0  502  0.17092356923E+04  0.74992405583E+03  0.33437750063E+03  0.18962339371E+04  0.46999998093E+01 0.  1.
</event>
<event>
 5   0  0.8342802E-08  0.3885533E+04  0.7818609E-02  0.8028045E-01
       -2   -1    0    0    0  501  0.00000000000E+00  0.00000000000E+00  0.21380962386E+04  0.21380962386E+04  0.25500000920E-02 0. -1.
        2   -1    0    0  501    0  0.00000000000E+00  0.00000000000E+00 -0.17652817556E+04  0.17652817556E+04  0.25500000920E-02 0.  1.
    10030    2    1    2    0    0  0.00000000000E+00  0.00000000000E+00  0.37281448295E+03  0.39033779942E+04  0.38855333130E+04 0.  0.
        4    1    3    3  502    0  0.29758806692E+03  0.19094787273E+04 -0.13688340790E+02  0.19325777219E+04  0.12699999809E+01 0. -1.
       -4    1    3    3    0  502 -0.29758806692E+03 -0.19094787273E+04  0.38650282374E+03  0.19708002723E+04  0.12699999809E+01 0.  1.
</event>
<event>
 5   0  0.2632875E-08  0.3878631E+04  0.7818609E-02  0.8029488E-01
        3   -1    0    0  501    0  0.00000000000E+00  0.00000000000E+00  0.18596402423E+04  0.18596402451E+04  0.10100000352E+00 0.  1.
       -3   -1    0    0    0  501  0.00000000000E+00  0.00000000000E+00 -0.20224048613E+04  0.20224048638E+04  0.10100000352E+00 0. -1.
    10030    2    1    2    0    0  0.00000000000E+00  0.00000000000E+00 -0.16276461897E+03  0.38820451089E+04  0.38786314476E+04 0.  0.
        3    1    3    3  502    0  0.41235702679E+03 -0.23177093083E+03 -0.19637792992E+04  0.20199468380E+04  0.10100000352E+00 0. -1.
       -3    1    3    3    0  502 -0.41235702679E+03  0.23177093083E+03  0.18010146803E+04  0.18620982709E+04  0.10100000352E+00 0.  1.
</event>
<event>
 5   0  0.8676098E-08  0.3906101E+04  0.7818609E-02  0.8023762E-01
        2   -1    0    0  501    0  0.00000000000E+00  0.00000000000E+00  0.19800575530E+04  0.19800575530E+04  0.25500000920E-02 0.  1.
       -2   -1    0    0    0  501  0.00000000000E+00  0.00000000000E+00 -0.19264117077E+04  0.19264117077E+04  0.25500000920E-02 0. -1.
    10030    2    1    2    0    0  0.00000000000E+00  0.00000000000E+00  0.53645845275E+02  0.39064692606E+04  0.39061008957E+04 0.  0.
        3    1    3    3  502    0 -0.19621959760E+03  0.95282910842E+03 -0.16668599179E+04  0.19299760197E+04  0.10100000352E+00 0. -1.
       -3    1    3    3    0  502  0.19621959760E+03 -0.95282910842E+03  0.17205057632E+04  0.19764932410E+04  0.10100000352E+00 0.  1.
</event>
<event>
 5   0  0.8676098E-08  0.3902293E+04  0.7818609E-02  0.8024552E-01
       -2   -1    0    0    0  501  0.00000000000E+00  0.00000000000E+00  0.21643105290E+04  0.21643105290E+04  0.25500000920E-02 0.  1.
        2   -1    0    0  501    0  0.00000000000E+00  0.00000000000E+00 -0.17589772052E+04  0.17589772052E+04  0.25500000920E-02 0. -1.
    10030    2    1    2    0    0  0.00000000000E+00  0.00000000000E+00  0.40533332379E+03  0.39232877341E+04  0.39022931132E+04 0.  0.
        3    1    3    3  502    0  0.73915536511E+03  0.34510087067E+03 -0.15793046726E+04  0.17775400203E+04  0.10100000352E+00 0. -1.
       -3    1    3    3    0  502 -0.73915536511E+03 -0.34510087067E+03  0.19846379963E+04  0.21457477138E+04  0.10100000352E+00 0.  1.
</event>
<event>
 5   0  0.2632875E-08  0.3900562E+04  0.7818609E-02  0.8024912E-01
        3   -1    0    0  501    0  0.00000000000E+00  0.00000000000E+00  0.30783272617E+04  0.30783272633E+04  0.10100000352E+00 0. -1.
       -3   -1    0    0    0  501  0.00000000000E+00  0.00000000000E+00 -0.12356046993E+04  0.12356047034E+04  0.10100000352E+00 0.  1.
    10030    2    1    2    0    0  0.00000000000E+00  0.00000000000E+00  0.18427225624E+04  0.43139319668E+04  0.39005618277E+04 0.  0.
        4    1    3    3  502    0  0.43878313690E+03  0.15307487435E+04 -0.32396678186E+03  0.16250164447E+04  0.12699999809E+01 0.  1.
       -4    1    3    3    0  502 -0.43878313690E+03 -0.15307487435E+04  0.21666893443E+04  0.26889155220E+04  0.12699999809E+01 0. -1.
</event>
<event>
 5   0  0.8676098E-08  0.3808915E+04  0.7818609E-02  0.8044244E-01
        2   -1    0    0  501    0  0.00000000000E+00  0.00000000000E+00  0.25923317090E+04  0.25923317090E+04  0.25500000920E-02 0. -1.
       -2   -1    0    0    0  501  0.00000000000E+00  0.00000000000E+00 -0.13991105869E+04  0.13991105869E+04  0.25500000920E-02 0.  1.
    10030    2    1    2    0    0  0.00000000000E+00  0.00000000000E+00  0.11932211222E+04  0.39914422959E+04  0.38089151940E+04 0.  0.
        3    1    3    3  502    0 -0.45954748975E+03 -0.13230515939E+04  0.19489197757E+04  0.23999870245E+04  0.10100000352E+00 0. -1.
       -3    1    3    3    0  502  0.45954748975E+03  0.13230515939E+04 -0.75569865355E+03  0.15914552714E+04  0.10100000352E+00 0.  1.
</event>
<event>
 5   0  0.8476262E-08  0.3892816E+04  0.7818609E-02  0.8026525E-01
       -2   -1    0    0    0  501  0.00000000000E+00  0.00000000000E+00  0.15664149427E+04  0.15664149427E+04  0.25500000920E-02 0.  1.
        2   -1    0    0  501    0  0.00000000000E+00  0.00000000000E+00 -0.24185827347E+04  0.24185827347E+04  0.25500000920E-02 0. -1.
    10030    2    1    2    0    0  0.00000000000E+00  0.00000000000E+00 -0.85216779195E+03  0.39849976774E+04  0.38928160172E+04 0.  0.
        2    1    3    3  502    0  0.43620690053E+03 -0.14066419569E+04 -0.17288492848E+04  0.22710873837E+04  0.25500000920E-02 0. -1.
       -2    1    3    3    0  502 -0.43620690053E+03  0.14066419569E+04  0.87668149288E+03  0.17139102937E+04  0.25500000920E-02 0.  1.
</event>
<event>
 5   0  0.8551754E-08  0.3898148E+04  0.7818609E-02  0.8025415E-01
        2   -1    0    0  501    0  0.00000000000E+00  0.00000000000E+00  0.27097131635E+04  0.27097131635E+04  0.25500000920E-02 0.  1.
       -2   -1    0    0    0  501  0.00000000000E+00  0.00000000000E+00 -0.14019522578E+04  0.14019522578E+04  0.25500000920E-02 0. -1.
    10030    2    1    2    0    0  0.00000000000E+00  0.00000000000E+00  0.13077609058E+04  0.41116654213E+04  0.38981475024E+04 0.  0.
        1    1    3    3  502    0  0.54305336731E+03  0.13846485220E+04  0.19825317486E+04  0.24784250288E+04  0.50400001928E-02 0.  1.
       -1    1    3    3    0  502 -0.54305336731E+03 -0.13846485220E+04 -0.67477084285E+03  0.16332403925E+04  0.50400001928E-02 0. -1.
</event>
<event>
 5   0  0.2632875E-08  0.4001358E+04  0.7818609E-02  0.8004273E-01
        1   -1    0    0  501    0  0.00000000000E+00  0.00000000000E+00  0.27153068440E+04  0.27153068440E+04  0.50400001928E-02 0. -1.
       -1   -1    0    0    0  501  0.00000000000E+00  0.00000000000E+00 -0.14741300978E+04  0.14741300978E+04  0.50400001928E-02 0.  1.
    10030    2    1    2    0    0  0.00000000000E+00  0.00000000000E+00  0.12411767462E+04  0.41894369418E+04  0.40013575414E+04 0.  0.
        3    1    3    3  502    0  0.65601950612E+02  0.13715020295E+04  0.21441118390E+04  0.25460826815E+04  0.10100000352E+00 0. -1.
       -3    1    3    3    0  502 -0.65601950612E+02 -0.13715020295E+04 -0.90293509277E+03  0.16433542603E+04  0.10100000352E+00 0.  1.
</event>
<event>
 5   0  0.8342802E-08  0.3902101E+04  0.7818609E-02  0.8024592E-01
       -2   -1    0    0    0  501  0.00000000000E+00  0.00000000000E+00  0.19197758243E+04  0.19197758243E+04  0.25500000920E-02 0.  1.
        2   -1    0    0  501    0  0.00000000000E+00  0.00000000000E+00 -0.19828345806E+04  0.19828345806E+04  0.25500000920E-02 0. -1.
    10030    2    1    2    0    0  0.00000000000E+00  0.00000000000E+00 -0.63058756313E+02  0.39026104050E+04  0.39021009170E+04 0.  0.
        4    1    3    3  502    0 -0.62755665197E+03 -0.16505737323E+04  0.79826279592E+03  0.19378973403E+04  0.12699999809E+01 0.  1.
       -4    1    3    3    0  502  0.62755665197E+03  0.16505737323E+04 -0.86132155223E+03  0.19647130647E+04  0.12699999809E+01 0. -1.
</event>
<event>
 5   0  0.8342802E-08  0.3676124E+04  0.7818609E-02  0.8073274E-01
       -2   -1    0    0    0  501  0.00000000000E+00  0.00000000000E+00  0.16111766188E+04  0.16111766188E+04  0.25500000920E-02 0. -1.
        2   -1    0    0  501    0  0.00000000000E+00  0.00000000000E+00 -0.20968978573E+04  0.20968978573E+04  0.25500000920E-02 0.  1.
    10030    2    1    2    0    0  0.00000000000E+00  0.00000000000E+00 -0.48572123855E+03  0.37080744761E+04  0.36761244808E+04 0.  0.
        4    1    3    3  502    0 -0.16727810055E+04 -0.39495734007E+03 -0.89989237231E+03  0.19401019271E+04  0.12699999809E+01 0.  1.
       -4    1    3    3    0  502  0.16727810055E+04  0.39495734007E+03  0.41417113376E+03  0.17679725490E+04  0.12699999809E+01 0. -1.
</event>
<event>
 5   0  0.8438211E-08  0.3880491E+04  0.7818609E-02  0.8029099E-01
        2   -1    0    0  501    0  0.00000000000E+00  0.00000000000E+00  0.22881458974E+04  0.22881458974E+04  0.25500000920E-02 0. -1.
       -2   -1    0    0    0  501  0.00000000000E+00  0.00000000000E+00 -0.16452415204E+04  0.16452415204E+04  0.25500000920E-02 0.  1.
    10030    2    1    2    0    0  0.00000000000E+00  0.00000000000E+00  0.64290437696E+03  0.39333874178E+04  0.38804910180E+04 0.  0.
        5    1    3    3  502    0  0.14655071323E+04 -0.80528696220E+03  0.13189047517E+04  0.21297253533E+04  0.46999998093E+01 0. -1.
       -5    1    3    3    0  502 -0.14655071323E+04  0.80528696220E+03 -0.67600037479E+03  0.18036620645E+04  0.46999998093E+01 0.  1.
</event>
<event>
 5   0  0.2632875E-08  0.3882565E+04  0.7818609E-02  0.8028665E-01
        1   -1    0    0  501    0  0.00000000000E+00  0.00000000000E+00  0.19251958363E+04  0.19251958363E+04  0.50400001928E-02 0.  1.
       -1   -1    0    0    0  501  0.00000000000E+00  0.00000000000E+00 -0.19575037013E+04  0.19575037013E+04  0.50400001928E-02 0. -1.
    10030    2    1    2    0    0  0.00000000000E+00  0.00000000000E+00 -0.32307864993E+02  0.38826995376E+04  0.38825651188E+04 0.  0.
        4    1    3    3  502    0  0.19181401549E+04  0.29243098759E+03 -0.77790683601E+02  0.19418626470E+04  0.12699999809E+01 0. -1.
       -4    1    3    3    0  502 -0.19181401549E+04 -0.29243098759E+03  0.45482818608E+02  0.19408368907E+04  0.12699999809E+01 0.  1.
</event>
<event>
 5   0  0.2632875E-08  0.3906508E+04  0.7818609E-02  0.8023677E-01
       -1   -1    0    0    0  501  0.00000000000E+00  0.00000000000E+00  0.24744245078E+04  0.24744245078E+04  0.50400001928E-02 0. -1.
        1   -1    0    0  501    0  0.00000000000E+00  0.00000000000E+00 -0.15418539374E+04  0.15418539374E+04  0.50400001928E-02 0.  1.
    10030    2    1    2    0    0  0.00000000000E+00  0.00000000000E+00  0.93257057044E+03  0.40162784453E+04  0.39065079906E+04 0.  0.
        2    1    3    3  502    0  0.27461573855E+03 -0.18286498253E+04  0.11131119355E+04  0.21583308755E+04  0.25500000920E-02 0. -1.
       -2    1    3    3    0  502 -0.27461573855E+03  0.18286498253E+04 -0.18054136508E+03  0.18579475697E+04  0.25500000920E-02 0.  1.
</event>
<event>
 5   0  0.8676098E-08  0.3905753E+04  0.7818609E-02  0.8023834E-01
       -2   -1    0    0    0  501  0.00000000000E+00  0.00000000000E+00  0.28792678065E+04  0.28792678065E+04  0.25500000920E-02 0. -1.
        2   -1    0    0  501    0  0.00000000000E+00  0.00000000000E+00 -0.13245476242E+04  0.13245476242E+04  0.25500000920E-02 0.  1.
    10030    2    1    2    0    0  0.00000000000E+00  0.00000000000E+00  0.15547201823E+04  0.42038154306E+04  0.39057533626E+04 0.  0.
        3    1    3    3  502    0  0.18153492736E+04  0.64804892837E+03  0.43996209100E+03  0.19771259572E+04  0.10100000352E+00 0.  1.
       -3    1    3    3    0  502 -0.18153492736E+04 -0.64804892837E+03  0.11147580913E+04  0.22266894734E+04  0.10100000352E+00 0. -1.
</event>
<event>
 5   0  0.8342802E-08  0.3851313E+04  0.7818609E-02  0.8035232E-01
        2   -1    0    0  501    0  0.00000000000E+00  0.00000000000E+00  0.21954538434E+04  0.21954538434E+04  0.25500000920E-02 0.  1.
       -2   -1    0    0    0  501  0.00000000000E+00  0.00000000000E+00 -0.16890143168E+04  0.16890143168E+04  0.25500000920E-02 0. -1.
    10030    2    1    2    0    0  0.00000000000E+00  0.00000000000E+00  0.50643952662E+03  0.38844681603E+04  0.38513130091E+04 0.  0.
        4    1    3    3  502    0 -0.14901640560E+03  0.82498727322E+03 -0.14952964411E+04  0.17142703841E+04  0.12699999809E+01 0. -1.
       -4    1    3    3    0  502  0.14901640560E+03 -0.82498727322E+03  0.20017359677E+04  0.21701977761E+04  0.12699999809E+01 0.  1.
</event>
<event>
 5   0  0.8342802E-08  0.3894028E+04  0.7818609E-02  0.8026272E-01
        2   -1    0    0  501    0  0.00000000000E+00  0.00000000000E+00  0.17561209522E+04  0.17561209523E+04  0.25500000920E-02 0. -1.
       -2   -1    0    0    0  501  0.00000000000E+00  0.00000000000E+00 -0.21586571845E+04  0.21586571845E+04  0.25500000920E-02 0.  1.
    10030    2    1    2    0    0  0.00000000000E+00  0.00000000000E+00 -0.40253623229E+03  0.39147781368E+04  0.38940277916E+04 0.  0.
        4    1    3    3  502    0  0.72477436826E+03 -0.10337281916E+04 -0.16913843121E+04  0.21106099505E+04  0.12699999809E+01 0.  1.
       -4    1    3    3    0  502 -0.72477436826E+03  0.10337281916E+04  0.12888480798E+04  0.18041681863E+04  0.12699999809E+01 0. -1.
</event>
<event>
 5   0  0.2632875E-08  0.3897935E+04  0.7818609E-02  0.8025459E-01
        1   -1    0    0  501    0  0.00000000000E+00  0.00000000000E+00  0.21063428671E+04  0.21063428671E+04  0.50400001928E-02 0. -1.
       -1   -1    0    0    0  501  0.00000000000E+00  0.00000000000E+00 -0.18033501075E+04  0.18033501075E+04  0.50400001928E-02 0.  1.
    10030    2    1    2    0    0  0.00000000000E+00  0.00000000000E+00  0.30299275964E+03  0.39096929746E+04  0.38979346510E+04 0.  0.
        3    1    3    3  502    0  0.13055014174E+04 -0.83124532844E+03  0.13396247919E+04  0.20469238726E+04  0.10100000352E+00 0. -1.
       -3    1    3    3    0  502 -0.13055014174E+04  0.83124532844E+03 -0.10366320322E+04  0.18627691020E+04  0.10100000352E+00 0.  1.
</event>
<event>
 5   0  0.2632875E-08  0.3912170E+04  0.7818609E-02  0.8022503E-01
        1   -1    0    0  501    0  0.00000000000E+00  0.00000000000E+00  0.20188508721E+04  0.20188508721E+04  0.50400001928E-02 0. -1.
       -1   -1    0    0    0  501  0.00000000000E+00  0.00000000000E+00 -0.18952702053E+04  0.18952702053E+04  0.50400001928E-02 0.  1.
    10030    2    1    2    0    0  0.00000000000E+00  0.00000000000E+00  0.12358066679E+03  0.39141210775E+04  0.39121696829E+04 0.  0.
        1    1    3    3  502    0  0.19068493158E+04 -0.19665317063E+03  0.45124163941E+03  0.19693566970E+04  0.50400001928E-02 0. -1.
       -1    1    3    3    0  502 -0.19068493158E+04  0.19665317063E+03 -0.32766097262E+03  0.19447643805E+04  0.50400001928E-02 0.  1.
</event>
<event>
 5   0  0.2632875E-08  0.3899974E+04  0.7818609E-02  0.8025035E-01
        1   -1    0    0  501    0  0.00000000000E+00  0.00000000000E+00  0.16528450571E+04  0.16528450571E+04  0.50400001928E-02 0. -1.
       -1   -1    0    0    0  501  0.00000000000E+00  0.00000000000E+00 -0.23005476794E+04  0.23005476794E+04  0.50400001928E-02 0.  1.
    10030    2    1    2    0    0  0.00000000000E+00  0.00000000000E+00 -0.64770262231E+03  0.39533927365E+04  0.38999737746E+04 0.  0.
        4    1    3    3  502    0  0.12629016624E+04  0.53925189712E+03  0.10795736616E+04  0.17467667621E+04  0.12699999809E+01 0. -1.
       -4    1    3    3    0  502 -0.12629016624E+04 -0.53925189712E+03 -0.17272762839E+04  0.22066259745E+04  0.12699999809E+01 0.  1.
</event>
<event>
 5   0  0.8551754E-08  0.3902831E+04  0.7818609E-02  0.8024441E-01
        2   -1    0    0  501    0  0.00000000000E+00  0.00000000000E+00  0.12685964039E+04  0.12685964039E+04  0.25500000920E-02 0.  1.
       -2   -1    0    0    0  501  0.00000000000E+00  0.00000000000E+00 -0.30017602337E+04  0.30017602337E+04  0.25500000920E-02 0. -1.
    10030    2    1    2    0    0  0.00000000000E+00  0.00000000000E+00 -0.17331638298E+04  0.42703566376E+04  0.39028308894E+04 0.  0.
        1    1    3    3  502    0 -0.83218352635E+03  0.17331137662E+04 -0.50071448822E+03  0.19866876319E+04  0.50400001928E-02 0.  1.
       -1    1    3    3    0  502  0.83218352635E+03 -0.17331137662E+04 -0.12324493415E+04  0.22836690057E+04  0.50400001928E-02 0. -1.
</event>
<event>
 5   0  0.8342802E-08  0.3894439E+04  0.7818609E-02  0.8026187E-01
        2   -1    0    0  501    0  0.00000000000E+00  0.00000000000E+00  0.22155703200E+04  0.22155703200E+04  0.25500000920E-02 0.  1.
       -2   -1    0    0    0  501  0.00000000000E+00  0.00000000000E+00 -0.17113713754E+04  0.17113713754E+04  0.25500000920E-02 0. -1.
    10030    2    1    2    0    0  0.00000000000E+00  0.00000000000E+00  0.50419894460E+03  0.39269416955E+04  0.38944389203E+04 0.  0.
        4    1    3    3  502    0  0.19093007634E+04  0.32142175430E+03  0.43197389003E+02  0.19366489038E+04  0.12699999809E+01 0. -1.
       -4    1    3    3    0  502 -0.19093007634E+04 -0.32142175430E+03  0.46100155560E+03  0.19902927916E+04  0.12699999809E+01 0.  1.
</event>
<event>
 5   0  0.2632875E-08  0.3901614E+04  0.7818609E-02  0.8024694E-01
        1   -1    0    0  501    0  0.00000000000E+00  0.00000000000E+00  0.20618569715E+04  0.20618569715E+04  0.50400001928E-02 0.  1.
       -1   -1    0    0    0  501  0.00000000000E+00  0.00000000000E+00 -0.18457376528E+04  0.18457376528E+04  0.50400001928E-02 0. -1.
    10030    2    1    2    0    0  0.00000000000E+00  0.00000000000E+00  0.21611931866E+03  0.39075946244E+04  0.39016135365E+04 0.  0.
        5    1    3    3  502    0  0.54383850659E+03  0.53243765103E+03 -0.16909051233E+04  0.18543010541E+04  0.46999998093E+01 0. -1.
       -5    1    3    3    0  502 -0.54383850659E+03 -0.53243765103E+03  0.19070244419E+04  0.20532935702E+04  0.46999998093E+01 0.  1.
</event>
<event>
 5   0  0.8551754E-08  0.3889534E+04  0.7818609E-02  0.8027209E-01
        2   -1    0    0  501    0  0.00000000000E+00  0.00000000000E+00  0.16304524711E+04  0.16304524711E+04  0.25500000920E-02 0.  1.
       -2   -1    0    0    0  501  0.00000000000E+00  0.00000000000E+00 -0.23196746424E+04  0.23196746424E+04  0.25500000920E-02 0. -1.
    10030    2    1    2    0    0  0.00000000000E+00  0.00000000000E+00 -0.68922217123E+03  0.39501271135E+04  0.38895342924E+04 0.  0.
        1    1    3    3  502    0  0.15912931435E+04 -0.60937875644E+03 -0.12965298772E+04  0.21411553096E+04  0.50400001928E-02 0. -1.
       -1    1    3    3    0  502 -0.15912931435E+04  0.60937875644E+03  0.60730770600E+03  0.18089718039E+04  0.50400001928E-02 0.  1.
</event>
<event>
 5   0  0.2632875E-08  0.3901002E+04  0.7818609E-02  0.8024821E-01
        1   -1    0    0  501    0  0.00000000000E+00  0.00000000000E+00  0.23945538988E+04  0.23945538988E+04  0.50400001928E-02 0.  1.
       -1   -1    0    0    0  501  0.00000000000E+00  0.00000000000E+00 -0.15887946647E+04  0.15887946647E+04  0.50400001928E-02 0. -1.
    10030    2    1    2    0    0  0.00000000000E+00  0.00000000000E+00  0.80575923412E+03  0.39833485636E+04  0.39010021579E+04 0.  0.
        3    1    3    3  502    0  0.47205957579E+03 -0.35854435334E+03  0.23003464462E+04  0.23754974383E+04  0.10100000352E+00 0.  1.
       -3    1    3    3    0  502 -0.47205957579E+03  0.35854435334E+03 -0.14945872121E+04  0.16078511253E+04  0.10100000352E+00 0. -1.
</event>
<event>
 5   0  0.2632875E-08  0.3912258E+04  0.7818609E-02  0.8022485E-01
       -1   -1    0    0    0  501  0.00000000000E+00  0.00000000000E+00  0.15622836534E+04  0.15622836534E+04  0.50400001928E-02 0.  1.
        1   -1    0    0  501    0  0.00000000000E+00  0.00000000000E+00 -0.24492607307E+04  0.24492607307E+04  0.50400001928E-02 0. -1.
    10030    2    1    2    0    0  0.00000000000E+00  0.00000000000E+00 -0.88697707721E+03  0.40115443841E+04  0.39122576615E+04 0.  0.
        5    1    3    3  502    0  0.11667558193E+04  0.13700504271E+04 -0.12298010618E+04  0.21796307156E+04  0.46999998093E+01 0. -1.
       -5    1    3    3    0  502 -0.11667558193E+04 -0.13700504271E+04  0.34282398460E+03  0.18319136685E+04  0.46999998093E+01 0.  1.
</event>
<event>
 5   0  0.2632875E-08  0.3903897E+04  0.7818609E-02  0.8024219E-01
       -1   -1    0    0    0  501  0.00000000000E+00  0.00000000000E+00  0.17790803712E+04  0.17790803712E+04  0.50400001928E-02 0.  1.
        1   -1    0    0  501    0  0.00000000000E+00  0.00000000000E+00 -0.21416141733E+04  0.21416141733E+04  0.50400001928E-02 0. -1.
    10030    2    1    2    0    0  0.00000000000E+00  0.00000000000E+00 -0.36253380206E+03  0.39206945445E+04  0.39038974056E+04 0.  0.
        2    1    3    3  502    0  0.12761129866E+04  0.13484527626E+04 -0.78661613392E+03  0.20163219360E+04  0.25500000920E-02 0. -1.
       -2    1    3    3    0  502 -0.12761129866E+04 -0.13484527626E+04  0.42408233186E+03  0.19043726084E+04  0.25500000920E-02 0.  1.
</event>
<event>
 5   0  0.8438211E-08  0.3911269E+04  0.7818609E-02  0.8022690E-01
       -2   -1    0    0    0  501  0.00000000000E+00  0.00000000000E+00  0.20101838075E+04  0.20101838075E+04  0.25500000920E-02 0. -1.
        2   -1    0    0  501    0  0.00000000000E+00  0.00000000000E+00 -0.19025651271E+04  0.19025651271E+04  0.25500000920E-02 0.  1.
    10030    2    1    2    0    0  0.00000000000E+00  0.00000000000E+00  0.10761868036E+03  0.39127489346E+04  0.39112686490E+04 0.  0.
        5    1    3    3  502    0  0.17428897804E+04  0.88492269163E+03  0.11491080156E+03  0.19580550399E+04  0.46999998093E+01 0. -1.
       -5    1    3    3    0  502 -0.17428897804E+04 -0.88492269163E+03 -0.72921211981E+01  0.19546938947E+04  0.46999998093E+01 0.  1.
</event>
<event>
 5   0  0.8342802E-08  0.3904065E+04  0.7818609E-02  0.8024184E-01
       -2   -1    0    0    0  501  0.00000000000E+00  0.00000000000E+00  0.19270351895E+04  0.19270351895E+04  0.25500000920E-02 0.  1.
        2   -1    0    0  501    0  0.00000000000E+00  0.00000000000E+00 -0.19773537164E+04  0.19773537164E+04  0.25500000920E-02 0. -1.
    10030    2    1    2    0    0  0.00000000000E+00  0.00000000000E+00 -0.50318526897E+02  0.39043889059E+04  0.39040646478E+04 0.  0.
        4    1    3    3  502    0 -0.13838141924E+04 -0.70984404826E+03  0.11546031968E+04  0.19369900482E+04  0.12699999809E+01 0.  1.
       -4    1    3    3    0  502  0.13838141924E+04  0.70984404826E+03 -0.12049217237E+04  0.19673988577E+04  0.12699999809E+01 0. -1.
</event>
<event>
 5   0  0.2632875E-08  0.3896499E+04  0.7818609E-02  0.8025758E-01
       -1   -1    0    0    0  501  0.00000000000E+00  0.00000000000E+00  0.18925699221E+04  0.18925699221E+04  0.50400001928E-02 0.  1.
        1   -1    0    0  501    0  0.00000000000E+00  0.00000000000E+00 -0.20055671280E+04  0.20055671280E+04  0.50400001928E-02 0. -1.
    10030    2    1    2    0    0  0.00000000000E+00  0.00000000000E+00 -0.11299720587E+03  0.38981370501E+04  0.38964989533E+04 0.  0.
        1    1    3    3  502    0 -0.29335979662E+02  0.16027137619E+04  0.10512717561E+04  0.19169570437E+04  0.50400001928E-02 0.  1.
       -1    1    3    3    0  502  0.29335979662E+02 -0.16027137619E+04 -0.11642689619E+04  0.19811800064E+04  0.50400001928E-02 0. -1.
</event>
<event>
 5   0  0.8438211E-08  0.3933763E+04  0.7818609E-02  0.8018043E-01
        2   -1    0    0  501    0  0.00000000000E+00  0.00000000000E+00  0.19013071896E+04  0.19013071896E+04  0.25500000920E-02 0.  1.
       -2   -1    0    0    0  501  0.00000000000E+00  0.00000000000E+00 -0.20347177898E+04  0.20347177898E+04  0.25500000920E-02 0. -1.
    10030    2    1    2    0    0  0.00000000000E+00  0.00000000000E+00 -0.13341060024E+03  0.39360249794E+04  0.39337633699E+04 0.  0.
        5    1    3    3  502    0  0.93012873066E+01 -0.14069346575E+04  0.13085119800E+04  0.19213998377E+04  0.46999998093E+01 0.  1.
       -5    1    3    3    0  502 -0.93012873066E+01  0.14069346575E+04 -0.14419225802E+04  0.20146251417E+04  0.46999998093E+01 0. -1.
</event>
<event>
 5   0  0.2632875E-08  0.3897897E+04  0.7818609E-02  0.8025467E-01
        1   -1    0    0  501    0  0.00000000000E+00  0.00000000000E+00  0.11960527908E+04  0.11960527908E+04  0.50400001928E-02 0. -1.
       -1   -1    0    0    0  501  0.00000000000E+00  0.00000000000E+00 -0.31757802591E+04  0.31757802591E+04  0.50400001928E-02 0.  1.
    10030    2    1    2    0    0  0.00000000000E+00  0.00000000000E+00 -0.19797274684E+04  0.43718330499E+04  0.38978973008E+04 0.  0.
        5    1    3    3  502    0 -0.17617110581E+04 -0.54102940994E+03 -0.27870286771E+03  0.18638766196E+04  0.46999998093E+01 0.  1.
       -5    1    3    3    0  502  0.17617110581E+04  0.54102940994E+03 -0.17010246006E+04  0.25079564304E+04  0.46999998093E+01 0. -1.
</event>
<event>
 5   0  0.8676098E-08  0.3904272E+04  0.7818609E-02  0.8024141E-01
       -2   -1    0    0    0  501  0.00000000000E+00  0.00000000000E+00  0.23790873115E+04  0.23790873115E+04  0.25500000920E-02 0.  1.
        2   -1    0    0  501    0  0.00000000000E+00  0.00000000000E+00 -0.16018051104E+04  0.16018051104E+04  0.25500000920E-02 0. -1.
    10030    2    1    2    0    0  0.00000000000E+00  0.00000000000E+00  0.77728220116E+03  0.39808924219E+04  0.39042716164E+04 0.  0.
        3    1    3    3  502    0  0.14480365348E+03 -0.16961149306E+04 -0.58565314064E+03  0.18002120895E+04  0.10100000352E+00 0. -1.
       -3    1    3    3    0  502 -0.14480365348E+03  0.16961149306E+04  0.13629353418E+04  0.21806803324E+04  0.10100000352E+00 0.  1.
</event>
<event>
 5   0  0.8438211E-08  0.3920125E+04  0.7818609E-02  0.8020857E-01
        2   -1    0    0  501    0  0.00000000000E+00  0.00000000000E+00  0.21928536470E+04  0.21928536470E+04  0.25500000920E-02 0. -1.
       -2   -1    0    0    0  501  0.00000000000E+00  0.00000000000E+00 -0.17519837931E+04  0.17519837931E+04  0.25500000920E-02 0.  1.
    10030    2    1    2    0    0  0.00000000000E+00  0.00000000000E+00  0.44086985387E+03  0.39448374401E+04  0.39201245134E+04 0.  0.
        5    1    3    3  502    0  0.28598501719E+02  0.81667572306E+03 -0.15723813205E+04  0.17720559297E+04  0.46999998093E+01 0.  1.
       -5    1    3    3    0  502 -0.28598501719E+02 -0.81667572306E+03  0.20132511743E+04  0.21727815104E+04  0.46999998093E+01 0. -1.
</event>
<event>
 5   0  0.2632875E-08  0.3886131E+04  0.7818609E-02  0.8027920E-01
        1   -1    0    0  501    0  0.00000000000E+00  0.00000000000E+00  0.19348128118E+04  0.19348128118E+04  0.50400001928E-02 0. -1.
       -1   -1    0    0    0  501  0.00000000000E+00  0.00000000000E+00 -0.19513536790E+04  0.19513536791E+04  0.50400001928E-02 0.  1.
    10030    2    1    2    0    0  0.00000000000E+00  0.00000000000E+00 -0.16540867250E+02  0.38861664909E+04  0.38861312889E+04 0.  0.
        4    1    3    3  502    0  0.68870203615E+03  0.45059935036E+03  0.17519023832E+04  0.19355913418E+04  0.12699999809E+01 0. -1.
       -4    1    3    3    0  502 -0.68870203615E+03 -0.45059935036E+03 -0.17684432505E+04  0.19505751491E+04  0.12699999809E+01 0.  1.
</event>
<event>
 5   0  0.8676098E-08  0.3898969E+04  0.7818609E-02  0.8025244E-01
       -2   -1    0    0    0  501  0.00000000000E+00  0.00000000000E+00  0.18210999166E+04  0.18210999166E+04  0.25500000920E-02 0. -1.
        2   -1    0    0  501    0  0.00000000000E+00  0.00000000000E+00 -0.20869200461E+04  0.20869200461E+04  0.25500000920E-02 0.  1.
    10030    2    1    2    0    0  0.00000000000E+00  0.00000000000E+00 -0.26582012947E+03  0.39080199627E+04  0.38989690545E+04 0.  0.
        3    1    3    3  502    0  0.64732515428E+03 -0.30455374159E+03  0.16847789457E+04  0.18303723509E+04  0.10100000352E+00 0. -1.
       -3    1    3    3    0  502 -0.64732515428E+03  0.30455374159E+03 -0.19505990751E+04  0.20776476118E+04  0.10100000352E+00 0.  1.
</event>
<event>
 5   0  0.8476262E-08  0.3860275E+04  0.7818609E-02  0.8033342E-01
       -2   -1    0    0    0  501  0.00000000000E+00  0.00000000000E+00  0.18841518893E+04  0.18841518893E+04  0.25500000920E-02 0. -1.
        2   -1    0    0  501    0  0.00000000000E+00  0.00000000000E+00 -0.19772453873E+04  0.19772453873E+04  0.25500000920E-02 0.  1.
    10030    2    1    2    0    0  0.00000000000E+00  0.00000000000E+00 -0.93093497967E+02  0.38613972766E+04  0.38602749292E+04 0.  0.
        2    1    3    3  502    0 -0.16795130723E+04 -0.18355339079E+03 -0.98007830052E+03  0.19532049259E+04  0.25500000920E-02 0.  1.
       -2    1    3    3    0  502  0.16795130723E+04  0.18355339079E+03  0.88698480255E+03  0.19081923507E+04  0.25500000920E-02 0. -1.
</event>
<event>
 5   0  0.8342802E-08  0.3909182E+04  0.7818609E-02  0.8023122E-01
        2   -1    0    0  501    0  0.00000000000E+00  0.00000000000E+00  0.18005735425E+04  0.18005735425E+04  0.25500000920E-02 0. -1.
       -2   -1    0    0    0  501  0.00000000000E+00  0.00000000000E+00 -0.21217822682E+04  0.21217822682E+04  0.25500000920E-02 0.  1.
    10030    2    1    2    0    0  0.00000000000E+00  0.00000000000E+00 -0.32120872563E+03  0.39223558107E+04  0.39091815077E+04 0.  0.
        4    1    3    3  502    0 -0.15623545338E+04  0.89364991768E+03  0.60410685634E+03  0.18985543373E+04  0.12699999809E+01 0. -1.
       -4    1    3    3    0  502  0.15623545338E+04 -0.89364991768E+03 -0.92531558197E+03  0.20238014734E+04  0.12699999809E+01 0.  1.
</event>
<event>
 5   0  0.8438211E-08  0.3905717E+04  0.7818609E-02  0.8023841E-01
       -2   -1    0    0    0  501  0.00000000000E+00  0.00000000000E+00  0.25136831058E+04  0.25136831058E+04  0.25500000920E-02 0.  1.
        2   -1    0    0  501    0  0.00000000000E+00  0.00000000000E+00 -0.15171584660E+04  0.15171584660E+04  0.25500000920E-02 0. -1.
    10030    2    1    2    0    0  0.00000000000E+00  0.00000000000E+00  0.99652463981E+03  0.40308415718E+04  0.39057166333E+04 0.  0.
        5    1    3    3  502    0 -0.13984892373E+04 -0.89473504250E+02  0.19019288439E+04  0.23624421839E+04  0.46999998093E+01 0. -1.
       -5    1    3    3    0  502  0.13984892373E+04  0.89473504250E+02 -0.90540420412E+03  0.16683993879E+04  0.46999998093E+01 0.  1.
</event>
<event>
 5   0  0.8551754E-08  0.3890253E+04  0.7818609E-02  0.8027060E-01
       -2   -1    0    0    0  501  0.00000000000E+00  0.00000000000E+00  0.26382469771E+04  0.26382469771E+04  0.25500000920E-02 0. -1.
        2   -1    0    0  501    0  0.00000000000E+00  0.00000000000E+00 -0.14341024005E+04  0.14341024005E+04  0.25500000920E-02 0.  1.
    10030    2    1    2    0    0  0.00000000000E+00  0.00000000000E+00  0.12041445766E+04  0.40723493776E+04  0.38902526000E+04 0.  0.
        1    1    3    3  502    0 -0.89164475840E+03 -0.51149353090E+03  0.23306888689E+04  0.25473057553E+04  0.50400001928E-02 0. -1.
       -1    1    3    3    0  502  0.89164475840E+03  0.51149353090E+03 -0.11265442923E+04  0.15250436223E+04  0.50400001928E-02 0.  1.
</event>
<event>
 5   0  0.8551754E-08  0.3901050E+04  0.7818609E-02  0.8024811E-01
       -2   -1    0    0    0  501  0.00000000000E+00  0.00000000000E+00  0.19742819892E+04  0.19742819892E+04  0.25500000920E-02 0.  1.
        2   -1    0    0  501    0  0.00000000000E+00  0.00000000000E+00 -0.19270541949E+04  0.19270541949E+04  0.25500000920E-02 0. -1.
    10030    2    1    2    0    0  0.00000000000E+00  0.00000000000E+00  0.47227794299E+02  0.39013361840E+04  0.39010503145E+04 0.  0.
        1    1    3    3  502    0 -0.29206148954E+03  0.90633653208E+03  0.17260319669E+04  0.19712767878E+04  0.50400001928E-02 0.  1.
       -1    1    3    3    0  502  0.29206148954E+03 -0.90633653208E+03 -0.16788041726E+04  0.19300593963E+04  0.50400001928E-02 0. -1.
</event>
<event>
 5   0  0.2632875E-08  0.3900134E+04  0.7818609E-02  0.8025001E-01
        1   -1    0    0  501    0  0.00000000000E+00  0.00000000000E+00  0.17979270807E+04  0.17979270807E+04  0.50400001928E-02 0. -1.
       -1   -1    0    0    0  501  0.00000000000E+00  0.00000000000E+00 -0.21150814745E+04  0.21150814745E+04  0.50400001928E-02 0.  1.
    10030    2    1    2    0    0  0.00000000000E+00  0.00000000000E+00 -0.31715439376E+03  0.39130085552E+04  0.39001344905E+04 0.  0.
        1    1    3    3  502    0 -0.10738596901E+04 -0.62381585404E+03  0.13498621117E+04  0.18342433248E+04  0.50400001928E-02 0. -1.
       -1    1    3    3    0  502  0.10738596901E+04  0.62381585404E+03 -0.16670165055E+04  0.20787652305E+04  0.50400001928E-02 0.  1.
</event>
<event>
 5   0  0.2632875E-08  0.3907793E+04  0.7818609E-02  0.8023410E-01
        1   -1    0    0  501    0  0.00000000000E+00  0.00000000000E+00  0.27344440308E+04  0.27344440308E+04  0.50400001928E-02 0.  1.
       -1   -1    0    0    0  501  0.00000000000E+00  0.00000000000E+00 -0.13961562633E+04  0.13961562633E+04  0.50400001928E-02 0. -1.
    10030    2    1    2    0    0  0.00000000000E+00  0.00000000000E+00  0.13382877675E+04  0.41306002941E+04  0.39077928094E+04 0.  0.
        2    1    3    3  502    0  0.84859500951E+03  0.16472754164E+04  0.13242222612E+04  0.22775413025E+04  0.25500000920E-02 0.  1.
       -2    1    3    3    0  502 -0.84859500951E+03 -0.16472754164E+04  0.14065506314E+02  0.18530589916E+04  0.25500000920E-02 0. -1.
</event>
<event>
 5   0  0.8551754E-08  0.3916257E+04  0.7818609E-02  0.8021657E-01
       -2   -1    0    0    0  501  0.00000000000E+00  0.00000000000E+00  0.16598174191E+04  0.16598174191E+04  0.25500000920E-02 0. -1.
        2   -1    0    0  501    0  0.00000000000E+00  0.00000000000E+00 -0.23100534642E+04  0.23100534642E+04  0.25500000920E-02 0.  1.
    10030    2    1    2    0    0  0.00000000000E+00  0.00000000000E+00 -0.65023604503E+03  0.39698708833E+04  0.39162568756E+04 0.  0.
        1    1    3    3  502    0 -0.14041402972E+03 -0.44813588456E+03 -0.22521226971E+04  0.23005648249E+04  0.50400001928E-02 0.  1.
       -1    1    3    3    0  502  0.14041402972E+03  0.44813588456E+03  0.16018866520E+04  0.16693060584E+04  0.50400001928E-02 0. -1.
</event>
<event>
 5   0  0.2632875E-08  0.3901046E+04  0.7818609E-02  0.8024812E-01
       -1   -1    0    0    0  501  0.00000000000E+00  0.00000000000E+00  0.13543367625E+04  0.13543367625E+04  0.50400001928E-02 0. -1.
        1   -1    0    0  501    0  0.00000000000E+00  0.00000000000E+00 -0.28091535445E+04  0.28091535445E+04  0.50400001928E-02 0.  1.
    10030    2    1    2    0    0  0.00000000000E+00  0.00000000000E+00 -0.14548167820E+04  0.41634903070E+04  0.39010459710E+04 0.  0.
        5    1    3    3  502    0  0.16380896575E+04  0.82128725038E+03 -0.14407024311E+04  0.23309860700E+04  0.46999998093E+01 0.  1.
       -5    1    3    3    0  502 -0.16380896575E+04 -0.82128725038E+03 -0.14114350841E+02  0.18325042370E+04  0.46999998093E+01 0. -1.
</event>
<event>
 5   0  0.8438211E-08  0.3919224E+04  0.7818609E-02  0.8021043E-01
        2   -1    0    0  501    0  0.00000000000E+00  0.00000000000E+00  0.35326865668E+04  0.35326865668E+04  0.25500000920E-02 0.  1.
       -2   -1    0    0    0  501  0.00000000000E+00  0.00000000000E+00 -0.10870141123E+04  0.10870141123E+04  0.25500000920E-02 0. -1.
    10030    2    1    2    0    0  0.00000000000E+00  0.00000000000E+00  0.24456724545E+04  0.46197006792E+04  0.39192244909E+04 0.  0.
        5    1    3    3  502    0  0.13379947789E+04  0.14221308646E+04  0.10278222776E+04  0.22066098316E+04  0.46999998093E+01 0. -1.
       -5    1    3    3    0  502 -0.13379947789E+04 -0.14221308646E+04  0.14178501770E+04  0.24130908476E+04  0.46999998093E+01 0.  1.
</event>
<event>
 5   0  0.2632875E-08  0.3888869E+04  0.7818609E-02  0.8027348E-01
       -1   -1    0    0    0  501  0.00000000000E+00  0.00000000000E+00  0.17539270791E+04  0.17539270791E+04  0.50400001928E-02 0.  1.
        1   -1    0    0  501    0  0.00000000000E+00  0.00000000000E+00 -0.21556338817E+04  0.21556338817E+04  0.50400001928E-02 0. -1.
    10030    2    1    2    0    0  0.00000000000E+00  0.00000000000E+00 -0.40170680261E+03  0.39095609608E+04  0.38888685438E+04 0.  0.
        3    1    3    3  502    0 -0.63713353422E+03  0.17614542585E+04  0.32361626039E+03  0.19008913013E+04  0.10100000352E+00 0.  1.
       -3    1    3    3    0  502  0.63713353422E+03 -0.17614542585E+04 -0.72532306300E+03  0.20086696595E+04  0.10100000352E+00 0. -1.
</event>
<event>
 5   0  0.8476262E-08  0.3896631E+04  0.7818609E-02  0.8025730E-01
        2   -1    0    0  501    0  0.00000000000E+00  0.00000000000E+00  0.26260217983E+04  0.26260217983E+04  0.25500000920E-02 0. -1.
       -2   -1    0    0    0  501  0.00000000000E+00  0.00000000000E+00 -0.14455068048E+04  0.14455068048E+04  0.25500000920E-02 0.  1.
    10030    2    1    2    0    0  0.00000000000E+00  0.00000000000E+00  0.11805149935E+04  0.40715286031E+04  0.38966305336E+04 0.  0.
        2    1    3    3  502    0 -0.16887942569E+04 -0.72996386655E+03  0.12601735565E+04  0.22300023949E+04  0.25500000920E-02 0. -1.
       -2    1    3    3    0  502  0.16887942569E+04  0.72996386655E+03 -0.79658563005E+02  0.18415262082E+04  0.25500000920E-02 0.  1.
</event>
<event>
 5   0  0.2632875E-08  0.3832844E+04  0.7818609E-02  0.8039143E-01
       -1   -1    0    0    0  501  0.00000000000E+00  0.00000000000E+00  0.27194533978E+04  0.27194533978E+04  0.50400001928E-02 0. -1.
        1   -1    0    0  501    0  0.00000000000E+00  0.00000000000E+00 -0.13505192527E+04  0.13505192527E+04  0.50400001928E-02 0.  1.
    10030    2    1    2    0    0  0.00000000000E+00  0.00000000000E+00  0.13689341451E+04  0.40699726504E+04  0.38328444635E+04 0.  0.
        4    1    3    3  502    0  0.16461042653E+04 -0.12778604777E+03 -0.34870538608E+03  0.16874790622E+04  0.12699999809E+01 0. -1.
       -4    1    3    3    0  502 -0.16461042653E+04  0.12778604777E+03  0.17176395312E+04  0.23824935883E+04  0.12699999809E+01 0.  1.
</event>
<event>
 5   0  0.2632875E-08  0.3898966E+04  0.7818609E-02  0.8025244E-01
       -1   -1    0    0    0  501  0.00000000000E+00  0.00000000000E+00  0.18981810600E+04  0.18981810600E+04  0.50400001928E-02 0. -1.
        1   -1    0    0  501    0  0.00000000000E+00  0.00000000000E+00 -0.20021715038E+04  0.20021715038E+04  0.50400001928E-02 0.  1.
    10030    2    1    2    0    0  0.00000000000E+00  0.00000000000E+00 -0.10399044386E+03  0.39003525638E+04  0.38989660308E+04 0.  0.
        5    1    3    3  502    0 -0.11653525156E+04  0.54666336351E+03 -0.15166110306E+04  0.19892255846E+04  0.46999998093E+01 0.  1.
       -5    1    3    3    0  502  0.11653525156E+04 -0.54666336351E+03  0.14126205867E+04  0.19111269792E+04  0.46999998093E+01 0. -1.
</event>
<event>
 5   0  0.2632875E-08  0.3954677E+04  0.7818609E-02  0.8013753E-01
        1   -1    0    0  501    0  0.00000000000E+00  0.00000000000E+00  0.13577106525E+04  0.13577106525E+04  0.50400001928E-02 0.  1.
       -1   -1    0    0    0  501  0.00000000000E+00  0.00000000000E+00 -0.28797503687E+04  0.28797503688E+04  0.50400001928E-02 0. -1.
    10030    2    1    2    0    0  0.00000000000E+00  0.00000000000E+00 -0.15220397162E+04  0.42374610213E+04  0.39546771055E+04 0.  0.
        3    1    3    3  502    0  0.41889517299E+03 -0.13726418870E+04 -0.22185238582E+04  0.26422465887E+04  0.10100000352E+00 0. -1.
       -3    1    3    3    0  502 -0.41889517299E+03  0.13726418870E+04  0.69648414192E+03  0.15952144326E+04  0.10100000352E+00 0.  1.
</event>
<event>
 5   0  0.2632875E-08  0.3866781E+04  0.7818609E-02  0.8031974E-01
       -1   -1    0    0    0  501  0.00000000000E+00  0.00000000000E+00  0.15857619379E+04  0.15857619379E+04  0.50400001928E-02 0. -1.
        1   -1    0    0  501    0  0.00000000000E+00  0.00000000000E+00 -0.23572254448E+04  0.23572254448E+04  0.50400001928E-02 0.  1.
    10030    2    1    2    0    0  0.00000000000E+00  0.00000000000E+00 -0.77146350690E+03  0.39429873827E+04  0.38667807745E+04 0.  0.
        2    1    3    3  502    0  0.13869233815E+04  0.24836876199E+03  0.96427651788E+03  0.17073584015E+04  0.25500000920E-02 0. -1.
       -2    1    3    3    0  502 -0.13869233815E+04 -0.24836876199E+03 -0.17357400248E+04  0.22356289812E+04  0.25500000920E-02 0.  1.
</event>
<event>
 5   0  0.8676098E-08  0.3904208E+04  0.7818609E-02  0.8024155E-01
       -2   -1    0    0    0  501  0.00000000000E+00  0.00000000000E+00  0.21869366009E+04  0.21869366009E+04  0.25500000920E-02 0. -1.
        2   -1    0    0  501    0  0.00000000000E+00  0.00000000000E+00 -0.17424874240E+04  0.17424874240E+04  0.25500000920E-02 0.  1.
    10030    2    1    2    0    0  0.00000000000E+00  0.00000000000E+00  0.44444917693E+03  0.39294240248E+04  0.39042077424E+04 0.  0.
        3    1    3    3  502    0 -0.15743327077E+04 -0.97534253224E+03 -0.39892680575E+03  0.18944548388E+04  0.10100000352E+00 0.  1.
       -3    1    3    3    0  502  0.15743327077E+04  0.97534253224E+03  0.84337598268E+03  0.20349691860E+04  0.10100000352E+00 0. -1.
</event>
<event>
 5   0  0.8551754E-08  0.3895398E+04  0.7818609E-02  0.8025987E-01
       -2   -1    0    0    0  501  0.00000000000E+00  0.00000000000E+00  0.24899787157E+04  0.24899787157E+04  0.25500000920E-02 0.  1.
        2   -1    0    0  501    0  0.00000000000E+00  0.00000000000E+00 -0.15235196808E+04  0.15235196808E+04  0.25500000920E-02 0. -1.
    10030    2    1    2    0    0  0.00000000000E+00  0.00000000000E+00  0.96645903496E+03  0.40134983965E+04  0.38953980942E+04 0.  0.
        1    1    3    3  502    0 -0.76273067581E+03 -0.14284053194E+04  0.15983704041E+04  0.22752775191E+04  0.50400001928E-02 0.  1.
       -1    1    3    3    0  502  0.76273067581E+03  0.14284053194E+04 -0.63191136911E+03  0.17382208774E+04  0.50400001928E-02 0. -1.
</event>
<event>
 5   0  0.2632875E-08  0.3902146E+04  0.7818609E-02  0.8024583E-01
        1   -1    0    0  501    0  0.00000000000E+00  0.00000000000E+00  0.16749060604E+04  0.16749060604E+04  0.50400001928E-02 0.  1.
       -1   -1    0    0    0  501  0.00000000000E+00  0.00000000000E+00 -0.22727755613E+04  0.22727755613E+04  0.50400001928E-02 0. -1.
    10030    2    1    2    0    0  0.00000000000E+00  0.00000000000E+00 -0.59786950092E+03  0.39476816217E+04  0.39021458515E+04 0.  0.
        2    1    3    3  502    0  0.59065889341E+03 -0.11990372001E+04 -0.17368289415E+04  0.21916073799E+04  0.25500000920E-02 0. -1.
       -2    1    3    3    0  502 -0.59065889341E+03  0.11990372001E+04  0.11389594405E+04  0.17560742418E+04  0.25500000920E-02 0.  1.
</event>
<event>
 5   0  0.2632875E-08  0.3895397E+04  0.7818609E-02  0.8025987E-01
       -1   -1    0    0    0  501  0.00000000000E+00  0.00000000000E+00  0.22086169721E+04  0.22086169721E+04  0.50400001928E-02 0.  1.
        1   -1    0    0  501    0  0.00000000000E+00  0.00000000000E+00 -0.17176044373E+04  0.17176044373E+04  0.50400001928E-02 0. -1.
    10030    2    1    2    0    0  0.00000000000E+00  0.00000000000E+00  0.49101253487E+03  0.39262214094E+04  0.38953974439E+04 0.  0.
        4    1    3    3  502    0 -0.12235904389E+04 -0.13808745726E+04 -0.38356427551E+03  0.18844392571E+04  0.12699999809E+01 0. -1.
       -4    1    3    3    0  502  0.12235904389E+04  0.13808745726E+04  0.87457681038E+03  0.20417821523E+04  0.12699999809E+01 0.  1.
</event>
<event>
 5   0  0.2632875E-08  0.3906414E+04  0.7818609E-02  0.8023697E-01
       -1   -1    0    0    0  501  0.00000000000E+00  0.00000000000E+00  0.19286315930E+04  0.19286315930E+04  0.50400001928E-02 0.  1.
        1   -1    0    0  501    0  0.00000000000E+00  0.00000000000E+00 -0.19780954426E+04  0.19780954426E+04  0.50400001928E-02 0. -1.
    10030    2    1    2    0    0  0.00000000000E+00  0.00000000000E+00 -0.49463849653E+02  0.39067270356E+04  0.39064138872E+04 0.  0.
        3    1    3    3  502    0 -0.14438158806E+04 -0.12808970620E+04 -0.32428185071E+03  0.19571561791E+04  0.10100000352E+00 0.  1.
       -3    1    3    3    0  502  0.14438158806E+04  0.12808970620E+04  0.27481800106E+03  0.19495708565E+04  0.10100000352E+00 0. -1.
</event>
<event>
 5   0  0.2632875E-08  0.3888829E+04  0.7818609E-02  0.8027357E-01
        1   -1    0    0  501    0  0.00000000000E+00  0.00000000000E+00  0.22179387903E+04  0.22179387903E+04  0.50400001928E-02 0.  1.
       -1   -1    0    0    0  501  0.00000000000E+00  0.00000000000E+00 -0.17046218277E+04  0.17046218277E+04  0.50400001928E-02 0. -1.
    10030    2    1    2    0    0  0.00000000000E+00  0.00000000000E+00  0.51331696258E+03  0.39225606180E+04  0.38888285509E+04 0.  0.
        4    1    3    3  502    0  0.19259494052E+04 -0.18789357914E+03  0.44846616415E+03  0.19863807846E+04  0.12699999809E+01 0.  1.
       -4    1    3    3    0  502 -0.19259494052E+04  0.18789357914E+03  0.64850798438E+02  0.19361798334E+04  0.12699999809E+01 0. -1.
</event>
<event>
 5   0  0.8476262E-08  0.3896463E+04  0.7818609E-02  0.8025765E-01
        2   -1    0    0  501    0  0.00000000000E+00  0.00000000000E+00  0.16008089522E+04  0.16008089522E+04  0.25500000920E-02 0.  1.
       -2   -1    0    0    0  501  0.00000000000E+00  0.00000000000E+00 -0.23710547972E+04  0.23710547972E+04  0.25500000920E-02 0. -1.
    10030    2    1    2    0    0  0.00000000000E+00  0.00000000000E+00 -0.77024584506E+03  0.39718637494E+04  0.38964628809E+04 0.  0.
        2    1    3    3  502    0 -0.13280661592E+04 -0.14519450829E+03 -0.18305773763E+04  0.22662424184E+04  0.25500000920E-02 0. -1.
       -2    1    3    3    0  502  0.13280661592E+04  0.14519450829E+03  0.10603315312E+04  0.17056213310E+04  0.25500000920E-02 0.  1.
</event>
<event>
 5   0  0.8551754E-08  0.3877663E+04  0.7818609E-02  0.8029691E-01
        2   -1    0    0  501    0  0.00000000000E+00  0.00000000000E+00  0.14221614226E+04  0.14221614226E+04  0.25500000920E-02 0.  1.
       -2   -1    0    0    0  501  0.00000000000E+00  0.00000000000E+00 -0.26432077740E+04  0.26432077740E+04  0.25500000920E-02 0. -1.
    10030    2    1    2    0    0  0.00000000000E+00  0.00000000000E+00 -0.12210463515E+04  0.40653691966E+04  0.38776632799E+04 0.  0.
        1    1    3    3  502    0 -0.23464448485E+03 -0.18016987207E+04  0.98909744892E+02  0.18196042020E+04  0.50400001928E-02 0.  1.
       -1    1    3    3    0  502  0.23464448485E+03  0.18016987207E+04 -0.13199560963E+04  0.22457649946E+04  0.50400001928E-02 0. -1.
</event>
<event>
 5   0  0.2632875E-08  0.3898180E+04  0.7818609E-02  0.8025408E-01
       -1   -1    0    0    0  501  0.00000000000E+00  0.00000000000E+00  0.13284020734E+04  0.13284020734E+04  0.50400001928E-02 0. -1.
        1   -1    0    0  501    0  0.00000000000E+00  0.00000000000E+00 -0.28597911136E+04  0.28597911136E+04  0.50400001928E-02 0.  1.
    10030    2    1    2    0    0  0.00000000000E+00  0.00000000000E+00 -0.15313890402E+04  0.41881931869E+04  0.38981803163E+04 0.  0.
        1    1    3    3  502    0 -0.92320968436E+03  0.72899530884E+02  0.10769266906E+04  0.14203526181E+04  0.50400001928E-02 0. -1.
       -1    1    3    3    0  502  0.92320968436E+03 -0.72899530884E+02 -0.26083157308E+04  0.27678405688E+04  0.50400001928E-02 0.  1.
</event>
<event>
 5   0  0.8476262E-08  0.3892927E+04  0.7818609E-02  0.8026502E-01
       -2   -1    0    0    0  501  0.00000000000E+00  0.00000000000E+00  0.16157131052E+04  0.16157131052E+04  0.25500000920E-02 0. -1.
        2   -1    0    0  501    0  0.00000000000E+00  0.00000000000E+00 -0.23449217494E+04  0.23449217494E+04  0.25500000920E-02 0.  1.
    10030    2    1    2    0    0  0.00000000000E+00  0.00000000000E+00 -0.72920864414E+03  0.39606348546E+04  0.38929273310E+04 0.  0.
        2    1    3    3  502    0 -0.18209913038E+04  0.65905481347E+03 -0.16534540640E+03  0.19436310553E+04  0.25500000920E-02 0.  1.
       -2    1    3    3    0  502  0.18209913038E+04 -0.65905481347E+03 -0.56386323774E+03  0.20170037993E+04  0.25500000920E-02 0. -1.
</event>
<event>
 5   0  0.2632875E-08  0.3900211E+04  0.7818609E-02  0.8024985E-01
        1   -1    0    0  501    0  0.00000000000E+00  0.00000000000E+00  0.15780204882E+04  0.15780204882E+04  0.50400001928E-02 0.  1.
       -1   -1    0    0    0  501  0.00000000000E+00  0.00000000000E+00 -0.24099251537E+04  0.24099251537E+04  0.50400001928E-02 0. -1.
    10030    2    1    2    0    0  0.00000000000E+00  0.00000000000E+00 -0.83190466549E+03  0.39879456420E+04  0.39002109008E+04 0.  0.
        3    1    3    3  502    0  0.81569811904E+03 -0.79726286820E+03 -0.20332792938E+04  0.23313550135E+04  0.10100000352E+00 0. -1.
       -3    1    3    3    0  502 -0.81569811904E+03  0.79726286820E+03  0.12013746283E+04  0.16565906284E+04  0.10100000352E+00 0.  1.
</event>
<event>
 5   0  0.8551754E-08  0.3918517E+04  0.7818609E-02  0.8021189E-01
        2   -1    0    0  501    0  0.00000000000E+00  0.00000000000E+00  0.25760906167E+04  0.25760906167E+04  0.25500000920E-02 0.  1.
       -2   -1    0    0    0  501  0.00000000000E+00  0.00000000000E+00 -0.14901237468E+04  0.14901237468E+04  0.25500000920E-02 0. -1.
    10030    2    1    2    0    0  0.00000000000E+00  0.00000000000E+00  0.10859668699E+04  0.40662143636E+04  0.39185169654E+04 0.  0.
        1    1    3    3  502    0 -0.89221360993E+03  0.40485438710E+03  0.23036206633E+04  0.25033218653E+04  0.50400001928E-02 0.  1.
       -1    1    3    3    0  502  0.89221360993E+03 -0.40485438710E+03 -0.12176537934E+04  0.15628924983E+04  0.50400001928E-02 0. -1.
</event>
<event>
 5   0  0.2632875E-08  0.3900912E+04  0.7818609E-02  0.8024840E-01
       -1   -1    0    0    0  501  0.00000000000E+00  0.00000000000E+00  0.22913375287E+04  0.22913375287E+04  0.50400001928E-02 0.  1.
        1   -1    0    0  501    0  0.00000000000E+00  0.00000000000E+00 -0.16602872416E+04  0.16602872416E+04  0.50400001928E-02 0. -1.
    10030    2    1    2    0    0  0.00000000000E+00  0.00000000000E+00  0.63105028710E+03  0.39516247704E+04  0.39009119268E+04 0.  0.
        3    1    3    3  502    0 -0.11468200133E+04 -0.12828464426E+04 -0.61477499750E+03  0.18272491472E+04  0.10100000352E+00 0. -1.
       -3    1    3    3    0  502  0.11468200133E+04  0.12828464426E+04  0.12458252846E+04  0.21243756231E+04  0.10100000352E+00 0.  1.
</event>
<event>
 5   0  0.8438211E-08  0.3896891E+04  0.7818609E-02  0.8025676E-01
       -2   -1    0    0    0  501  0.00000000000E+00  0.00000000000E+00  0.31861551703E+04  0.31861551703E+04  0.25500000920E-02 0. -1.
        2   -1    0    0  501    0  0.00000000000E+00  0.00000000000E+00 -0.11915427267E+04  0.11915427267E+04  0.25500000920E-02 0.  1.
    10030    2    1    2    0    0  0.00000000000E+00  0.00000000000E+00  0.19946124435E+04  0.43776978970E+04  0.38968910785E+04 0.  0.
        5    1    3    3  502    0 -0.18962291669E+04  0.44741978331E+03  0.97099860254E+03  0.21768623962E+04  0.46999998093E+01 0. -1.
       -5    1    3    3    0  502  0.18962291669E+04 -0.44741978331E+03  0.10236138410E+04  0.22008355008E+04  0.46999998093E+01 0.  1.
</event>
<event>
 5   0  0.8551754E-08  0.3901963E+04  0.7818609E-02  0.8024621E-01
        2   -1    0    0  501    0  0.00000000000E+00  0.00000000000E+00  0.20116075513E+04  0.20116075514E+04  0.25500000920E-02 0.  1.
       -2   -1    0    0    0  501  0.00000000000E+00  0.00000000000E+00 -0.18921823299E+04  0.18921823299E+04  0.25500000920E-02 0. -1.
    10030    2    1    2    0    0  0.00000000000E+00  0.00000000000E+00  0.11942522143E+03  0.39037898813E+04  0.39019627181E+04 0.  0.
        1    1    3    3  502    0 -0.72025805156E+03 -0.11733002272E+04 -0.13232961548E+04  0.19095857659E+04  0.50400001928E-02 0. -1.
       -1    1    3    3    0  502  0.72025805156E+03  0.11733002272E+04  0.14427213763E+04  0.19942041153E+04  0.50400001928E-02 0.  1.
</event>
<event>
 5   0  0.2632875E-08  0.3973302E+04  0.7818609E-02  0.8009954E-01
        1   -1    0    0  501    0  0.00000000000E+00  0.00000000000E+00  0.20451423022E+04  0.20451423022E+04  0.50400001928E-02 0.  1.
       -1   -1    0    0    0  501  0.00000000000E+00  0.00000000000E+00 -0.19298328659E+04  0.19298328659E+04  0.50400001928E-02 0. -1.
    10030    2    1    2    0    0  0.00000000000E+00  0.00000000000E+00  0.11530943636E+03  0.39749751681E+04  0.39733023194E+04 0.  0.
        2    1    3    3  502    0 -0.17906538531E+04 -0.49970799582E+03 -0.64309256134E+03  0.19671597152E+04  0.25500000920E-02 0. -1.
       -2    1    3    3    0  502  0.17906538531E+04  0.49970799582E+03  0.75840199770E+03  0.20078154529E+04  0.25500000920E-02 0.  1.
</event>
<event>
 5   0  0.8476262E-08  0.3896156E+04  0.7818609E-02  0.8025829E-01
       -2   -1    0    0    0  501  0.00000000000E+00  0.00000000000E+00  0.16696826604E+04  0.16696826604E+04  0.25500000920E-02 0. -1.
        2   -1    0    0  501    0  0.00000000000E+00  0.00000000000E+00 -0.22728912846E+04  0.22728912846E+04  0.25500000920E-02 0.  1.
    10030    2    1    2    0    0  0.00000000000E+00  0.00000000000E+00 -0.60320862416E+03  0.39425739450E+04  0.38961556267E+04 0.  0.
        2    1    3    3  502    0 -0.12310896767E+04  0.12209598260E+04  0.59705410797E+03  0.18337934171E+04  0.25500000920E-02 0. -1.
       -2    1    3    3    0  502  0.12310896767E+04 -0.12209598260E+04 -0.12002627321E+04  0.21087805279E+04  0.25500000920E-02 0.  1.
</event>
<event>
 5   0  0.8551754E-08  0.3879232E+04  0.7818609E-02  0.8029363E-01
       -2   -1    0    0    0  501  0.00000000000E+00  0.00000000000E+00  0.16053247287E+04  0.16053247287E+04  0.25500000920E-02 0.  1.
        2   -1    0    0  501    0  0.00000000000E+00  0.00000000000E+00 -0.23435191901E+04  0.23435191901E+04  0.25500000920E-02 0. -1.
    10030    2    1    2    0    0  0.00000000000E+00  0.00000000000E+00 -0.73819446141E+03  0.39488439187E+04  0.38792315259E+04 0.  0.
        1    1    3    3  502    0 -0.25938453369E+03  0.16420145686E+04 -0.13863380360E+04  0.21645843319E+04  0.50400001928E-02 0. -1.
       -1    1    3    3    0  502  0.25938453369E+03 -0.16420145686E+04  0.64814357460E+03  0.17842595868E+04  0.50400001928E-02 0.  1.
</event>
<event>
 5   0  0.2632875E-08  0.3894983E+04  0.7818609E-02  0.8026074E-01
       -1   -1    0    0    0  501  0.00000000000E+00  0.00000000000E+00  0.18373952918E+04  0.18373952918E+04  0.50400001928E-02 0.  1.
        1   -1    0    0  501    0  0.00000000000E+00  0.00000000000E+00 -0.20641841173E+04  0.20641841173E+04  0.50400001928E-02 0. -1.
    10030    2    1    2    0    0  0.00000000000E+00  0.00000000000E+00 -0.22678882552E+03  0.39015794091E+04  0.38949825050E+04 0.  0.
        2    1    3    3  502    0  0.14921602674E+04 -0.12406013881E+04  0.51469004463E+02  0.19412066161E+04  0.25500000920E-02 0.  1.
       -2    1    3    3    0  502 -0.14921602674E+04  0.12406013881E+04 -0.27825782998E+03  0.19603727930E+04  0.25500000920E-02 0. -1.
</event>
<event>
 5   0  0.2632875E-08  0.3847309E+04  0.7818609E-02  0.8036078E-01
        1   -1    0    0  501    0  0.00000000000E+00  0.00000000000E+00  0.21733374947E+04  0.21733374947E+04  0.50400001928E-02 0. -1.
       -1   -1    0    0    0  501  0.00000000000E+00  0.00000000000E+00 -0.17026560079E+04  0.17026560079E+04  0.50400001928E-02 0.  1.
    10030    2    1    2    0    0  0.00000000000E+00  0.00000000000E+00  0.47068148685E+03  0.38759935026E+04  0.38473087438E+04 0.  0.
        4    1    3    3  502    0 -0.17684344463E+03 -0.18770841259E+04  0.61992782046E+03  0.19846991044E+04  0.12699999809E+01 0.  1.
       -4    1    3    3    0  502  0.17684344463E+03  0.18770841259E+04 -0.14924633361E+03  0.18912943982E+04  0.12699999809E+01 0. -1.
</event>
<event>
 5   0  0.8438211E-08  0.3890613E+04  0.7818609E-02  0.8026984E-01
       -2   -1    0    0    0  501  0.00000000000E+00  0.00000000000E+00  0.11915691976E+04  0.11915691976E+04  0.25500000920E-02 0. -1.
        2   -1    0    0  501    0  0.00000000000E+00  0.00000000000E+00 -0.31758260834E+04  0.31758260834E+04  0.25500000920E-02 0.  1.
    10030    2    1    2    0    0  0.00000000000E+00  0.00000000000E+00 -0.19842568859E+04  0.43673952810E+04  0.38906125677E+04 0.  0.
        5    1    3    3  502    0 -0.90802754898E+03 -0.15564838264E+04 -0.18147635362E+04  0.25574488683E+04  0.46999998093E+01 0.  1.
       -5    1    3    3    0  502  0.90802754898E+03  0.15564838264E+04 -0.16949334962E+03  0.18099464127E+04  0.46999998093E+01 0. -1.
</event>
<event>
 5   0  0.2632875E-08  0.3677613E+04  0.7818609E-02  0.8072941E-01
       -1   -1    0    0    0  501  0.00000000000E+00  0.00000000000E+00  0.17698128332E+04  0.17698128332E+04  0.50400001928E-02 0.  1.
        1   -1    0    0  501    0  0.00000000000E+00  0.00000000000E+00 -0.19104897924E+04  0.19104897924E+04  0.50400001928E-02 0. -1.
    10030    2    1    2    0    0  0.00000000000E+00  0.00000000000E+00 -0.14067695920E+03  0.36803026257E+04  0.36776130044E+04 0.  0.
        5    1    3    3  502    0 -0.92234287753E+03  0.50843685043E+03 -0.15787440159E+04  0.18978090453E+04  0.46999998093E+01 0. -1.
       -5    1    3    3    0  502  0.92234287753E+03 -0.50843685043E+03  0.14380670567E+04  0.17824935804E+04  0.46999998093E+01 0.  1.
</event>
<event>
 5   0  0.2632875E-08  0.3863797E+04  0.7818609E-02  0.8032601E-01
        1   -1    0    0  501    0  0.00000000000E+00  0.00000000000E+00  0.21529195095E+04  0.21529195095E+04  0.50400001928E-02 0. -1.
       -1   -1    0    0    0  501  0.00000000000E+00  0.00000000000E+00 -0.17335675829E+04  0.17335675829E+04  0.50400001928E-02 0.  1.
    10030    2    1    2    0    0  0.00000000000E+00  0.00000000000E+00  0.41935192660E+03  0.38864870924E+04  0.38637968219E+04 0.  0.
        3    1    3    3  502    0  0.17529135382E+04 -0.20687241786E+03 -0.58025706256E+03  0.18580097789E+04  0.10100000352E+00 0.  1.
       -3    1    3    3    0  502 -0.17529135382E+04  0.20687241786E+03  0.99960898916E+03  0.20284773134E+04  0.10100000352E+00 0. -1.
</event>
<event>
 5   0  0.8676098E-08  0.3910720E+04  0.7818609E-02  0.8022803E-01
       -2   -1    0    0    0  501  0.00000000000E+00  0.00000000000E+00  0.17846728804E+04  0.17846728804E+04  0.25500000920E-02 0. -1.
        2   -1    0    0  501    0  0.00000000000E+00  0.00000000000E+00 -0.21423717511E+04  0.21423717511E+04  0.25500000920E-02 0.  1.
    10030    2    1    2    0    0  0.00000000000E+00  0.00000000000E+00 -0.35769887071E+03  0.39270446314E+04  0.39107200175E+04 0.  0.
        3    1    3    3  502    0 -0.10222214851E+03  0.29680910858E+03  0.17592038210E+04  0.17869927556E+04  0.10100000352E+00 0. -1.
       -3    1    3    3    0  502  0.10222214851E+03 -0.29680910858E+03 -0.21169026917E+04  0.21400518758E+04  0.10100000352E+00 0.  1.
</event>
<event>
 5   0  0.8438211E-08  0.3866766E+04  0.7818609E-02  0.8031977E-01
        2   -1    0    0  501    0  0.00000000000E+00  0.00000000000E+00  0.24105150431E+04  0.24105150431E+04  0.25500000920E-02 0. -1.
       -2   -1    0    0    0  501  0.00000000000E+00  0.00000000000E+00 -0.15506937581E+04  0.15506937581E+04  0.25500000920E-02 0.  1.
    10030    2    1    2    0    0  0.00000000000E+00  0.00000000000E+00  0.85982128501E+03  0.39612088011E+04  0.38667664170E+04 0.  0.
        5    1    3    3  502    0 -0.22158908331E+02  0.11425157913E+04  0.20275246783E+04  0.23273830285E+04  0.46999998093E+01 0. -1.
       -5    1    3    3    0  502  0.22158908331E+02 -0.11425157913E+04 -0.11677033933E+04  0.16338257726E+04  0.46999998093E+01 0.  1.
</event>
<event>
 5   0  0.2632875E-08  0.3882983E+04  0.7818609E-02  0.8028578E-01
       -1   -1    0    0    0  501  0.00000000000E+00  0.00000000000E+00  0.29581627259E+04  0.29581627259E+04  0.50400001928E-02 0.  1.
        1   -1    0    0  501    0  0.00000000000E+00  0.00000000000E+00 -0.12742331415E+04  0.12742331415E+04  0.50400001928E-02 0. -1.
    10030    2    1    2    0    0  0.00000000000E+00  0.00000000000E+00  0.16839295844E+04  0.42323958674E+04  0.38829828654E+04 0.  0.
        5    1    3    3  502    0 -0.36368982441E+03  0.98337485511E+03  0.26230396446E+04  0.28248283950E+04  0.46999998093E+01 0.  1.
       -5    1    3    3    0  502  0.36368982441E+03 -0.98337485511E+03 -0.93911006021E+03  0.14075674724E+04  0.46999998093E+01 0. -1.
</event>
<event>
 5   0  0.2632875E-08  0.3899042E+04  0.7818609E-02  0.8025229E-01
       -1   -1    0    0    0  501  0.00000000000E+00  0.00000000000E+00  0.15882391152E+04  0.15882391152E+04  0.50400001928E-02 0. -1.
        1   -1    0    0  501    0  0.00000000000E+00  0.00000000000E+00 -0.23929843315E+04  0.23929843315E+04  0.50400001928E-02 0.  1.
    10030    2    1    2    0    0  0.00000000000E+00  0.00000000000E+00 -0.80474521627E+03  0.39812234467E+04  0.38990415834E+04 0.  0.
        2    1    3    3  502    0 -0.64046933570E+03 -0.53306535628E+03  0.13972374187E+04  0.16268472726E+04  0.25500000920E-02 0. -1.
       -2    1    3    3    0  502  0.64046933570E+03  0.53306535628E+03 -0.22019826350E+04  0.23543761741E+04  0.25500000920E-02 0.  1.
</event>
<event>
 5   0  0.8342802E-08  0.3900904E+04  0.7818609E-02  0.8024841E-01
        2   -1    0    0  501    0  0.00000000000E+00  0.00000000000E+00  0.19916774019E+04  0.19916774019E+04  0.25500000920E-02 0. -1.
       -2   -1    0    0    0  501  0.00000000000E+00  0.00000000000E+00 -0.19100801496E+04  0.19100801496E+04  0.25500000920E-02 0.  1.
    10030    2    1    2    0    0  0.00000000000E+00  0.00000000000E+00  0.81597252285E+02  0.39017575514E+04  0.39009042386E+04 0.  0.
        4    1    3    3  502    0  0.27379267616E+03 -0.83188108539E+03  0.17839573177E+04  0.19873333626E+04  0.12699999809E+01 0. -1.
       -4    1    3    3    0  502 -0.27379267616E+03  0.83188108539E+03 -0.17023600654E+04  0.19144241889E+04  0.12699999809E+01 0.  1.
</event>
<event>
 5   0  0.8438211E-08  0.3887411E+04  0.7818609E-02  0.8027653E-01
       -2   -1    0    0    0  501  0.00000000000E+00  0.00000000000E+00  0.16032838134E+04  0.16032838134E+04  0.25500000920E-02 0.  1.
        2   -1    0    0  501    0  0.00000000000E+00  0.00000000000E+00 -0.23564077390E+04  0.23564077390E+04  0.25500000920E-02 0. -1.
    10030    2    1    2    0    0  0.00000000000E+00  0.00000000000E+00 -0.75312392563E+03  0.39596915523E+04  0.38874106475E+04 0.  0.
        5    1    3    3  502    0  0.83450808867E+03  0.80349709918E+03  0.12132133266E+04  0.16774742932E+04  0.46999998093E+01 0.  1.
       -5    1    3    3    0  502 -0.83450808867E+03 -0.80349709918E+03 -0.19663372522E+04  0.22822172592E+04  0.46999998093E+01 0. -1.
</event>
<event>
 5   0  0.2632875E-08  0.3940107E+04  0.7818609E-02  0.8016739E-01
        1   -1    0    0  501    0  0.00000000000E+00  0.00000000000E+00  0.23171951772E+04  0.23171951772E+04  0.50400001928E-02 0. -1.
       -1   -1    0    0    0  501  0.00000000000E+00  0.00000000000E+00 -0.16749176964E+04  0.16749176964E+04  0.50400001928E-02 0.  1.
    10030    2    1    2    0    0  0.00000000000E+00  0.00000000000E+00  0.64227748080E+03  0.39921128735E+04  0.39401072108E+04 0.  0.
        1    1    3    3  502    0  0.65328162683E+03 -0.42389993324E+03  0.21546212204E+04  0.22910392055E+04  0.50400001928E-02 0. -1.
       -1    1    3    3    0  502 -0.65328162683E+03  0.42389993324E+03 -0.15123437396E+04  0.17010736681E+04  0.50400001928E-02 0.  1.
</event>
<event>
 5   0  0.8476262E-08  0.3898739E+04  0.7818609E-02  0.8025292E-01
       -2   -1    0    0    0  501  0.00000000000E+00  0.00000000000E+00  0.16680719397E+04  0.16680719397E+04  0.25500000920E-02 0. -1.
        2   -1    0    0  501    0  0.00000000000E+00  0.00000000000E+00 -0.22781040173E+04  0.22781040173E+04  0.25500000920E-02 0.  1.
    10030    2    1    2    0    0  0.00000000000E+00  0.00000000000E+00 -0.61003207761E+03  0.39461759569E+04  0.38987389689E+04 0.  0.
        2    1    3    3  502    0  0.35264270897E+03 -0.12650828787E+04  0.11530845298E+04  0.17476828954E+04  0.25500000920E-02 0. -1.
       -2    1    3    3    0  502 -0.35264270897E+03  0.12650828787E+04 -0.17631166074E+04  0.21984930615E+04  0.25500000920E-02 0.  1.
</event>
<event>
 5   0  0.2632875E-08  0.3943549E+04  0.7818609E-02  0.8016032E-01
       -1   -1    0    0    0  501  0.00000000000E+00  0.00000000000E+00  0.20425097253E+04  0.20425097253E+04  0.50400001928E-02 0. -1.
        1   -1    0    0  501    0  0.00000000000E+00  0.00000000000E+00 -0.19034892261E+04  0.19034892261E+04  0.50400001928E-02 0.  1.
    10030    2    1    2    0    0  0.00000000000E+00  0.00000000000E+00  0.13902049916E+03  0.39459989514E+04  0.39435492929E+04 0.  0.
        2    1    3    3  502    0  0.16685489258E+04  0.39252558793E+03  0.10446736810E+04  0.20073552139E+04  0.25500000920E-02 0.  1.
       -2    1    3    3    0  502 -0.16685489258E+04 -0.39252558793E+03 -0.90565318185E+03  0.19386437375E+04  0.25500000920E-02 0. -1.
</event>
<event>
 5   0  0.8551754E-08  0.3894467E+04  0.7818609E-02  0.8026181E-01
        2   -1    0    0  501    0  0.00000000000E+00  0.00000000000E+00  0.25055908104E+04  0.25055908104E+04  0.25500000920E-02 0. -1.
       -2   -1    0    0    0  501  0.00000000000E+00  0.00000000000E+00 -0.15133030169E+04  0.15133030169E+04  0.25500000920E-02 0.  1.
    10030    2    1    2    0    0  0.00000000000E+00  0.00000000000E+00  0.99228779346E+03  0.40188938273E+04  0.38944669122E+04 0.  0.
        1    1    3    3  502    0 -0.13184902242E+04 -0.90299587860E+03 -0.65201319974E+03  0.17259603821E+04  0.50400001928E-02 0.  1.
       -1    1    3    3    0  502  0.13184902242E+04  0.90299587860E+03  0.16443009932E+04  0.22929334452E+04  0.50400001928E-02 0. -1.
</event>
<event>
 5   0  0.2632875E-08  0.3886739E+04  0.7818609E-02  0.8027793E-01
        1   -1    0    0  501    0  0.00000000000E+00  0.00000000000E+00  0.29026722037E+04  0.29026722037E+04  0.50400001928E-02 0.  1.
       -1   -1    0    0    0  501  0.00000000000E+00  0.00000000000E+00 -0.13011064081E+04  0.13011064082E+04  0.50400001928E-02 0. -1.
    10030    2    1    2    0    0  0.00000000000E+00  0.00000000000E+00  0.16015657956E+04  0.42037786119E+04  0.38867392015E+04 0.  0.
        3    1    3    3  502    0 -0.13318719165E+04 -0.12923920588E+04  0.14244700836E+04  0.23395031663E+04  0.10100000352E+00 0.  1.
       -3    1    3    3    0  502  0.13318719165E+04  0.12923920588E+04  0.17709571194E+03  0.18642754456E+04  0.10100000352E+00 0. -1.
</event>
<event>
 5   0  0.2632875E-08  0.3900330E+04  0.7818609E-02  0.8024961E-01
        1   -1    0    0  501    0  0.00000000000E+00  0.00000000000E+00  0.20763936533E+04  0.20763936533E+04  0.50400001928E-02 0. -1.
       -1   -1    0    0    0  501  0.00000000000E+00  0.00000000000E+00 -0.18316100721E+04  0.18316100721E+04  0.50400001928E-02 0.  1.
    10030    2    1    2    0    0  0.00000000000E+00  0.00000000000E+00  0.24478358118E+03  0.39080037254E+04  0.39003300010E+04 0.  0.
        3    1    3    3  502    0 -0.79619902740E+03  0.32453246410E+02 -0.16610420023E+04  0.18422938549E+04  0.10100000352E+00 0.  1.
       -3    1    3    3    0  502  0.79619902740E+03 -0.32453246410E+02  0.19058255834E+04  0.20657098705E+04  0.10100000352E+00 0. -1.
</event>
<event>
 5   0  0.8342802E-08  0.3894917E+04  0.7818609E-02  0.8026087E-01
       -2   -1    0    0    0  501  0.00000000000E+00  0.00000000000E+00  0.16090550071E+04  0.16090550071E+04  0.25500000920E-02 0.  1.
        2   -1    0    0  501    0  0.00000000000E+00  0.00000000000E+00 -0.23570325502E+04  0.23570325502E+04  0.25500000920E-02 0. -1.
    10030    2    1    2    0    0  0.00000000000E+00  0.00000000000E+00 -0.74797754313E+03  0.39660875573E+04  0.38949172144E+04 0.  0.
        4    1    3    3  502    0 -0.14273716645E+04  0.10666147217E+04 -0.11741829929E+04  0.21339550480E+04  0.12699999809E+01 0. -1.
       -4    1    3    3    0  502  0.14273716645E+04 -0.10666147217E+04  0.42620544980E+03  0.18321325093E+04  0.12699999809E+01 0.  1.
</event>
<event>
 5   0  0.8551754E-08  0.3895438E+04  0.7818609E-02  0.8025979E-01
        2   -1    0    0  501    0  0.00000000000E+00  0.00000000000E+00  0.24478500912E+04  0.24478500912E+04  0.25500000920E-02 0. -1.
       -2   -1    0    0    0  501  0.00000000000E+00  0.00000000000E+00 -0.15497722932E+04  0.15497722932E+04  0.25500000920E-02 0.  1.
    10030    2    1    2    0    0  0.00000000000E+00  0.00000000000E+00  0.89807779801E+03  0.39976223844E+04  0.38954384858E+04 0.  0.
        1    1    3    3  502    0 -0.12073304072E+04 -0.84331852276E+03 -0.85906534051E+03  0.17049416712E+04  0.50400001928E-02 0.  1.
       -1    1    3    3    0  502  0.12073304072E+04  0.84331852276E+03  0.17571431385E+04  0.22926807131E+04  0.50400001928E-02 0. -1.
</event>
<event>
 5   0  0.2632875E-08  0.3989651E+04  0.7818609E-02  0.8006637E-01
       -1   -1    0    0    0  501  0.00000000000E+00  0.00000000000E+00  0.14735853453E+04  0.14735853453E+04  0.50400001928E-02 0.  1.
        1   -1    0    0  501    0  0.00000000000E+00  0.00000000000E+00 -0.27004404824E+04  0.27004404824E+04  0.50400001928E-02 0. -1.
    10030    2    1    2    0    0  0.00000000000E+00  0.00000000000E+00 -0.12268551371E+04  0.41740258277E+04  0.39896513736E+04 0.  0.
        2    1    3    3  502    0 -0.15205577363E+03 -0.16732264125E+04  0.51168796726E+03  0.17563120912E+04  0.25500000920E-02 0.  1.
       -2    1    3    3    0  502  0.15205577363E+03  0.16732264125E+04 -0.17385431044E+04  0.24177137365E+04  0.25500000920E-02 0. -1.
</event>
<event>
 5   0  0.2632875E-08  0.3920682E+04  0.7818609E-02  0.8020741E-01
       -1   -1    0    0    0  501  0.00000000000E+00  0.00000000000E+00  0.23164482993E+04  0.23164482993E+04  0.50400001928E-02 0. -1.
        1   -1    0    0  501    0  0.00000000000E+00  0.00000000000E+00 -0.16589782973E+04  0.16589782973E+04  0.50400001928E-02 0.  1.
    10030    2    1    2    0    0  0.00000000000E+00  0.00000000000E+00  0.65747000202E+03  0.39754265966E+04  0.39206823158E+04 0.  0.
        1    1    3    3  502    0  0.23835988174E+03 -0.96262313377E+03  0.20433456628E+04  0.22712816269E+04  0.50400001928E-02 0. -1.
       -1    1    3    3    0  502 -0.23835988174E+03  0.96262313377E+03 -0.13858756608E+04  0.17041449698E+04  0.50400001928E-02 0.  1.
</event>
<event>
 5   0  0.2632875E-08  0.3880171E+04  0.7818609E-02  0.8029166E-01
        1   -1    0    0  501    0  0.00000000000E+00  0.00000000000E+00  0.16653253173E+04  0.16653253173E+04  0.50400001928E-02 0. -1.
       -1   -1    0    0    0  501  0.00000000000E+00  0.00000000000E+00 -0.22601781454E+04  0.22601781454E+04  0.50400001928E-02 0.  1.
    10030    2    1    2    0    0  0.00000000000E+00  0.00000000000E+00 -0.59485282813E+03  0.39255034628E+04  0.38801710721E+04 0.  0.
        5    1    3    3  502    0  0.14368794143E+04  0.10902684290E+04  0.42548617717E+03  0.18532048660E+04  0.46999998093E+01 0.  1.
       -5    1    3    3    0  502 -0.14368794143E+04 -0.10902684290E+04 -0.10203390053E+04  0.20722985968E+04  0.46999998093E+01 0. -1.
</event>
<event>
 5   0  0.8476262E-08  0.3923397E+04  0.7818609E-02  0.8020181E-01
        2   -1    0    0  501    0  0.00000000000E+00  0.00000000000E+00  0.28682608385E+04  0.28682608385E+04  0.25500000920E-02 0. -1.
       -2   -1    0    0    0  501  0.00000000000E+00  0.00000000000E+00 -0.13416705872E+04  0.13416705872E+04  0.25500000920E-02 0.  1.
    10030    2    1    2    0    0  0.00000000000E+00  0.00000000000E+00  0.15265902513E+04  0.42099314257E+04  0.39233971012E+04 0.  0.
        2    1    3    3  502    0  0.12220177208E+04  0.44120654956E+03 -0.81383250321E+03  0.15330733422E+04  0.25500000920E-02 0.  1.
       -2    1    3    3    0  502 -0.12220177208E+04 -0.44120654956E+03  0.23404227546E+04  0.26768580835E+04  0.25500000920E-02 0. -1.
</event>
<event>
 5   0  0.2632875E-08  0.3886252E+04  0.7818609E-02  0.8027895E-01
       -1   -1    0    0    0  501  0.00000000000E+00  0.00000000000E+00  0.14215373255E+04  0.14215373255E+04  0.50400001928E-02 0. -1.
        1   -1    0    0  501    0  0.00000000000E+00  0.00000000000E+00 -0.26560955351E+04  0.26560955351E+04  0.50400001928E-02 0.  1.
    10030    2    1    2    0    0  0.00000000000E+00  0.00000000000E+00 -0.12345582096E+04  0.40776328606E+04  0.38862521500E+04 0.  0.
        4    1    3    3  502    0  0.17124385529E+04  0.64894708637E+03  0.64455407657E+02  0.18324121345E+04  0.12699999809E+01 0. -1.
       -4    1    3    3    0  502 -0.17124385529E+04 -0.64894708637E+03 -0.12990136172E+04  0.22452207261E+04  0.12699999809E+01 0.  1.
</event>
<event>
 5   0  0.8438211E-08  0.3882124E+04  0.7818609E-02  0.8028757E-01
       -2   -1    0    0    0  501  0.00000000000E+00  0.00000000000E+00  0.14597789249E+04  0.14597789249E+04  0.25500000920E-02 0. -1.
        2   -1    0    0  501    0  0.00000000000E+00  0.00000000000E+00 -0.25810215121E+04  0.25810215121E+04  0.25500000920E-02 0.  1.
    10030    2    1    2    0    0  0.00000000000E+00  0.00000000000E+00 -0.11212425872E+04  0.40408004370E+04  0.38821235467E+04 0.  0.
        5    1    3    3  502    0  0.53535972287E+03 -0.60063368436E+03  0.12780248895E+04  0.15102120923E+04  0.46999998093E+01 0. -1.
       -5    1    3    3    0  502 -0.53535972287E+03  0.60063368436E+03 -0.23992674767E+04  0.25305883447E+04  0.46999998093E+01 0.  1.
</event>
<event>
 5   0  0.2632875E-08  0.3896894E+04  0.7818609E-02  0.8025675E-01
        1   -1    0    0  501    0  0.00000000000E+00  0.00000000000E+00  0.12357602432E+04  0.12357602432E+04  0.50400001928E-02 0.  1.
       -1   -1    0    0    0  501  0.00000000000E+00  0.00000000000E+00 -0.30721547358E+04  0.30721547358E+04  0.50400001928E-02 0. -1.
    10030    2    1    2    0    0  0.00000000000E+00  0.00000000000E+00 -0.18363944926E+04  0.43079149790E+04  0.38968944987E+04 0.  0.
        5    1    3    3  502    0 -0.20949031168E+03  0.12407751109E+04 -0.25627231013E+04  0.28549922680E+04  0.46999998093E+01 0. -1.
       -5    1    3    3    0  502  0.20949031168E+03 -0.12407751109E+04  0.72632860866E+03  0.14529227110E+04  0.46999998093E+01 0.  1.
</event>
<event>
 5   0  0.2632875E-08  0.3899234E+04  0.7818609E-02  0.8025188E-01
       -1   -1    0    0    0  501  0.00000000000E+00  0.00000000000E+00  0.13318358215E+04  0.13318358215E+04  0.50400001928E-02 0.  1.
        1   -1    0    0  501    0  0.00000000000E+00  0.00000000000E+00 -0.28539608078E+04  0.28539608078E+04  0.50400001928E-02 0. -1.
    10030    2    1    2    0    0  0.00000000000E+00  0.00000000000E+00 -0.15221249863E+04  0.41857966294E+04  0.38992344055E+04 0.  0.
        1    1    3    3  502    0  0.10228419288E+04  0.45319904697E+02  0.10200116007E+04  0.14452277228E+04  0.50400001928E-02 0.  1.
       -1    1    3    3    0  502 -0.10228419288E+04 -0.45319904697E+02 -0.25421365870E+04  0.27405689066E+04  0.50400001928E-02 0. -1.
</event>
<event>
 5   0  0.8476262E-08  0.3878201E+04  0.7818609E-02  0.8029578E-01
       -2   -1    0    0    0  501  0.00000000000E+00  0.00000000000E+00  0.18741452587E+04  0.18741452587E+04  0.25500000920E-02 0.  1.
        2   -1    0    0  501    0  0.00000000000E+00  0.00000000000E+00 -0.20063072051E+04  0.20063072051E+04  0.25500000920E-02 0. -1.
    10030    2    1    2    0    0  0.00000000000E+00  0.00000000000E+00 -0.13216194639E+03  0.38804524639E+04  0.38782011996E+04 0.  0.
        2    1    3    3  502    0 -0.14076124950E+03 -0.15165332423E+04  0.11347925116E+04  0.18993264197E+04  0.25500000920E-02 0.  1.
       -2    1    3    3    0  502  0.14076124950E+03  0.15165332423E+04 -0.12669544580E+04  0.19811260442E+04  0.25500000920E-02 0. -1.
</event>
<event>
 5   0  0.2632875E-08  0.3840580E+04  0.7818609E-02  0.8037502E-01
       -1   -1    0    0    0  501  0.00000000000E+00  0.00000000000E+00  0.29761919412E+04  0.29761919412E+04  0.50400001928E-02 0.  1.
        1   -1    0    0  501    0  0.00000000000E+00  0.00000000000E+00 -0.12390040141E+04  0.12390040141E+04  0.50400001928E-02 0. -1.
    10030    2    1    2    0    0  0.00000000000E+00  0.00000000000E+00  0.17371879271E+04  0.42151959552E+04  0.38405800404E+04 0.  0.
        5    1    3    3  502    0 -0.18313626451E+04 -0.51174054535E+03  0.57465737602E+03  0.19864593410E+04  0.46999998093E+01 0.  1.
       -5    1    3    3    0  502  0.18313626451E+04  0.51174054535E+03  0.11625305511E+04  0.22287366142E+04  0.46999998093E+01 0. -1.
</event>
<event>
 5   0  0.8551754E-08  0.3985272E+04  0.7818609E-02  0.8007524E-01
        2   -1    0    0  501    0  0.00000000000E+00  0.00000000000E+00  0.17226568067E+04  0.17226568067E+04  0.25500000920E-02 0. -1.
       -2   -1    0    0    0  501  0.00000000000E+00  0.00000000000E+00 -0.23049264845E+04  0.23049264845E+04  0.25500000920E-02 0.  1.
    10030    2    1    2    0    0  0.00000000000E+00  0.00000000000E+00 -0.58226967781E+03  0.40275832912E+04  0.39852715327E+04 0.  0.
        1    1    3    3  502    0 -0.19720789747E+04 -0.84904506451E+02 -0.15673485324E+02  0.19739680636E+04  0.50400001928E-02 0.  1.
       -1    1    3    3    0  502  0.19720789747E+04  0.84904506451E+02 -0.56659619249E+03  0.20536152276E+04  0.50400001928E-02 0. -1.
</event>
<event>
 5   0  0.2632875E-08  0.3901001E+04  0.7818609E-02  0.8024821E-01
        1   -1    0    0  501    0  0.00000000000E+00  0.00000000000E+00  0.17092382699E+04  0.17092382699E+04  0.50400001928E-02 0.  1.
       -1   -1    0    0    0  501  0.00000000000E+00  0.00000000000E+00 -0.22258174700E+04  0.22258174700E+04  0.50400001928E-02 0. -1.
    10030    2    1    2    0    0  0.00000000000E+00  0.00000000000E+00 -0.51657920013E+03  0.39350557400E+04  0.39010011031E+04 0.  0.
        1    1    3    3  502    0  0.10123356683E+04  0.44061493559E+03  0.13636923842E+04  0.17546002239E+04  0.50400001928E-02 0.  1.
       -1    1    3    3    0  502 -0.10123356683E+04 -0.44061493559E+03 -0.18802715843E+04  0.21804555161E+04  0.50400001928E-02 0. -1.
</event>
<event>
 5   0  0.2632875E-08  0.3910937E+04  0.7818609E-02  0.8022758E-01
       -1   -1    0    0    0  501  0.00000000000E+00  0.00000000000E+00  0.16029575688E+04  0.16029575688E+04  0.50400001928E-02 0.  1.
        1   -1    0    0  501    0  0.00000000000E+00  0.00000000000E+00 -0.23855013587E+04  0.23855013587E+04  0.50400001928E-02 0. -1.
    10030    2    1    2    0    0  0.00000000000E+00  0.00000000000E+00 -0.78254378988E+03  0.39884589274E+04  0.39109372064E+04 0.  0.
        2    1    3    3  502    0 -0.23065997668E+03  0.19122795700E+04 -0.73536205881E+03  0.20617406568E+04  0.25500000920E-02 0. -1.
       -2    1    3    3    0  502  0.23065997668E+03 -0.19122795700E+04 -0.47181731071E+02  0.19267182706E+04  0.25500000920E-02 0.  1.
</event>
<event>
 5   0  0.8342802E-08  0.3907098E+04  0.7818609E-02  0.8023555E-01
        2   -1    0    0  501    0  0.00000000000E+00  0.00000000000E+00  0.22114914598E+04  0.22114914599E+04  0.25500000920E-02 0. -1.
       -2   -1    0    0    0  501  0.00000000000E+00  0.00000000000E+00 -0.17256922451E+04  0.17256922451E+04  0.25500000920E-02 0.  1.
    10030    2    1    2    0    0  0.00000000000E+00  0.00000000000E+00  0.48579921477E+03  0.39371837049E+04  0.39070979831E+04 0.  0.
        4    1    3    3  502    0 -0.18585609246E+04  0.55678637092E+03  0.12904793571E+02  0.19402133697E+04  0.12699999809E+01 0. -1.
       -4    1    3    3    0  502  0.18585609246E+04 -0.55678637092E+03  0.47289442120E+03  0.19969703352E+04  0.12699999809E+01 0.  1.
</event>
<event>
 5   0  0.8476262E-08  0.3902955E+04  0.7818609E-02  0.8024415E-01
        2   -1    0    0  501    0  0.00000000000E+00  0.00000000000E+00  0.20631537888E+04  0.20631537888E+04  0.25500000920E-02 0.  1.
       -2   -1    0    0    0  501  0.00000000000E+00  0.00000000000E+00 -0.18458463777E+04  0.18458463777E+04  0.25500000920E-02 0. -1.
    10030    2    1    2    0    0  0.00000000000E+00  0.00000000000E+00  0.21730741108E+03  0.39090001665E+04  0.39029552637E+04 0.  0.
        2    1    3    3  502    0 -0.34738952445E+03  0.10732464803E+03  0.20289304302E+04  0.20612512589E+04  0.25500000920E-02 0.  1.
       -2    1    3    3    0  502  0.34738952445E+03 -0.10732464803E+03 -0.18116230191E+04  0.18477489075E+04  0.25500000920E-02 0. -1.
</event>
<event>
 5   0  0.8342802E-08  0.3802123E+04  0.7818609E-02  0.8045699E-01
        2   -1    0    0  501    0  0.00000000000E+00  0.00000000000E+00  0.20233483456E+04  0.20233483456E+04  0.25500000920E-02 0.  1.
       -2   -1    0    0    0  501  0.00000000000E+00  0.00000000000E+00 -0.17861656446E+04  0.17861656446E+04  0.25500000920E-02 0. -1.
    10030    2    1    2    0    0  0.00000000000E+00  0.00000000000E+00  0.23718270099E+03  0.38095139902E+04  0.38021232500E+04 0.  0.
        4    1    3    3  502    0  0.55072125647E+03  0.10599758072E+04  0.16003816401E+04  0.19970141765E+04  0.12699999809E+01 0.  1.
       -4    1    3    3    0  502 -0.55072125647E+03 -0.10599758072E+04 -0.13631989392E+04  0.18124998137E+04  0.12699999809E+01 0. -1.
</event>
<event>
 5   0  0.2632875E-08  0.3914511E+04  0.7818609E-02  0.8022018E-01
        1   -1    0    0  501    0  0.00000000000E+00  0.00000000000E+00  0.18760383958E+04  0.18760383958E+04  0.50400001928E-02 0.  1.
       -1   -1    0    0    0  501  0.00000000000E+00  0.00000000000E+00 -0.20419886807E+04  0.20419886807E+04  0.50400001928E-02 0. -1.
    10030    2    1    2    0    0  0.00000000000E+00  0.00000000000E+00 -0.16595028488E+03  0.39180270765E+04  0.39145110391E+04 0.  0.
        2    1    3    3  502    0  0.41543726510E+03 -0.51929364148E+03 -0.19254422951E+04  0.20370522917E+04  0.25500000920E-02 0. -1.
       -2    1    3    3    0  502 -0.41543726510E+03  0.51929364148E+03  0.17594920102E+04  0.18809747849E+04  0.25500000920E-02 0.  1.
</event>
<event>
 5   0  0.8551754E-08  0.3896860E+04  0.7818609E-02  0.8025683E-01
        2   -1    0    0  501    0  0.00000000000E+00  0.00000000000E+00  0.35813506900E+04  0.35813506900E+04  0.25500000920E-02 0.  1.
       -2   -1    0    0    0  501  0.00000000000E+00  0.00000000000E+00 -0.10600413849E+04  0.10600413849E+04  0.25500000920E-02 0. -1.
    10030    2    1    2    0    0  0.00000000000E+00  0.00000000000E+00  0.25213093052E+04  0.46413920749E+04  0.38968602464E+04 0.  0.
        1    1    3    3  502    0 -0.33376715933E+03 -0.16824351063E+04  0.15971910293E+03  0.17226429101E+04  0.50400001928E-02 0. -1.
       -1    1    3    3    0  502  0.33376715933E+03  0.16824351063E+04  0.23615902022E+04  0.29187491648E+04  0.50400001928E-02 0.  1.
</event>
<event>
 5   0  0.2632875E-08  0.3931373E+04  0.7818609E-02  0.8018536E-01
        1   -1    0    0  501    0  0.00000000000E+00  0.00000000000E+00  0.22161232855E+04  0.22161232855E+04  0.50400001928E-02 0.  1.
       -1   -1    0    0    0  501  0.00000000000E+00  0.00000000000E+00 -0.17435503141E+04  0.17435503141E+04  0.50400001928E-02 0. -1.
    10030    2    1    2    0    0  0.00000000000E+00  0.00000000000E+00  0.47257297143E+03  0.39596735996E+04  0.39313725086E+04 0.  0.
        4    1    3    3  502    0  0.15213544454E+04  0.12414523331E+04  0.14509413992E+03  0.19689533174E+04  0.12699999809E+01 0. -1.
       -4    1    3    3    0  502 -0.15213544454E+04 -0.12414523331E+04  0.32747883151E+03  0.19907202822E+04  0.12699999809E+01 0.  1.
</event>
<event>
 5   0  0.2632875E-08  0.3905856E+04  0.7818609E-02  0.8023812E-01
        1   -1    0    0  501    0  0.00000000000E+00  0.00000000000E+00  0.19602934909E+04  0.19602934909E+04  0.50400001928E-02 0. -1.
       -1   -1    0    0    0  501  0.00000000000E+00  0.00000000000E+00 -0.19455897169E+04  0.19455897169E+04  0.50400001928E-02 0.  1.
    10030    2    1    2    0    0  0.00000000000E+00  0.00000000000E+00  0.14703773958E+02  0.39058832078E+04  0.39058555314E+04 0.  0.
        2    1    3    3  502    0 -0.10774476985E+04 -0.11714576925E+04 -0.11243452191E+04  0.19486813080E+04  0.25500000920E-02 0.  1.
       -2    1    3    3    0  502  0.10774476985E+04  0.11714576925E+04  0.11390489931E+04  0.19572018999E+04  0.25500000920E-02 0. -1.
</event>
<event>
 5   0  0.2632875E-08  0.3922280E+04  0.7818609E-02  0.8020411E-01
        1   -1    0    0  501    0  0.00000000000E+00  0.00000000000E+00  0.21358232945E+04  0.21358232945E+04  0.50400001928E-02 0. -1.
       -1   -1    0    0    0  501  0.00000000000E+00  0.00000000000E+00 -0.18007437929E+04  0.18007437929E+04  0.50400001928E-02 0.  1.
    10030    2    1    2    0    0  0.00000000000E+00  0.00000000000E+00  0.33507950161E+03  0.39365670874E+04  0.39222802247E+04 0.  0.
        1    1    3    3  502    0 -0.11451269986E+04 -0.27532645604E+03 -0.14062760141E+04  0.18343207811E+04  0.50400001928E-02 0.  1.
       -1    1    3    3    0  502  0.11451269986E+04  0.27532645604E+03  0.17413555157E+04  0.21022463063E+04  0.50400001928E-02 0. -1.
</event>
<event>
 5   0  0.8551754E-08  0.3735571E+04  0.7818609E-02  0.8060124E-01
        2   -1    0    0  501    0  0.00000000000E+00  0.00000000000E+00  0.19827019562E+04  0.19827019562E+04  0.25500000920E-02 0.  1.
       -2   -1    0    0    0  501  0.00000000000E+00  0.00000000000E+00 -0.17595294782E+04  0.17595294782E+04  0.25500000920E-02 0. -1.
    10030    2    1    2    0    0  0.00000000000E+00  0.00000000000E+00  0.22317247799E+03  0.37422314344E+04  0.37355709274E+04 0.  0.
        1    1    3    3  502    0  0.10760110715E+04  0.98206066686E+03  0.12825928148E+04  0.19409501045E+04  0.50400001928E-02 0.  1.
       -1    1    3    3    0  502 -0.10760110715E+04 -0.98206066686E+03 -0.10594203368E+04  0.18012813299E+04  0.50400001928E-02 0. -1.
</event>
<event>
 5   0  0.2632875E-08  0.3909628E+04  0.7818609E-02  0.8023030E-01
        1   -1    0    0  501    0  0.00000000000E+00  0.00000000000E+00  0.20172805690E+04  0.20172805690E+04  0.50400001928E-02 0.  1.
       -1   -1    0    0    0  501  0.00000000000E+00  0.00000000000E+00 -0.18942816325E+04  0.18942816325E+04  0.50400001928E-02 0. -1.
    10030    2    1    2    0    0  0.00000000000E+00  0.00000000000E+00  0.12299893649E+03  0.39115622015E+04  0.39096278746E+04 0.  0.
        3    1    3    3  502    0 -0.12465212493E+04  0.20906746261E+03  0.15534693413E+04  0.20026960412E+04  0.10100000352E+00 0.  1.
       -3    1    3    3    0  502  0.12465212493E+04 -0.20906746261E+03 -0.14304704048E+04  0.19088661603E+04  0.10100000352E+00 0. -1.
</event>
<event>
 5   0  0.2632875E-08  0.3905076E+04  0.7818609E-02  0.8023974E-01
       -1   -1    0    0    0  501  0.00000000000E+00  0.00000000000E+00  0.13017383480E+04  0.13017383480E+04  0.50400001928E-02 0. -1.
        1   -1    0    0  501    0  0.00000000000E+00  0.00000000000E+00 -0.29287022961E+04  0.29287022961E+04  0.50400001928E-02 0.  1.
    10030    2    1    2    0    0  0.00000000000E+00  0.00000000000E+00 -0.16269639481E+04  0.42304406441E+04  0.39050757169E+04 0.  0.
        5    1    3    3  502    0 -0.14477937217E+04  0.10431256818E+04  0.45121656463E+02  0.17850142584E+04  0.46999998093E+01 0. -1.
       -5    1    3    3    0  502  0.14477937217E+04 -0.10431256818E+04 -0.16720856046E+04  0.24454263857E+04  0.46999998093E+01 0.  1.
</event>
<event>
 5   0  0.2632875E-08  0.3899720E+04  0.7818609E-02  0.8025087E-01
       -1   -1    0    0    0  501  0.00000000000E+00  0.00000000000E+00  0.24649129957E+04  0.24649129957E+04  0.50400001928E-02 0.  1.
        1   -1    0    0  501    0  0.00000000000E+00  0.00000000000E+00 -0.15424292130E+04  0.15424292130E+04  0.50400001928E-02 0. -1.
    10030    2    1    2    0    0  0.00000000000E+00  0.00000000000E+00  0.92248378267E+03  0.40073422087E+04  0.38997198936E+04 0.  0.
        3    1    3    3  502    0  0.77149395888E+03 -0.17597555391E+04  0.12040884487E+03  0.19252118809E+04  0.10100000352E+00 0.  1.
       -3    1    3    3    0  502 -0.77149395888E+03  0.17597555391E+04  0.80207493780E+03  0.20821303278E+04  0.10100000352E+00 0. -1.
</event>
<event>
 5   0  0.8476262E-08  0.3803232E+04  0.7818609E-02  0.8045462E-01
        2   -1    0    0  501    0  0.00000000000E+00  0.00000000000E+00  0.26193010864E+04  0.26193010864E+04  0.25500000920E-02 0.  1.
       -2   -1    0    0    0  501  0.00000000000E+00  0.00000000000E+00 -0.13805757173E+04  0.13805757173E+04  0.25500000920E-02 0. -1.
    10030    2    1    2    0    0  0.00000000000E+00  0.00000000000E+00  0.12387253691E+04  0.39998768037E+04  0.38032320341E+04 0.  0.
        2    1    3    3  502    0  0.47058527039E+03  0.15744752756E+04  0.16257734683E+04  0.23116146436E+04  0.25500000920E-02 0.  1.
       -2    1    3    3    0  502 -0.47058527039E+03 -0.15744752756E+04 -0.38704809920E+03  0.16882621601E+04  0.25500000920E-02 0. -1.
</event>
<event>
 5   0  0.8476262E-08  0.3906578E+04  0.7818609E-02  0.8023662E-01
       -2   -1    0    0    0  501  0.00000000000E+00  0.00000000000E+00  0.31808549828E+04  0.31808549828E+04  0.25500000920E-02 0. -1.
        2   -1    0    0  501    0  0.00000000000E+00  0.00000000000E+00 -0.11994695615E+04  0.11994695615E+04  0.25500000920E-02 0.  1.
    10030    2    1    2    0    0  0.00000000000E+00  0.00000000000E+00  0.19813854214E+04  0.43803245443E+04  0.39065784166E+04 0.  0.
        2    1    3    3  502    0  0.18724402855E+04 -0.51813905591E+03  0.12172834314E+04  0.22926577713E+04  0.25500000920E-02 0.  1.
       -2    1    3    3    0  502 -0.18724402855E+04  0.51813905591E+03  0.76410198998E+03  0.20876667730E+04  0.25500000920E-02 0. -1.
</event>
<event>
 5   0  0.8342802E-08  0.3893185E+04  0.7818609E-02  0.8026448E-01
        2   -1    0    0  501    0  0.00000000000E+00  0.00000000000E+00  0.20377049947E+04  0.20377049947E+04  0.25500000920E-02 0. -1.
       -2   -1    0    0    0  501  0.00000000000E+00  0.00000000000E+00 -0.18595538177E+04  0.18595538177E+04  0.25500000920E-02 0.  1.
    10030    2    1    2    0    0  0.00000000000E+00  0.00000000000E+00  0.17815117699E+03  0.38972588124E+04  0.38931848670E+04 0.  0.
        4    1    3    3  502    0  0.14632938782E+02 -0.18930513465E+04  0.54271970750E+03  0.19693663491E+04  0.12699999809E+01 0. -1.
       -4    1    3    3    0  502 -0.14632938782E+02  0.18930513465E+04 -0.36456853051E+03  0.19278924632E+04  0.12699999809E+01 0.  1.
</event>
<event>
 5   0  0.2632875E-08  0.3895982E+04  0.7818609E-02  0.8025865E-01
        1   -1    0    0  501    0  0.00000000000E+00  0.00000000000E+00  0.28096576692E+04  0.28096576692E+04  0.50400001928E-02 0. -1.
       -1   -1    0    0    0  501  0.00000000000E+00  0.00000000000E+00 -0.13505807129E+04  0.13505807130E+04  0.50400001928E-02 0.  1.
    10030    2    1    2    0    0  0.00000000000E+00  0.00000000000E+00  0.14590769563E+04  0.41602383822E+04  0.38959822680E+04 0.  0.
        3    1    3    3  502    0 -0.12004740904E+04 -0.45685863491E+03  0.22933910879E+04  0.26285928833E+04  0.10100000352E+00 0. -1.
       -3    1    3    3    0  502  0.12004740904E+04  0.45685863491E+03 -0.83431413159E+03  0.15316454989E+04  0.10100000352E+00 0.  1.
</event>
<event>
 5   0  0.2632875E-08  0.3872282E+04  0.7818609E-02  0.8030819E-01
        1   -1    0    0  501    0  0.00000000000E+00  0.00000000000E+00  0.27072195423E+04  0.27072195423E+04  0.50400001928E-02 0. -1.
       -1   -1    0    0    0  501  0.00000000000E+00  0.00000000000E+00 -0.13846834195E+04  0.13846834195E+04  0.50400001928E-02 0.  1.
    10030    2    1    2    0    0  0.00000000000E+00  0.00000000000E+00  0.13225361228E+04  0.40919029617E+04  0.38722820212E+04 0.  0.
        4    1    3    3  502    0  0.24605537852E+03 -0.41936948051E+03  0.26416529194E+04  0.26860278796E+04  0.12699999809E+01 0. -1.
       -4    1    3    3    0  502 -0.24605537852E+03  0.41936948051E+03 -0.13191167966E+04  0.14058750821E+04  0.12699999809E+01 0.  1.
</event>
<event>
 5   0  0.8438211E-08  0.3918831E+04  0.7818609E-02  0.8021124E-01
        2   -1    0    0  501    0  0.00000000000E+00  0.00000000000E+00  0.31194993039E+04  0.31194993039E+04  0.25500000920E-02 0. -1.
       -2   -1    0    0    0  501  0.00000000000E+00  0.00000000000E+00 -0.12307454786E+04  0.12307454786E+04  0.25500000920E-02 0.  1.
    10030    2    1    2    0    0  0.00000000000E+00  0.00000000000E+00  0.18887538253E+04  0.43502447825E+04  0.39188312869E+04 0.  0.
        5    1    3    3  502    0  0.17783091511E+04  0.17897292386E+02  0.31277773677E+02  0.17786804488E+04  0.46999998093E+01 0. -1.
       -5    1    3    3    0  502 -0.17783091511E+04 -0.17897292386E+02  0.18574760516E+04  0.25715643337E+04  0.46999998093E+01 0.  1.
</event>
<event>
 5   0  0.2632875E-08  0.3903987E+04  0.7818609E-02  0.8024201E-01
       -1   -1    0    0    0  501  0.00000000000E+00  0.00000000000E+00  0.20546095511E+04  0.20546095511E+04  0.50400001928E-02 0.  1.
        1   -1    0    0  501    0  0.00000000000E+00  0.00000000000E+00 -0.18545023610E+04  0.18545023610E+04  0.50400001928E-02 0. -1.
    10030    2    1    2    0    0  0.00000000000E+00  0.00000000000E+00  0.20010719004E+03  0.39091119121E+04  0.39039868153E+04 0.  0.
        5    1    3    3  502    0  0.18881728465E+04 -0.49499692479E+03  0.93920221809E+02  0.19542419891E+04  0.46999998093E+01 0. -1.
       -5    1    3    3    0  502 -0.18881728465E+04  0.49499692479E+03  0.10618696823E+03  0.19548699231E+04  0.46999998093E+01 0.  1.
</event>
<event>
 5   0  0.2632875E-08  0.3855969E+04  0.7818609E-02  0.8034250E-01
       -1   -1    0    0    0  501  0.00000000000E+00  0.00000000000E+00  0.24762422317E+04  0.24762422317E+04  0.50400001928E-02 0. -1.
        1   -1    0    0  501    0  0.00000000000E+00  0.00000000000E+00 -0.15011148104E+04  0.15011148104E+04  0.50400001928E-02 0.  1.
    10030    2    1    2    0    0  0.00000000000E+00  0.00000000000E+00  0.97512742125E+03  0.39773570421E+04  0.38559688215E+04 0.  0.
        4    1    3    3  502    0  0.13558908114E+04  0.36741269122E+03 -0.87449472599E+03  0.16547430667E+04  0.12699999809E+01 0.  1.
       -4    1    3    3    0  502 -0.13558908114E+04 -0.36741269122E+03  0.18496221472E+04  0.23226139754E+04  0.12699999809E+01 0. -1.
</event>
<event>
 5   0  0.8676098E-08  0.3863499E+04  0.7818609E-02  0.8032664E-01
        2   -1    0    0  501    0  0.00000000000E+00  0.00000000000E+00  0.23096560782E+04  0.23096560782E+04  0.25500000920E-02 0. -1.
       -2   -1    0    0    0  501  0.00000000000E+00  0.00000000000E+00 -0.16156757290E+04  0.16156757290E+04  0.25500000920E-02 0.  1.
    10030    2    1    2    0    0  0.00000000000E+00  0.00000000000E+00  0.69398034918E+03  0.39253318072E+04  0.38634985533E+04 0.  0.
        3    1    3    3  502    0 -0.91588494386E+03  0.20189859534E+03  0.20628189912E+04  0.22660164329E+04  0.10100000352E+00 0. -1.
       -3    1    3    3    0  502  0.91588494386E+03 -0.20189859534E+03 -0.13688386421E+04  0.16593153743E+04  0.10100000352E+00 0.  1.
</event>
<event>
 5   0  0.2632875E-08  0.3902115E+04  0.7818609E-02  0.8024589E-01
        1   -1    0    0  501    0  0.00000000000E+00  0.00000000000E+00  0.24845784869E+04  0.24845784869E+04  0.50400001928E-02 0.  1.
       -1   -1    0    0    0  501  0.00000000000E+00  0.00000000000E+00 -0.15321011092E+04  0.15321011093E+04  0.50400001928E-02 0. -1.
    10030    2    1    2    0    0  0.00000000000E+00  0.00000000000E+00  0.95247737768E+03  0.40166795962E+04  0.39021150449E+04 0.  0.
        5    1    3    3  502    0 -0.14781400622E+04  0.38382230971E+03 -0.77365387473E+03  0.17119521070E+04  0.46999998093E+01 0. -1.
       -5    1    3    3    0  502  0.14781400622E+04 -0.38382230971E+03  0.17261312524E+04  0.23047274892E+04  0.46999998093E+01 0.  1.
</event>
<event>
 5   0  0.2632875E-08  0.3898314E+04  0.7818609E-02  0.8025380E-01
       -1   -1    0    0    0  501  0.00000000000E+00  0.00000000000E+00  0.19064084499E+04  0.19064084499E+04  0.50400001928E-02 0.  1.
        1   -1    0    0  501    0  0.00000000000E+00  0.00000000000E+00 -0.19928644805E+04  0.19928644805E+04  0.50400001928E-02 0. -1.
    10030    2    1    2    0    0  0.00000000000E+00  0.00000000000E+00 -0.86456030630E+02  0.38992729304E+04  0.38983143460E+04 0.  0.
        5    1    3    3  502    0  0.15237309455E+04  0.95801375952E+03  0.70505034295E+03  0.19330453781E+04  0.46999998093E+01 0.  1.
       -5    1    3    3    0  502 -0.15237309455E+04 -0.95801375952E+03 -0.79150637358E+03  0.19662275523E+04  0.46999998093E+01 0. -1.
</event>
<event>
 5   0  0.2632875E-08  0.3899301E+04  0.7818609E-02  0.8025175E-01
       -1   -1    0    0    0  501  0.00000000000E+00  0.00000000000E+00  0.19208207826E+04  0.19208207826E+04  0.50400001928E-02 0. -1.
        1   -1    0    0  501    0  0.00000000000E+00  0.00000000000E+00 -0.19789129334E+04  0.19789129334E+04  0.50400001928E-02 0.  1.
    10030    2    1    2    0    0  0.00000000000E+00  0.00000000000E+00 -0.58092150757E+02  0.38997337160E+04  0.38993010089E+04 0.  0.
        3    1    3    3  502    0 -0.55847386028E+03 -0.15567475890E+04  0.10034351711E+04  0.19344865627E+04  0.10100000352E+00 0. -1.
       -3    1    3    3    0  502  0.55847386028E+03  0.15567475890E+04 -0.10615273218E+04  0.19652471533E+04  0.10100000352E+00 0.  1.
</event>
<event>
 5   0  0.2632875E-08  0.3899130E+04  0.7818609E-02  0.8025210E-01
       -1   -1    0    0    0  501  0.00000000000E+00  0.00000000000E+00  0.20515563672E+04  0.20515563672E+04  0.50400001928E-02 0. -1.
        1   -1    0    0  501    0  0.00000000000E+00  0.00000000000E+00 -0.18526443408E+04  0.18526443408E+04  0.50400001928E-02 0.  1.
    10030    2    1    2    0    0  0.00000000000E+00  0.00000000000E+00  0.19891202637E+03  0.39042007080E+04  0.38991303100E+04 0.  0.
        2    1    3    3  502    0  0.45733268345E+02  0.12459366591E+04  0.16001893956E+04  0.20285600292E+04  0.25500000920E-02 0. -1.
       -2    1    3    3    0  502 -0.45733268345E+02 -0.12459366591E+04 -0.14012773692E+04  0.18756406788E+04  0.25500000920E-02 0.  1.
</event>
<event>
 5   0  0.2632875E-08  0.3922785E+04  0.7818609E-02  0.8020307E-01
        1   -1    0    0  501    0  0.00000000000E+00  0.00000000000E+00  0.13380665247E+04  0.13380665247E+04  0.50400001928E-02 0.  1.
       -1   -1    0    0    0  501  0.00000000000E+00  0.00000000000E+00 -0.28750897559E+04  0.28750897559E+04  0.50400001928E-02 0. -1.
    10030    2    1    2    0    0  0.00000000000E+00  0.00000000000E+00 -0.15370232313E+04  0.42131562806E+04  0.39227854174E+04 0.  0.
        4    1    3    3  502    0  0.19485466133E+04 -0.11952567456E+03 -0.97212145069E+03  0.21808580924E+04  0.12699999809E+01 0.  1.
       -4    1    3    3    0  502 -0.19485466133E+04  0.11952567456E+03 -0.56490178057E+03  0.20322981882E+04  0.12699999809E+01 0. -1.
</event>
<event>
 5   0  0.2632875E-08  0.3890808E+04  0.7818609E-02  0.8026944E-01
       -1   -1    0    0    0  501  0.00000000000E+00  0.00000000000E+00  0.18734892530E+04  0.18734892530E+04  0.50400001928E-02 0.  1.
        1   -1    0    0  501    0  0.00000000000E+00  0.00000000000E+00 -0.20200796973E+04  0.20200796973E+04  0.50400001928E-02 0. -1.
    10030    2    1    2    0    0  0.00000000000E+00  0.00000000000E+00 -0.14659044434E+03  0.38935689504E+04  0.38908084523E+04 0.  0.
        4    1    3    3  502    0 -0.13590575881E+04 -0.90426681345E+03  0.98568996189E+03  0.19069143430E+04  0.12699999809E+01 0.  1.
       -4    1    3    3    0  502  0.13590575881E+04  0.90426681345E+03 -0.11322804062E+04  0.19866546074E+04  0.12699999809E+01 0. -1.
</event>
<event>
 5   0  0.8676098E-08  0.3921802E+04  0.7818609E-02  0.8020510E-01
        2   -1    0    0  501    0  0.00000000000E+00  0.00000000000E+00  0.15306807060E+04  0.15306807060E+04  0.25500000920E-02 0.  1.
       -2   -1    0    0    0  501  0.00000000000E+00  0.00000000000E+00 -0.25120413260E+04  0.25120413260E+04  0.25500000920E-02 0. -1.
    10030    2    1    2    0    0  0.00000000000E+00  0.00000000000E+00 -0.98136062001E+03  0.40427220320E+04  0.39218022338E+04 0.  0.
        3    1    3    3  502    0 -0.52034446347E+03  0.18319223028E+04 -0.88991661674E+01  0.19044098533E+04  0.10100000352E+00 0.  1.
       -3    1    3    3    0  502  0.52034446347E+03 -0.18319223028E+04 -0.97246145384E+03  0.21383121787E+04  0.10100000352E+00 0. -1.
</event>
<event>
 5   0  0.8342802E-08  0.3886691E+04  0.7818609E-02  0.8027803E-01
        2   -1    0    0  501    0  0.00000000000E+00  0.00000000000E+00  0.15159660338E+04  0.15159660338E+04  0.25500000920E-02 0.  1.
       -2   -1    0    0    0  501  0.00000000000E+00  0.00000000000E+00 -0.24912110413E+04  0.24912110413E+04  0.25500000920E-02 0. -1.
    10030    2    1    2    0    0  0.00000000000E+00  0.00000000000E+00 -0.97524500752E+03  0.40071770751E+04  0.38866907887E+04 0.  0.
        4    1    3    3  502    0  0.19040773062E+04  0.34339186517E+03 -0.29987480221E+03  0.19578955210E+04  0.12699999809E+01 0. -1.
       -4    1    3    3    0  502 -0.19040773062E+04 -0.34339186517E+03 -0.67537020531E+03  0.20492815542E+04  0.12699999809E+01 0.  1.
</event>
<event>
 5   0  0.8342802E-08  0.3914372E+04  0.7818609E-02  0.8022047E-01
        2   -1    0    0  501    0  0.00000000000E+00  0.00000000000E+00  0.20704177539E+04  0.20704177539E+04  0.25500000920E-02 0.  1.
       -2   -1    0    0    0  501  0.00000000000E+00  0.00000000000E+00 -0.18501471506E+04  0.18501471506E+04  0.25500000920E-02 0. -1.
    10030    2    1    2    0    0  0.00000000000E+00  0.00000000000E+00  0.22027060322E+03  0.39205649045E+04  0.39143722398E+04 0.  0.
        4    1    3    3  502    0  0.48003414066E+03 -0.15267505949E+04  0.12384945845E+04  0.20236774950E+04  0.12699999809E+01 0.  1.
       -4    1    3    3    0  502 -0.48003414066E+03  0.15267505949E+04 -0.10182239812E+04  0.18968874095E+04  0.12699999809E+01 0. -1.
</event>
<event>
 5   0  0.2632875E-08  0.3916528E+04  0.7818609E-02  0.8021600E-01
       -1   -1    0    0    0  501  0.00000000000E+00  0.00000000000E+00  0.20695608944E+04  0.20695608944E+04  0.50400001928E-02 0. -1.
        1   -1    0    0  501    0  0.00000000000E+00  0.00000000000E+00 -0.18529525293E+04  0.18529525293E+04  0.50400001928E-02 0.  1.
    10030    2    1    2    0    0  0.00000000000E+00  0.00000000000E+00  0.21660836516E+03  0.39225134237E+04  0.39165281022E+04 0.  0.
        5    1    3    3  502    0 -0.14050226823E+04 -0.50975916560E+03 -0.11588696221E+04  0.18912810568E+04  0.46999998093E+01 0.  1.
       -5    1    3    3    0  502  0.14050226823E+04  0.50975916560E+03  0.13754779873E+04  0.20312323669E+04  0.46999998093E+01 0. -1.
</event>
<event>
 5   0  0.2632875E-08  0.3907211E+04  0.7818609E-02  0.8023531E-01
       -1   -1    0    0    0  501  0.00000000000E+00  0.00000000000E+00  0.19832697053E+04  0.19832697053E+04  0.50400001928E-02 0.  1.
        1   -1    0    0  501    0  0.00000000000E+00  0.00000000000E+00 -0.19243846662E+04  0.19243846662E+04  0.50400001928E-02 0. -1.
    10030    2    1    2    0    0  0.00000000000E+00  0.00000000000E+00  0.58885039112E+02  0.39076543716E+04  0.39072106726E+04 0.  0.
        3    1    3    3  502    0  0.32321151109E+03  0.18514553389E+04 -0.50374206602E+03  0.19457925460E+04  0.10100000352E+00 0. -1.
       -3    1    3    3    0  502 -0.32321151109E+03 -0.18514553389E+04  0.56262710513E+03  0.19618618256E+04  0.10100000352E+00 0.  1.
</event>
<event>
 5   0  0.8342802E-08  0.3887590E+04  0.7818609E-02  0.8027615E-01
       -2   -1    0    0    0  501  0.00000000000E+00  0.00000000000E+00  0.22305186418E+04  0.22305186418E+04  0.25500000920E-02 0.  1.
        2   -1    0    0  501    0  0.00000000000E+00  0.00000000000E+00 -0.16939287852E+04  0.16939287852E+04  0.25500000920E-02 0. -1.
    10030    2    1    2    0    0  0.00000000000E+00  0.00000000000E+00  0.53658985658E+03  0.39244474270E+04  0.38875903762E+04 0.  0.
        4    1    3    3  502    0 -0.65721634421E+03  0.19426254138E+03 -0.15679243305E+04  0.17111573794E+04  0.12699999809E+01 0. -1.
       -4    1    3    3    0  502  0.65721634421E+03 -0.19426254138E+03  0.21045141871E+04  0.22132900476E+04  0.12699999809E+01 0.  1.
</event>
<event>
 5   0  0.8438211E-08  0.3897538E+04  0.7818609E-02  0.8025541E-01
        2   -1    0    0  501    0  0.00000000000E+00  0.00000000000E+00  0.19272061995E+04  0.19272061995E+04  0.25500000920E-02 0.  1.
       -2   -1    0    0    0  501  0.00000000000E+00  0.00000000000E+00 -0.19705734971E+04  0.19705734971E+04  0.25500000920E-02 0. -1.
    10030    2    1    2    0    0  0.00000000000E+00  0.00000000000E+00 -0.43367297588E+02  0.38977796967E+04  0.38975384336E+04 0.  0.
        5    1    3    3  502    0 -0.54789513239E+03  0.10158419350E+04  0.15486222798E+04  0.19314183826E+04  0.46999998093E+01 0.  1.
       -5    1    3    3    0  502  0.54789513239E+03 -0.10158419350E+04 -0.15919895774E+04  0.19663613141E+04  0.46999998093E+01 0. -1.
</event>
<event>
 5   0  0.2632875E-08  0.3885673E+04  0.7818609E-02  0.8028016E-01
        1   -1    0    0  501    0  0.00000000000E+00  0.00000000000E+00  0.28008636126E+04  0.28008636126E+04  0.50400001928E-02 0.  1.
       -1   -1    0    0    0  501  0.00000000000E+00  0.00000000000E+00 -0.13476603981E+04  0.13476603981E+04  0.50400001928E-02 0. -1.
    10030    2    1    2    0    0  0.00000000000E+00  0.00000000000E+00  0.14532032145E+04  0.41485240107E+04  0.38856726425E+04 0.  0.
        5    1    3    3  502    0  0.27078691557E+03  0.14531301399E+04 -0.61951287694E+03  0.16027261313E+04  0.46999998093E+01 0. -1.
       -5    1    3    3    0  502 -0.27078691557E+03 -0.14531301399E+04  0.20727160914E+04  0.25457978794E+04  0.46999998093E+01 0.  1.
</event>
<event>
 5   0  0.2632875E-08  0.3890695E+04  0.7818609E-02  0.8026967E-01
        1   -1    0    0  501    0  0.00000000000E+00  0.00000000000E+00  0.22150544750E+04  0.22150544751E+04  0.50400001928E-02 0. -1.
       -1   -1    0    0    0  501  0.00000000000E+00  0.00000000000E+00 -0.17084803944E+04  0.17084803944E+04  0.50400001928E-02 0.  1.
    10030    2    1    2    0    0  0.00000000000E+00  0.00000000000E+00  0.50657408065E+03  0.39235348695E+04  0.38906951272E+04 0.  0.
        3    1    3    3  502    0 -0.15858164657E+04  0.10868350953E+04  0.55303783331E+03  0.20004687557E+04  0.10100000352E+00 0. -1.
       -3    1    3    3    0  502  0.15858164657E+04 -0.10868350953E+04 -0.46463752657E+02  0.19230661137E+04  0.10100000352E+00 0.  1.
</event>
<event>
 5   0  0.8476262E-08  0.3920803E+04  0.7818609E-02  0.8020717E-01
       -2   -1    0    0    0  501  0.00000000000E+00  0.00000000000E+00  0.13203225501E+04  0.13203225501E+04  0.25500000920E-02 0.  1.
        2   -1    0    0  501    0  0.00000000000E+00  0.00000000000E+00 -0.29107835056E+04  0.29107835056E+04  0.25500000920E-02 0. -1.
    10030    2    1    2    0    0  0.00000000000E+00  0.00000000000E+00 -0.15904609555E+04  0.42311060558E+04  0.39208025204E+04 0.  0.
        2    1    3    3  502    0  0.12031489040E+04 -0.14463923727E+04 -0.13897930690E+04  0.23390474463E+04  0.25500000920E-02 0. -1.
       -2    1    3    3    0  502 -0.12031489040E+04  0.14463923727E+04 -0.20066788648E+03  0.18920586095E+04  0.25500000920E-02 0.  1.
</event>
<event>
 5   0  0.8438211E-08  0.3951318E+04  0.7818609E-02  0.8014440E-01
        2   -1    0    0  501    0  0.00000000000E+00  0.00000000000E+00  0.25380377694E+04  0.25380377694E+04  0.25500000920E-02 0.  1.
       -2   -1    0    0    0  501  0.00000000000E+00  0.00000000000E+00 -0.15378921520E+04  0.15378921520E+04  0.25500000920E-02 0. -1.
    10030    2    1    2    0    0  0.00000000000E+00  0.00000000000E+00  0.10001456175E+04  0.40759299214E+04  0.39513179406E+04 0.  0.
        5    1    3    3  502    0  0.14392720068E+03  0.87032838106E+03  0.23235952615E+04  0.24854181860E+04  0.46999998093E+01 0.  1.
       -5    1    3    3    0  502 -0.14392720068E+03 -0.87032838106E+03 -0.13234496441E+04  0.15905117354E+04  0.46999998093E+01 0. -1.
</event>
<event>
 5   0  0.8551754E-08  0.3889735E+04  0.7818609E-02  0.8027168E-01
        2   -1    0    0  501    0  0.00000000000E+00  0.00000000000E+00  0.21267997427E+04  0.21267997427E+04  0.25500000920E-02 0.  1.
       -2   -1    0    0    0  501  0.00000000000E+00  0.00000000000E+00 -0.17784979741E+04  0.17784979741E+04  0.25500000920E-02 0. -1.
    10030    2    1    2    0    0  0.00000000000E+00  0.00000000000E+00  0.34830176863E+03  0.39052977169E+04  0.38897347127E+04 0.  0.
        1    1    3    3  502    0 -0.13660319034E+04  0.11746942635E+04  0.90958371258E+03  0.20182399025E+04  0.50400001928E-02 0. -1.
       -1    1    3    3    0  502  0.13660319034E+04 -0.11746942635E+04 -0.56128194395E+03  0.18870578143E+04  0.50400001928E-02 0.  1.
</event>
<event>
 5   0  0.8342802E-08  0.3910406E+04  0.7818609E-02  0.8022869E-01
        2   -1    0    0  501    0  0.00000000000E+00  0.00000000000E+00  0.27671509025E+04  0.27671509025E+04  0.25500000920E-02 0. -1.
       -2   -1    0    0    0  501  0.00000000000E+00  0.00000000000E+00 -0.13814996022E+04  0.13814996022E+04  0.25500000920E-02 0.  1.
    10030    2    1    2    0    0  0.00000000000E+00  0.00000000000E+00  0.13856513003E+04  0.41486505046E+04  0.39104055395E+04 0.  0.
        4    1    3    3  502    0  0.17709557859E+04  0.71594647745E+03  0.11353125245E+04  0.22221160850E+04  0.12699999809E+01 0. -1.
       -4    1    3    3    0  502 -0.17709557859E+04 -0.71594647745E+03  0.25033877581E+03  0.19265344196E+04  0.12699999809E+01 0.  1.
</event>
<event>
 5   0  0.8438211E-08  0.3641736E+04  0.7818609E-02  0.8080998E-01
        2   -1    0    0  501    0  0.00000000000E+00  0.00000000000E+00  0.19370757887E+04  0.19370757887E+04  0.25500000920E-02 0.  1.
       -2   -1    0    0    0  501  0.00000000000E+00  0.00000000000E+00 -0.17116313302E+04  0.17116313302E+04  0.25500000920E-02 0. -1.
    10030    2    1    2    0    0  0.00000000000E+00  0.00000000000E+00  0.22544445844E+03  0.36487071189E+04  0.36417356350E+04 0.  0.
        5    1    3    3  502    0  0.39519106664E+03 -0.31554205344E+03  0.18652977281E+04  0.19326408024E+04  0.46999998093E+01 0.  1.
       -5    1    3    3    0  502 -0.39519106664E+03  0.31554205344E+03 -0.16398532696E+04  0.17160663165E+04  0.46999998093E+01 0. -1.
</event>
<event>
 5   0  0.8676098E-08  0.3899423E+04  0.7818609E-02  0.8025149E-01
        2   -1    0    0  501    0  0.00000000000E+00  0.00000000000E+00  0.13487173391E+04  0.13487173391E+04  0.25500000920E-02 0.  1.
       -2   -1    0    0    0  501  0.00000000000E+00  0.00000000000E+00 -0.28185118428E+04  0.28185118428E+04  0.25500000920E-02 0. -1.
    10030    2    1    2    0    0  0.00000000000E+00  0.00000000000E+00 -0.14697945037E+04  0.41672291820E+04  0.38994234410E+04 0.  0.
        3    1    3    3  502    0  0.79394687964E+03 -0.12801516516E+04 -0.20577448165E+04  0.25501869811E+04  0.10100000352E+00 0. -1.
       -3    1    3    3    0  502 -0.79394687964E+03  0.12801516516E+04  0.58795031283E+03  0.16170422008E+04  0.10100000352E+00 0.  1.
</event>
<event>
 5   0  0.2632875E-08  0.3887326E+04  0.7818609E-02  0.8027670E-01
        1   -1    0    0  501    0  0.00000000000E+00  0.00000000000E+00  0.21707447193E+04  0.21707447193E+04  0.50400001928E-02 0. -1.
       -1   -1    0    0    0  501  0.00000000000E+00  0.00000000000E+00 -0.17403364929E+04  0.17403364929E+04  0.50400001928E-02 0.  1.
    10030    2    1    2    0    0  0.00000000000E+00  0.00000000000E+00  0.43040822640E+03  0.39110812122E+04  0.38873262028E+04 0.  0.
        4    1    3    3  502    0 -0.13897817635E+04  0.95021386226E+03 -0.76203202005E+03  0.18479973340E+04  0.12699999809E+01 0.  1.
       -4    1    3    3    0  502  0.13897817635E+04 -0.95021386226E+03  0.11924402464E+04  0.20630838782E+04  0.12699999809E+01 0. -1.
</event>
<event>
 5   0  0.8438211E-08  0.3898702E+04  0.7818609E-02  0.8025299E-01
       -2   -1    0    0    0  501  0.00000000000E+00  0.00000000000E+00  0.29595184131E+04  0.29595184131E+04  0.25500000920E-02 0.  1.
        2   -1    0    0  501    0  0.00000000000E+00  0.00000000000E+00 -0.12839823235E+04  0.12839823235E+04  0.25500000920E-02 0. -1.
    10030    2    1    2    0    0  0.00000000000E+00  0.00000000000E+00  0.16755360897E+04  0.42435007366E+04  0.38987020037E+04 0.  0.
        5    1    3    3  502    0 -0.11275201304E+04 -0.15898987900E+04  0.86982496977E+03  0.21344079682E+04  0.46999998093E+01 0. -1.
       -5    1    3    3    0  502  0.11275201304E+04  0.15898987900E+04  0.80571111990E+03  0.21090927684E+04  0.46999998093E+01 0.  1.
</event>
<event>
 5   0  0.2632875E-08  0.3926779E+04  0.7818609E-02  0.8019483E-01
        1   -1    0    0  501    0  0.00000000000E+00  0.00000000000E+00  0.18428886424E+04  0.18428886424E+04  0.50400001928E-02 0. -1.
       -1   -1    0    0    0  501  0.00000000000E+00  0.00000000000E+00 -0.20917698259E+04  0.20917698259E+04  0.50400001928E-02 0.  1.
    10030    2    1    2    0    0  0.00000000000E+00  0.00000000000E+00 -0.24888118344E+03  0.39346584683E+04  0.39267792679E+04 0.  0.
        5    1    3    3  502    0  0.32600854778E+03 -0.44328678052E+02 -0.20639458627E+04  0.20900098610E+04  0.46999998093E+01 0.  1.
       -5    1    3    3    0  502 -0.32600854778E+03  0.44328678052E+02  0.18150646792E+04  0.18446486074E+04  0.46999998093E+01 0. -1.
</event>
<event>
 5   0  0.2632875E-08  0.3918172E+04  0.7818609E-02  0.8021260E-01
       -1   -1    0    0    0  501  0.00000000000E+00  0.00000000000E+00  0.22951988092E+04  0.22951988092E+04  0.50400001928E-02 0.  1.
        1   -1    0    0  501    0  0.00000000000E+00  0.00000000000E+00 -0.16721944863E+04  0.16721944863E+04  0.50400001928E-02 0. -1.
    10030    2    1    2    0    0  0.00000000000E+00  0.00000000000E+00  0.62300432289E+03  0.39673932956E+04  0.39181724280E+04 0.  0.
        5    1    3    3  502    0  0.10545376599E+04 -0.36000078313E+03 -0.13200577792E+04  0.17274909176E+04  0.46999998093E+01 0. -1.
       -5    1    3    3    0  502 -0.10545376599E+04  0.36000078313E+03  0.19430621021E+04  0.22399023779E+04  0.46999998093E+01 0.  1.
</event>
<event>
 5   0  0.2632875E-08  0.3899950E+04  0.7818609E-02  0.8025040E-01
       -1   -1    0    0    0  501  0.00000000000E+00  0.00000000000E+00  0.19480989588E+04  0.19480989588E+04  0.50400001928E-02 0. -1.
        1   -1    0    0  501    0  0.00000000000E+00  0.00000000000E+00 -0.19518525580E+04  0.19518525580E+04  0.50400001928E-02 0.  1.
    10030    2    1    2    0    0  0.00000000000E+00  0.00000000000E+00 -0.37535992004E+01  0.38999515169E+04  0.38999497105E+04 0.  0.
        5    1    3    3  502    0 -0.36765071257E+03 -0.17389064874E+04 -0.80400997044E+03  0.19507477902E+04  0.46999998093E+01 0. -1.
       -5    1    3    3    0  502  0.36765071257E+03  0.17389064874E+04  0.80025637124E+03  0.19492037267E+04  0.46999998093E+01 0.  1.
</event>
<event>
 5   0  0.2632875E-08  0.3896084E+04  0.7818609E-02  0.8025844E-01
       -1   -1    0    0    0  501  0.00000000000E+00  0.00000000000E+00  0.25400172352E+04  0.25400172352E+04  0.50400001928E-02 0.  1.
        1   -1    0    0  501    0  0.00000000000E+00  0.00000000000E+00 -0.14940321845E+04  0.14940321845E+04  0.50400001928E-02 0. -1.
    10030    2    1    2    0    0  0.00000000000E+00  0.00000000000E+00  0.10459850507E+04  0.40340494197E+04  0.38960839306E+04 0.  0.
        1    1    3    3  502    0 -0.57775027373E+02  0.89100370800E+03  0.23156725870E+04  0.24818471129E+04  0.50400001928E-02 0.  1.
       -1    1    3    3    0  502  0.57775027373E+02 -0.89100370800E+03 -0.12696875363E+04  0.15522023068E+04  0.50400001928E-02 0. -1.
</event>
<event>
 5   0  0.8676098E-08  0.3960157E+04  0.7818609E-02  0.8012633E-01
       -2   -1    0    0    0  501  0.00000000000E+00  0.00000000000E+00  0.25662751555E+04  0.25662751555E+04  0.25500000920E-02 0. -1.
        2   -1    0    0  501    0  0.00000000000E+00  0.00000000000E+00 -0.15277827671E+04  0.15277827671E+04  0.25500000920E-02 0.  1.
    10030    2    1    2    0    0  0.00000000000E+00  0.00000000000E+00  0.10384923884E+04  0.40940579225E+04  0.39601570464E+04 0.  0.
        3    1    3    3  502    0 -0.11254037635E+04  0.25292944813E+03 -0.11445823077E+04  0.16249848018E+04  0.10100000352E+00 0.  1.
       -3    1    3    3    0  502  0.11254037635E+04 -0.25292944813E+03  0.21830746961E+04  0.24690731208E+04  0.10100000352E+00 0. -1.
</event>
<event>
 5   0  0.2632875E-08  0.3887064E+04  0.7818609E-02  0.8027725E-01
       -1   -1    0    0    0  501  0.00000000000E+00  0.00000000000E+00  0.30608237505E+04  0.30608237505E+04  0.50400001928E-02 0.  1.
        1   -1    0    0  501    0  0.00000000000E+00  0.00000000000E+00 -0.12340850348E+04  0.12340850348E+04  0.50400001928E-02 0. -1.
    10030    2    1    2    0    0  0.00000000000E+00  0.00000000000E+00  0.18267387157E+04  0.42949087853E+04  0.38870640770E+04 0.  0.
        2    1    3    3  502    0 -0.19477732810E+03  0.31517579478E+03 -0.11947028840E+04  0.12508353090E+04  0.25500000920E-02 0. -1.
       -2    1    3    3    0  502  0.19477732810E+03 -0.31517579478E+03  0.30214415997E+04  0.30440734763E+04  0.25500000920E-02 0.  1.
</event>
<event>
 5   0  0.2632875E-08  0.3900184E+04  0.7818609E-02  0.8024991E-01
       -1   -1    0    0    0  501  0.00000000000E+00  0.00000000000E+00  0.21231799938E+04  0.21231799938E+04  0.50400001928E-02 0. -1.
        1   -1    0    0  501    0  0.00000000000E+00  0.00000000000E+00 -0.17911142124E+04  0.17911142124E+04  0.50400001928E-02 0.  1.
    10030    2    1    2    0    0  0.00000000000E+00  0.00000000000E+00  0.33206578148E+03  0.39142942062E+04  0.39001835148E+04 0.  0.
        4    1    3    3  502    0 -0.12637056743E+04 -0.80684611180E+03 -0.10854362730E+04  0.18509797932E+04  0.12699999809E+01 0.  1.
       -4    1    3    3    0  502  0.12637056743E+04  0.80684611180E+03  0.14175020544E+04  0.20633144129E+04  0.12699999809E+01 0. -1.
</event>
<event>
 5   0  0.8476262E-08  0.3895845E+04  0.7818609E-02  0.8025894E-01
        2   -1    0    0  501    0  0.00000000000E+00  0.00000000000E+00  0.29962510346E+04  0.29962510346E+04  0.25500000920E-02 0. -1.
       -2   -1    0    0    0  501  0.00000000000E+00  0.00000000000E+00 -0.12663832312E+04  0.12663832312E+04  0.25500000920E-02 0.  1.
    10030    2    1    2    0    0  0.00000000000E+00  0.00000000000E+00  0.17298678034E+04  0.42626342659E+04  0.38958450004E+04 0.  0.
        2    1    3    3  502    0 -0.66254648587E+03  0.12353556665E+04 -0.61493246956E+03  0.15307558299E+04  0.25500000920E-02 0.  1.
       -2    1    3    3    0  502  0.66254648587E+03 -0.12353556665E+04  0.23448002730E+04  0.27318784359E+04  0.25500000920E-02 0. -1.
</event>
<event>
 5   0  0.8476262E-08  0.3902304E+04  0.7818609E-02  0.8024550E-01
        2   -1    0    0  501    0  0.00000000000E+00  0.00000000000E+00  0.27826236537E+04  0.27826236537E+04  0.25500000920E-02 0.  1.
       -2   -1    0    0    0  501  0.00000000000E+00  0.00000000000E+00 -0.13681313823E+04  0.13681313823E+04  0.25500000920E-02 0. -1.
    10030    2    1    2    0    0  0.00000000000E+00  0.00000000000E+00  0.14144922715E+04  0.41507550360E+04  0.39023043170E+04 0.  0.
        2    1    3    3  502    0  0.78132453818E+03  0.12286944800E+04  0.20887193705E+04  0.25461552914E+04  0.25500000920E-02 0.  1.
       -2    1    3    3    0  502 -0.78132453818E+03 -0.12286944800E+04 -0.67422709906E+03  0.16045997446E+04  0.25500000920E-02 0. -1.
</event>
<event>
 5   0  0.2632875E-08  0.3937758E+04  0.7818609E-02  0.8017222E-01
       -1   -1    0    0    0  501  0.00000000000E+00  0.00000000000E+00  0.13460621880E+04  0.13460621880E+04  0.50400001928E-02 0. -1.
        1   -1    0    0  501    0  0.00000000000E+00  0.00000000000E+00 -0.28798708057E+04  0.28798708057E+04  0.50400001928E-02 0.  1.
    10030    2    1    2    0    0  0.00000000000E+00  0.00000000000E+00 -0.15338086178E+04  0.42259329937E+04  0.39377583459E+04 0.  0.
        1    1    3    3  502    0 -0.95577297757E+03 -0.73731038161E+03  0.90235378264E+03  0.15071068086E+04  0.50400001928E-02 0. -1.
       -1    1    3    3    0  502  0.95577297757E+03  0.73731038161E+03 -0.24361624004E+04  0.27188261851E+04  0.50400001928E-02 0.  1.
</event>
<event>
 5   0  0.8438211E-08  0.3913462E+04  0.7818609E-02  0.8022235E-01
        2   -1    0    0  501    0  0.00000000000E+00  0.00000000000E+00  0.26212894962E+04  0.26212894962E+04  0.25500000920E-02 0.  1.
       -2   -1    0    0    0  501  0.00000000000E+00  0.00000000000E+00 -0.14606533401E+04  0.14606533401E+04  0.25500000920E-02 0. -1.
    10030    2    1    2    0    0  0.00000000000E+00  0.00000000000E+00  0.11606361561E+04  0.40819428363E+04  0.39134615153E+04 0.  0.
        5    1    3    3  502    0  0.14138745223E+04 -0.60030088209E+03  0.18446804476E+04  0.24004729446E+04  0.46999998093E+01 0.  1.
       -5    1    3    3    0  502 -0.14138745223E+04  0.60030088209E+03 -0.68404429156E+03  0.16814698917E+04  0.46999998093E+01 0. -1.
</event>
<event>
 5   0  0.2632875E-08  0.3880019E+04  0.7818609E-02  0.8029198E-01
        1   -1    0    0  501    0  0.00000000000E+00  0.00000000000E+00  0.17308158409E+04  0.17308158409E+04  0.50400001928E-02 0. -1.
       -1   -1    0    0    0  501  0.00000000000E+00  0.00000000000E+00 -0.21744874588E+04  0.21744874588E+04  0.50400001928E-02 0.  1.
    10030    2    1    2    0    0  0.00000000000E+00  0.00000000000E+00 -0.44367161784E+03  0.39053032997E+04  0.38800192472E+04 0.  0.
        3    1    3    3  502    0  0.81370010784E+03 -0.23272289952E+03  0.15352114704E+04  0.17530379581E+04  0.10100000352E+00 0. -1.
       -3    1    3    3    0  502 -0.81370010784E+03  0.23272289952E+03 -0.19788830883E+04  0.21522653416E+04  0.10100000352E+00 0.  1.
</event>
<event>
 5   0  0.8342802E-08  0.3898177E+04  0.7818609E-02  0.8025408E-01
       -2   -1    0    0    0  501  0.00000000000E+00  0.00000000000E+00  0.15761580364E+04  0.15761580364E+04  0.25500000920E-02 0.  1.
        2   -1    0    0  501    0  0.00000000000E+00  0.00000000000E+00 -0.24102572300E+04  0.24102572300E+04  0.25500000920E-02 0. -1.
    10030    2    1    2    0    0  0.00000000000E+00  0.00000000000E+00 -0.83409919353E+03  0.39864152664E+04  0.38981771652E+04 0.  0.
        4    1    3    3  502    0  0.55667179495E+03  0.42698439522E+03  0.14425581714E+04  0.16041118576E+04  0.12699999809E+01 0.  1.
       -4    1    3    3    0  502 -0.55667179495E+03 -0.42698439522E+03 -0.22766573649E+04  0.23823034087E+04  0.12699999809E+01 0. -1.
</event>
<event>
 5   0  0.2632875E-08  0.3833222E+04  0.7818609E-02  0.8039063E-01
        1   -1    0    0  501    0  0.00000000000E+00  0.00000000000E+00  0.23067662239E+04  0.23067662239E+04  0.50400001928E-02 0. -1.
       -1   -1    0    0    0  501  0.00000000000E+00  0.00000000000E+00 -0.15924451193E+04  0.15924451193E+04  0.50400001928E-02 0.  1.
    10030    2    1    2    0    0  0.00000000000E+00  0.00000000000E+00  0.71432110466E+03  0.38992113432E+04  0.38332224640E+04 0.  0.
        2    1    3    3  502    0  0.15527380077E+04 -0.78657122403E+03 -0.45896606535E+03  0.18000942921E+04  0.25500000920E-02 0.  1.
       -2    1    3    3    0  502 -0.15527380077E+04  0.78657122403E+03  0.11732871700E+04  0.20991170512E+04  0.25500000920E-02 0. -1.
</event>
<event>
 5   0  0.2632875E-08  0.3910126E+04  0.7818609E-02  0.8022926E-01
        1   -1    0    0  501    0  0.00000000000E+00  0.00000000000E+00  0.25535293328E+04  0.25535293328E+04  0.50400001928E-02 0.  1.
       -1   -1    0    0    0  501  0.00000000000E+00  0.00000000000E+00 -0.14968585162E+04  0.14968585162E+04  0.50400001928E-02 0. -1.
    10030    2    1    2    0    0  0.00000000000E+00  0.00000000000E+00  0.10566708167E+04  0.40503878490E+04  0.39101264062E+04 0.  0.
        3    1    3    3  502    0 -0.11971577349E+04 -0.15193892537E+04  0.23435634411E+03  0.19485002573E+04  0.10100000352E+00 0. -1.
       -3    1    3    3    0  502  0.11971577349E+04  0.15193892537E+04  0.82231447254E+03  0.21018875917E+04  0.10100000352E+00 0.  1.
</event>
<event>
 5   0  0.2632875E-08  0.3903667E+04  0.7818609E-02  0.8024267E-01
       -1   -1    0    0    0  501  0.00000000000E+00  0.00000000000E+00  0.27151762631E+04  0.27151762631E+04  0.50400001928E-02 0. -1.
        1   -1    0    0  501    0  0.00000000000E+00  0.00000000000E+00 -0.14030963792E+04  0.14030963792E+04  0.50400001928E-02 0.  1.
    10030    2    1    2    0    0  0.00000000000E+00  0.00000000000E+00  0.13120798839E+04  0.41182726423E+04  0.39036669856E+04 0.  0.
        1    1    3    3  502    0  0.10524570116E+04  0.12156920936E+04 -0.51116576881E+03  0.16872650862E+04  0.50400001928E-02 0.  1.
       -1    1    3    3    0  502 -0.10524570116E+04 -0.12156920936E+04  0.18232456528E+04  0.24310075562E+04  0.50400001928E-02 0. -1.
</event>
<event>
 5   0  0.2632875E-08  0.3890317E+04  0.7818609E-02  0.8027046E-01
        1   -1    0    0  501    0  0.00000000000E+00  0.00000000000E+00  0.27514296182E+04  0.27514296182E+04  0.50400001928E-02 0.  1.
       -1   -1    0    0    0  501  0.00000000000E+00  0.00000000000E+00 -0.13751544537E+04  0.13751544537E+04  0.50400001928E-02 0. -1.
    10030    2    1    2    0    0  0.00000000000E+00  0.00000000000E+00  0.13762751645E+04  0.41265840719E+04  0.38903165391E+04 0.  0.
        3    1    3    3  502    0  0.72544629997E+03  0.30948662693E+03 -0.11979344875E+04  0.14342598624E+04  0.10100000352E+00 0. -1.
       -3    1    3    3    0  502 -0.72544629997E+03 -0.30948662693E+03  0.25742096520E+04  0.26923242095E+04  0.10100000352E+00 0.  1.
</event>
<event>
 5   0  0.8342802E-08  0.3913935E+04  0.7818609E-02  0.8022137E-01
        2   -1    0    0  501    0  0.00000000000E+00  0.00000000000E+00  0.19617610754E+04  0.19617610754E+04  0.25500000920E-02 0.  1.
       -2   -1    0    0    0  501  0.00000000000E+00  0.00000000000E+00 -0.19521860189E+04  0.19521860189E+04  0.25500000920E-02 0. -1.
    10030    2    1    2    0    0  0.00000000000E+00  0.00000000000E+00  0.95750564995E+01  0.39139470943E+04  0.39139353821E+04 0.  0.
        4    1    3    3  502    0 -0.10818168673E+04  0.43995299596E+02 -0.16253883870E+04  0.19529854947E+04  0.12699999809E+01 0. -1.
       -4    1    3    3    0  502  0.10818168673E+04 -0.43995299596E+02  0.16349634435E+04  0.19609615997E+04  0.12699999809E+01 0.  1.
</event>
<event>
 5   0  0.8551754E-08  0.3865713E+04  0.7818609E-02  0.8032198E-01
       -2   -1    0    0    0  501  0.00000000000E+00  0.00000000000E+00  0.23382757823E+04  0.23382757823E+04  0.25500000920E-02 0.  1.
        2   -1    0    0  501    0  0.00000000000E+00  0.00000000000E+00 -0.15977307627E+04  0.15977307627E+04  0.25500000920E-02 0. -1.
    10030    2    1    2    0    0  0.00000000000E+00  0.00000000000E+00  0.74054501959E+03  0.39360065450E+04  0.38657134653E+04 0.  0.
        1    1    3    3  502    0  0.13052674531E+04  0.76723426746E+03 -0.85305886351E+03  0.17378380160E+04  0.50400001928E-02 0. -1.
       -1    1    3    3    0  502 -0.13052674531E+04 -0.76723426746E+03  0.15936038831E+04  0.21981685289E+04  0.50400001928E-02 0.  1.
</event>
<event>
 5   0  0.2632875E-08  0.3904846E+04  0.7818609E-02  0.8024022E-01
       -1   -1    0    0    0  501  0.00000000000E+00  0.00000000000E+00  0.19110473371E+04  0.19110473371E+04  0.50400001928E-02 0. -1.
        1   -1    0    0  501    0  0.00000000000E+00  0.00000000000E+00 -0.19946948453E+04  0.19946948453E+04  0.50400001928E-02 0.  1.
    10030    2    1    2    0    0  0.00000000000E+00  0.00000000000E+00 -0.83647508168E+02  0.39057421825E+04  0.39048463594E+04 0.  0.
        2    1    3    3  502    0 -0.19401851081E+04 -0.18846536970E+03 -0.15193453573E+03  0.19552292839E+04  0.25500000920E-02 0.  1.
       -2    1    3    3    0  502  0.19401851081E+04  0.18846536970E+03  0.68287027562E+02  0.19505128986E+04  0.25500000920E-02 0. -1.
</event>
<event>
 5   0  0.2632875E-08  0.3900807E+04  0.7818609E-02  0.8024861E-01
       -1   -1    0    0    0  501  0.00000000000E+00  0.00000000000E+00  0.27724766936E+04  0.27724766936E+04  0.50400001928E-02 0. -1.
        1   -1    0    0  501    0  0.00000000000E+00  0.00000000000E+00 -0.13720849389E+04  0.13720849389E+04  0.50400001928E-02 0.  1.
    10030    2    1    2    0    0  0.00000000000E+00  0.00000000000E+00  0.14003917547E+04  0.41445616325E+04  0.39008068471E+04 0.  0.
        2    1    3    3  502    0 -0.50246390944E+03 -0.15476485281E+04  0.18427475830E+04  0.24583337043E+04  0.25500000920E-02 0. -1.
       -2    1    3    3    0  502  0.50246390944E+03  0.15476485281E+04 -0.44235582831E+03  0.16862279282E+04  0.25500000920E-02 0.  1.
</event>
<event>
 5   0  0.8342802E-08  0.3911813E+04  0.7818609E-02  0.8022577E-01
        2   -1    0    0  501    0  0.00000000000E+00  0.00000000000E+00  0.22348792135E+04  0.22348792135E+04  0.25500000920E-02 0. -1.
       -2   -1    0    0    0  501  0.00000000000E+00  0.00000000000E+00 -0.17117568814E+04  0.17117568814E+04  0.25500000920E-02 0.  1.
    10030    2    1    2    0    0  0.00000000000E+00  0.00000000000E+00  0.52312233208E+03  0.39466360949E+04  0.39118128139E+04 0.  0.
        4    1    3    3  502    0  0.14836521614E+04 -0.88543982769E+03  0.11864227758E+04  0.20959074503E+04  0.12699999809E+01 0. -1.
       -4    1    3    3    0  502 -0.14836521614E+04  0.88543982769E+03 -0.66330044374E+03  0.18507286446E+04  0.12699999809E+01 0.  1.
</event>
<event>
 5   0  0.2632875E-08  0.3836858E+04  0.7818609E-02  0.8038291E-01
        1   -1    0    0  501    0  0.00000000000E+00  0.00000000000E+00  0.11993403051E+04  0.11993403052E+04  0.50400001928E-02 0.  1.
       -1   -1    0    0    0  501  0.00000000000E+00  0.00000000000E+00 -0.30686611332E+04  0.30686611332E+04  0.50400001928E-02 0. -1.
    10030    2    1    2    0    0  0.00000000000E+00  0.00000000000E+00 -0.18693208280E+04  0.42680014383E+04  0.38368575579E+04 0.  0.
        3    1    3    3  502    0  0.24629762268E+03  0.17680276799E+04 -0.15300086151E+03  0.17916455201E+04  0.10100000352E+00 0.  1.
       -3    1    3    3    0  502 -0.24629762268E+03 -0.17680276799E+04 -0.17163199665E+04  0.24763559182E+04  0.10100000352E+00 0. -1.
</event>
<event>
 5   0  0.8342802E-08  0.3774680E+04  0.7818609E-02  0.8051610E-01
       -2   -1    0    0    0  501  0.00000000000E+00  0.00000000000E+00  0.13814419302E+04  0.13814419302E+04  0.25500000920E-02 0. -1.
        2   -1    0    0  501    0  0.00000000000E+00  0.00000000000E+00 -0.25785027785E+04  0.25785027785E+04  0.25500000920E-02 0.  1.
    10030    2    1    2    0    0  0.00000000000E+00  0.00000000000E+00 -0.11970608484E+04  0.39599447087E+04  0.37746797773E+04 0.  0.
        4    1    3    3  502    0 -0.18491490321E+03  0.10385053194E+04 -0.22403885310E+04  0.24762934403E+04  0.12699999809E+01 0.  1.
       -4    1    3    3    0  502  0.18491490321E+03 -0.10385053194E+04  0.10433276826E+04  0.14836512684E+04  0.12699999809E+01 0. -1.
</event>
<event>
 5   0  0.2632875E-08  0.3888246E+04  0.7818609E-02  0.8027478E-01
       -1   -1    0    0    0  501  0.00000000000E+00  0.00000000000E+00  0.16405252565E+04  0.16405252565E+04  0.50400001928E-02 0. -1.
        1   -1    0    0  501    0  0.00000000000E+00  0.00000000000E+00 -0.23039046839E+04  0.23039046839E+04  0.50400001928E-02 0.  1.
    10030    2    1    2    0    0  0.00000000000E+00  0.00000000000E+00 -0.66337942740E+03  0.39444299404E+04  0.38882457857E+04 0.  0.
        3    1    3    3  502    0  0.15766584816E+04  0.31872681230E+03 -0.14393346172E+04  0.21585001503E+04  0.10100000352E+00 0.  1.
       -3    1    3    3    0  502 -0.15766584816E+04 -0.31872681230E+03  0.77595518976E+03  0.17859297901E+04  0.10100000352E+00 0. -1.
</event>
<event>
 5   0  0.2632875E-08  0.3902597E+04  0.7818609E-02  0.8024489E-01
       -1   -1    0    0    0  501  0.00000000000E+00  0.00000000000E+00  0.16599232867E+04  0.16599232867E+04  0.50400001928E-02 0. -1.
        1   -1    0    0  501    0  0.00000000000E+00  0.00000000000E+00 -0.22938205215E+04  0.22938205215E+04  0.50400001928E-02 0.  1.
    10030    2    1    2    0    0  0.00000000000E+00  0.00000000000E+00 -0.63389723482E+03  0.39537438082E+04  0.39025971348E+04 0.  0.
        3    1    3    3  502    0  0.12376400850E+03 -0.17579910567E+04 -0.11656120589E+04  0.21129367163E+04  0.10100000352E+00 0.  1.
       -3    1    3    3    0  502 -0.12376400850E+03  0.17579910567E+04  0.53171482408E+03  0.18408070919E+04  0.10100000352E+00 0. -1.
</event>
<event>
 5   0  0.8342802E-08  0.3926974E+04  0.7818609E-02  0.8019442E-01
        2   -1    0    0  501    0  0.00000000000E+00  0.00000000000E+00  0.31893797433E+04  0.31893797433E+04  0.25500000920E-02 0.  1.
       -2   -1    0    0    0  501  0.00000000000E+00  0.00000000000E+00 -0.12087873001E+04  0.12087873001E+04  0.25500000920E-02 0. -1.
    10030    2    1    2    0    0  0.00000000000E+00  0.00000000000E+00  0.19805924431E+04  0.43981670434E+04  0.39269742698E+04 0.  0.
        4    1    3    3  502    0 -0.11794223118E+04  0.11002766076E+04  0.22443008350E+04  0.27637896906E+04  0.12699999809E+01 0.  1.
       -4    1    3    3    0  502  0.11794223118E+04 -0.11002766076E+04 -0.26370839187E+03  0.16343773529E+04  0.12699999809E+01 0. -1.
</event>
<event>
 5   0  0.8551754E-08  0.4129635E+04  0.7818609E-02  0.7978894E-01
        2   -1    0    0  501    0  0.00000000000E+00  0.00000000000E+00  0.25779304579E+04  0.25779304579E+04  0.25500000920E-02 0.  1.
       -2   -1    0    0    0  501  0.00000000000E+00  0.00000000000E+00 -0.16538348509E+04  0.16538348509E+04  0.25500000920E-02 0. -1.
    10030    2    1    2    0    0  0.00000000000E+00  0.00000000000E+00  0.92409560698E+03  0.42317653088E+04  0.41296349642E+04 0.  0.
        1    1    3    3  502    0 -0.14555926765E+03 -0.88069860347E+03 -0.14458940722E+04  0.16992431252E+04  0.50400001928E-02 0. -1.
       -1    1    3    3    0  502  0.14555926765E+03  0.88069860347E+03  0.23699896792E+04  0.25325221835E+04  0.50400001928E-02 0.  1.
</event>
<event>
 5   0  0.8476262E-08  0.3883488E+04  0.7818609E-02  0.8028472E-01
        2   -1    0    0  501    0  0.00000000000E+00  0.00000000000E+00  0.28474679352E+04  0.28474679352E+04  0.25500000920E-02 0.  1.
       -2   -1    0    0    0  501  0.00000000000E+00  0.00000000000E+00 -0.13241130950E+04  0.13241130950E+04  0.25500000920E-02 0. -1.
    10030    2    1    2    0    0  0.00000000000E+00  0.00000000000E+00  0.15233548402E+04  0.41715810302E+04  0.38834879068E+04 0.  0.
        2    1    3    3  502    0  0.29575161238E+03  0.10270090479E+04  0.25030995026E+04  0.27217133796E+04  0.25500000920E-02 0.  1.
       -2    1    3    3    0  502 -0.29575161238E+03 -0.10270090479E+04 -0.97974466241E+03  0.14498676506E+04  0.25500000920E-02 0. -1.
</event>
<event>
 5   0  0.8342802E-08  0.3887755E+04  0.7818609E-02  0.8027581E-01
        2   -1    0    0  501    0  0.00000000000E+00  0.00000000000E+00  0.26161484232E+04  0.26161484232E+04  0.25500000920E-02 0.  1.
       -2   -1    0    0    0  501  0.00000000000E+00  0.00000000000E+00 -0.14443596063E+04  0.14443596063E+04  0.25500000920E-02 0. -1.
    10030    2    1    2    0    0  0.00000000000E+00  0.00000000000E+00  0.11717888169E+04  0.40605080295E+04  0.38877546767E+04 0.  0.
        4    1    3    3  502    0 -0.18634023019E+04 -0.54395394749E+03  0.47885402105E+03  0.19993641044E+04  0.12699999809E+01 0. -1.
       -4    1    3    3    0  502  0.18634023019E+04  0.54395394749E+03  0.69293479583E+03  0.20611439251E+04  0.12699999809E+01 0.  1.
</event>
<event>
 5   0  0.2632875E-08  0.3922662E+04  0.7818609E-02  0.8020332E-01
        1   -1    0    0  501    0  0.00000000000E+00  0.00000000000E+00  0.22243216576E+04  0.22243216576E+04  0.50400001928E-02 0.  1.
       -1   -1    0    0    0  501  0.00000000000E+00  0.00000000000E+00 -0.17294349718E+04  0.17294349718E+04  0.50400001928E-02 0. -1.
    10030    2    1    2    0    0  0.00000000000E+00  0.00000000000E+00  0.49488668586E+03  0.39537566294E+04  0.39226621895E+04 0.  0.
        1    1    3    3  502    0 -0.13395880989E+04 -0.12987912135E+04  0.85677225330E+03  0.20531472390E+04  0.50400001928E-02 0.  1.
       -1    1    3    3    0  502  0.13395880989E+04  0.12987912135E+04 -0.36188556745E+03  0.19006093904E+04  0.50400001928E-02 0. -1.
</event>
<event>
 5   0  0.2632875E-08  0.3900869E+04  0.7818609E-02  0.8024849E-01
       -1   -1    0    0    0  501  0.00000000000E+00  0.00000000000E+00  0.13836462783E+04  0.13836462783E+04  0.50400001928E-02 0. -1.
        1   -1    0    0  501    0  0.00000000000E+00  0.00000000000E+00 -0.27493977990E+04  0.27493977990E+04  0.50400001928E-02 0.  1.
    10030    2    1    2    0    0  0.00000000000E+00  0.00000000000E+00 -0.13657515207E+04  0.41330440772E+04  0.39008686376E+04 0.  0.
        3    1    3    3  502    0  0.74864490867E+03  0.14944252227E+04 -0.17478994421E+04  0.24184557915E+04  0.10100000352E+00 0. -1.
       -3    1    3    3    0  502 -0.74864490867E+03 -0.14944252227E+04  0.38214792141E+03  0.17145882857E+04  0.10100000352E+00 0.  1.
</event>
<event>
 5   0  0.8476262E-08  0.3886807E+04  0.7818609E-02  0.8027779E-01
       -2   -1    0    0    0  501  0.00000000000E+00  0.00000000000E+00  0.21050833600E+04  0.21050833600E+04  0.25500000920E-02 0.  1.
        2   -1    0    0  501    0  0.00000000000E+00  0.00000000000E+00 -0.17941411411E+04  0.17941411411E+04  0.25500000920E-02 0. -1.
    10030    2    1    2    0    0  0.00000000000E+00  0.00000000000E+00  0.31094221891E+03  0.38992245010E+04  0.38868067415E+04 0.  0.
        2    1    3    3  502    0  0.12093379520E+03 -0.39243736010E+03  0.20610619978E+04  0.21015728927E+04  0.25500000920E-02 0.  1.
       -2    1    3    3    0  502 -0.12093379520E+03  0.39243736010E+03 -0.17501197789E+04  0.17976516083E+04  0.25500000920E-02 0. -1.
</event>
<event>
 5   0  0.2632875E-08  0.3911270E+04  0.7818609E-02  0.8022689E-01
       -1   -1    0    0    0  501  0.00000000000E+00  0.00000000000E+00  0.28146494084E+04  0.28146494084E+04  0.50400001928E-02 0.  1.
        1   -1    0    0  501    0  0.00000000000E+00  0.00000000000E+00 -0.13587866956E+04  0.13587866956E+04  0.50400001928E-02 0. -1.
    10030    2    1    2    0    0  0.00000000000E+00  0.00000000000E+00  0.14558627128E+04  0.41734361040E+04  0.39112699569E+04 0.  0.
        2    1    3    3  502    0  0.48900051752E+03  0.28917060828E+03  0.27246625417E+04  0.27832583626E+04  0.25500000920E-02 0.  1.
       -2    1    3    3    0  502 -0.48900051752E+03 -0.28917060828E+03 -0.12687998289E+04  0.13901777414E+04  0.25500000920E-02 0. -1.
</event>
<event>
 5   0  0.2632875E-08  0.3894146E+04  0.7818609E-02  0.8026248E-01
        1   -1    0    0  501    0  0.00000000000E+00  0.00000000000E+00  0.16691868772E+04  0.16691868772E+04  0.50400001928E-02 0.  1.
       -1   -1    0    0    0  501  0.00000000000E+00  0.00000000000E+00 -0.22712213490E+04  0.22712213491E+04  0.50400001928E-02 0. -1.
    10030    2    1    2    0    0  0.00000000000E+00  0.00000000000E+00 -0.60203447183E+03  0.39404082263E+04  0.38941457965E+04 0.  0.
        4    1    3    3  502    0 -0.59607781519E+01  0.93058906615E+03  0.14295814838E+04  0.17057949387E+04  0.12699999809E+01 0.  1.
       -4    1    3    3    0  502  0.59607781519E+01 -0.93058906615E+03 -0.20316159557E+04  0.22346132876E+04  0.12699999809E+01 0. -1.
</event>
<event>
 5   0  0.2632875E-08  0.3927180E+04  0.7818609E-02  0.8019400E-01
        1   -1    0    0  501    0  0.00000000000E+00  0.00000000000E+00  0.19573072598E+04  0.19573072598E+04  0.50400001928E-02 0. -1.
       -1   -1    0    0    0  501  0.00000000000E+00  0.00000000000E+00 -0.19698930025E+04  0.19698930025E+04  0.50400001928E-02 0.  1.
    10030    2    1    2    0    0  0.00000000000E+00  0.00000000000E+00 -0.12585742770E+02  0.39272002623E+04  0.39271800951E+04 0.  0.
        4    1    3    3  502    0  0.15913018464E+04  0.11271732871E+04 -0.23634421379E+03  0.19643373910E+04  0.12699999809E+01 0. -1.
       -4    1    3    3    0  502 -0.15913018464E+04 -0.11271732871E+04  0.22375847102E+03  0.19628628713E+04  0.12699999809E+01 0.  1.
</event>
<event>
 5   0  0.8476262E-08  0.3878900E+04  0.7818609E-02  0.8029432E-01
        2   -1    0    0  501    0  0.00000000000E+00  0.00000000000E+00  0.24088837501E+04  0.24088837501E+04  0.25500000920E-02 0.  1.
       -2   -1    0    0    0  501  0.00000000000E+00  0.00000000000E+00 -0.15614978345E+04  0.15614978345E+04  0.25500000920E-02 0. -1.
    10030    2    1    2    0    0  0.00000000000E+00  0.00000000000E+00  0.84738591554E+03  0.39703815846E+04  0.38789002356E+04 0.  0.
        2    1    3    3  502    0 -0.73761166910E+03  0.16074249991E+04  0.12384433780E+04  0.21590803836E+04  0.25500000920E-02 0.  1.
       -2    1    3    3    0  502  0.73761166910E+03 -0.16074249991E+04 -0.39105746249E+03  0.18113012011E+04  0.25500000920E-02 0. -1.
</event>
<event>
 5   0  0.2632875E-08  0.3997257E+04  0.7818609E-02  0.8005100E-01
       -1   -1    0    0    0  501  0.00000000000E+00  0.00000000000E+00  0.20183466141E+04  0.20183466141E+04  0.50400001928E-02 0. -1.
        1   -1    0    0  501    0  0.00000000000E+00  0.00000000000E+00 -0.19791029627E+04  0.19791029627E+04  0.50400001928E-02 0.  1.
    10030    2    1    2    0    0  0.00000000000E+00  0.00000000000E+00  0.39243651421E+02  0.39974495768E+04  0.39972569413E+04 0.  0.
        1    1    3    3  502    0  0.77940929538E+03 -0.10439284036E+04  0.15353631708E+04  0.20136050824E+04  0.50400001928E-02 0. -1.
       -1    1    3    3    0  502 -0.77940929538E+03  0.10439284036E+04 -0.14961195194E+04  0.19838444944E+04  0.50400001928E-02 0.  1.
</event>
<event>
 5   0  0.8476262E-08  0.3877149E+04  0.7818609E-02  0.8029799E-01
       -2   -1    0    0    0  501  0.00000000000E+00  0.00000000000E+00  0.13783459074E+04  0.13783459074E+04  0.25500000920E-02 0. -1.
        2   -1    0    0  501    0  0.00000000000E+00  0.00000000000E+00 -0.27265075868E+04  0.27265075868E+04  0.25500000920E-02 0.  1.
    10030    2    1    2    0    0  0.00000000000E+00  0.00000000000E+00 -0.13481616794E+04  0.41048534942E+04  0.38771487326E+04 0.  0.
        2    1    3    3  502    0 -0.56361503393E+03 -0.13834578059E+04 -0.19821386612E+04  0.24820336580E+04  0.25500000920E-02 0.  1.
       -2    1    3    3    0  502  0.56361503393E+03  0.13834578059E+04  0.63397698185E+03  0.16228198362E+04  0.25500000920E-02 0. -1.
</event>
<event>
 5   0  0.8476262E-08  0.3902316E+04  0.7818609E-02  0.8024548E-01
        2   -1    0    0  501    0  0.00000000000E+00  0.00000000000E+00  0.22397051986E+04  0.22397051986E+04  0.25500000920E-02 0.  1.
       -2   -1    0    0    0  501  0.00000000000E+00  0.00000000000E+00 -0.16997850593E+04  0.16997850593E+04  0.25500000920E-02 0. -1.
    10030    2    1    2    0    0  0.00000000000E+00  0.00000000000E+00  0.53992013933E+03  0.39394902579E+04  0.39023159451E+04 0.  0.
        2    1    3    3  502    0 -0.78644940558E+03 -0.40768847449E+02 -0.15322217130E+04  0.17227501688E+04  0.25500000920E-02 0. -1.
       -2    1    3    3    0  502  0.78644940558E+03  0.40768847449E+02  0.20721418523E+04  0.22167400891E+04  0.25500000920E-02 0.  1.
</event>
<event>
 5   0  0.8476262E-08  0.3918195E+04  0.7818609E-02  0.8021256E-01
        2   -1    0    0  501    0  0.00000000000E+00  0.00000000000E+00  0.19874086064E+04  0.19874086064E+04  0.25500000920E-02 0. -1.
       -2   -1    0    0    0  501  0.00000000000E+00  0.00000000000E+00 -0.19311900668E+04  0.19311900668E+04  0.25500000920E-02 0.  1.
    10030    2    1    2    0    0  0.00000000000E+00  0.00000000000E+00  0.56218539578E+02  0.39185986732E+04  0.39181953802E+04 0.  0.
        2    1    3    3  502    0 -0.35929293063E+03 -0.37034724888E+03  0.19182284681E+04  0.19864161071E+04  0.25500000920E-02 0. -1.
       -2    1    3    3    0  502  0.35929293063E+03  0.37034724888E+03 -0.18620099285E+04  0.19321825661E+04  0.25500000920E-02 0.  1.
</event>
<event>
 5   0  0.8551754E-08  0.3892643E+04  0.7818609E-02  0.8026561E-01
       -2   -1    0    0    0  501  0.00000000000E+00  0.00000000000E+00  0.27153828484E+04  0.27153828484E+04  0.25500000920E-02 0.  1.
        2   -1    0    0  501    0  0.00000000000E+00  0.00000000000E+00 -0.13950763718E+04  0.13950763718E+04  0.25500000920E-02 0. -1.
    10030    2    1    2    0    0  0.00000000000E+00  0.00000000000E+00  0.13203064767E+04  0.41104592202E+04  0.38926425226E+04 0.  0.
        1    1    3    3  502    0 -0.18817775182E+04 -0.24975747508E+03  0.20633653427E+03  0.19094607066E+04  0.50400001928E-02 0. -1.
       -1    1    3    3    0  502  0.18817775182E+04  0.24975747508E+03  0.11139699424E+04  0.22009985137E+04  0.50400001928E-02 0.  1.
</event>
<event>
 5   0  0.2632875E-08  0.3930072E+04  0.7818609E-02  0.8018804E-01
        1   -1    0    0  501    0  0.00000000000E+00  0.00000000000E+00  0.24192286506E+04  0.24192286506E+04  0.50400001928E-02 0. -1.
       -1   -1    0    0    0  501  0.00000000000E+00  0.00000000000E+00 -0.15961145705E+04  0.15961145705E+04  0.50400001928E-02 0.  1.
    10030    2    1    2    0    0  0.00000000000E+00  0.00000000000E+00  0.82311408011E+03  0.40153432211E+04  0.39300718053E+04 0.  0.
        2    1    3    3  502    0 -0.19462672602E+04 -0.26973301837E+03  0.38542976033E+03  0.20023157218E+04  0.25500000920E-02 0. -1.
       -2    1    3    3    0  502  0.19462672602E+04  0.26973301837E+03  0.43768431978E+03  0.20130274994E+04  0.25500000920E-02 0.  1.
</event>
<event>
 5   0  0.8342802E-08  0.3892099E+04  0.7818609E-02  0.8026674E-01
       -2   -1    0    0    0  501  0.00000000000E+00  0.00000000000E+00  0.28772557424E+04  0.28772557424E+04  0.25500000920E-02 0.  1.
        2   -1    0    0  501    0  0.00000000000E+00  0.00000000000E+00 -0.13162227887E+04  0.13162227887E+04  0.25500000920E-02 0. -1.
    10030    2    1    2    0    0  0.00000000000E+00  0.00000000000E+00  0.15610329537E+04  0.41934785312E+04  0.38920994732E+04 0.  0.
        4    1    3    3  502    0 -0.49298885095E+03 -0.56553789170E+03  0.27151733977E+04  0.28169201810E+04  0.12699999809E+01 0.  1.
       -4    1    3    3    0  502  0.49298885095E+03  0.56553789170E+03 -0.11541404440E+04  0.13765583502E+04  0.12699999809E+01 0. -1.
</event>
<event>
 5   0  0.8438211E-08  0.3895040E+04  0.7818609E-02  0.8026062E-01
       -2   -1    0    0    0  501  0.00000000000E+00  0.00000000000E+00  0.18799801478E+04  0.18799801478E+04  0.25500000920E-02 0. -1.
        2   -1    0    0  501    0  0.00000000000E+00  0.00000000000E+00 -0.20174860084E+04  0.20174860084E+04  0.25500000920E-02 0.  1.
    10030    2    1    2    0    0  0.00000000000E+00  0.00000000000E+00 -0.13750586059E+03  0.38974661562E+04  0.38950397401E+04 0.  0.
        5    1    3    3  502    0 -0.11988251404E+04 -0.11673148635E+04  0.92836462473E+03  0.19135539381E+04  0.46999998093E+01 0. -1.
       -5    1    3    3    0  502  0.11988251404E+04  0.11673148635E+04 -0.10658704853E+04  0.19839122181E+04  0.46999998093E+01 0.  1.
</event>
<event>
 5   0  0.2632875E-08  0.3882060E+04  0.7818609E-02  0.8028771E-01
        1   -1    0    0  501    0  0.00000000000E+00  0.00000000000E+00  0.31476312823E+04  0.31476312823E+04  0.50400001928E-02 0.  1.
       -1   -1    0    0    0  501  0.00000000000E+00  0.00000000000E+00 -0.11969630085E+04  0.11969630085E+04  0.50400001928E-02 0. -1.
    10030    2    1    2    0    0  0.00000000000E+00  0.00000000000E+00  0.19506682739E+04  0.43445942908E+04  0.38820603856E+04 0.  0.
        5    1    3    3  502    0 -0.28566867512E+03  0.19193370635E+04  0.10267998381E+04  0.21954045989E+04  0.46999998093E+01 0. -1.
       -5    1    3    3    0  502  0.28566867512E+03 -0.19193370635E+04  0.92386843580E+03  0.21491896920E+04  0.46999998093E+01 0.  1.
</event>
<event>
 5   0  0.8438211E-08  0.3896013E+04  0.7818609E-02  0.8025859E-01
       -2   -1    0    0    0  501  0.00000000000E+00  0.00000000000E+00  0.13895038111E+04  0.13895038111E+04  0.25500000920E-02 0.  1.
        2   -1    0    0  501    0  0.00000000000E+00  0.00000000000E+00 -0.27309959485E+04  0.27309959485E+04  0.25500000920E-02 0. -1.
    10030    2    1    2    0    0  0.00000000000E+00  0.00000000000E+00 -0.13414921374E+04  0.41204997596E+04  0.38960129767E+04 0.  0.
        5    1    3    3  502    0 -0.17652308344E+04 -0.53528768738E+03 -0.84579567903E+01  0.18446317882E+04  0.46999998093E+01 0.  1.
       -5    1    3    3    0  502  0.17652308344E+04  0.53528768738E+03 -0.13330341806E+04  0.22758679715E+04  0.46999998093E+01 0. -1.
</event>
<event>
 5   0  0.2632875E-08  0.3907455E+04  0.7818609E-02  0.8023480E-01
       -1   -1    0    0    0  501  0.00000000000E+00  0.00000000000E+00  0.13276228786E+04  0.13276228786E+04  0.50400001928E-02 0. -1.
        1   -1    0    0  501    0  0.00000000000E+00  0.00000000000E+00 -0.28751022395E+04  0.28751022395E+04  0.50400001928E-02 0.  1.
    10030    2    1    2    0    0  0.00000000000E+00  0.00000000000E+00 -0.15474793608E+04  0.42027251181E+04  0.39074551880E+04 0.  0.
        5    1    3    3  502    0  0.75626307049E+03 -0.17977579129E+04 -0.65034422070E+03  0.20559272946E+04  0.46999998093E+01 0. -1.
       -5    1    3    3    0  502 -0.75626307049E+03  0.17977579129E+04 -0.89713514014E+03  0.21467978235E+04  0.46999998093E+01 0.  1.
</event>
<event>
 5   0  0.8438211E-08  0.3889482E+04  0.7818609E-02  0.8027220E-01
        2   -1    0    0  501    0  0.00000000000E+00  0.00000000000E+00  0.19680576402E+04  0.19680576402E+04  0.25500000920E-02 0.  1.
       -2   -1    0    0    0  501  0.00000000000E+00  0.00000000000E+00 -0.19217002051E+04  0.19217002051E+04  0.25500000920E-02 0. -1.
    10030    2    1    2    0    0  0.00000000000E+00  0.00000000000E+00  0.46357435100E+02  0.38897578453E+04  0.38894815957E+04 0.  0.
        5    1    3    3  502    0  0.50120243899E+03 -0.18222187588E+04 -0.43544909084E+03  0.19394130788E+04  0.46999998093E+01 0. -1.
       -5    1    3    3    0  502 -0.50120243899E+03  0.18222187588E+04  0.48180652594E+03  0.19503447665E+04  0.46999998093E+01 0.  1.
</event>
<event>
 5   0  0.8476262E-08  0.3903361E+04  0.7818609E-02  0.8024331E-01
        2   -1    0    0  501    0  0.00000000000E+00  0.00000000000E+00  0.21500265492E+04  0.21500265492E+04  0.25500000920E-02 0.  1.
       -2   -1    0    0    0  501  0.00000000000E+00  0.00000000000E+00 -0.17716322484E+04  0.17716322484E+04  0.25500000920E-02 0. -1.
    10030    2    1    2    0    0  0.00000000000E+00  0.00000000000E+00  0.37839430073E+03  0.39216587976E+04  0.39033607927E+04 0.  0.
        2    1    3    3  502    0 -0.17001320312E+04 -0.24348264560E+03  0.11205398000E+04  0.20506930940E+04  0.25500000920E-02 0.  1.
       -2    1    3    3    0  502  0.17001320312E+04  0.24348264560E+03 -0.74214549926E+03  0.18709657037E+04  0.25500000920E-02 0. -1.
</event>
<event>
 5   0  0.2632875E-08  0.3892971E+04  0.7818609E-02  0.8026493E-01
       -1   -1    0    0    0  501  0.00000000000E+00  0.00000000000E+00  0.14937482960E+04  0.14937482960E+04  0.50400001928E-02 0.  1.
        1   -1    0    0  501    0  0.00000000000E+00  0.00000000000E+00 -0.25364416823E+04  0.25364416823E+04  0.50400001928E-02 0. -1.
    10030    2    1    2    0    0  0.00000000000E+00  0.00000000000E+00 -0.10426933863E+04  0.40301899783E+04  0.38929708146E+04 0.  0.
        1    1    3    3  502    0  0.94835593582E+03 -0.97071778339E+02  0.12355283795E+04  0.15605551216E+04  0.50400001928E-02 0.  1.
       -1    1    3    3    0  502 -0.94835593582E+03  0.97071778339E+02 -0.22782217658E+04  0.24696348567E+04  0.50400001928E-02 0. -1.
</event>
<event>
 5   0  0.2632875E-08  0.3951686E+04  0.7818609E-02  0.8014364E-01
        1   -1    0    0  501    0  0.00000000000E+00  0.00000000000E+00  0.16455185766E+04  0.16455185766E+04  0.50400001928E-02 0.  1.
       -1   -1    0    0    0  501  0.00000000000E+00  0.00000000000E+00 -0.23724777457E+04  0.23724777457E+04  0.50400001928E-02 0. -1.
    10030    2    1    2    0    0  0.00000000000E+00  0.00000000000E+00 -0.72695916909E+03  0.40179963223E+04  0.39516863252E+04 0.  0.
        3    1    3    3  502    0  0.37625064078E+03 -0.19390877651E+04 -0.41256266616E+03  0.20178785566E+04  0.10100000352E+00 0.  1.
       -3    1    3    3    0  502 -0.37625064078E+03  0.19390877651E+04 -0.31439650293E+03  0.20001177657E+04  0.10100000352E+00 0. -1.
</event>
<event>
 5   0  0.8342802E-08  0.3882501E+04  0.7818609E-02  0.8028678E-01
       -2   -1    0    0    0  501  0.00000000000E+00  0.00000000000E+00  0.17023436817E+04  0.17023436817E+04  0.25500000920E-02 0. -1.
        2   -1    0    0  501    0  0.00000000000E+00  0.00000000000E+00 -0.22136856923E+04  0.22136856923E+04  0.25500000920E-02 0.  1.
    10030    2    1    2    0    0  0.00000000000E+00  0.00000000000E+00 -0.51134201064E+03  0.39160293740E+04  0.38825011791E+04 0.  0.
        4    1    3    3  502    0  0.14869097391E+04 -0.66627211064E+02  0.10013305046E+04  0.17938796364E+04  0.12699999809E+01 0. -1.
       -4    1    3    3    0  502 -0.14869097391E+04  0.66627211064E+02 -0.15126725152E+04  0.21221497376E+04  0.12699999809E+01 0.  1.
</event>
<event>
 5   0  0.8342802E-08  0.3897774E+04  0.7818609E-02  0.8025492E-01
       -2   -1    0    0    0  501  0.00000000000E+00  0.00000000000E+00  0.15605128755E+04  0.15605128755E+04  0.25500000920E-02 0.  1.
        2   -1    0    0  501    0  0.00000000000E+00  0.00000000000E+00 -0.24339181988E+04  0.24339181988E+04  0.25500000920E-02 0. -1.
    10030    2    1    2    0    0  0.00000000000E+00  0.00000000000E+00 -0.87340532329E+03  0.39944310742E+04  0.38977740761E+04 0.  0.
        4    1    3    3  502    0  0.17942148599E+04 -0.64099869576E+03 -0.85683582499E+03  0.20890800691E+04  0.12699999809E+01 0.  1.
       -4    1    3    3    0  502 -0.17942148599E+04  0.64099869576E+03 -0.16569498301E+02  0.19053510051E+04  0.12699999809E+01 0. -1.
</event>
<event>
 5   0  0.8551754E-08  0.3895675E+04  0.7818609E-02  0.8025929E-01
       -2   -1    0    0    0  501  0.00000000000E+00  0.00000000000E+00  0.26320875139E+04  0.26320875139E+04  0.25500000920E-02 0.  1.
        2   -1    0    0  501    0  0.00000000000E+00  0.00000000000E+00 -0.14414682382E+04  0.14414682382E+04  0.25500000920E-02 0. -1.
    10030    2    1    2    0    0  0.00000000000E+00  0.00000000000E+00  0.11906192757E+04  0.40735557521E+04  0.38956748075E+04 0.  0.
        1    1    3    3  502    0  0.15697888086E+04  0.96773439174E+03  0.12511015829E+04  0.22284528102E+04  0.50400001928E-02 0.  1.
       -1    1    3    3    0  502 -0.15697888086E+04 -0.96773439174E+03 -0.60482307209E+02  0.18451029419E+04  0.50400001928E-02 0. -1.
</event>
<event>
 5   0  0.2632875E-08  0.3882573E+04  0.7818609E-02  0.8028664E-01
        4   -1    0    0  501    0  0.00000000000E+00  0.00000000000E+00  0.16791290927E+04  0.16791295730E+04  0.12699999809E+01 0. -1.
       -4   -1    0    0    0  501  0.00000000000E+00  0.00000000000E+00 -0.22443722037E+04  0.22443725630E+04  0.12699999809E+01 0.  1.
    10030    2    1    2    0    0  0.00000000000E+00  0.00000000000E+00 -0.56524311095E+03  0.39235021360E+04  0.38825725025E+04 0.  0.
        1    1    3    3  502    0  0.10331720799E+04 -0.15282854108E+04 -0.89355364784E+03  0.20497655878E+04  0.50400001928E-02 0. -1.
       -1    1    3    3    0  502 -0.10331720799E+04  0.15282854108E+04  0.32831053689E+03  0.18737365482E+04  0.50400001928E-02 0.  1.
</event>
<event>
 5   0  0.2632875E-08  0.3930466E+04  0.7818609E-02  0.8018723E-01
       -1   -1    0    0    0  501  0.00000000000E+00  0.00000000000E+00  0.13100443699E+04  0.13100443699E+04  0.50400001928E-02 0. -1.
        1   -1    0    0  501    0  0.00000000000E+00  0.00000000000E+00 -0.29480989739E+04  0.29480989739E+04  0.50400001928E-02 0.  1.
    10030    2    1    2    0    0  0.00000000000E+00  0.00000000000E+00 -0.16380546040E+04  0.42581433438E+04  0.39304658567E+04 0.  0.
        3    1    3    3  502    0 -0.18021232855E+04  0.52794663162E+03 -0.19126733260E+03  0.18875802459E+04  0.10100000352E+00 0. -1.
       -3    1    3    3    0  502  0.18021232855E+04 -0.52794663162E+03 -0.14467872714E+04  0.23705630978E+04  0.10100000352E+00 0.  1.
</event>
<event>
 5   0  0.2632875E-08  0.3898788E+04  0.7818609E-02  0.8025281E-01
        1   -1    0    0  501    0  0.00000000000E+00  0.00000000000E+00  0.20125054896E+04  0.20125054896E+04  0.50400001928E-02 0.  1.
       -1   -1    0    0    0  501  0.00000000000E+00  0.00000000000E+00 -0.18882618765E+04  0.18882618765E+04  0.50400001928E-02 0. -1.
    10030    2    1    2    0    0  0.00000000000E+00  0.00000000000E+00  0.12424361306E+03  0.39007673661E+04  0.38987882180E+04 0.  0.
        1    1    3    3  502    0 -0.32321859680E+03 -0.12952860307E+04  0.14833714153E+04  0.19956520033E+04  0.50400001928E-02 0.  1.
       -1    1    3    3    0  502  0.32321859680E+03  0.12952860307E+04 -0.13591278023E+04  0.19051153628E+04  0.50400001928E-02 0. -1.
</event>
<event>
 5   0  0.8476262E-08  0.3885595E+04  0.7818609E-02  0.8028032E-01
       -2   -1    0    0    0  501  0.00000000000E+00  0.00000000000E+00  0.33145174638E+04  0.33145174638E+04  0.25500000920E-02 0. -1.
        2   -1    0    0  501    0  0.00000000000E+00  0.00000000000E+00 -0.11387664667E+04  0.11387664667E+04  0.25500000920E-02 0.  1.
    10030    2    1    2    0    0  0.00000000000E+00  0.00000000000E+00  0.21757509971E+04  0.44532839306E+04  0.38855945961E+04 0.  0.
        2    1    3    3  502    0  0.17437965834E+04 -0.84848875388E+03  0.12220312690E+04  0.22921867533E+04  0.25500000920E-02 0.  1.
       -2    1    3    3    0  502 -0.17437965834E+04  0.84848875388E+03  0.95371972810E+03  0.21610971773E+04  0.25500000920E-02 0. -1.
</event>
<event>
 5   0  0.2632875E-08  0.3906996E+04  0.7818609E-02  0.8023576E-01
       -1   -1    0    0    0  501  0.00000000000E+00  0.00000000000E+00  0.30579195091E+04  0.30579195091E+04  0.50400001928E-02 0.  1.
        1   -1    0    0  501    0  0.00000000000E+00  0.00000000000E+00 -0.12479577356E+04  0.12479577356E+04  0.50400001928E-02 0. -1.
    10030    2    1    2    0    0  0.00000000000E+00  0.00000000000E+00  0.18099617735E+04  0.43058772447E+04  0.39069959336E+04 0.  0.
        5    1    3    3  502    0 -0.18208746929E+04 -0.65787566289E+03  0.61812464805E+03  0.20323595169E+04  0.46999998093E+01 0.  1.
       -5    1    3    3    0  502  0.18208746929E+04  0.65787566289E+03  0.11918371254E+04  0.22735177278E+04  0.46999998093E+01 0. -1.
</event>
<event>
 5   0  0.2632875E-08  0.3904871E+04  0.7818609E-02  0.8024017E-01
        1   -1    0    0  501    0  0.00000000000E+00  0.00000000000E+00  0.10749816140E+04  0.10749816140E+04  0.50400001928E-02 0. -1.
       -1   -1    0    0    0  501  0.00000000000E+00  0.00000000000E+00 -0.35461114744E+04  0.35461114744E+04  0.50400001928E-02 0.  1.
    10030    2    1    2    0    0  0.00000000000E+00  0.00000000000E+00 -0.24711298604E+04  0.46210930884E+04  0.39048711304E+04 0.  0.
        3    1    3    3  502    0 -0.94249980167E+03 -0.51410930087E+02 -0.32581552673E+04  0.33921268720E+04  0.10100000352E+00 0.  1.
       -3    1    3    3    0  502  0.94249980167E+03  0.51410930087E+02  0.78702540685E+03  0.12289662164E+04  0.10100000352E+00 0. -1.
</event>
<event>
 5   0  0.2632875E-08  0.3893480E+04  0.7818609E-02  0.8026387E-01
        1   -1    0    0  501    0  0.00000000000E+00  0.00000000000E+00  0.32914634567E+04  0.32914634567E+04  0.50400001928E-02 0. -1.
       -1   -1    0    0    0  501  0.00000000000E+00  0.00000000000E+00 -0.11514016838E+04  0.11514016838E+04  0.50400001928E-02 0.  1.
    10030    2    1    2    0    0  0.00000000000E+00  0.00000000000E+00  0.21400617729E+04  0.44428651405E+04  0.38934799685E+04 0.  0.
        2    1    3    3  502    0 -0.30463837918E+03 -0.18968520682E+01  0.32640945834E+04  0.32782802792E+04  0.25500000920E-02 0. -1.
       -2    1    3    3    0  502  0.30463837918E+03  0.18968520682E+01 -0.11240328105E+04  0.11645848613E+04  0.25500000920E-02 0.  1.
</event>
<event>
 5   0  0.8476262E-08  0.3819386E+04  0.7818609E-02  0.8042008E-01
        2   -1    0    0  501    0  0.00000000000E+00  0.00000000000E+00  0.14629979906E+04  0.14629979906E+04  0.25500000920E-02 0.  1.
       -2   -1    0    0    0  501  0.00000000000E+00  0.00000000000E+00 -0.24927762368E+04  0.24927762368E+04  0.25500000920E-02 0. -1.
    10030    2    1    2    0    0  0.00000000000E+00  0.00000000000E+00 -0.10297782462E+04  0.39557742275E+04  0.38193856185E+04 0.  0.
        2    1    3    3  502    0 -0.12966673498E+04  0.14013361299E+04 -0.47049279750E+03  0.19663297377E+04  0.25500000920E-02 0.  1.
       -2    1    3    3    0  502  0.12966673498E+04 -0.14013361299E+04 -0.55928544869E+03  0.19894444898E+04  0.25500000920E-02 0. -1.
</event>
<event>
 5   0  0.8676098E-08  0.3809871E+04  0.7818609E-02  0.8044040E-01
       -2   -1    0    0    0  501  0.00000000000E+00  0.00000000000E+00  0.29101821963E+04  0.29101821963E+04  0.25500000920E-02 0. -1.
        2   -1    0    0  501    0  0.00000000000E+00  0.00000000000E+00 -0.12469251465E+04  0.12469251465E+04  0.25500000920E-02 0.  1.
    10030    2    1    2    0    0  0.00000000000E+00  0.00000000000E+00  0.16632570499E+04  0.41571073428E+04  0.38098710537E+04 0.  0.
        3    1    3    3  502    0  0.16453904489E+04 -0.79792098359E+03  0.14139256495E+04  0.23115305271E+04  0.10100000352E+00 0. -1.
       -3    1    3    3    0  502 -0.16453904489E+04  0.79792098359E+03  0.24933140033E+03  0.18455768157E+04  0.10100000352E+00 0.  1.
</event>
<event>
 5   0  0.2632875E-08  0.3903575E+04  0.7818609E-02  0.8024286E-01
        1   -1    0    0  501    0  0.00000000000E+00  0.00000000000E+00  0.12870369479E+04  0.12870369479E+04  0.50400001928E-02 0.  1.
       -1   -1    0    0    0  501  0.00000000000E+00  0.00000000000E+00 -0.29598800577E+04  0.29598800577E+04  0.50400001928E-02 0. -1.
    10030    2    1    2    0    0  0.00000000000E+00  0.00000000000E+00 -0.16728431098E+04  0.42469170055E+04  0.39035752819E+04 0.  0.
        5    1    3    3  502    0 -0.16257932337E+04 -0.10219713308E+04 -0.12161537353E+04  0.22730334440E+04  0.46999998093E+01 0. -1.
       -5    1    3    3    0  502  0.16257932337E+04  0.10219713308E+04 -0.45668937448E+03  0.19738835615E+04  0.46999998093E+01 0.  1.
</event>
<event>
 5   0  0.2632875E-08  0.3905766E+04  0.7818609E-02  0.8023831E-01
        1   -1    0    0  501    0  0.00000000000E+00  0.00000000000E+00  0.25121741300E+04  0.25121741300E+04  0.50400001928E-02 0. -1.
       -1   -1    0    0    0  501  0.00000000000E+00  0.00000000000E+00 -0.15181084273E+04  0.15181084273E+04  0.50400001928E-02 0.  1.
    10030    2    1    2    0    0  0.00000000000E+00  0.00000000000E+00  0.99406570271E+03  0.40302825574E+04  0.39057663615E+04 0.  0.
        1    1    3    3  502    0 -0.13820306113E+04 -0.13690319317E+04  0.31981461166E+03  0.19714305533E+04  0.50400001928E-02 0. -1.
       -1    1    3    3    0  502  0.13820306113E+04  0.13690319317E+04  0.67425109106E+03  0.20588520040E+04  0.50400001928E-02 0.  1.
</event>
<event>
 5   0  0.2632875E-08  0.3902262E+04  0.7818609E-02  0.8024559E-01
        1   -1    0    0  501    0  0.00000000000E+00  0.00000000000E+00  0.26681514911E+04  0.26681514911E+04  0.50400001928E-02 0.  1.
       -1   -1    0    0    0  501  0.00000000000E+00  0.00000000000E+00 -0.14267974382E+04  0.14267974382E+04  0.50400001928E-02 0. -1.
    10030    2    1    2    0    0  0.00000000000E+00  0.00000000000E+00  0.12413540529E+04  0.40949489293E+04  0.39022617607E+04 0.  0.
        5    1    3    3  502    0 -0.11798877963E+04 -0.69965731457E+03 -0.83536482735E+03  0.16060859425E+04  0.46999998093E+01 0. -1.
       -5    1    3    3    0  502  0.11798877963E+04  0.69965731457E+03  0.20767188803E+04  0.24888629869E+04  0.46999998093E+01 0.  1.
</event>
<event>
 5   0  0.8438211E-08  0.3909730E+04  0.7818609E-02  0.8023009E-01
        2   -1    0    0  501    0  0.00000000000E+00  0.00000000000E+00  0.21441002032E+04  0.21441002032E+04  0.25500000920E-02 0. -1.
       -2   -1    0    0    0  501  0.00000000000E+00  0.00000000000E+00 -0.17823313654E+04  0.17823313654E+04  0.25500000920E-02 0.  1.
    10030    2    1    2    0    0  0.00000000000E+00  0.00000000000E+00  0.36176883780E+03  0.39264315686E+04  0.39097299358E+04 0.  0.
        5    1    3    3  502    0  0.19735585635E+03 -0.14713848673E+04 -0.10963788538E+04  0.18455328344E+04  0.46999998093E+01 0.  1.
       -5    1    3    3    0  502 -0.19735585635E+03  0.14713848673E+04  0.14581476916E+04  0.20808987343E+04  0.46999998093E+01 0. -1.
</event>
<event>
 5   0  0.8476262E-08  0.3924616E+04  0.7818609E-02  0.8019929E-01
        2   -1    0    0  501    0  0.00000000000E+00  0.00000000000E+00  0.12897628983E+04  0.12897628983E+04  0.25500000920E-02 0.  1.
       -2   -1    0    0    0  501  0.00000000000E+00  0.00000000000E+00 -0.29855508235E+04  0.29855508235E+04  0.25500000920E-02 0. -1.
    10030    2    1    2    0    0  0.00000000000E+00  0.00000000000E+00 -0.16957879252E+04  0.42753137218E+04  0.39246159981E+04 0.  0.
        2    1    3    3  502    0  0.11691388060E+04 -0.45561188970E+03  0.79562451758E+03  0.14857611230E+04  0.25500000920E-02 0.  1.
       -2    1    3    3    0  502 -0.11691388060E+04  0.45561188970E+03 -0.24914124427E+04  0.27895525988E+04  0.25500000920E-02 0. -1.
</event>
<event>
 5   0  0.8476262E-08  0.3892876E+04  0.7818609E-02  0.8026513E-01
       -2   -1    0    0    0  501  0.00000000000E+00  0.00000000000E+00  0.14878190477E+04  0.14878190477E+04  0.25500000920E-02 0. -1.
        2   -1    0    0  501    0  0.00000000000E+00  0.00000000000E+00 -0.25464252559E+04  0.25464252559E+04  0.25500000920E-02 0.  1.
    10030    2    1    2    0    0  0.00000000000E+00  0.00000000000E+00 -0.10586062082E+04  0.40342443036E+04  0.38928755435E+04 0.  0.
        2    1    3    3  502    0  0.10915300048E+04  0.12576629708E+04  0.51499476013E+03  0.17430930849E+04  0.25500000920E-02 0. -1.
       -2    1    3    3    0  502 -0.10915300048E+04 -0.12576629708E+04 -0.15736009683E+04  0.22911512187E+04  0.25500000920E-02 0.  1.
</event>
<event>
 5   0  0.8438211E-08  0.3903237E+04  0.7818609E-02  0.8024356E-01
       -2   -1    0    0    0  501  0.00000000000E+00  0.00000000000E+00  0.25530510709E+04  0.25530510709E+04  0.25500000920E-02 0.  1.
        2   -1    0    0  501    0  0.00000000000E+00  0.00000000000E+00 -0.14918678599E+04  0.14918678599E+04  0.25500000920E-02 0. -1.
    10030    2    1    2    0    0  0.00000000000E+00  0.00000000000E+00  0.10611832109E+04  0.40449189308E+04  0.39032370348E+04 0.  0.
        5    1    3    3  502    0 -0.29625848054E+03 -0.27922320779E+02 -0.14682142301E+04  0.14980733823E+04  0.46999998093E+01 0. -1.
       -5    1    3    3    0  502  0.29625848054E+03  0.27922320779E+02  0.25293974410E+04  0.25468455485E+04  0.46999998093E+01 0.  1.
</event>
<event>
 5   0  0.8551754E-08  0.3901372E+04  0.7818609E-02  0.8024744E-01
       -2   -1    0    0    0  501  0.00000000000E+00  0.00000000000E+00  0.19135168772E+04  0.19135168772E+04  0.25500000920E-02 0. -1.
        2   -1    0    0  501    0  0.00000000000E+00  0.00000000000E+00 -0.19885771265E+04  0.19885771265E+04  0.25500000920E-02 0.  1.
    10030    2    1    2    0    0  0.00000000000E+00  0.00000000000E+00 -0.75060249268E+02  0.39020940036E+04  0.39013720115E+04 0.  0.
        1    1    3    3  502    0 -0.64699933660E+03  0.14598284113E+04  0.10831542559E+04  0.19294896409E+04  0.50400001928E-02 0. -1.
       -1    1    3    3    0  502  0.64699933660E+03 -0.14598284113E+04 -0.11582145052E+04  0.19726043628E+04  0.50400001928E-02 0.  1.
</event>
<event>
 5   0  0.8476262E-08  0.3899886E+04  0.7818609E-02  0.8025053E-01
        2   -1    0    0  501    0  0.00000000000E+00  0.00000000000E+00  0.20379340902E+04  0.20379340902E+04  0.25500000920E-02 0.  1.
       -2   -1    0    0    0  501  0.00000000000E+00  0.00000000000E+00 -0.18657506652E+04  0.18657506652E+04  0.25500000920E-02 0. -1.
    10030    2    1    2    0    0  0.00000000000E+00  0.00000000000E+00  0.17218342498E+03  0.39036847553E+04  0.38998855800E+04 0.  0.
        2    1    3    3  502    0  0.16336437326E+04  0.58159405422E+03  0.97871903943E+03  0.19912143147E+04  0.25500000920E-02 0.  1.
       -2    1    3    3    0  502 -0.16336437326E+04 -0.58159405422E+03 -0.80653561445E+03  0.19124704406E+04  0.25500000920E-02 0. -1.
</event>
<event>
 5   0  0.8551754E-08  0.3919320E+04  0.7818609E-02  0.8021023E-01
       -2   -1    0    0    0  501  0.00000000000E+00  0.00000000000E+00  0.26974732883E+04  0.26974732883E+04  0.25500000920E-02 0. -1.
        2   -1    0    0  501    0  0.00000000000E+00  0.00000000000E+00 -0.14236533714E+04  0.14236533714E+04  0.25500000920E-02 0.  1.
    10030    2    1    2    0    0  0.00000000000E+00  0.00000000000E+00  0.12738199169E+04  0.41211266598E+04  0.39193198090E+04 0.  0.
        1    1    3    3  502    0 -0.19186152221E+03 -0.15111798932E+04 -0.65936536973E+03  0.16598910218E+04  0.50400001928E-02 0.  1.
       -1    1    3    3    0  502  0.19186152221E+03  0.15111798932E+04  0.19331852866E+04  0.24612356380E+04  0.50400001928E-02 0. -1.
</event>
<event>
 5   0  0.2632875E-08  0.3902942E+04  0.7818609E-02  0.8024418E-01
        1   -1    0    0  501    0  0.00000000000E+00  0.00000000000E+00  0.18087869435E+04  0.18087869435E+04  0.50400001928E-02 0.  1.
       -1   -1    0    0    0  501  0.00000000000E+00  0.00000000000E+00 -0.21054102481E+04  0.21054102481E+04  0.50400001928E-02 0. -1.
    10030    2    1    2    0    0  0.00000000000E+00  0.00000000000E+00 -0.29662330461E+03  0.39141971916E+04  0.39029417456E+04 0.  0.
        4    1    3    3  502    0 -0.30742678527E+03  0.19233205022E+04 -0.27282344079E+02  0.19479268265E+04  0.12699999809E+01 0.  1.
       -4    1    3    3    0  502  0.30742678527E+03 -0.19233205022E+04 -0.26934096053E+03  0.19662703650E+04  0.12699999809E+01 0. -1.
</event>
<event>
 5   0  0.2632875E-08  0.3914644E+04  0.7818609E-02  0.8021990E-01
       -1   -1    0    0    0  501  0.00000000000E+00  0.00000000000E+00  0.24259787297E+04  0.24259787297E+04  0.50400001928E-02 0. -1.
        1   -1    0    0  501    0  0.00000000000E+00  0.00000000000E+00 -0.15792019493E+04  0.15792019493E+04  0.50400001928E-02 0.  1.
    10030    2    1    2    0    0  0.00000000000E+00  0.00000000000E+00  0.84677678039E+03  0.40051806791E+04  0.39146444738E+04 0.  0.
        1    1    3    3  502    0 -0.13238807359E+04 -0.10076152903E+04 -0.63155564312E+03  0.17795536819E+04  0.50400001928E-02 0. -1.
       -1    1    3    3    0  502  0.13238807359E+04  0.10076152903E+04  0.14783324235E+04  0.22256269972E+04  0.50400001928E-02 0.  1.
</event>
<event>
 5   0  0.2632875E-08  0.3890498E+04  0.7818609E-02  0.8027008E-01
        1   -1    0    0  501    0  0.00000000000E+00  0.00000000000E+00  0.13481187822E+04  0.13481187822E+04  0.50400001928E-02 0.  1.
       -1   -1    0    0    0  501  0.00000000000E+00  0.00000000000E+00 -0.28068692734E+04  0.28068692734E+04  0.50400001928E-02 0. -1.
    10030    2    1    2    0    0  0.00000000000E+00  0.00000000000E+00 -0.14587504912E+04  0.41549880556E+04  0.38904977505E+04 0.  0.
        1    1    3    3  502    0 -0.15613873464E+04 -0.89362094789E+03 -0.15196141291E+04  0.23549343824E+04  0.50400001928E-02 0. -1.
       -1    1    3    3    0  502  0.15613873464E+04  0.89362094789E+03  0.60863637878E+02  0.18000536732E+04  0.50400001928E-02 0.  1.
</event>
<event>
 5   0  0.8342802E-08  0.3875696E+04  0.7818609E-02  0.8030103E-01
        2   -1    0    0  501    0  0.00000000000E+00  0.00000000000E+00  0.17722679669E+04  0.17722679669E+04  0.25500000920E-02 0.  1.
       -2   -1    0    0    0  501  0.00000000000E+00  0.00000000000E+00 -0.21188979892E+04  0.21188979892E+04  0.25500000920E-02 0. -1.
    10030    2    1    2    0    0  0.00000000000E+00  0.00000000000E+00 -0.34663002228E+03  0.38911659561E+04  0.38756960827E+04 0.  0.
        4    1    3    3  502    0  0.86693313597E+03 -0.83946185193E+03  0.13489772118E+04  0.18099752468E+04  0.12699999809E+01 0.  1.
       -4    1    3    3    0  502 -0.86693313597E+03  0.83946185193E+03 -0.16956072341E+04  0.20811907093E+04  0.12699999809E+01 0. -1.
</event>
<event>
 5   0  0.2632875E-08  0.3924008E+04  0.7818609E-02  0.8020054E-01
       -3   -1    0    0    0  501  0.00000000000E+00  0.00000000000E+00  0.18685986062E+04  0.18685986089E+04  0.10100000352E+00 0. -1.
        3   -1    0    0  501    0  0.00000000000E+00  0.00000000000E+00 -0.20600784186E+04  0.20600784211E+04  0.10100000352E+00 0.  1.
    10030    2    1    2    0    0  0.00000000000E+00  0.00000000000E+00 -0.19147981244E+03  0.39286770300E+04  0.39240079877E+04 0.  0.
        2    1    3    3  502    0 -0.90344760223E+03 -0.17206270182E+04  0.17418200695E+03  0.19511827893E+04  0.25500000920E-02 0.  1.
       -2    1    3    3    0  502  0.90344760223E+03  0.17206270182E+04 -0.36566181939E+03  0.19774942407E+04  0.25500000920E-02 0. -1.
</event>
<event>
 5   0  0.2632875E-08  0.3882626E+04  0.7818609E-02  0.8028652E-01
        1   -1    0    0  501    0  0.00000000000E+00  0.00000000000E+00  0.12505761905E+04  0.12505761905E+04  0.50400001928E-02 0. -1.
       -1   -1    0    0    0  501  0.00000000000E+00  0.00000000000E+00 -0.30135683588E+04  0.30135683588E+04  0.50400001928E-02 0.  1.
    10030    2    1    2    0    0  0.00000000000E+00  0.00000000000E+00 -0.17629921683E+04  0.42641445494E+04  0.38826263472E+04 0.  0.
        2    1    3    3  502    0 -0.18565389542E+04  0.21649507775E+03 -0.30546809095E+03  0.18939159859E+04  0.25500000920E-02 0. -1.
       -2    1    3    3    0  502  0.18565389542E+04 -0.21649507775E+03 -0.14575240774E+04  0.23702285635E+04  0.25500000920E-02 0.  1.
</event>
<event>
 5   0  0.2632875E-08  0.3899954E+04  0.7818609E-02  0.8025039E-01
       -1   -1    0    0    0  501  0.00000000000E+00  0.00000000000E+00  0.14366152405E+04  0.14366152406E+04  0.50400001928E-02 0.  1.
        1   -1    0    0  501    0  0.00000000000E+00  0.00000000000E+00 -0.26467841528E+04  0.26467841528E+04  0.50400001928E-02 0. -1.
    10030    2    1    2    0    0  0.00000000000E+00  0.00000000000E+00 -0.12101689123E+04  0.40833993934E+04  0.38999540779E+04 0.  0.
        1    1    3    3  502    0 -0.19068719292E+03 -0.16117614683E+04 -0.17367932441E+04  0.23770964240E+04  0.50400001928E-02 0. -1.
       -1    1    3    3    0  502  0.19068719292E+03  0.16117614683E+04  0.52662433187E+03  0.17063029693E+04  0.50400001928E-02 0.  1.
</event>
<event>
 5   0  0.2632875E-08  0.3906439E+04  0.7818609E-02  0.8023691E-01
       -1   -1    0    0    0  501  0.00000000000E+00  0.00000000000E+00  0.16620782099E+04  0.16620782099E+04  0.50400001928E-02 0.  1.
        1   -1    0    0  501    0  0.00000000000E+00  0.00000000000E+00 -0.22953589332E+04  0.22953589332E+04  0.50400001928E-02 0. -1.
    10030    2    1    2    0    0  0.00000000000E+00  0.00000000000E+00 -0.63328072329E+03  0.39574371432E+04  0.39064388217E+04 0.  0.
        1    1    3    3  502    0  0.12578271340E+04 -0.11074204185E+03  0.11930063345E+04  0.17371404701E+04  0.50400001928E-02 0.  1.
       -1    1    3    3    0  502 -0.12578271340E+04  0.11074204185E+03 -0.18262870578E+04  0.22202966730E+04  0.50400001928E-02 0. -1.
</event>
<event>
 5   0  0.8676098E-08  0.3917687E+04  0.7818609E-02  0.8021361E-01
       -2   -1    0    0    0  501  0.00000000000E+00  0.00000000000E+00  0.17726730141E+04  0.17726730141E+04  0.25500000920E-02 0.  1.
        2   -1    0    0  501    0  0.00000000000E+00  0.00000000000E+00 -0.21645659861E+04  0.21645659861E+04  0.25500000920E-02 0. -1.
    10030    2    1    2    0    0  0.00000000000E+00  0.00000000000E+00 -0.39189297201E+03  0.39372390002E+04  0.39176869251E+04 0.  0.
        3    1    3    3  502    0 -0.17770656766E+04  0.59230762707E+03  0.37986755445E+03  0.19113058660E+04  0.10100000352E+00 0.  1.
       -3    1    3    3    0  502  0.17770656766E+04 -0.59230762707E+03 -0.77176052646E+03  0.20259331343E+04  0.10100000352E+00 0. -1.
</event>
<event>
 5   0  0.2632875E-08  0.3922673E+04  0.7818609E-02  0.8020330E-01
        1   -1    0    0  501    0  0.00000000000E+00  0.00000000000E+00  0.15573515503E+04  0.15573515503E+04  0.50400001928E-02 0. -1.
       -1   -1    0    0    0  501  0.00000000000E+00  0.00000000000E+00 -0.24701167542E+04  0.24701167542E+04  0.50400001928E-02 0.  1.
    10030    2    1    2    0    0  0.00000000000E+00  0.00000000000E+00 -0.91276520394E+03  0.40274683045E+04  0.39226726382E+04 0.  0.
        2    1    3    3  502    0  0.10971458949E+04  0.11185525290E+04 -0.16677115131E+04  0.22882636574E+04  0.25500000920E-02 0.  1.
       -2    1    3    3    0  502 -0.10971458949E+04 -0.11185525290E+04  0.75494630915E+03  0.17392046471E+04  0.25500000920E-02 0. -1.
</event>
<event>
 5   0  0.8676098E-08  0.3910824E+04  0.7818609E-02  0.8022782E-01
       -2   -1    0    0    0  501  0.00000000000E+00  0.00000000000E+00  0.18514340092E+04  0.18514340092E+04  0.25500000920E-02 0. -1.
        2   -1    0    0  501    0  0.00000000000E+00  0.00000000000E+00 -0.20652291482E+04  0.20652291482E+04  0.25500000920E-02 0.  1.
    10030    2    1    2    0    0  0.00000000000E+00  0.00000000000E+00 -0.21379513905E+03  0.39166631574E+04  0.39108236891E+04 0.  0.
        3    1    3    3  502    0 -0.99413949754E+03 -0.13187257992E+04  0.94170182398E+03  0.19010926883E+04  0.10100000352E+00 0. -1.
       -3    1    3    3    0  502  0.99413949754E+03  0.13187257992E+04 -0.11554969630E+04  0.20155704691E+04  0.10100000352E+00 0.  1.
</event>
<event>
 5   0  0.2632875E-08  0.3891050E+04  0.7818609E-02  0.8026893E-01
       -3   -1    0    0    0  501  0.00000000000E+00  0.00000000000E+00  0.20005625583E+04  0.20005625608E+04  0.10100000352E+00 0.  1.
        3   -1    0    0  501    0  0.00000000000E+00  0.00000000000E+00 -0.18920014857E+04  0.18920014884E+04  0.10100000352E+00 0. -1.
    10030    2    1    2    0    0  0.00000000000E+00  0.00000000000E+00  0.10856107257E+03  0.38925640492E+04  0.38910499059E+04 0.  0.
        5    1    3    3  502    0 -0.57447244743E+03  0.18050415447E+04  0.49813289367E+03  0.19586607774E+04  0.46999998093E+01 0.  1.
       -5    1    3    3    0  502  0.57447244743E+03 -0.18050415447E+04 -0.38957182110E+03  0.19339032718E+04  0.46999998093E+01 0. -1.
</event>
<event>
 5   0  0.8676098E-08  0.3878654E+04  0.7818609E-02  0.8029483E-01
        2   -1    0    0  501    0  0.00000000000E+00  0.00000000000E+00  0.23157407073E+04  0.23157407073E+04  0.25500000920E-02 0.  1.
       -2   -1    0    0    0  501  0.00000000000E+00  0.00000000000E+00 -0.16240981124E+04  0.16240981124E+04  0.25500000920E-02 0. -1.
    10030    2    1    2    0    0  0.00000000000E+00  0.00000000000E+00  0.69164259494E+03  0.39398388197E+04  0.38786544634E+04 0.  0.
        3    1    3    3  502    0  0.54529701570E+03  0.83555102145E+03  0.20350321456E+04  0.22664620421E+04  0.10100000352E+00 0.  1.
       -3    1    3    3    0  502 -0.54529701570E+03 -0.83555102145E+03 -0.13433895506E+04  0.16733767776E+04  0.10100000352E+00 0. -1.
</event>
<event>
 5   0  0.2632875E-08  0.3903514E+04  0.7818609E-02  0.8024299E-01
        1   -1    0    0  501    0  0.00000000000E+00  0.00000000000E+00  0.17094076497E+04  0.17094076497E+04  0.50400001928E-02 0. -1.
       -1   -1    0    0    0  501  0.00000000000E+00  0.00000000000E+00 -0.22284652328E+04  0.22284652328E+04  0.50400001928E-02 0.  1.
    10030    2    1    2    0    0  0.00000000000E+00  0.00000000000E+00 -0.51905758310E+03  0.39378728825E+04  0.39035140661E+04 0.  0.
        3    1    3    3  502    0  0.32276631747E+03 -0.16649016243E+04 -0.12340962853E+04  0.20973958057E+04  0.10100000352E+00 0.  1.
       -3    1    3    3    0  502 -0.32276631747E+03  0.16649016243E+04  0.71503870215E+03  0.18404770768E+04  0.10100000352E+00 0. -1.
</event>
<event>
 5   0  0.2632875E-08  0.3848984E+04  0.7818609E-02  0.8035724E-01
       -1   -1    0    0    0  501  0.00000000000E+00  0.00000000000E+00  0.11667854470E+04  0.11667854470E+04  0.50400001928E-02 0.  1.
        1   -1    0    0  501    0  0.00000000000E+00  0.00000000000E+00 -0.31742507180E+04  0.31742507180E+04  0.50400001928E-02 0. -1.
    10030    2    1    2    0    0  0.00000000000E+00  0.00000000000E+00 -0.20074652710E+04  0.43410361650E+04  0.38489840441E+04 0.  0.
        5    1    3    3  502    0 -0.84731638222E+03  0.14431404894E+04  0.68040072405E+02  0.16748883739E+04  0.46999998093E+01 0.  1.
       -5    1    3    3    0  502  0.84731638222E+03 -0.14431404894E+04 -0.20755053434E+04  0.26661477911E+04  0.46999998093E+01 0. -1.
</event>
<event>
 5   0  0.8438211E-08  0.3893332E+04  0.7818609E-02  0.8026417E-01
       -2   -1    0    0    0  501  0.00000000000E+00  0.00000000000E+00  0.15959090903E+04  0.15959090903E+04  0.25500000920E-02 0.  1.
        2   -1    0    0  501    0  0.00000000000E+00  0.00000000000E+00 -0.23745137875E+04  0.23745137875E+04  0.25500000920E-02 0. -1.
    10030    2    1    2    0    0  0.00000000000E+00  0.00000000000E+00 -0.77860469721E+03  0.39704228779E+04  0.38933318064E+04 0.  0.
        5    1    3    3  502    0 -0.44726564931E+03 -0.18702406348E+04 -0.69801654229E+03  0.20457506633E+04  0.46999998093E+01 0. -1.
       -5    1    3    3    0  502  0.44726564931E+03  0.18702406348E+04 -0.80588154924E+02  0.19246722146E+04  0.46999998093E+01 0.  1.
</event>
<event>
 5   0  0.2632875E-08  0.3892719E+04  0.7818609E-02  0.8026545E-01
       -1   -1    0    0    0  501  0.00000000000E+00  0.00000000000E+00  0.27315896660E+04  0.27315896660E+04  0.50400001928E-02 0.  1.
        1   -1    0    0  501    0  0.00000000000E+00  0.00000000000E+00 -0.13868538772E+04  0.13868538773E+04  0.50400001928E-02 0. -1.
    10030    2    1    2    0    0  0.00000000000E+00  0.00000000000E+00  0.13447357887E+04  0.41184435432E+04  0.38927192138E+04 0.  0.
        3    1    3    3  502    0 -0.85169837089E+03  0.60312636407E+03  0.24105476579E+04  0.26267644636E+04  0.10100000352E+00 0.  1.
       -3    1    3    3    0  502  0.85169837089E+03 -0.60312636407E+03 -0.10658118692E+04  0.14916790796E+04  0.10100000352E+00 0. -1.
</event>
<event>
 5   0  0.2632875E-08  0.3905310E+04  0.7818609E-02  0.8023926E-01
        1   -1    0    0  501    0  0.00000000000E+00  0.00000000000E+00  0.19895665169E+04  0.19895665169E+04  0.50400001928E-02 0.  1.
       -1   -1    0    0    0  501  0.00000000000E+00  0.00000000000E+00 -0.19164282059E+04  0.19164282059E+04  0.50400001928E-02 0. -1.
    10030    2    1    2    0    0  0.00000000000E+00  0.00000000000E+00  0.73138311009E+02  0.39059947228E+04  0.39053099188E+04 0.  0.
        2    1    3    3  502    0 -0.19356853415E+04  0.15075731209E+03  0.24458610978E+03  0.19568924022E+04  0.25500000920E-02 0. -1.
       -2    1    3    3    0  502  0.19356853415E+04 -0.15075731209E+03 -0.17144779877E+03  0.19491023206E+04  0.25500000920E-02 0.  1.
</event>
<event>
 5   0  0.8476262E-08  0.3885269E+04  0.7818609E-02  0.8028100E-01
       -2   -1    0    0    0  501  0.00000000000E+00  0.00000000000E+00  0.14148768458E+04  0.14148768458E+04  0.25500000920E-02 0. -1.
        2   -1    0    0  501    0  0.00000000000E+00  0.00000000000E+00 -0.26672490502E+04  0.26672490502E+04  0.25500000920E-02 0.  1.
    10030    2    1    2    0    0  0.00000000000E+00  0.00000000000E+00 -0.12523722044E+04  0.40821258960E+04  0.38852690631E+04 0.  0.
        2    1    3    3  502    0  0.42686270886E+03 -0.13913371511E+04  0.72578989820E+03  0.16262846665E+04  0.25500000920E-02 0. -1.
       -2    1    3    3    0  502 -0.42686270886E+03  0.13913371511E+04 -0.19781621026E+04  0.24558412295E+04  0.25500000920E-02 0.  1.
</event>
<event>
 5   0  0.8476262E-08  0.3913203E+04  0.7818609E-02  0.8022289E-01
        2   -1    0    0  501    0  0.00000000000E+00  0.00000000000E+00  0.20248247131E+04  0.20248247131E+04  0.25500000920E-02 0. -1.
       -2   -1    0    0    0  501  0.00000000000E+00  0.00000000000E+00 -0.18906765236E+04  0.18906765236E+04  0.25500000920E-02 0.  1.
    10030    2    1    2    0    0  0.00000000000E+00  0.00000000000E+00  0.13414818957E+03  0.39155012367E+04  0.39132025501E+04 0.  0.
        2    1    3    3  502    0  0.21113514584E+03 -0.37500544092E+03 -0.18427328853E+04  0.18923191108E+04  0.25500000920E-02 0.  1.
       -2    1    3    3    0  502 -0.21113514584E+03  0.37500544092E+03  0.19768810748E+04  0.20231821259E+04  0.25500000920E-02 0. -1.
</event>
<event>
 5   0  0.8342802E-08  0.3905316E+04  0.7818609E-02  0.8023924E-01
       -2   -1    0    0    0  501  0.00000000000E+00  0.00000000000E+00  0.17660483461E+04  0.17660483461E+04  0.25500000920E-02 0. -1.
        2   -1    0    0  501    0  0.00000000000E+00  0.00000000000E+00 -0.21589858968E+04  0.21589858968E+04  0.25500000920E-02 0.  1.
    10030    2    1    2    0    0  0.00000000000E+00  0.00000000000E+00 -0.39293755070E+03  0.39250342430E+04  0.39053161062E+04 0.  0.
        4    1    3    3  502    0 -0.43104008202E+03  0.12436139338E+04 -0.16461455784E+04  0.21076451425E+04  0.12699999809E+01 0.  1.
       -4    1    3    3    0  502  0.43104008202E+03 -0.12436139338E+04  0.12532080277E+04  0.18173891004E+04  0.12699999809E+01 0. -1.
</event>
<event>
 5   0  0.8551754E-08  0.3901356E+04  0.7818609E-02  0.8024747E-01
       -2   -1    0    0    0  501  0.00000000000E+00  0.00000000000E+00  0.18848109153E+04  0.18848109153E+04  0.25500000920E-02 0. -1.
        2   -1    0    0  501    0  0.00000000000E+00  0.00000000000E+00 -0.20188469946E+04  0.20188469946E+04  0.25500000920E-02 0.  1.
    10030    2    1    2    0    0  0.00000000000E+00  0.00000000000E+00 -0.13403607925E+03  0.39036579099E+04  0.39013560985E+04 0.  0.
        1    1    3    3  502    0  0.22612554528E+03 -0.95418121813E+03 -0.17542959326E+04  0.20097633638E+04  0.50400001928E-02 0.  1.
       -1    1    3    3    0  502 -0.22612554528E+03  0.95418121813E+03  0.16202598534E+04  0.18938945461E+04  0.50400001928E-02 0. -1.
</event>
<event>
 5   0  0.2632875E-08  0.3905181E+04  0.7818609E-02  0.8023952E-01
       -1   -1    0    0    0  501  0.00000000000E+00  0.00000000000E+00  0.34655774150E+04  0.34655774150E+04  0.50400001928E-02 0.  1.
        1   -1    0    0  501    0  0.00000000000E+00  0.00000000000E+00 -0.11001370985E+04  0.11001370985E+04  0.50400001928E-02 0. -1.
    10030    2    1    2    0    0  0.00000000000E+00  0.00000000000E+00  0.23654403165E+04  0.45657145135E+04  0.39051813182E+04 0.  0.
        2    1    3    3  502    0  0.44022751712E+03  0.71192281918E+03  0.32451807677E+04  0.33513926333E+04  0.25500000920E-02 0.  1.
       -2    1    3    3    0  502 -0.44022751712E+03 -0.71192281918E+03 -0.87974045120E+03  0.12143218802E+04  0.25500000920E-02 0. -1.
</event>
<event>
 5   0  0.8342802E-08  0.3903554E+04  0.7818609E-02  0.8024290E-01
        2   -1    0    0  501    0  0.00000000000E+00  0.00000000000E+00  0.13450899767E+04  0.13450899767E+04  0.25500000920E-02 0.  1.
       -2   -1    0    0    0  501  0.00000000000E+00  0.00000000000E+00 -0.28321029789E+04  0.28321029789E+04  0.25500000920E-02 0. -1.
    10030    2    1    2    0    0  0.00000000000E+00  0.00000000000E+00 -0.14870130022E+04  0.41771929556E+04  0.39035539345E+04 0.  0.
        4    1    3    3  502    0  0.18776495645E+04  0.32966344189E+02 -0.17446173614E+03  0.18860257626E+04  0.12699999809E+01 0.  1.
       -4    1    3    3    0  502 -0.18776495645E+04 -0.32966344189E+02 -0.13125512660E+04  0.22911671929E+04  0.12699999809E+01 0. -1.
</event>
<event>
 5   0  0.8676098E-08  0.3896717E+04  0.7818609E-02  0.8025712E-01
        2   -1    0    0  501    0  0.00000000000E+00  0.00000000000E+00  0.21789289664E+04  0.21789289664E+04  0.25500000920E-02 0. -1.
       -2   -1    0    0    0  501  0.00000000000E+00  0.00000000000E+00 -0.17421861919E+04  0.17421861919E+04  0.25500000920E-02 0.  1.
    10030    2    1    2    0    0  0.00000000000E+00  0.00000000000E+00  0.43674277448E+03  0.39211151584E+04  0.38967165453E+04 0.  0.
        3    1    3    3  502    0 -0.14644652048E+03 -0.50535858282E+03 -0.16693453772E+04  0.17502993685E+04  0.10100000352E+00 0.  1.
       -3    1    3    3    0  502  0.14644652048E+03  0.50535858282E+03  0.21060881517E+04  0.21708157899E+04  0.10100000352E+00 0. -1.
</event>
<event>
 5   0  0.2632875E-08  0.3910674E+04  0.7818609E-02  0.8022813E-01
       -1   -1    0    0    0  501  0.00000000000E+00  0.00000000000E+00  0.24771372785E+04  0.24771372785E+04  0.50400001928E-02 0.  1.
        1   -1    0    0  501    0  0.00000000000E+00  0.00000000000E+00 -0.15434519963E+04  0.15434519963E+04  0.50400001928E-02 0. -1.
    10030    2    1    2    0    0  0.00000000000E+00  0.00000000000E+00  0.93368528218E+03  0.40205892749E+04  0.39106738436E+04 0.  0.
        3    1    3    3  502    0 -0.64345951718E+03  0.96784863747E+03 -0.11497944100E+04  0.16348695149E+04  0.10100000352E+00 0. -1.
       -3    1    3    3    0  502  0.64345951718E+03 -0.96784863747E+03  0.20834796922E+04  0.23857197600E+04  0.10100000352E+00 0.  1.
</event>
<event>
 5   0  0.8438211E-08  0.3907367E+04  0.7818609E-02  0.8023499E-01
       -2   -1    0    0    0  501  0.00000000000E+00  0.00000000000E+00  0.16422667252E+04  0.16422667252E+04  0.25500000920E-02 0.  1.
        2   -1    0    0  501    0  0.00000000000E+00  0.00000000000E+00 -0.23241532143E+04  0.23241532143E+04  0.25500000920E-02 0. -1.
    10030    2    1    2    0    0  0.00000000000E+00  0.00000000000E+00 -0.68188648911E+03  0.39664199395E+04  0.39073671381E+04 0.  0.
        5    1    3    3  502    0 -0.11665103257E+04  0.62674715246E+03 -0.17990709558E+04  0.22338837766E+04  0.46999998093E+01 0. -1.
       -5    1    3    3    0  502  0.11665103257E+04 -0.62674715246E+03  0.11171844667E+04  0.17325361629E+04  0.46999998093E+01 0.  1.
</event>
<event>
 5   0  0.2632875E-08  0.3926168E+04  0.7818609E-02  0.8019609E-01
       -1   -1    0    0    0  501  0.00000000000E+00  0.00000000000E+00  0.16028533070E+04  0.16028533070E+04  0.50400001928E-02 0. -1.
        1   -1    0    0  501    0  0.00000000000E+00  0.00000000000E+00 -0.24042747381E+04  0.24042747381E+04  0.50400001928E-02 0.  1.
    10030    2    1    2    0    0  0.00000000000E+00  0.00000000000E+00 -0.80142143106E+03  0.40071280451E+04  0.39261684706E+04 0.  0.
        4    1    3    3  502    0  0.57986634175E+03  0.18522878613E+04 -0.70085437696E+03  0.20635924419E+04  0.12699999809E+01 0. -1.
       -4    1    3    3    0  502 -0.57986634175E+03 -0.18522878613E+04 -0.10056705409E+03  0.19435356032E+04  0.12699999809E+01 0.  1.
</event>
<event>
 5   0  0.8551754E-08  0.3891055E+04  0.7818609E-02  0.8026892E-01
       -2   -1    0    0    0  501  0.00000000000E+00  0.00000000000E+00  0.13082667667E+04  0.13082667667E+04  0.25500000920E-02 0.  1.
        2   -1    0    0  501    0  0.00000000000E+00  0.00000000000E+00 -0.28931999631E+04  0.28931999631E+04  0.25500000920E-02 0. -1.
    10030    2    1    2    0    0  0.00000000000E+00  0.00000000000E+00 -0.15849331965E+04  0.42014667298E+04  0.38910550554E+04 0.  0.
        1    1    3    3  502    0  0.42364885365E+03  0.32571192802E+03 -0.28124007825E+04  0.28627198209E+04  0.50400001928E-02 0. -1.
       -1    1    3    3    0  502 -0.42364885365E+03 -0.32571192802E+03  0.12274675861E+04  0.13387469089E+04  0.50400001928E-02 0.  1.
</event>
<event>
 5   0  0.8476262E-08  0.3904360E+04  0.7818609E-02  0.8024123E-01
       -2   -1    0    0    0  501  0.00000000000E+00  0.00000000000E+00  0.17078955687E+04  0.17078955687E+04  0.25500000920E-02 0.  1.
        2   -1    0    0  501    0  0.00000000000E+00  0.00000000000E+00 -0.22314048658E+04  0.22314048658E+04  0.25500000920E-02 0. -1.
    10030    2    1    2    0    0  0.00000000000E+00  0.00000000000E+00 -0.52350929709E+03  0.39393004345E+04  0.39043598617E+04 0.  0.
        2    1    3    3  502    0  0.12154575876E+04  0.49586338724E+03 -0.17196036713E+04  0.21633895702E+04  0.25500000920E-02 0. -1.
       -2    1    3    3    0  502 -0.12154575876E+04 -0.49586338724E+03  0.11960943743E+04  0.17759108643E+04  0.25500000920E-02 0.  1.
</event>
<event>
 5   0  0.2632875E-08  0.3858619E+04  0.7818609E-02  0.8033691E-01
        3   -1    0    0  501    0  0.00000000000E+00  0.00000000000E+00  0.16494539451E+04  0.16494539482E+04  0.10100000352E+00 0. -1.
       -3   -1    0    0    0  501  0.00000000000E+00  0.00000000000E+00 -0.22566471386E+04  0.22566471409E+04  0.10100000352E+00 0.  1.
    10030    2    1    2    0    0  0.00000000000E+00  0.00000000000E+00 -0.60719319352E+03  0.39061010891E+04  0.38586192017E+04 0.  0.
        4    1    3    3  502    0  0.16645541262E+04  0.74766470110E+03 -0.93779682942E+03  0.20516353112E+04  0.12699999809E+01 0.  1.
       -4    1    3    3    0  502 -0.16645541262E+04 -0.74766470110E+03  0.33060363589E+03  0.18544657778E+04  0.12699999809E+01 0. -1.
</event>
<event>
 5   0  0.8342802E-08  0.3900647E+04  0.7818609E-02  0.8024895E-01
        2   -1    0    0  501    0  0.00000000000E+00  0.00000000000E+00  0.19705466900E+04  0.19705466900E+04  0.25500000920E-02 0. -1.
       -2   -1    0    0    0  501  0.00000000000E+00  0.00000000000E+00 -0.19303073910E+04  0.19303073910E+04  0.25500000920E-02 0.  1.
    10030    2    1    2    0    0  0.00000000000E+00  0.00000000000E+00  0.40239299005E+02  0.39008540809E+04  0.39006465310E+04 0.  0.
        4    1    3    3  502    0  0.38284809604E+03 -0.13763935663E+04 -0.13076284081E+04  0.19367306422E+04  0.12699999809E+01 0.  1.
       -4    1    3    3    0  502 -0.38284809604E+03  0.13763935663E+04  0.13478677071E+04  0.19641234387E+04  0.12699999809E+01 0. -1.
</event>
<event>
 5   0  0.8438211E-08  0.3895872E+04  0.7818609E-02  0.8025888E-01
       -2   -1    0    0    0  501  0.00000000000E+00  0.00000000000E+00  0.17855668791E+04  0.17855668791E+04  0.25500000920E-02 0.  1.
        2   -1    0    0  501    0  0.00000000000E+00  0.00000000000E+00 -0.21250697201E+04  0.21250697201E+04  0.25500000920E-02 0. -1.
    10030    2    1    2    0    0  0.00000000000E+00  0.00000000000E+00 -0.33950284094E+03  0.39106365992E+04  0.38958717166E+04 0.  0.
        5    1    3    3  502    0  0.50262069071E+01 -0.14049195304E+03 -0.21199652700E+04  0.21246265760E+04  0.46999998093E+01 0. -1.
       -5    1    3    3    0  502 -0.50262069071E+01  0.14049195304E+03  0.17804624291E+04  0.17860100232E+04  0.46999998093E+01 0.  1.
</event>
<event>
 5   0  0.2632875E-08  0.3885712E+04  0.7818609E-02  0.8028007E-01
       -1   -1    0    0    0  501  0.00000000000E+00  0.00000000000E+00  0.27656966434E+04  0.27656966434E+04  0.50400001928E-02 0. -1.
        1   -1    0    0  501    0  0.00000000000E+00  0.00000000000E+00 -0.13648239010E+04  0.13648239010E+04  0.50400001928E-02 0.  1.
    10030    2    1    2    0    0  0.00000000000E+00  0.00000000000E+00  0.14008727423E+04  0.41305205444E+04  0.38857117144E+04 0.  0.
        4    1    3    3  502    0  0.90147875857E+03  0.10578236627E+03 -0.11255879421E+04  0.14459611646E+04  0.12699999809E+01 0.  1.
       -4    1    3    3    0  502 -0.90147875857E+03 -0.10578236627E+03  0.25264606844E+04  0.26845593798E+04  0.12699999809E+01 0. -1.
</event>
<event>
 5   0  0.8676098E-08  0.3869944E+04  0.7818609E-02  0.8031309E-01
       -2   -1    0    0    0  501  0.00000000000E+00  0.00000000000E+00  0.23490186459E+04  0.23490186459E+04  0.25500000920E-02 0.  1.
        2   -1    0    0  501    0  0.00000000000E+00  0.00000000000E+00 -0.15939069388E+04  0.15939069388E+04  0.25500000920E-02 0. -1.
    10030    2    1    2    0    0  0.00000000000E+00  0.00000000000E+00  0.75511170706E+03  0.39429255847E+04  0.38699442472E+04 0.  0.
        3    1    3    3  502    0  0.11062380794E+04  0.15306470385E+04  0.80677720697E+03  0.20536631945E+04  0.10100000352E+00 0.  1.
       -3    1    3    3    0  502 -0.11062380794E+04 -0.15306470385E+04 -0.51665499902E+02  0.18892623902E+04  0.10100000352E+00 0. -1.
</event>
<event>
 5   0  0.2632875E-08  0.3899240E+04  0.7818609E-02  0.8025187E-01
       -1   -1    0    0    0  501  0.00000000000E+00  0.00000000000E+00  0.14137882914E+04  0.14137882915E+04  0.50400001928E-02 0.  1.
        1   -1    0    0  501    0  0.00000000000E+00  0.00000000000E+00 -0.26885346621E+04  0.26885346621E+04  0.50400001928E-02 0. -1.
    10030    2    1    2    0    0  0.00000000000E+00  0.00000000000E+00 -0.12747463707E+04  0.41023229536E+04  0.38992403498E+04 0.  0.
        3    1    3    3  502    0 -0.39756003188E+03  0.17908760806E+04 -0.13318494806E+04  0.22669614386E+04  0.10100000352E+00 0. -1.
       -3    1    3    3    0  502  0.39756003188E+03 -0.17908760806E+04  0.57103109948E+02  0.18353615149E+04  0.10100000352E+00 0.  1.
</event>
<event>
 5   0  0.2632875E-08  0.3910295E+04  0.7818609E-02  0.8022891E-01
        1   -1    0    0  501    0  0.00000000000E+00  0.00000000000E+00  0.19783915951E+04  0.19783915951E+04  0.50400001928E-02 0.  1.
       -1   -1    0    0    0  501  0.00000000000E+00  0.00000000000E+00 -0.19321766246E+04  0.19321766246E+04  0.50400001928E-02 0. -1.
    10030    2    1    2    0    0  0.00000000000E+00  0.00000000000E+00  0.46214970416E+02  0.39105682197E+04  0.39102951267E+04 0.  0.
        5    1    3    3  502    0 -0.13570642668E+04  0.48779160233E+03  0.13434329390E+04  0.19708876739E+04  0.46999998093E+01 0.  1.
       -5    1    3    3    0  502  0.13570642668E+04 -0.48779160233E+03 -0.12972179686E+04  0.19396805458E+04  0.46999998093E+01 0. -1.
</event>
<event>
 5   0  0.2632875E-08  0.3908027E+04  0.7818609E-02  0.8023362E-01
        1   -1    0    0  501    0  0.00000000000E+00  0.00000000000E+00  0.21902612072E+04  0.21902612072E+04  0.50400001928E-02 0. -1.
       -1   -1    0    0    0  501  0.00000000000E+00  0.00000000000E+00 -0.17432484144E+04  0.17432484144E+04  0.50400001928E-02 0.  1.
    10030    2    1    2    0    0  0.00000000000E+00  0.00000000000E+00  0.44701279280E+03  0.39335096216E+04  0.39080273164E+04 0.  0.
        1    1    3    3  502    0  0.58695681160E+03  0.83202515542E+03 -0.14551167113E+04  0.17759923427E+04  0.50400001928E-02 0.  1.
       -1    1    3    3    0  502 -0.58695681160E+03 -0.83202515542E+03  0.19021295041E+04  0.21575172788E+04  0.50400001928E-02 0. -1.
</event>
<event>
 5   0  0.8676098E-08  0.3885632E+04  0.7818609E-02  0.8028024E-01
       -2   -1    0    0    0  501  0.00000000000E+00  0.00000000000E+00  0.13202944223E+04  0.13202944223E+04  0.25500000920E-02 0.  1.
        2   -1    0    0  501    0  0.00000000000E+00  0.00000000000E+00 -0.28588571922E+04  0.28588571922E+04  0.25500000920E-02 0. -1.
    10030    2    1    2    0    0  0.00000000000E+00  0.00000000000E+00 -0.15385627700E+04  0.41791516145E+04  0.38856315857E+04 0.  0.
        3    1    3    3  502    0 -0.13049162155E+04 -0.14200703714E+04 -0.10218089010E+04  0.21825443019E+04  0.10100000352E+00 0. -1.
       -3    1    3    3    0  502  0.13049162155E+04  0.14200703714E+04 -0.51675386894E+03  0.19966073126E+04  0.10100000352E+00 0.  1.
</event>
<event>
 5   0  0.8676098E-08  0.3910035E+04  0.7818609E-02  0.8022945E-01
       -2   -1    0    0    0  501  0.00000000000E+00  0.00000000000E+00  0.15953218012E+04  0.15953218012E+04  0.25500000920E-02 0. -1.
        2   -1    0    0  501    0  0.00000000000E+00  0.00000000000E+00 -0.23958134629E+04  0.23958134629E+04  0.25500000920E-02 0.  1.
    10030    2    1    2    0    0  0.00000000000E+00  0.00000000000E+00 -0.80049166175E+03  0.39911352641E+04  0.39100350121E+04 0.  0.
        3    1    3    3  502    0  0.36725298950E+03  0.14940084003E+04 -0.16315654902E+04  0.22425302267E+04  0.10100000352E+00 0.  1.
       -3    1    3    3    0  502 -0.36725298950E+03 -0.14940084003E+04  0.83107382842E+03  0.17486050375E+04  0.10100000352E+00 0. -1.
</event>
<event>
 5   0  0.8438211E-08  0.3900197E+04  0.7818609E-02  0.8024988E-01
       -2   -1    0    0    0  501  0.00000000000E+00  0.00000000000E+00  0.16019400855E+04  0.16019400855E+04  0.25500000920E-02 0. -1.
        2   -1    0    0  501    0  0.00000000000E+00  0.00000000000E+00 -0.23739241117E+04  0.23739241117E+04  0.25500000920E-02 0.  1.
    10030    2    1    2    0    0  0.00000000000E+00  0.00000000000E+00 -0.77198402618E+03  0.39758641972E+04  0.39001970178E+04 0.  0.
        5    1    3    3  502    0 -0.18255734313E+04 -0.47057445643E+03  0.12238497714E+03  0.18892217563E+04  0.46999998093E+01 0.  1.
       -5    1    3    3    0  502  0.18255734313E+04  0.47057445643E+03 -0.89436900332E+03  0.20866424409E+04  0.46999998093E+01 0. -1.
</event>
<event>
 5   0  0.2632875E-08  0.3904600E+04  0.7818609E-02  0.8024073E-01
        1   -1    0    0  501    0  0.00000000000E+00  0.00000000000E+00  0.19595210240E+04  0.19595210240E+04  0.50400001928E-02 0. -1.
       -1   -1    0    0    0  501  0.00000000000E+00  0.00000000000E+00 -0.19451057418E+04  0.19451057418E+04  0.50400001928E-02 0.  1.
    10030    2    1    2    0    0  0.00000000000E+00  0.00000000000E+00  0.14415282187E+02  0.39046267658E+04  0.39046001562E+04 0.  0.
        4    1    3    3  502    0  0.71213841088E+03  0.17382985400E+04  0.53886063327E+03  0.19542761641E+04  0.12699999809E+01 0. -1.
       -4    1    3    3    0  502 -0.71213841088E+03 -0.17382985400E+04 -0.52444535108E+03  0.19503506017E+04  0.12699999809E+01 0.  1.
</event>
<event>
 5   0  0.2632875E-08  0.3916335E+04  0.7818609E-02  0.8021640E-01
       -1   -1    0    0    0  501  0.00000000000E+00  0.00000000000E+00  0.15251807483E+04  0.15251807484E+04  0.50400001928E-02 0.  1.
        1   -1    0    0  501    0  0.00000000000E+00  0.00000000000E+00 -0.25140755877E+04  0.25140755878E+04  0.50400001928E-02 0. -1.
    10030    2    1    2    0    0  0.00000000000E+00  0.00000000000E+00 -0.98889483940E+03  0.40392563361E+04  0.39163348612E+04 0.  0.
        1    1    3    3  502    0 -0.48337847649E+03 -0.65774118938E+03 -0.23302411362E+04  0.24690690506E+04  0.50400001928E-02 0. -1.
       -1    1    3    3    0  502  0.48337847649E+03  0.65774118938E+03  0.13413462968E+04  0.15701872855E+04  0.50400001928E-02 0.  1.
</event>
<event>
 5   0  0.8476262E-08  0.3866920E+04  0.7818609E-02  0.8031945E-01
        2   -1    0    0  501    0  0.00000000000E+00  0.00000000000E+00  0.11186152423E+04  0.11186152423E+04  0.25500000920E-02 0. -1.
       -2   -1    0    0    0  501  0.00000000000E+00  0.00000000000E+00 -0.33418703660E+04  0.33418703660E+04  0.25500000920E-02 0.  1.
    10030    2    1    2    0    0  0.00000000000E+00  0.00000000000E+00 -0.22232551237E+04  0.44604856082E+04  0.38669197711E+04 0.  0.
        2    1    3    3  502    0  0.77130346338E+03  0.13590825688E+04 -0.24249211151E+04  0.28848322093E+04  0.25500000920E-02 0.  1.
       -2    1    3    3    0  502 -0.77130346338E+03 -0.13590825688E+04  0.20166599137E+03  0.15756533989E+04  0.25500000920E-02 0. -1.
</event>
<event>
 5   0  0.8676098E-08  0.3920771E+04  0.7818609E-02  0.8020723E-01
       -2   -1    0    0    0  501  0.00000000000E+00  0.00000000000E+00  0.17370215892E+04  0.17370215892E+04  0.25500000920E-02 0.  1.
        2   -1    0    0  501    0  0.00000000000E+00  0.00000000000E+00 -0.22124717721E+04  0.22124717721E+04  0.25500000920E-02 0. -1.
    10030    2    1    2    0    0  0.00000000000E+00  0.00000000000E+00 -0.47545018291E+03  0.39494933613E+04  0.39207709617E+04 0.  0.
        3    1    3    3  502    0 -0.15255368340E+04 -0.10580600733E+04 -0.87190640402E+03  0.20510910604E+04  0.10100000352E+00 0. -1.
       -3    1    3    3    0  502  0.15255368340E+04  0.10580600733E+04  0.39645622111E+03  0.18984023009E+04  0.10100000352E+00 0.  1.
</event>
<event>
 5   0  0.2632875E-08  0.3903018E+04  0.7818609E-02  0.8024402E-01
       -1   -1    0    0    0  501  0.00000000000E+00  0.00000000000E+00  0.19830751761E+04  0.19830751761E+04  0.50400001928E-02 0. -1.
        1   -1    0    0  501    0  0.00000000000E+00  0.00000000000E+00 -0.19204449189E+04  0.19204449189E+04  0.50400001928E-02 0.  1.
    10030    2    1    2    0    0  0.00000000000E+00  0.00000000000E+00  0.62630257195E+02  0.39035200950E+04  0.39030176253E+04 0.  0.
        1    1    3    3  502    0  0.82766229341E+03 -0.15714128919E+04  0.84013631042E+03  0.19647372264E+04  0.50400001928E-02 0. -1.
       -1    1    3    3    0  502 -0.82766229341E+03  0.15714128919E+04 -0.77750605322E+03  0.19387828686E+04  0.50400001928E-02 0.  1.
</event>
<event>
 5   0  0.8438211E-08  0.3902713E+04  0.7818609E-02  0.8024465E-01
       -2   -1    0    0    0  501  0.00000000000E+00  0.00000000000E+00  0.21857003286E+04  0.21857003286E+04  0.25500000920E-02 0. -1.
        2   -1    0    0  501    0  0.00000000000E+00  0.00000000000E+00 -0.17421386537E+04  0.17421386537E+04  0.25500000920E-02 0.  1.
    10030    2    1    2    0    0  0.00000000000E+00  0.00000000000E+00  0.44356167485E+03  0.39278389823E+04  0.39027134293E+04 0.  0.
        5    1    3    3  502    0  0.15669400123E+03  0.33771215565E+03 -0.17060584971E+04  0.17462131015E+04  0.46999998093E+01 0.  1.
       -5    1    3    3    0  502 -0.15669400123E+03 -0.33771215565E+03  0.21496201720E+04  0.21816258808E+04  0.46999998093E+01 0. -1.
</event>
<event>
 5   0  0.2632875E-08  0.3954994E+04  0.7818609E-02  0.8013688E-01
        1   -1    0    0  501    0  0.00000000000E+00  0.00000000000E+00  0.24459572778E+04  0.24459572778E+04  0.50400001928E-02 0.  1.
       -1   -1    0    0    0  501  0.00000000000E+00  0.00000000000E+00 -0.15987583933E+04  0.15987583933E+04  0.50400001928E-02 0. -1.
    10030    2    1    2    0    0  0.00000000000E+00  0.00000000000E+00  0.84719888452E+03  0.40447156711E+04  0.39549941732E+04 0.  0.
        1    1    3    3  502    0 -0.58387474627E+02  0.19686414450E+04  0.24198564536E+03  0.19843173356E+04  0.50400001928E-02 0.  1.
       -1    1    3    3    0  502  0.58387474627E+02 -0.19686414450E+04  0.60521323916E+03  0.20603983355E+04  0.50400001928E-02 0. -1.
</event>
<event>
 5   0  0.2632875E-08  0.3902442E+04  0.7818609E-02  0.8024521E-01
        1   -1    0    0  501    0  0.00000000000E+00  0.00000000000E+00  0.20712047740E+04  0.20712047741E+04  0.50400001928E-02 0.  1.
       -1   -1    0    0    0  501  0.00000000000E+00  0.00000000000E+00 -0.18381880844E+04  0.18381880844E+04  0.50400001928E-02 0. -1.
    10030    2    1    2    0    0  0.00000000000E+00  0.00000000000E+00  0.23301668963E+03  0.39093928585E+04  0.39024422794E+04 0.  0.
        5    1    3    3  502    0 -0.12275052693E+04 -0.15120740237E+04  0.23548353230E+03  0.19617878640E+04  0.46999998093E+01 0.  1.
       -5    1    3    3    0  502  0.12275052693E+04  0.15120740237E+04 -0.24668426711E+01  0.19476049945E+04  0.46999998093E+01 0. -1.
</event>
<event>
 5   0  0.8476262E-08  0.3878635E+04  0.7818609E-02  0.8029487E-01
        2   -1    0    0  501    0  0.00000000000E+00  0.00000000000E+00  0.19963702919E+04  0.19963702919E+04  0.25500000920E-02 0.  1.
       -2   -1    0    0    0  501  0.00000000000E+00  0.00000000000E+00 -0.18838950805E+04  0.18838950805E+04  0.25500000920E-02 0. -1.
    10030    2    1    2    0    0  0.00000000000E+00  0.00000000000E+00  0.11247521137E+03  0.38802653724E+04  0.38786349000E+04 0.  0.
        2    1    3    3  502    0  0.71145539419E+03  0.16504905423E+04 -0.67253575500E+03  0.19190081161E+04  0.25500000920E-02 0. -1.
       -2    1    3    3    0  502 -0.71145539419E+03 -0.16504905423E+04  0.78501096637E+03  0.19612572563E+04  0.25500000920E-02 0.  1.
</event>
<event>
 5   0  0.2632875E-08  0.3897851E+04  0.7818609E-02  0.8025476E-01
       -1   -1    0    0    0  501  0.00000000000E+00  0.00000000000E+00  0.24733057757E+04  0.24733057757E+04  0.50400001928E-02 0. -1.
        1   -1    0    0  501    0  0.00000000000E+00  0.00000000000E+00 -0.15357221718E+04  0.15357221718E+04  0.50400001928E-02 0.  1.
    10030    2    1    2    0    0  0.00000000000E+00  0.00000000000E+00  0.93758360389E+03  0.40090279475E+04  0.38978509552E+04 0.  0.
        1    1    3    3  502    0  0.10420622731E+04  0.80127695252E+03  0.19487111428E+04  0.23506198446E+04  0.50400001928E-02 0. -1.
       -1    1    3    3    0  502 -0.10420622731E+04 -0.80127695252E+03 -0.10111275389E+04  0.16584081029E+04  0.50400001928E-02 0.  1.
</event>
<event>
 5   0  0.2632875E-08  0.3906452E+04  0.7818609E-02  0.8023689E-01
       -1   -1    0    0    0  501  0.00000000000E+00  0.00000000000E+00  0.12906575770E+04  0.12906575771E+04  0.50400001928E-02 0.  1.
        1   -1    0    0  501    0  0.00000000000E+00  0.00000000000E+00 -0.29559280232E+04  0.29559280232E+04  0.50400001928E-02 0. -1.
    10030    2    1    2    0    0  0.00000000000E+00  0.00000000000E+00 -0.16652704461E+04  0.42465856002E+04  0.39064515358E+04 0.  0.
        2    1    3    3  502    0  0.88862317379E+03 -0.14205107928E+04 -0.19238220563E+04  0.25511944971E+04  0.25500000920E-02 0. -1.
       -2    1    3    3    0  502 -0.88862317379E+03  0.14205107928E+04  0.25855161018E+03  0.16953911032E+04  0.25500000920E-02 0.  1.
</event>
<event>
 5   0  0.8438211E-08  0.3890750E+04  0.7818609E-02  0.8026956E-01
       -2   -1    0    0    0  501  0.00000000000E+00  0.00000000000E+00  0.31277215289E+04  0.31277215289E+04  0.25500000920E-02 0. -1.
        2   -1    0    0  501    0  0.00000000000E+00  0.00000000000E+00 -0.12099811347E+04  0.12099811347E+04  0.25500000920E-02 0.  1.
    10030    2    1    2    0    0  0.00000000000E+00  0.00000000000E+00  0.19177403942E+04  0.43377026635E+04  0.38907500791E+04 0.  0.
        5    1    3    3  502    0  0.11314411487E+03 -0.13627355818E+03  0.31187069486E+04  0.31237360956E+04  0.46999998093E+01 0. -1.
       -5    1    3    3    0  502 -0.11314411487E+03  0.13627355818E+03 -0.12009665544E+04  0.12139665680E+04  0.46999998093E+01 0.  1.
</event>
<event>
 5   0  0.8342802E-08  0.3933481E+04  0.7818609E-02  0.8018102E-01
        2   -1    0    0  501    0  0.00000000000E+00  0.00000000000E+00  0.18171885776E+04  0.18171885776E+04  0.25500000920E-02 0. -1.
       -2   -1    0    0    0  501  0.00000000000E+00  0.00000000000E+00 -0.21286007021E+04  0.21286007021E+04  0.25500000920E-02 0.  1.
    10030    2    1    2    0    0  0.00000000000E+00  0.00000000000E+00 -0.31141212447E+03  0.39457892797E+04  0.39334813497E+04 0.  0.
        4    1    3    3  502    0  0.18392547516E+04 -0.12105603884E+03  0.53241021967E+03  0.19185866832E+04  0.12699999809E+01 0.  1.
       -4    1    3    3    0  502 -0.18392547516E+04  0.12105603884E+03 -0.84382234414E+03  0.20272025965E+04  0.12699999809E+01 0. -1.
</event>
<event>
 5   0  0.2632875E-08  0.3908737E+04  0.7818609E-02  0.8023215E-01
        1   -1    0    0  501    0  0.00000000000E+00  0.00000000000E+00  0.24331246733E+04  0.24331246733E+04  0.50400001928E-02 0.  1.
       -1   -1    0    0    0  501  0.00000000000E+00  0.00000000000E+00 -0.15698152096E+04  0.15698152096E+04  0.50400001928E-02 0. -1.
    10030    2    1    2    0    0  0.00000000000E+00  0.00000000000E+00  0.86330946369E+03  0.40029398830E+04  0.39087369413E+04 0.  0.
        2    1    3    3  502    0  0.13811136171E+03  0.55588332130E+03 -0.14819273658E+04  0.15887698803E+04  0.25500000920E-02 0. -1.
       -2    1    3    3    0  502 -0.13811136171E+03 -0.55588332130E+03  0.23452368295E+04  0.24141700026E+04  0.25500000920E-02 0.  1.
</event>
<event>
 5   0  0.2632875E-08  0.3924348E+04  0.7818609E-02  0.8019984E-01
        1   -1    0    0  501    0  0.00000000000E+00  0.00000000000E+00  0.25794858089E+04  0.25794858089E+04  0.50400001928E-02 0. -1.
       -1   -1    0    0    0  501  0.00000000000E+00  0.00000000000E+00 -0.14925947623E+04  0.14925947623E+04  0.50400001928E-02 0.  1.
    10030    2    1    2    0    0  0.00000000000E+00  0.00000000000E+00  0.10868910465E+04  0.40720805712E+04  0.39243481027E+04 0.  0.
        5    1    3    3  502    0 -0.58696618267E+03  0.32732581144E+03 -0.13694366611E+04  0.15254672547E+04  0.46999998093E+01 0.  1.
       -5    1    3    3    0  502  0.58696618267E+03 -0.32732581144E+03  0.24563277076E+04  0.25466133165E+04  0.46999998093E+01 0. -1.
</event>
<event>
 5   0  0.2632875E-08  0.3903918E+04  0.7818609E-02  0.8024215E-01
        1   -1    0    0  501    0  0.00000000000E+00  0.00000000000E+00  0.17513189951E+04  0.17513189951E+04  0.50400001928E-02 0. -1.
       -1   -1    0    0    0  501  0.00000000000E+00  0.00000000000E+00 -0.21755854231E+04  0.21755854231E+04  0.50400001928E-02 0.  1.
    10030    2    1    2    0    0  0.00000000000E+00  0.00000000000E+00 -0.42426642804E+03  0.39269044182E+04  0.39039180714E+04 0.  0.
        2    1    3    3  502    0 -0.13571682453E+04  0.16102570842E+03 -0.16140066745E+04  0.21149119296E+04  0.25500000920E-02 0.  1.
       -2    1    3    3    0  502  0.13571682453E+04 -0.16102570842E+03  0.11897402464E+04  0.18119924886E+04  0.25500000920E-02 0. -1.
</event>
<event>
 5   0  0.8676098E-08  0.3921177E+04  0.7818609E-02  0.8020639E-01
        2   -1    0    0  501    0  0.00000000000E+00  0.00000000000E+00  0.11446166850E+04  0.11446166850E+04  0.25500000920E-02 0.  1.
       -2   -1    0    0    0  501  0.00000000000E+00  0.00000000000E+00 -0.33582488143E+04  0.33582488143E+04  0.25500000920E-02 0. -1.
    10030    2    1    2    0    0  0.00000000000E+00  0.00000000000E+00 -0.22136321293E+04  0.45028654993E+04  0.39211771831E+04 0.  0.
        3    1    3    3  502    0  0.10478046622E+04 -0.96864323187E+03 -0.26507932815E+04  0.30104599901E+04  0.10100000352E+00 0. -1.
       -3    1    3    3    0  502 -0.10478046622E+04  0.96864323187E+03  0.43716115219E+03  0.14924055092E+04  0.10100000352E+00 0.  1.
</event>
<event>
 5   0  0.2632875E-08  0.3906175E+04  0.7818609E-02  0.8023746E-01
       -1   -1    0    0    0  501  0.00000000000E+00  0.00000000000E+00  0.17999753273E+04  0.17999753273E+04  0.50400001928E-02 0.  1.
        1   -1    0    0  501    0  0.00000000000E+00  0.00000000000E+00 -0.21192236253E+04  0.21192236253E+04  0.50400001928E-02 0. -1.
    10030    2    1    2    0    0  0.00000000000E+00  0.00000000000E+00 -0.31924829800E+03  0.39191989526E+04  0.39061747215E+04 0.  0.
        1    1    3    3  502    0  0.12648947833E+03  0.10604180617E+03  0.17929648173E+04  0.18005463862E+04  0.50400001928E-02 0.  1.
       -1    1    3    3    0  502 -0.12648947833E+03 -0.10604180617E+03 -0.21122131153E+04  0.21186525664E+04  0.50400001928E-02 0. -1.
</event>
<event>
 5   0  0.2632875E-08  0.3910852E+04  0.7818609E-02  0.8022776E-01
       -1   -1    0    0    0  501  0.00000000000E+00  0.00000000000E+00  0.34380572051E+04  0.34380572051E+04  0.50400001928E-02 0. -1.
        1   -1    0    0  501    0  0.00000000000E+00  0.00000000000E+00 -0.11121661434E+04  0.11121661434E+04  0.50400001928E-02 0.  1.
    10030    2    1    2    0    0  0.00000000000E+00  0.00000000000E+00  0.23258910617E+04  0.45502233484E+04  0.39108519903E+04 0.  0.
        3    1    3    3  502    0 -0.21071906978E+03 -0.17597308342E+04  0.21242386325E+04  0.27664860226E+04  0.10100000352E+00 0. -1.
       -3    1    3    3    0  502  0.21071906978E+03  0.17597308342E+04  0.20165242921E+03  0.17837373258E+04  0.10100000352E+00 0.  1.
</event>
<event>
 5   0  0.8551754E-08  0.3909349E+04  0.7818609E-02  0.8023088E-01
        2   -1    0    0  501    0  0.00000000000E+00  0.00000000000E+00  0.30599407567E+04  0.30599407567E+04  0.25500000920E-02 0. -1.
       -2   -1    0    0    0  501  0.00000000000E+00  0.00000000000E+00 -0.12486362679E+04  0.12486362679E+04  0.25500000920E-02 0.  1.
    10030    2    1    2    0    0  0.00000000000E+00  0.00000000000E+00  0.18113044888E+04  0.43085770246E+04  0.39093493098E+04 0.  0.
        1    1    3    3  502    0  0.33497488812E+03  0.42817523850E+03 -0.11636404742E+04  0.12843680795E+04  0.50400001928E-02 0.  1.
       -1    1    3    3    0  502 -0.33497488812E+03 -0.42817523850E+03  0.29749449630E+04  0.30242089451E+04  0.50400001928E-02 0. -1.
</event>
<event>
 5   0  0.2632875E-08  0.3879261E+04  0.7818609E-02  0.8029356E-01
       -1   -1    0    0    0  501  0.00000000000E+00  0.00000000000E+00  0.15083301791E+04  0.15083301791E+04  0.50400001928E-02 0.  1.
        1   -1    0    0  501    0  0.00000000000E+00  0.00000000000E+00 -0.24942592609E+04  0.24942592609E+04  0.50400001928E-02 0. -1.
    10030    2    1    2    0    0  0.00000000000E+00  0.00000000000E+00 -0.98592908184E+03  0.40025894400E+04  0.38792610213E+04 0.  0.
        3    1    3    3  502    0 -0.15551274993E+04  0.11529943720E+04 -0.61655986850E+03  0.20317390685E+04  0.10100000352E+00 0. -1.
       -3    1    3    3    0  502  0.15551274993E+04 -0.11529943720E+04 -0.36936921334E+03  0.19708503715E+04  0.10100000352E+00 0.  1.
</event>
<event>
 5   0  0.8676098E-08  0.3900665E+04  0.7818609E-02  0.8024891E-01
       -2   -1    0    0    0  501  0.00000000000E+00  0.00000000000E+00  0.12509452700E+04  0.12509452700E+04  0.25500000920E-02 0. -1.
        2   -1    0    0  501    0  0.00000000000E+00  0.00000000000E+00 -0.30407373376E+04  0.30407373376E+04  0.25500000920E-02 0.  1.
    10030    2    1    2    0    0  0.00000000000E+00  0.00000000000E+00 -0.17897920677E+04  0.42916826076E+04  0.39006645535E+04 0.  0.
        3    1    3    3  502    0  0.14490307196E+04  0.10021558656E+03 -0.23269314010E+04  0.27430535804E+04  0.10100000352E+00 0.  1.
       -3    1    3    3    0  502 -0.14490307196E+04 -0.10021558656E+03  0.53713933328E+03  0.15486290271E+04  0.10100000352E+00 0. -1.
</event>
<event>
 5   0  0.8676098E-08  0.3912233E+04  0.7818609E-02  0.8022490E-01
       -2   -1    0    0    0  501  0.00000000000E+00  0.00000000000E+00  0.14196968948E+04  0.14196968948E+04  0.25500000920E-02 0. -1.
        2   -1    0    0  501    0  0.00000000000E+00  0.00000000000E+00 -0.26952176919E+04  0.26952176919E+04  0.25500000920E-02 0.  1.
    10030    2    1    2    0    0  0.00000000000E+00  0.00000000000E+00 -0.12755207970E+04  0.41149145867E+04  0.39122332180E+04 0.  0.
        3    1    3    3  502    0 -0.21873219448E+03  0.18708982686E+04 -0.11926203579E+04  0.22294500292E+04  0.10100000352E+00 0.  1.
       -3    1    3    3    0  502  0.21873219448E+03 -0.18708982686E+04 -0.82900439112E+02  0.18854645575E+04  0.10100000352E+00 0. -1.
</event>
<event>
 5   0  0.8342802E-08  0.3883521E+04  0.7818609E-02  0.8028465E-01
        2   -1    0    0  501    0  0.00000000000E+00  0.00000000000E+00  0.28087943288E+04  0.28087943288E+04  0.25500000920E-02 0.  1.
       -2   -1    0    0    0  501  0.00000000000E+00  0.00000000000E+00 -0.13423673792E+04  0.13423673792E+04  0.25500000920E-02 0. -1.
    10030    2    1    2    0    0  0.00000000000E+00  0.00000000000E+00  0.14664269495E+04  0.41511617080E+04  0.38835210219E+04 0.  0.
        4    1    3    3  502    0 -0.56857549405E+03 -0.96062268049E+03  0.24315333220E+04  0.26755242357E+04  0.12699999809E+01 0.  1.
       -4    1    3    3    0  502  0.56857549405E+03  0.96062268049E+03 -0.96510637247E+03  0.14756374724E+04  0.12699999809E+01 0. -1.
</event>
<event>
 5   0  0.2632875E-08  0.3893319E+04  0.7818609E-02  0.8026420E-01
        1   -1    0    0  501    0  0.00000000000E+00  0.00000000000E+00  0.25319669657E+04  0.25319669657E+04  0.50400001928E-02 0. -1.
       -1   -1    0    0    0  501  0.00000000000E+00  0.00000000000E+00 -0.14966555090E+04  0.14966555090E+04  0.50400001928E-02 0.  1.
    10030    2    1    2    0    0  0.00000000000E+00  0.00000000000E+00  0.10353114567E+04  0.40286224747E+04  0.38933185371E+04 0.  0.
        5    1    3    3  502    0 -0.12952398545E+03  0.81615475810E+02 -0.14904108068E+04  0.14982603285E+04  0.46999998093E+01 0.  1.
       -5    1    3    3    0  502  0.12952398545E+03 -0.81615475810E+02  0.25257222636E+04  0.25303621463E+04  0.46999998093E+01 0. -1.
</event>
<event>
 5   0  0.8342802E-08  0.3885912E+04  0.7818609E-02  0.8027966E-01
       -2   -1    0    0    0  501  0.00000000000E+00  0.00000000000E+00  0.11324844943E+04  0.11324844944E+04  0.25500000920E-02 0. -1.
        2   -1    0    0  501    0  0.00000000000E+00  0.00000000000E+00 -0.33334477995E+04  0.33334477995E+04  0.25500000920E-02 0.  1.
    10030    2    1    2    0    0  0.00000000000E+00  0.00000000000E+00 -0.22009633051E+04  0.44659322938E+04  0.38859119628E+04 0.  0.
        4    1    3    3  502    0 -0.10204707668E+04  0.26844399899E+03  0.77449101638E+03  0.13089158544E+04  0.12699999809E+01 0. -1.
       -4    1    3    3    0  502  0.10204707668E+04 -0.26844399899E+03 -0.29754543215E+04  0.31570164394E+04  0.12699999809E+01 0.  1.
</event>
<event>
 5   0  0.2632875E-08  0.3898655E+04  0.7818609E-02  0.8025309E-01
       -1   -1    0    0    0  501  0.00000000000E+00  0.00000000000E+00  0.20631004322E+04  0.20631004322E+04  0.50400001928E-02 0. -1.
        1   -1    0    0  501    0  0.00000000000E+00  0.00000000000E+00 -0.18418289807E+04  0.18418289807E+04  0.50400001928E-02 0.  1.
    10030    2    1    2    0    0  0.00000000000E+00  0.00000000000E+00  0.22127145151E+03  0.39049294128E+04  0.38986552379E+04 0.  0.
        5    1    3    3  502    0  0.45176239730E+03  0.18688562512E+04  0.43231160597E+03  0.19706923570E+04  0.46999998093E+01 0. -1.
       -5    1    3    3    0  502 -0.45176239730E+03 -0.18688562512E+04 -0.21104015446E+03  0.19342370558E+04  0.46999998093E+01 0.  1.
</event>
<event>
 5   0  0.8551754E-08  0.3896654E+04  0.7818609E-02  0.8025725E-01
       -2   -1    0    0    0  501  0.00000000000E+00  0.00000000000E+00  0.22258525612E+04  0.22258525612E+04  0.25500000920E-02 0. -1.
        2   -1    0    0  501    0  0.00000000000E+00  0.00000000000E+00 -0.17054044049E+04  0.17054044049E+04  0.25500000920E-02 0.  1.
    10030    2    1    2    0    0  0.00000000000E+00  0.00000000000E+00  0.52044815631E+03  0.39312569660E+04  0.38966543405E+04 0.  0.
        1    1    3    3  502    0 -0.14304068963E+04  0.91470111590E+03 -0.70389624514E+03  0.18379912797E+04  0.50400001928E-02 0.  1.
       -1    1    3    3    0  502  0.14304068963E+04 -0.91470111590E+03  0.12243444015E+04  0.20932656864E+04  0.50400001928E-02 0. -1.
</event>
<event>
 5   0  0.2632875E-08  0.3900058E+04  0.7818609E-02  0.8025017E-01
       -1   -1    0    0    0  501  0.00000000000E+00  0.00000000000E+00  0.35793464479E+04  0.35793464479E+04  0.50400001928E-02 0.  1.
        1   -1    0    0  501    0  0.00000000000E+00  0.00000000000E+00 -0.10623761327E+04  0.10623761327E+04  0.50400001928E-02 0. -1.
    10030    2    1    2    0    0  0.00000000000E+00  0.00000000000E+00  0.25169703153E+04  0.46417225807E+04  0.39000575570E+04 0.  0.
        2    1    3    3  502    0 -0.55154054551E+03 -0.17346040886E+04  0.20912317530E+04  0.27724174582E+04  0.25500000920E-02 0.  1.
       -2    1    3    3    0  502  0.55154054551E+03  0.17346040886E+04  0.42573856228E+03  0.18693051225E+04  0.25500000920E-02 0. -1.
</event>
<event>
 5   0  0.8438211E-08  0.3882258E+04  0.7818609E-02  0.8028729E-01
       -2   -1    0    0    0  501  0.00000000000E+00  0.00000000000E+00  0.22183300778E+04  0.22183300778E+04  0.25500000920E-02 0. -1.
        2   -1    0    0  501    0  0.00000000000E+00  0.00000000000E+00 -0.16985670615E+04  0.16985670615E+04  0.25500000920E-02 0.  1.
    10030    2    1    2    0    0  0.00000000000E+00  0.00000000000E+00  0.51976301634E+03  0.39168971393E+04  0.38822583127E+04 0.  0.
        5    1    3    3  502    0  0.16200291809E+04  0.58454277162E+03  0.11632899248E+04  0.20783287368E+04  0.46999998093E+01 0. -1.
       -5    1    3    3    0  502 -0.16200291809E+04 -0.58454277162E+03 -0.64352690850E+03  0.18385684025E+04  0.46999998093E+01 0.  1.
</event>
<event>
 5   0  0.2632875E-08  0.3896945E+04  0.7818609E-02  0.8025665E-01
       -1   -1    0    0    0  501  0.00000000000E+00  0.00000000000E+00  0.22975329762E+04  0.22975329762E+04  0.50400001928E-02 0.  1.
        1   -1    0    0  501    0  0.00000000000E+00  0.00000000000E+00 -0.16524438824E+04  0.16524438824E+04  0.50400001928E-02 0. -1.
    10030    2    1    2    0    0  0.00000000000E+00  0.00000000000E+00  0.64508909385E+03  0.39499768586E+04  0.38969446037E+04 0.  0.
        3    1    3    3  502    0 -0.55680101517E+03  0.92406121311E+02 -0.15677685215E+04  0.16662726094E+04  0.10100000352E+00 0. -1.
       -3    1    3    3    0  502  0.55680101517E+03 -0.92406121311E+02  0.22128576153E+04  0.22837042492E+04  0.10100000352E+00 0.  1.
</event>
<event>
 5   0  0.2632875E-08  0.3895338E+04  0.7818609E-02  0.8026000E-01
        1   -1    0    0  501    0  0.00000000000E+00  0.00000000000E+00  0.18950525860E+04  0.18950525860E+04  0.50400001928E-02 0.  1.
       -1   -1    0    0    0  501  0.00000000000E+00  0.00000000000E+00 -0.20017461201E+04  0.20017461201E+04  0.50400001928E-02 0. -1.
    10030    2    1    2    0    0  0.00000000000E+00  0.00000000000E+00 -0.10669353414E+03  0.38967987061E+04  0.38953378090E+04 0.  0.
        3    1    3    3  502    0  0.11731759192E+04  0.13916749506E+04  0.63995950291E+03  0.19294167723E+04  0.10100000352E+00 0.  1.
       -3    1    3    3    0  502 -0.11731759192E+04 -0.13916749506E+04 -0.74665303705E+03  0.19673819338E+04  0.10100000352E+00 0. -1.
</event>
<event>
 5   0  0.2632875E-08  0.3899218E+04  0.7818609E-02  0.8025192E-01
        1   -1    0    0  501    0  0.00000000000E+00  0.00000000000E+00  0.24409064774E+04  0.24409064774E+04  0.50400001928E-02 0.  1.
       -1   -1    0    0    0  501  0.00000000000E+00  0.00000000000E+00 -0.15571984306E+04  0.15571984306E+04  0.50400001928E-02 0. -1.
    10030    2    1    2    0    0  0.00000000000E+00  0.00000000000E+00  0.88370804682E+03  0.39981049080E+04  0.38992182477E+04 0.  0.
        3    1    3    3  502    0 -0.10451373383E+04 -0.60457668951E+03 -0.11277017456E+04  0.16521308261E+04  0.10100000352E+00 0. -1.
       -3    1    3    3    0  502  0.10451373383E+04  0.60457668951E+03  0.20114097925E+04  0.23459740819E+04  0.10100000352E+00 0.  1.
</event>
<event>
 5   0  0.2632875E-08  0.3895631E+04  0.7818609E-02  0.8025938E-01
       -1   -1    0    0    0  501  0.00000000000E+00  0.00000000000E+00  0.21170412854E+04  0.21170412854E+04  0.50400001928E-02 0. -1.
        1   -1    0    0  501    0  0.00000000000E+00  0.00000000000E+00 -0.17921167495E+04  0.17921167495E+04  0.50400001928E-02 0.  1.
    10030    2    1    2    0    0  0.00000000000E+00  0.00000000000E+00  0.32492453587E+03  0.39091580349E+04  0.38956309615E+04 0.  0.
        4    1    3    3  502    0  0.61741888615E+03 -0.15004125765E+04 -0.91902751454E+03  0.18646868815E+04  0.12699999809E+01 0.  1.
       -4    1    3    3    0  502 -0.61741888615E+03  0.15004125765E+04  0.12439520504E+04  0.20444711534E+04  0.12699999809E+01 0. -1.
</event>
<event>
 5   0  0.2632875E-08  0.3909581E+04  0.7818609E-02  0.8023039E-01
        1   -1    0    0  501    0  0.00000000000E+00  0.00000000000E+00  0.23270262880E+04  0.23270262880E+04  0.50400001928E-02 0. -1.
       -1   -1    0    0    0  501  0.00000000000E+00  0.00000000000E+00 -0.16420985282E+04  0.16420985282E+04  0.50400001928E-02 0.  1.
    10030    2    1    2    0    0  0.00000000000E+00  0.00000000000E+00  0.68492775981E+03  0.39691248163E+04  0.39095812782E+04 0.  0.
        5    1    3    3  502    0  0.11793574631E+04 -0.15588100489E+04  0.32186799994E+03  0.19810083022E+04  0.46999998093E+01 0. -1.
       -5    1    3    3    0  502 -0.11793574631E+04  0.15588100489E+04  0.36305975986E+03  0.19881165140E+04  0.46999998093E+01 0.  1.
</event>
<event>
 5   0  0.8438211E-08  0.3924928E+04  0.7818609E-02  0.8019865E-01
        2   -1    0    0  501    0  0.00000000000E+00  0.00000000000E+00  0.25001484744E+04  0.25001484744E+04  0.25500000920E-02 0. -1.
       -2   -1    0    0    0  501  0.00000000000E+00  0.00000000000E+00 -0.15404143456E+04  0.15404143456E+04  0.25500000920E-02 0.  1.
    10030    2    1    2    0    0  0.00000000000E+00  0.00000000000E+00  0.95973412884E+03  0.40405628200E+04  0.39249278088E+04 0.  0.
        5    1    3    3  502    0  0.11208046266E+04 -0.11819727698E+04  0.16066362099E+04  0.22879170965E+04  0.46999998093E+01 0.  1.
       -5    1    3    3    0  502 -0.11208046266E+04  0.11819727698E+04 -0.64690208107E+03  0.17526457235E+04  0.46999998093E+01 0. -1.
</event>
<event>
 5   0  0.8551754E-08  0.4138849E+04  0.7818609E-02  0.7977107E-01
        2   -1    0    0  501    0  0.00000000000E+00  0.00000000000E+00  0.13494907551E+04  0.13494907551E+04  0.25500000920E-02 0.  1.
       -2   -1    0    0    0  501  0.00000000000E+00  0.00000000000E+00 -0.31734329471E+04  0.31734329471E+04  0.25500000920E-02 0. -1.
    10030    2    1    2    0    0  0.00000000000E+00  0.00000000000E+00 -0.18239421920E+04  0.45229237023E+04  0.41388493203E+04 0.  0.
        1    1    3    3  502    0  0.13864128415E+04 -0.76443602094E+03 -0.23683118835E+04  0.28487548463E+04  0.50400001928E-02 0. -1.
       -1    1    3    3    0  502 -0.13864128415E+04  0.76443602094E+03  0.54436969144E+03  0.16741688559E+04  0.50400001928E-02 0.  1.
</event>
<event>
 5   0  0.2632875E-08  0.3896264E+04  0.7818609E-02  0.8025807E-01
       -1   -1    0    0    0  501  0.00000000000E+00  0.00000000000E+00  0.17105439880E+04  0.17105439880E+04  0.50400001928E-02 0. -1.
        1   -1    0    0  501    0  0.00000000000E+00  0.00000000000E+00 -0.22187201874E+04  0.22187201874E+04  0.50400001928E-02 0.  1.
    10030    2    1    2    0    0  0.00000000000E+00  0.00000000000E+00 -0.50817619940E+03  0.39292641754E+04  0.38962640966E+04 0.  0.
        1    1    3    3  502    0  0.10236091170E+04 -0.16619601950E+03 -0.19172443881E+04  0.21797299798E+04  0.50400001928E-02 0.  1.
       -1    1    3    3    0  502 -0.10236091170E+04  0.16619601950E+03  0.14090681887E+04  0.17495341956E+04  0.50400001928E-02 0. -1.
</event>
<event>
 5   0  0.8342802E-08  0.3901907E+04  0.7818609E-02  0.8024633E-01
        2   -1    0    0  501    0  0.00000000000E+00  0.00000000000E+00  0.26395439993E+04  0.26395439993E+04  0.25500000920E-02 0.  1.
       -2   -1    0    0    0  501  0.00000000000E+00  0.00000000000E+00 -0.14419992657E+04  0.14419992657E+04  0.25500000920E-02 0. -1.
    10030    2    1    2    0    0  0.00000000000E+00  0.00000000000E+00  0.11975447336E+04  0.40815432650E+04  0.39019074867E+04 0.  0.
        4    1    3    3  502    0  0.15238778428E+04  0.11201208429E+04  0.97825558837E+02  0.18937913917E+04  0.12699999809E+01 0. -1.
       -4    1    3    3    0  502 -0.15238778428E+04 -0.11201208429E+04  0.10997191748E+04  0.21877518732E+04  0.12699999809E+01 0.  1.
</event>
<event>
 5   0  0.8676098E-08  0.3901249E+04  0.7818609E-02  0.8024770E-01
        2   -1    0    0  501    0  0.00000000000E+00  0.00000000000E+00  0.25033929815E+04  0.25033929815E+04  0.25500000920E-02 0.  1.
       -2   -1    0    0    0  501  0.00000000000E+00  0.00000000000E+00 -0.15199113476E+04  0.15199113476E+04  0.25500000920E-02 0. -1.
    10030    2    1    2    0    0  0.00000000000E+00  0.00000000000E+00  0.98348163398E+03  0.40233043291E+04  0.39012487232E+04 0.  0.
        3    1    3    3  502    0  0.45992038640E+03  0.93269968289E+03  0.21936694097E+04  0.24276822175E+04  0.10100000352E+00 0.  1.
       -3    1    3    3    0  502 -0.45992038640E+03 -0.93269968289E+03 -0.12101877757E+04  0.15956221116E+04  0.10100000352E+00 0. -1.
</event>
<event>
 5   0  0.2632875E-08  0.3897415E+04  0.7818609E-02  0.8025567E-01
       -1   -1    0    0    0  501  0.00000000000E+00  0.00000000000E+00  0.17461005798E+04  0.17461005798E+04  0.50400001928E-02 0.  1.
        1   -1    0    0  501    0  0.00000000000E+00  0.00000000000E+00 -0.21748238147E+04  0.21748238147E+04  0.50400001928E-02 0. -1.
    10030    2    1    2    0    0  0.00000000000E+00  0.00000000000E+00 -0.42872323495E+03  0.39209243945E+04  0.38974151043E+04 0.  0.
        3    1    3    3  502    0  0.31746757278E+03 -0.99254106484E+02  0.17173309625E+04  0.17492463184E+04  0.10100000352E+00 0.  1.
       -3    1    3    3    0  502 -0.31746757278E+03  0.99254106484E+02 -0.21460541975E+04  0.21716780761E+04  0.10100000352E+00 0. -1.
</event>
<event>
 5   0  0.2632875E-08  0.3891711E+04  0.7818609E-02  0.8026755E-01
       -1   -1    0    0    0  501  0.00000000000E+00  0.00000000000E+00  0.15853082204E+04  0.15853082204E+04  0.50400001928E-02 0.  1.
        1   -1    0    0  501    0  0.00000000000E+00  0.00000000000E+00 -0.23884022310E+04  0.23884022310E+04  0.50400001928E-02 0. -1.
    10030    2    1    2    0    0  0.00000000000E+00  0.00000000000E+00 -0.80309401063E+03  0.39737104514E+04  0.38917110326E+04 0.  0.
        5    1    3    3  502    0 -0.30659898368E+03 -0.84908156893E+03  0.13585451198E+04  0.16311374498E+04  0.46999998093E+01 0.  1.
       -5    1    3    3    0  502  0.30659898368E+03  0.84908156893E+03 -0.21616391304E+04  0.23425730016E+04  0.46999998093E+01 0. -1.
</event>
<event>
 5   0  0.2632875E-08  0.3894724E+04  0.7818609E-02  0.8026127E-01
        1   -1    0    0  501    0  0.00000000000E+00  0.00000000000E+00  0.22881778496E+04  0.22881778497E+04  0.50400001928E-02 0. -1.
       -1   -1    0    0    0  501  0.00000000000E+00  0.00000000000E+00 -0.16573095926E+04  0.16573095926E+04  0.50400001928E-02 0.  1.
    10030    2    1    2    0    0  0.00000000000E+00  0.00000000000E+00  0.63086825701E+03  0.39454874423E+04  0.38947241750E+04 0.  0.
        4    1    3    3  502    0 -0.71653717362E+03  0.15250751090E+04  0.13043429569E+04  0.21308664368E+04  0.12699999809E+01 0. -1.
       -4    1    3    3    0  502  0.71653717362E+03 -0.15250751090E+04 -0.67347469991E+03  0.18146210055E+04  0.12699999809E+01 0.  1.
</event>
<event>
 5   0  0.8438211E-08  0.3980898E+04  0.7818609E-02  0.8008411E-01
       -2   -1    0    0    0  501  0.00000000000E+00  0.00000000000E+00  0.16055444292E+04  0.16055444292E+04  0.25500000920E-02 0.  1.
        2   -1    0    0  501    0  0.00000000000E+00  0.00000000000E+00 -0.24676287831E+04  0.24676287831E+04  0.25500000920E-02 0. -1.
    10030    2    1    2    0    0  0.00000000000E+00  0.00000000000E+00 -0.86208435389E+03  0.40731732123E+04  0.39808982132E+04 0.  0.
        5    1    3    3  502    0  0.35680705364E+03 -0.37534584033E+03 -0.23974828067E+04  0.24527824347E+04  0.46999998093E+01 0. -1.
       -5    1    3    3    0  502 -0.35680705364E+03  0.37534584033E+03  0.15353984528E+04  0.16203907776E+04  0.46999998093E+01 0.  1.
</event>
<event>
 5   0  0.8476262E-08  0.3901981E+04  0.7818609E-02  0.8024617E-01
       -2   -1    0    0    0  501  0.00000000000E+00  0.00000000000E+00  0.14333912467E+04  0.14333912467E+04  0.25500000920E-02 0. -1.
        2   -1    0    0  501    0  0.00000000000E+00  0.00000000000E+00 -0.26554947721E+04  0.26554947721E+04  0.25500000920E-02 0.  1.
    10030    2    1    2    0    0  0.00000000000E+00  0.00000000000E+00 -0.12221035254E+04  0.40888860188E+04  0.39019805033E+04 0.  0.
        2    1    3    3  502    0 -0.81138910628E+03 -0.13559332988E+04 -0.18101790693E+04  0.24028432441E+04  0.25500000920E-02 0.  1.
       -2    1    3    3    0  502  0.81138910628E+03  0.13559332988E+04  0.58807554391E+03  0.16860427747E+04  0.25500000920E-02 0. -1.
</event>
<event>
 5   0  0.8676098E-08  0.3747768E+04  0.7818609E-02  0.8057457E-01
        2   -1    0    0  501    0  0.00000000000E+00  0.00000000000E+00  0.14720928576E+04  0.14720928576E+04  0.25500000920E-02 0. -1.
       -2   -1    0    0    0  501  0.00000000000E+00  0.00000000000E+00 -0.23853397875E+04  0.23853397875E+04  0.25500000920E-02 0.  1.
    10030    2    1    2    0    0  0.00000000000E+00  0.00000000000E+00 -0.91324692988E+03  0.38574326451E+04  0.37477682235E+04 0.  0.
        3    1    3    3  502    0 -0.33405673567E+03  0.18218825882E+04 -0.74881691682E+03  0.19978931034E+04  0.10100000352E+00 0.  1.
       -3    1    3    3    0  502  0.33405673567E+03 -0.18218825882E+04 -0.16443001306E+03  0.18595395417E+04  0.10100000352E+00 0. -1.
</event>
<event>
 5   0  0.8476262E-08  0.3891975E+04  0.7818609E-02  0.8026700E-01
        2   -1    0    0  501    0  0.00000000000E+00  0.00000000000E+00  0.30136822503E+04  0.30136822503E+04  0.25500000920E-02 0.  1.
       -2   -1    0    0    0  501  0.00000000000E+00  0.00000000000E+00 -0.12565581882E+04  0.12565581882E+04  0.25500000920E-02 0. -1.
    10030    2    1    2    0    0  0.00000000000E+00  0.00000000000E+00  0.17571240621E+04  0.42702404385E+04  0.38919748757E+04 0.  0.
        2    1    3    3  502    0 -0.15922477806E+04  0.37026914342E+03 -0.27974911510E+03  0.16584968498E+04  0.25500000920E-02 0. -1.
       -2    1    3    3    0  502  0.15922477806E+04 -0.37026914342E+03  0.20368731772E+04  0.26117435888E+04  0.25500000920E-02 0.  1.
</event>
<event>
 5   0  0.8676098E-08  0.3902433E+04  0.7818609E-02  0.8024523E-01
        2   -1    0    0  501    0  0.00000000000E+00  0.00000000000E+00  0.23331562999E+04  0.23331562999E+04  0.25500000920E-02 0.  1.
       -2   -1    0    0    0  501  0.00000000000E+00  0.00000000000E+00 -0.16318003608E+04  0.16318003608E+04  0.25500000920E-02 0. -1.
    10030    2    1    2    0    0  0.00000000000E+00  0.00000000000E+00  0.70135593906E+03  0.39649566607E+04  0.39024327243E+04 0.  0.
        3    1    3    3  502    0  0.26059257624E+03  0.41430630483E+03  0.22697726313E+04  0.23219444466E+04  0.10100000352E+00 0.  1.
       -3    1    3    3    0  502 -0.26059257624E+03 -0.41430630483E+03 -0.15684166922E+04  0.16430122141E+04  0.10100000352E+00 0. -1.
</event>
<event>
 5   0  0.8438211E-08  0.3905771E+04  0.7818609E-02  0.8023830E-01
        2   -1    0    0  501    0  0.00000000000E+00  0.00000000000E+00  0.19071603225E+04  0.19071603225E+04  0.25500000920E-02 0.  1.
       -2   -1    0    0    0  501  0.00000000000E+00  0.00000000000E+00 -0.19997066011E+04  0.19997066011E+04  0.25500000920E-02 0. -1.
    10030    2    1    2    0    0  0.00000000000E+00  0.00000000000E+00 -0.92546278613E+02  0.39068669236E+04  0.39057706467E+04 0.  0.
        5    1    3    3  502    0  0.42544377322E+03 -0.55880922502E+03 -0.18689999677E+04  0.19966104085E+04  0.46999998093E+01 0. -1.
       -5    1    3    3    0  502 -0.42544377322E+03  0.55880922502E+03  0.17764536891E+04  0.19102565151E+04  0.46999998093E+01 0.  1.
</event>
<event>
 5   0  0.8342802E-08  0.3895253E+04  0.7818609E-02  0.8026017E-01
        2   -1    0    0  501    0  0.00000000000E+00  0.00000000000E+00  0.11945825304E+04  0.11945825304E+04  0.25500000920E-02 0. -1.
       -2   -1    0    0    0  501  0.00000000000E+00  0.00000000000E+00 -0.31753759884E+04  0.31753759884E+04  0.25500000920E-02 0.  1.
    10030    2    1    2    0    0  0.00000000000E+00  0.00000000000E+00 -0.19807934579E+04  0.43699585188E+04  0.38952528458E+04 0.  0.
        4    1    3    3  502    0 -0.16838357896E+04 -0.40869150813E+03 -0.19881121034E+04  0.26372188122E+04  0.12699999809E+01 0.  1.
       -4    1    3    3    0  502  0.16838357896E+04  0.40869150813E+03  0.73186454246E+01  0.17327397065E+04  0.12699999809E+01 0. -1.
</event>
<event>
 5   0  0.8342802E-08  0.3896355E+04  0.7818609E-02  0.8025788E-01
       -2   -1    0    0    0  501  0.00000000000E+00  0.00000000000E+00  0.16985732896E+04  0.16985732896E+04  0.25500000920E-02 0.  1.
        2   -1    0    0  501    0  0.00000000000E+00  0.00000000000E+00 -0.22344613031E+04  0.22344613031E+04  0.25500000920E-02 0. -1.
    10030    2    1    2    0    0  0.00000000000E+00  0.00000000000E+00 -0.53588801346E+03  0.39330345927E+04  0.38963553668E+04 0.  0.
        4    1    3    3  502    0  0.23590527995E+03 -0.11313446403E+03  0.16807589226E+04  0.17010005517E+04  0.12699999809E+01 0.  1.
       -4    1    3    3    0  502 -0.23590527995E+03  0.11313446403E+03 -0.22166469361E+04  0.22320340410E+04  0.12699999809E+01 0. -1.
</event>
<event>
 5   0  0.2632875E-08  0.3910723E+04  0.7818609E-02  0.8022803E-01
        1   -1    0    0  501    0  0.00000000000E+00  0.00000000000E+00  0.26986413280E+04  0.26986413280E+04  0.50400001928E-02 0. -1.
       -1   -1    0    0    0  501  0.00000000000E+00  0.00000000000E+00 -0.14168014287E+04  0.14168014287E+04  0.50400001928E-02 0.  1.
    10030    2    1    2    0    0  0.00000000000E+00  0.00000000000E+00  0.12818398992E+04  0.41154427567E+04  0.39107231501E+04 0.  0.
        1    1    3    3  502    0 -0.12868530414E+04  0.88220186330E+03 -0.59940899938E+03  0.16713952334E+04  0.50400001928E-02 0.  1.
       -1    1    3    3    0  502  0.12868530414E+04 -0.88220186330E+03  0.18812488986E+04  0.24440475233E+04  0.50400001928E-02 0. -1.
</event>
<event>
 5   0  0.8476262E-08  0.3860578E+04  0.7818609E-02  0.8033278E-01
        2   -1    0    0  501    0  0.00000000000E+00  0.00000000000E+00  0.27018609556E+04  0.27018609556E+04  0.25500000920E-02 0. -1.
       -2   -1    0    0    0  501  0.00000000000E+00  0.00000000000E+00 -0.13790555495E+04  0.13790555495E+04  0.25500000920E-02 0.  1.
    10030    2    1    2    0    0  0.00000000000E+00  0.00000000000E+00  0.13228054060E+04  0.40809165051E+04  0.38605783737E+04 0.  0.
        2    1    3    3  502    0  0.15156188307E+04  0.53474169574E+03 -0.46871121623E+03  0.16741383830E+04  0.25500000920E-02 0. -1.
       -2    1    3    3    0  502 -0.15156188307E+04 -0.53474169574E+03  0.17915166222E+04  0.24067781221E+04  0.25500000920E-02 0.  1.
</event>
<event>
 5   0  0.2632875E-08  0.3876874E+04  0.7818609E-02  0.8029856E-01
       -3   -1    0    0    0  501  0.00000000000E+00  0.00000000000E+00  0.24372417098E+04  0.24372417119E+04  0.10100000352E+00 0.  1.
        3   -1    0    0  501    0  0.00000000000E+00  0.00000000000E+00 -0.15417177894E+04  0.15417177928E+04  0.10100000352E+00 0. -1.
    10030    2    1    2    0    0  0.00000000000E+00  0.00000000000E+00  0.89552392039E+03  0.39789595047E+04  0.38768744689E+04 0.  0.
        2    1    3    3  502    0 -0.92054253479E+03 -0.14584387198E+04  0.13559912842E+04  0.21938902481E+04  0.25500000920E-02 0.  1.
       -2    1    3    3    0  502  0.92054253479E+03  0.14584387198E+04 -0.46046736384E+03  0.17850692566E+04  0.25500000920E-02 0. -1.
</event>
<event>
 5   0  0.2632875E-08  0.3899603E+04  0.7818609E-02  0.8025112E-01
       -1   -1    0    0    0  501  0.00000000000E+00  0.00000000000E+00  0.22632632602E+04  0.22632632602E+04  0.50400001928E-02 0.  1.
        1   -1    0    0  501    0  0.00000000000E+00  0.00000000000E+00 -0.16797540230E+04  0.16797540230E+04  0.50400001928E-02 0. -1.
    10030    2    1    2    0    0  0.00000000000E+00  0.00000000000E+00  0.58350923717E+03  0.39430172832E+04  0.38996028343E+04 0.  0.
        1    1    3    3  502    0 -0.35212828515E+03  0.19817359732E+03  0.22204649816E+04  0.22569297371E+04  0.50400001928E-02 0.  1.
       -1    1    3    3    0  502  0.35212828515E+03 -0.19817359732E+03 -0.16369557444E+04  0.16860875461E+04  0.50400001928E-02 0. -1.
</event>
<event>
 5   0  0.2632875E-08  0.3900365E+04  0.7818609E-02  0.8024953E-01
        1   -1    0    0  501    0  0.00000000000E+00  0.00000000000E+00  0.16723969564E+04  0.16723969564E+04  0.50400001928E-02 0. -1.
       -1   -1    0    0    0  501  0.00000000000E+00  0.00000000000E+00 -0.22741085592E+04  0.22741085592E+04  0.50400001928E-02 0.  1.
    10030    2    1    2    0    0  0.00000000000E+00  0.00000000000E+00 -0.60171160279E+03  0.39465055157E+04  0.39003652306E+04 0.  0.
        5    1    3    3  502    0  0.18543281887E+04 -0.43569866201E+03  0.12220978578E+03  0.19087492441E+04  0.46999998093E+01 0. -1.
       -5    1    3    3    0  502 -0.18543281887E+04  0.43569866201E+03 -0.72392138857E+03  0.20377562715E+04  0.46999998093E+01 0.  1.
</event>
<event>
 5   0  0.8551754E-08  0.3897423E+04  0.7818609E-02  0.8025565E-01
        2   -1    0    0  501    0  0.00000000000E+00  0.00000000000E+00  0.20103340659E+04  0.20103340659E+04  0.25500000920E-02 0. -1.
       -2   -1    0    0    0  501  0.00000000000E+00  0.00000000000E+00 -0.18889778122E+04  0.18889778122E+04  0.25500000920E-02 0.  1.
    10030    2    1    2    0    0  0.00000000000E+00  0.00000000000E+00  0.12135625363E+03  0.38993118781E+04  0.38974229668E+04 0.  0.
        1    1    3    3  502    0  0.12262127690E+04 -0.13242578043E+04  0.79603091805E+03  0.19725419411E+04  0.50400001928E-02 0. -1.
       -1    1    3    3    0  502 -0.12262127690E+04  0.13242578043E+04 -0.67467466443E+03  0.19267699369E+04  0.50400001928E-02 0.  1.
</event>
<event>
 5   0  0.8676098E-08  0.3901574E+04  0.7818609E-02  0.8024702E-01
        2   -1    0    0  501    0  0.00000000000E+00  0.00000000000E+00  0.20175005648E+04  0.20175005648E+04  0.25500000920E-02 0.  1.
       -2   -1    0    0    0  501  0.00000000000E+00  0.00000000000E+00 -0.18862796950E+04  0.18862796950E+04  0.25500000920E-02 0. -1.
    10030    2    1    2    0    0  0.00000000000E+00  0.00000000000E+00  0.13122086983E+03  0.39037802598E+04  0.39015742208E+04 0.  0.
        3    1    3    3  502    0  0.12200831629E+04  0.56624126911E+03  0.14793276729E+04  0.19994105315E+04  0.10100000352E+00 0.  1.
       -3    1    3    3    0  502 -0.12200831629E+04 -0.56624126911E+03 -0.13481068031E+04  0.19043697283E+04  0.10100000352E+00 0. -1.
</event>
<event>
 5   0  0.8438211E-08  0.3911160E+04  0.7818609E-02  0.8022712E-01
       -2   -1    0    0    0  501  0.00000000000E+00  0.00000000000E+00  0.15851296316E+04  0.15851296316E+04  0.25500000920E-02 0. -1.
        2   -1    0    0  501    0  0.00000000000E+00  0.00000000000E+00 -0.24126056813E+04  0.24126056813E+04  0.25500000920E-02 0.  1.
    10030    2    1    2    0    0  0.00000000000E+00  0.00000000000E+00 -0.82747604974E+03  0.39977353129E+04  0.39111598048E+04 0.  0.
        5    1    3    3  502    0  0.38984376537E+03  0.61116680468E+03 -0.22701926475E+04  0.23831281483E+04  0.46999998093E+01 0.  1.
       -5    1    3    3    0  502 -0.38984376537E+03 -0.61116680468E+03  0.14427165977E+04  0.16146071646E+04  0.46999998093E+01 0. -1.
</event>
<event>
 5   0  0.2632875E-08  0.3883173E+04  0.7818609E-02  0.8028538E-01
       -3   -1    0    0    0  501  0.00000000000E+00  0.00000000000E+00  0.22255389018E+04  0.22255389041E+04  0.10100000352E+00 0. -1.
        3   -1    0    0  501    0  0.00000000000E+00  0.00000000000E+00 -0.16938634633E+04  0.16938634663E+04  0.10100000352E+00 0.  1.
    10030    2    1    2    0    0  0.00000000000E+00  0.00000000000E+00  0.53167543852E+03  0.39194023705E+04  0.38831734664E+04 0.  0.
        2    1    3    3  502    0 -0.11258012278E+03  0.31734323935E+03  0.21958434771E+04  0.22215106553E+04  0.25500000920E-02 0. -1.
       -2    1    3    3    0  502  0.11258012278E+03 -0.31734323935E+03 -0.16641680386E+04  0.16978917152E+04  0.25500000920E-02 0.  1.
</event>
<event>
 5   0  0.8676098E-08  0.3891955E+04  0.7818609E-02  0.8026705E-01
       -2   -1    0    0    0  501  0.00000000000E+00  0.00000000000E+00  0.20359500175E+04  0.20359500175E+04  0.25500000920E-02 0. -1.
        2   -1    0    0  501    0  0.00000000000E+00  0.00000000000E+00 -0.18599808353E+04  0.18599808353E+04  0.25500000920E-02 0.  1.
    10030    2    1    2    0    0  0.00000000000E+00  0.00000000000E+00  0.17596918223E+03  0.38959308528E+04  0.38919547860E+04 0.  0.
        3    1    3    3  502    0  0.16627718578E+04  0.28129569807E+03 -0.88403290003E+03  0.19040618949E+04  0.10100000352E+00 0.  1.
       -3    1    3    3    0  502 -0.16627718578E+04 -0.28129569807E+03  0.10600020823E+04  0.19918689579E+04  0.10100000352E+00 0. -1.
</event>
<event>
 5   0  0.8342802E-08  0.3928019E+04  0.7818609E-02  0.8019227E-01
       -2   -1    0    0    0  501  0.00000000000E+00  0.00000000000E+00  0.13362180235E+04  0.13362180235E+04  0.25500000920E-02 0.  1.
        2   -1    0    0  501    0  0.00000000000E+00  0.00000000000E+00 -0.28867545502E+04  0.28867545502E+04  0.25500000920E-02 0. -1.
    10030    2    1    2    0    0  0.00000000000E+00  0.00000000000E+00 -0.15505365267E+04  0.42229725737E+04  0.39280190730E+04 0.  0.
        4    1    3    3  502    0 -0.32395327017E+03 -0.62321020807E+03 -0.27471113596E+04  0.28354821671E+04  0.12699999809E+01 0. -1.
       -4    1    3    3    0  502  0.32395327017E+03  0.62321020807E+03  0.11965748329E+04  0.13874904066E+04  0.12699999809E+01 0.  1.
</event>
<event>
 5   0  0.8438211E-08  0.3882515E+04  0.7818609E-02  0.8028676E-01
        2   -1    0    0  501    0  0.00000000000E+00  0.00000000000E+00  0.20395586699E+04  0.20395586699E+04  0.25500000920E-02 0.  1.
       -2   -1    0    0    0  501  0.00000000000E+00  0.00000000000E+00 -0.18476940650E+04  0.18476940650E+04  0.25500000920E-02 0. -1.
    10030    2    1    2    0    0  0.00000000000E+00  0.00000000000E+00  0.19186460488E+03  0.38872527349E+04  0.38825148806E+04 0.  0.
        5    1    3    3  502    0  0.90288818572E+03  0.33728578794E+03  0.17830671218E+04  0.20268989194E+04  0.46999998093E+01 0.  1.
       -5    1    3    3    0  502 -0.90288818572E+03 -0.33728578794E+03 -0.15912025169E+04  0.18603538154E+04  0.46999998093E+01 0. -1.
</event>
<event>
 5   0  0.2632875E-08  0.3860422E+04  0.7818609E-02  0.8033311E-01
       -1   -1    0    0    0  501  0.00000000000E+00  0.00000000000E+00  0.26424254639E+04  0.26424254639E+04  0.50400001928E-02 0. -1.
        1   -1    0    0  501    0  0.00000000000E+00  0.00000000000E+00 -0.14099599133E+04  0.14099599134E+04  0.50400001928E-02 0.  1.
    10030    2    1    2    0    0  0.00000000000E+00  0.00000000000E+00  0.12324655506E+04  0.40523853773E+04  0.38604217273E+04 0.  0.
        5    1    3    3  502    0 -0.73695140657E+03 -0.14017661605E+04 -0.54210851417E+03  0.16739024689E+04  0.46999998093E+01 0.  1.
       -5    1    3    3    0  502  0.73695140657E+03  0.14017661605E+04  0.17745740648E+04  0.23784829084E+04  0.46999998093E+01 0. -1.
</event>
<event>
 5   0  0.8676098E-08  0.3893427E+04  0.7818609E-02  0.8026398E-01
        2   -1    0    0  501    0  0.00000000000E+00  0.00000000000E+00  0.16543810273E+04  0.16543810273E+04  0.25500000920E-02 0.  1.
       -2   -1    0    0    0  501  0.00000000000E+00  0.00000000000E+00 -0.22907021726E+04  0.22907021727E+04  0.25500000920E-02 0. -1.
    10030    2    1    2    0    0  0.00000000000E+00  0.00000000000E+00 -0.63632114533E+03  0.39450832000E+04  0.38934273917E+04 0.  0.
        3    1    3    3  502    0 -0.66681598294E+03  0.14948855320E+04 -0.13858809585E+04  0.21447592756E+04  0.10100000352E+00 0. -1.
       -3    1    3    3    0  502  0.66681598294E+03 -0.14948855320E+04  0.74955981315E+03  0.18003239244E+04  0.10100000352E+00 0.  1.
</event>
<event>
 5   0  0.8551754E-08  0.3907770E+04  0.7818609E-02  0.8023415E-01
       -2   -1    0    0    0  501  0.00000000000E+00  0.00000000000E+00  0.30147672848E+04  0.30147672848E+04  0.25500000920E-02 0. -1.
        2   -1    0    0  501    0  0.00000000000E+00  0.00000000000E+00 -0.12663219652E+04  0.12663219653E+04  0.25500000920E-02 0.  1.
    10030    2    1    2    0    0  0.00000000000E+00  0.00000000000E+00  0.17484453195E+04  0.42810892500E+04  0.39077697132E+04 0.  0.
        1    1    3    3  502    0  0.10627642570E+04 -0.16112224543E+04  0.54164166872E+03  0.20047147828E+04  0.50400001928E-02 0.  1.
       -1    1    3    3    0  502 -0.10627642570E+04  0.16112224543E+04  0.12068036508E+04  0.22763744672E+04  0.50400001928E-02 0. -1.
</event>
<event>
 5   0  0.8342802E-08  0.3892301E+04  0.7818609E-02  0.8026632E-01
        2   -1    0    0  501    0  0.00000000000E+00  0.00000000000E+00  0.14772403522E+04  0.14772403522E+04  0.25500000920E-02 0. -1.
       -2   -1    0    0    0  501  0.00000000000E+00  0.00000000000E+00 -0.25639037331E+04  0.25639037331E+04  0.25500000920E-02 0.  1.
    10030    2    1    2    0    0  0.00000000000E+00  0.00000000000E+00 -0.10866633809E+04  0.40411440852E+04  0.38923011464E+04 0.  0.
        4    1    3    3  502    0 -0.44880577199E+03 -0.18509412138E+04 -0.12791819225E+03  0.19088673800E+04  0.12699999809E+01 0.  1.
       -4    1    3    3    0  502  0.44880577199E+03  0.18509412138E+04 -0.95874518864E+03  0.21322767052E+04  0.12699999809E+01 0. -1.
</event>
<event>
 5   0  0.8551754E-08  0.3893231E+04  0.7818609E-02  0.8026438E-01
       -2   -1    0    0    0  501  0.00000000000E+00  0.00000000000E+00  0.16779385840E+04  0.16779385840E+04  0.25500000920E-02 0. -1.
        2   -1    0    0  501    0  0.00000000000E+00  0.00000000000E+00 -0.22583141184E+04  0.22583141184E+04  0.25500000920E-02 0.  1.
    10030    2    1    2    0    0  0.00000000000E+00  0.00000000000E+00 -0.58037553438E+03  0.39362527024E+04  0.38932312513E+04 0.  0.
        1    1    3    3  502    0 -0.13625814270E+04  0.10610845858E+04  0.61794917383E+03  0.18342273101E+04  0.50400001928E-02 0. -1.
       -1    1    3    3    0  502  0.13625814270E+04 -0.10610845858E+04 -0.11983247082E+04  0.21020253923E+04  0.50400001928E-02 0.  1.
</event>
<event>
 5   0  0.8676098E-08  0.3878869E+04  0.7818609E-02  0.8029438E-01
        2   -1    0    0  501    0  0.00000000000E+00  0.00000000000E+00  0.14364782041E+04  0.14364782041E+04  0.25500000920E-02 0. -1.
       -2   -1    0    0    0  501  0.00000000000E+00  0.00000000000E+00 -0.26184922664E+04  0.26184922664E+04  0.25500000920E-02 0.  1.
    10030    2    1    2    0    0  0.00000000000E+00  0.00000000000E+00 -0.11820140623E+04  0.40549704705E+04  0.38788694581E+04 0.  0.
        3    1    3    3  502    0  0.14257386902E+04 -0.17724513474E+03  0.77092919641E+03  0.16304841264E+04  0.10100000352E+00 0. -1.
       -3    1    3    3    0  502 -0.14257386902E+04  0.17724513474E+03 -0.19529432587E+04  0.24244863441E+04  0.10100000352E+00 0.  1.
</event>
<event>
 5   0  0.8476262E-08  0.3897374E+04  0.7818609E-02  0.8025576E-01
       -2   -1    0    0    0  501  0.00000000000E+00  0.00000000000E+00  0.20842763543E+04  0.20842763544E+04  0.25500000920E-02 0. -1.
        2   -1    0    0  501    0  0.00000000000E+00  0.00000000000E+00 -0.18219179419E+04  0.18219179419E+04  0.25500000920E-02 0.  1.
    10030    2    1    2    0    0  0.00000000000E+00  0.00000000000E+00  0.26235841246E+03  0.39061942962E+04  0.38973737239E+04 0.  0.
        2    1    3    3  502    0  0.19336115011E+04  0.20524643792E+03  0.28231781532E+01  0.19444761525E+04  0.25500000920E-02 0.  1.
       -2    1    3    3    0  502 -0.19336115011E+04 -0.20524643792E+03  0.25953523431E+03  0.19617181437E+04  0.25500000920E-02 0. -1.
</event>
<event>
 5   0  0.8551754E-08  0.3891094E+04  0.7818609E-02  0.8026884E-01
       -2   -1    0    0    0  501  0.00000000000E+00  0.00000000000E+00  0.15425159696E+04  0.15425159696E+04  0.25500000920E-02 0. -1.
        2   -1    0    0  501    0  0.00000000000E+00  0.00000000000E+00 -0.24538822039E+04  0.24538822039E+04  0.25500000920E-02 0.  1.
    10030    2    1    2    0    0  0.00000000000E+00  0.00000000000E+00 -0.91136623436E+03  0.39963981735E+04  0.38910936699E+04 0.  0.
        1    1    3    3  502    0  0.16782519983E+04 -0.23417014683E+03  0.52610906121E+03  0.17743044192E+04  0.50400001928E-02 0. -1.
       -1    1    3    3    0  502 -0.16782519983E+04  0.23417014683E+03 -0.14374752956E+04  0.22220937543E+04  0.50400001928E-02 0.  1.
</event>
<event>
 5   0  0.8476262E-08  0.3899553E+04  0.7818609E-02  0.8025122E-01
        2   -1    0    0  501    0  0.00000000000E+00  0.00000000000E+00  0.16860373794E+04  0.16860373794E+04  0.25500000920E-02 0.  1.
       -2   -1    0    0    0  501  0.00000000000E+00  0.00000000000E+00 -0.22547716667E+04  0.22547716667E+04  0.25500000920E-02 0. -1.
    10030    2    1    2    0    0  0.00000000000E+00  0.00000000000E+00 -0.56873428725E+03  0.39408090461E+04  0.38995534678E+04 0.  0.
        2    1    3    3  502    0 -0.88453267384E+02  0.18390207630E+04 -0.93287894401E+03  0.20639972073E+04  0.25500000920E-02 0. -1.
       -2    1    3    3    0  502  0.88453267384E+02 -0.18390207630E+04  0.36414465675E+03  0.18768118389E+04  0.25500000920E-02 0.  1.
</event>
<event>
 5   0  0.2632875E-08  0.3923079E+04  0.7818609E-02  0.8020246E-01
       -1   -1    0    0    0  501  0.00000000000E+00  0.00000000000E+00  0.15021363558E+04  0.15021363558E+04  0.50400001928E-02 0. -1.
        1   -1    0    0  501    0  0.00000000000E+00  0.00000000000E+00 -0.25614435493E+04  0.25614435493E+04  0.50400001928E-02 0.  1.
    10030    2    1    2    0    0  0.00000000000E+00  0.00000000000E+00 -0.10593071935E+04  0.40635799051E+04  0.39230791369E+04 0.  0.
        1    1    3    3  502    0  0.89189393209E+02 -0.15025949903E+04  0.77312320407E+03  0.16921778694E+04  0.50400001928E-02 0. -1.
       -1    1    3    3    0  502 -0.89189393209E+02  0.15025949903E+04 -0.18324303976E+04  0.23714020357E+04  0.50400001928E-02 0.  1.
</event>
<event>
 5   0  0.2632875E-08  0.3883372E+04  0.7818609E-02  0.8028496E-01
       -1   -1    0    0    0  501  0.00000000000E+00  0.00000000000E+00  0.13419846370E+04  0.13419846370E+04  0.50400001928E-02 0. -1.
        1   -1    0    0  501    0  0.00000000000E+00  0.00000000000E+00 -0.28093804046E+04  0.28093804046E+04  0.50400001928E-02 0.  1.
    10030    2    1    2    0    0  0.00000000000E+00  0.00000000000E+00 -0.14673957676E+04  0.41513650417E+04  0.38833724223E+04 0.  0.
        2    1    3    3  502    0  0.14806324370E+03 -0.18442410886E+04 -0.13634142895E+04  0.22982703153E+04  0.25500000920E-02 0.  1.
       -2    1    3    3    0  502 -0.14806324370E+03  0.18442410886E+04 -0.10398147809E+03  0.18530947264E+04  0.25500000920E-02 0. -1.
</event>
<event>
 5   0  0.2632875E-08  0.3900149E+04  0.7818609E-02  0.8024998E-01
       -1   -1    0    0    0  501  0.00000000000E+00  0.00000000000E+00  0.19174251104E+04  0.19174251104E+04  0.50400001928E-02 0. -1.
        1   -1    0    0  501    0  0.00000000000E+00  0.00000000000E+00 -0.19832796672E+04  0.19832796672E+04  0.50400001928E-02 0.  1.
    10030    2    1    2    0    0  0.00000000000E+00  0.00000000000E+00 -0.65854556837E+02  0.39007047776E+04  0.39001488355E+04 0.  0.
        4    1    3    3  502    0  0.13857871379E+04 -0.78673398851E+03  0.10912579715E+04  0.19313730695E+04  0.12699999809E+01 0. -1.
       -4    1    3    3    0  502 -0.13857871379E+04  0.78673398851E+03 -0.11571125284E+04  0.19693317081E+04  0.12699999809E+01 0.  1.
</event>
<event>
 5   0  0.8676098E-08  0.3906284E+04  0.7818609E-02  0.8023724E-01
       -2   -1    0    0    0  501  0.00000000000E+00  0.00000000000E+00  0.16790479676E+04  0.16790479676E+04  0.25500000920E-02 0. -1.
        2   -1    0    0  501    0  0.00000000000E+00  0.00000000000E+00 -0.22719801842E+04  0.22719801842E+04  0.25500000920E-02 0.  1.
    10030    2    1    2    0    0  0.00000000000E+00  0.00000000000E+00 -0.59293221662E+03  0.39510281518E+04  0.39062840198E+04 0.  0.
        3    1    3    3  502    0  0.57144834633E+03 -0.16098952990E+04  0.66118819604E+03  0.18317985498E+04  0.10100000352E+00 0. -1.
       -3    1    3    3    0  502 -0.57144834633E+03  0.16098952990E+04 -0.12541204127E+04  0.21192296020E+04  0.10100000352E+00 0.  1.
</event>
<event>
 5   0  0.8676098E-08  0.3885281E+04  0.7818609E-02  0.8028098E-01
       -2   -1    0    0    0  501  0.00000000000E+00  0.00000000000E+00  0.23459925509E+04  0.23459925509E+04  0.25500000920E-02 0.  1.
        2   -1    0    0  501    0  0.00000000000E+00  0.00000000000E+00 -0.16086374726E+04  0.16086374726E+04  0.25500000920E-02 0. -1.
    10030    2    1    2    0    0  0.00000000000E+00  0.00000000000E+00  0.73735507829E+03  0.39546300235E+04  0.38852806992E+04 0.  0.
        3    1    3    3  502    0  0.44578952849E+03  0.12271437997E+04 -0.10954841141E+04  0.17043167732E+04  0.10100000352E+00 0. -1.
       -3    1    3    3    0  502 -0.44578952849E+03 -0.12271437997E+04  0.18328391924E+04  0.22503132503E+04  0.10100000352E+00 0.  1.
</event>
<event>
 5   0  0.2632875E-08  0.3884164E+04  0.7818609E-02  0.8028331E-01
       -1   -1    0    0    0  501  0.00000000000E+00  0.00000000000E+00  0.13091077860E+04  0.13091077861E+04  0.50400001928E-02 0.  1.
        1   -1    0    0  501    0  0.00000000000E+00  0.00000000000E+00 -0.28811096495E+04  0.28811096495E+04  0.50400001928E-02 0. -1.
    10030    2    1    2    0    0  0.00000000000E+00  0.00000000000E+00 -0.15720018634E+04  0.41902174355E+04  0.38841642986E+04 0.  0.
        3    1    3    3  502    0  0.78622925477E+03 -0.11873571388E+04 -0.22105455383E+04  0.26295408351E+04  0.10100000352E+00 0. -1.
       -3    1    3    3    0  502 -0.78622925477E+03  0.11873571388E+04  0.63854367489E+03  0.15606766004E+04  0.10100000352E+00 0.  1.
</event>
<event>
 5   0  0.2632875E-08  0.3902666E+04  0.7818609E-02  0.8024475E-01
        1   -1    0    0  501    0  0.00000000000E+00  0.00000000000E+00  0.20213853183E+04  0.20213853183E+04  0.50400001928E-02 0. -1.
       -1   -1    0    0    0  501  0.00000000000E+00  0.00000000000E+00 -0.18837086975E+04  0.18837086975E+04  0.50400001928E-02 0.  1.
    10030    2    1    2    0    0  0.00000000000E+00  0.00000000000E+00  0.13767662074E+03  0.39050940158E+04  0.39026663220E+04 0.  0.
        4    1    3    3  502    0  0.65398814774E+03 -0.12724539444E+04 -0.12589611315E+04  0.19057345779E+04  0.12699999809E+01 0.  1.
       -4    1    3    3    0  502 -0.65398814774E+03  0.12724539444E+04  0.13966377522E+04  0.19993594379E+04  0.12699999809E+01 0. -1.
</event>
<event>
 5   0  0.2632875E-08  0.3894365E+04  0.7818609E-02  0.8026202E-01
        3   -1    0    0  501    0  0.00000000000E+00  0.00000000000E+00  0.16917570936E+04  0.16917570966E+04  0.10100000352E+00 0.  1.
       -3   -1    0    0    0  501  0.00000000000E+00  0.00000000000E+00 -0.22411728114E+04  0.22411728137E+04  0.10100000352E+00 0. -1.
    10030    2    1    2    0    0  0.00000000000E+00  0.00000000000E+00 -0.54941571783E+03  0.39329299102E+04  0.38943651662E+04 0.  0.
        3    1    3    3  502    0 -0.48351864436E+03  0.12784776908E+03  0.16257843185E+04  0.17009732485E+04  0.10100000352E+00 0.  1.
       -3    1    3    3    0  502  0.48351864436E+03 -0.12784776908E+03 -0.21752000364E+04  0.22319566617E+04  0.10100000352E+00 0. -1.
</event>
<event>
 5   0  0.8342802E-08  0.3912899E+04  0.7818609E-02  0.8022352E-01
       -2   -1    0    0    0  501  0.00000000000E+00  0.00000000000E+00  0.27649180219E+04  0.27649180219E+04  0.25500000920E-02 0.  1.
        2   -1    0    0  501    0  0.00000000000E+00  0.00000000000E+00 -0.13843788739E+04  0.13843788739E+04  0.25500000920E-02 0. -1.
    10030    2    1    2    0    0  0.00000000000E+00  0.00000000000E+00  0.13805391480E+04  0.41492968958E+04  0.39128987196E+04 0.  0.
        4    1    3    3  502    0 -0.82965715573E+02 -0.58076514908E+03 -0.12889096424E+04  0.14161430534E+04  0.12699999809E+01 0. -1.
       -4    1    3    3    0  502  0.82965715573E+02  0.58076514908E+03  0.26694487905E+04  0.27331538424E+04  0.12699999809E+01 0.  1.
</event>
<event>
 5   0  0.8342802E-08  0.3892530E+04  0.7818609E-02  0.8026585E-01
       -2   -1    0    0    0  501  0.00000000000E+00  0.00000000000E+00  0.18071108428E+04  0.18071108428E+04  0.25500000920E-02 0.  1.
        2   -1    0    0  501    0  0.00000000000E+00  0.00000000000E+00 -0.20961347535E+04  0.20961347535E+04  0.25500000920E-02 0. -1.
    10030    2    1    2    0    0  0.00000000000E+00  0.00000000000E+00 -0.28902391077E+03  0.39032455963E+04  0.38925302008E+04 0.  0.
        4    1    3    3  502    0  0.49813948578E+03  0.16904618277E+04  0.68368057906E+03  0.18902975653E+04  0.12699999809E+01 0.  1.
       -4    1    3    3    0  502 -0.49813948578E+03 -0.16904618277E+04 -0.97270448983E+03  0.20129480310E+04  0.12699999809E+01 0. -1.
</event>
<event>
 5   0  0.8676098E-08  0.3903569E+04  0.7818609E-02  0.8024287E-01
       -2   -1    0    0    0  501  0.00000000000E+00  0.00000000000E+00  0.27946331242E+04  0.27946331242E+04  0.25500000920E-02 0.  1.
        2   -1    0    0  501    0  0.00000000000E+00  0.00000000000E+00 -0.13631350556E+04  0.13631350556E+04  0.25500000920E-02 0. -1.
    10030    2    1    2    0    0  0.00000000000E+00  0.00000000000E+00  0.14314980686E+04  0.41577681798E+04  0.39035688179E+04 0.  0.
        3    1    3    3  502    0  0.14924258115E+04  0.93510596315E+03  0.16117828090E+04  0.23873838817E+04  0.10100000352E+00 0.  1.
       -3    1    3    3    0  502 -0.14924258115E+04 -0.93510596315E+03 -0.18028474036E+03  0.17703842981E+04  0.10100000352E+00 0. -1.
</event>
<event>
 5   0  0.2632875E-08  0.3907646E+04  0.7818609E-02  0.8023441E-01
       -1   -1    0    0    0  501  0.00000000000E+00  0.00000000000E+00  0.16721879873E+04  0.16721879873E+04  0.50400001928E-02 0.  1.
        1   -1    0    0  501    0  0.00000000000E+00  0.00000000000E+00 -0.22828920559E+04  0.22828920559E+04  0.50400001928E-02 0. -1.
    10030    2    1    2    0    0  0.00000000000E+00  0.00000000000E+00 -0.61070406866E+03  0.39550800432E+04  0.39076461827E+04 0.  0.
        1    1    3    3  502    0  0.14599234269E+04  0.11464268502E+04  0.31176525628E+03  0.18822509159E+04  0.50400001928E-02 0.  1.
       -1    1    3    3    0  502 -0.14599234269E+04 -0.11464268502E+04 -0.92246932494E+03  0.20728291273E+04  0.50400001928E-02 0. -1.
</event>
<event>
 5   0  0.8342802E-08  0.3893385E+04  0.7818609E-02  0.8026406E-01
       -2   -1    0    0    0  501  0.00000000000E+00  0.00000000000E+00  0.20716193871E+04  0.20716193871E+04  0.25500000920E-02 0.  1.
        2   -1    0    0  501    0  0.00000000000E+00  0.00000000000E+00 -0.18292990411E+04  0.18292990411E+04  0.25500000920E-02 0. -1.
    10030    2    1    2    0    0  0.00000000000E+00  0.00000000000E+00  0.24232034597E+03  0.39009184282E+04  0.38933848299E+04 0.  0.
        4    1    3    3  502    0  0.12320307430E+03  0.19018326612E+04 -0.27642408353E+03  0.19257617598E+04  0.12699999809E+01 0. -1.
       -4    1    3    3    0  502 -0.12320307430E+03 -0.19018326612E+04  0.51874442949E+03  0.19751566684E+04  0.12699999809E+01 0.  1.
</event>
<event>
 5   0  0.2632875E-08  0.3899504E+04  0.7818609E-02  0.8025132E-01
        1   -1    0    0  501    0  0.00000000000E+00  0.00000000000E+00  0.14728344326E+04  0.14728344326E+04  0.50400001928E-02 0. -1.
       -1   -1    0    0    0  501  0.00000000000E+00  0.00000000000E+00 -0.25810999999E+04  0.25810999999E+04  0.50400001928E-02 0.  1.
    10030    2    1    2    0    0  0.00000000000E+00  0.00000000000E+00 -0.11082655673E+04  0.40539344325E+04  0.38995040474E+04 0.  0.
        4    1    3    3  502    0 -0.18919654103E+04  0.39301556710E+03 -0.28396211375E+03  0.19531078938E+04  0.12699999809E+01 0. -1.
       -4    1    3    3    0  502  0.18919654103E+04 -0.39301556710E+03 -0.82430345352E+03  0.21008265388E+04  0.12699999809E+01 0.  1.
</event>
<event>
 5   0  0.8551754E-08  0.3910795E+04  0.7818609E-02  0.8022788E-01
       -2   -1    0    0    0  501  0.00000000000E+00  0.00000000000E+00  0.14686483583E+04  0.14686483583E+04  0.25500000920E-02 0.  1.
        2   -1    0    0  501    0  0.00000000000E+00  0.00000000000E+00 -0.26034679337E+04  0.26034679337E+04  0.25500000920E-02 0. -1.
    10030    2    1    2    0    0  0.00000000000E+00  0.00000000000E+00 -0.11348195753E+04  0.40721162920E+04  0.39107947564E+04 0.  0.
        1    1    3    3  502    0  0.31311511904E+03  0.19234847120E+04 -0.73447901512E+03  0.20826170888E+04  0.50400001928E-02 0. -1.
       -1    1    3    3    0  502 -0.31311511904E+03 -0.19234847120E+04 -0.40034056020E+03  0.19894992031E+04  0.50400001928E-02 0.  1.
</event>
<event>
 5   0  0.8438211E-08  0.3905176E+04  0.7818609E-02  0.8023954E-01
        2   -1    0    0  501    0  0.00000000000E+00  0.00000000000E+00  0.25761180538E+04  0.25761180538E+04  0.25500000920E-02 0.  1.
       -2   -1    0    0    0  501  0.00000000000E+00  0.00000000000E+00 -0.14799787107E+04  0.14799787107E+04  0.25500000920E-02 0. -1.
    10030    2    1    2    0    0  0.00000000000E+00  0.00000000000E+00  0.10961393430E+04  0.40560967645E+04  0.39051759888E+04 0.  0.
        5    1    3    3  502    0  0.23563612402E+03 -0.16971038136E+04  0.15206842232E+04  0.22908924754E+04  0.46999998093E+01 0.  1.
       -5    1    3    3    0  502 -0.23563612402E+03  0.16971038136E+04 -0.42454488015E+03  0.17652042891E+04  0.46999998093E+01 0. -1.
</event>
<event>
 5   0  0.2632875E-08  0.3909809E+04  0.7818609E-02  0.8022992E-01
        1   -1    0    0  501    0  0.00000000000E+00  0.00000000000E+00  0.27884085228E+04  0.27884085228E+04  0.50400001928E-02 0. -1.
       -1   -1    0    0    0  501  0.00000000000E+00  0.00000000000E+00 -0.13705494987E+04  0.13705494988E+04  0.50400001928E-02 0.  1.
    10030    2    1    2    0    0  0.00000000000E+00  0.00000000000E+00  0.14178590241E+04  0.41589580216E+04  0.39098091530E+04 0.  0.
        1    1    3    3  502    0  0.95342663263E+03 -0.20587459187E+03 -0.10932102893E+04  0.14650991188E+04  0.50400001928E-02 0.  1.
       -1    1    3    3    0  502 -0.95342663263E+03  0.20587459187E+03  0.25110693134E+04  0.26938589028E+04  0.50400001928E-02 0. -1.
</event>
<event>
 5   0  0.2632875E-08  0.3884453E+04  0.7818609E-02  0.8028270E-01
       -1   -1    0    0    0  501  0.00000000000E+00  0.00000000000E+00  0.27892350768E+04  0.27892350769E+04  0.50400001928E-02 0.  1.
        1   -1    0    0  501    0  0.00000000000E+00  0.00000000000E+00 -0.13524294982E+04  0.13524294982E+04  0.50400001928E-02 0. -1.
    10030    2    1    2    0    0  0.00000000000E+00  0.00000000000E+00  0.14368055787E+04  0.41416645750E+04  0.38844530093E+04 0.  0.
        1    1    3    3  502    0  0.41959332387E+03 -0.88319513346E+03 -0.10708556153E+04  0.14501117026E+04  0.50400001928E-02 0. -1.
       -1    1    3    3    0  502 -0.41959332387E+03  0.88319513346E+03  0.25076611940E+04  0.26915528724E+04  0.50400001928E-02 0.  1.
</event>
<event>
 5   0  0.2632875E-08  0.3877067E+04  0.7818609E-02  0.8029816E-01
       -1   -1    0    0    0  501  0.00000000000E+00  0.00000000000E+00  0.10864386030E+04  0.10864386030E+04  0.50400001928E-02 0.  1.
        1   -1    0    0  501    0  0.00000000000E+00  0.00000000000E+00 -0.34589273485E+04  0.34589273485E+04  0.50400001928E-02 0. -1.
    10030    2    1    2    0    0  0.00000000000E+00  0.00000000000E+00 -0.23724887455E+04  0.45453659515E+04  0.38770670339E+04 0.  0.
        4    1    3    3  502    0  0.11694376264E+04  0.12477763428E+04 -0.11598955692E+03  0.17140552365E+04  0.12699999809E+01 0.  1.
       -4    1    3    3    0  502 -0.11694376264E+04 -0.12477763428E+04 -0.22564991886E+04  0.28313107150E+04  0.12699999809E+01 0. -1.
</event>
<event>
 5   0  0.8342802E-08  0.3890499E+04  0.7818609E-02  0.8027008E-01
       -2   -1    0    0    0  501  0.00000000000E+00  0.00000000000E+00  0.14367179657E+04  0.14367179657E+04  0.25500000920E-02 0.  1.
        2   -1    0    0  501    0  0.00000000000E+00  0.00000000000E+00 -0.26337772858E+04  0.26337772858E+04  0.25500000920E-02 0. -1.
    10030    2    1    2    0    0  0.00000000000E+00  0.00000000000E+00 -0.11970593201E+04  0.40704952516E+04  0.38904987569E+04 0.  0.
        4    1    3    3  502    0 -0.12904545982E+04 -0.19626921068E+03 -0.21075475844E+04  0.24790226111E+04  0.12699999809E+01 0. -1.
       -4    1    3    3    0  502  0.12904545982E+04  0.19626921068E+03  0.91048826426E+03  0.15914726405E+04  0.12699999809E+01 0.  1.
</event>
<event>
 5   0  0.2632875E-08  0.3902894E+04  0.7818609E-02  0.8024428E-01
       -1   -1    0    0    0  501  0.00000000000E+00  0.00000000000E+00  0.18668355489E+04  0.18668355489E+04  0.50400001928E-02 0. -1.
        1   -1    0    0  501    0  0.00000000000E+00  0.00000000000E+00 -0.20398935309E+04  0.20398935309E+04  0.50400001928E-02 0.  1.
    10030    2    1    2    0    0  0.00000000000E+00  0.00000000000E+00 -0.17305798202E+03  0.39067290799E+04  0.39028941874E+04 0.  0.
        1    1    3    3  502    0 -0.19074116406E+04 -0.15892534208E+03 -0.46725693278E+03  0.19702298019E+04  0.50400001928E-02 0.  1.
       -1    1    3    3    0  502  0.19074116406E+04  0.15892534208E+03  0.29419895076E+03  0.19364992780E+04  0.50400001928E-02 0. -1.
</event>
<event>
 5   0  0.8551754E-08  0.3882670E+04  0.7818609E-02  0.8028643E-01
       -2   -1    0    0    0  501  0.00000000000E+00  0.00000000000E+00  0.22862040489E+04  0.22862040489E+04  0.25500000920E-02 0. -1.
        2   -1    0    0  501    0  0.00000000000E+00  0.00000000000E+00 -0.16484884925E+04  0.16484884925E+04  0.25500000920E-02 0.  1.
    10030    2    1    2    0    0  0.00000000000E+00  0.00000000000E+00  0.63771555639E+03  0.39346925415E+04  0.38826697342E+04 0.  0.
        1    1    3    3  502    0  0.12581805736E+04 -0.11442130014E+04  0.12676389385E+04  0.21211200406E+04  0.50400001928E-02 0. -1.
       -1    1    3    3    0  502 -0.12581805736E+04  0.11442130014E+04 -0.62992338207E+03  0.18135725008E+04  0.50400001928E-02 0.  1.
</event>
<event>
 5   0  0.8676098E-08  0.3924658E+04  0.7818609E-02  0.8019920E-01
       -2   -1    0    0    0  501  0.00000000000E+00  0.00000000000E+00  0.13494258078E+04  0.13494258078E+04  0.25500000920E-02 0. -1.
        2   -1    0    0  501    0  0.00000000000E+00  0.00000000000E+00 -0.28536094319E+04  0.28536094319E+04  0.25500000920E-02 0.  1.
    10030    2    1    2    0    0  0.00000000000E+00  0.00000000000E+00 -0.15041836241E+04  0.42030352396E+04  0.39246575456E+04 0.  0.
        3    1    3    3  502    0 -0.89748814952E+03  0.14342439520E+04  0.31249789409E+03  0.17205219081E+04  0.10100000352E+00 0. -1.
       -3    1    3    3    0  502  0.89748814952E+03 -0.14342439520E+04 -0.18166815182E+04  0.24825133315E+04  0.10100000352E+00 0.  1.
</event>
<event>
 5   0  0.2632875E-08  0.3886528E+04  0.7818609E-02  0.8027837E-01
        1   -1    0    0  501    0  0.00000000000E+00  0.00000000000E+00  0.19224507473E+04  0.19224507473E+04  0.50400001928E-02 0.  1.
       -1   -1    0    0    0  501  0.00000000000E+00  0.00000000000E+00 -0.19643023549E+04  0.19643023549E+04  0.50400001928E-02 0. -1.
    10030    2    1    2    0    0  0.00000000000E+00  0.00000000000E+00 -0.41851607568E+02  0.38867531022E+04  0.38865277718E+04 0.  0.
        1    1    3    3  502    0 -0.13732570037E+04  0.94612827386E+03  0.97676975707E+03  0.19326336091E+04  0.50400001928E-02 0. -1.
       -1    1    3    3    0  502  0.13732570037E+04 -0.94612827386E+03 -0.10186213646E+04  0.19541194931E+04  0.50400001928E-02 0.  1.
</event>
<event>
 5   0  0.8438211E-08  0.3917082E+04  0.7818609E-02  0.8021486E-01
        2   -1    0    0  501    0  0.00000000000E+00  0.00000000000E+00  0.20482765311E+04  0.20482765311E+04  0.25500000920E-02 0. -1.
       -2   -1    0    0    0  501  0.00000000000E+00  0.00000000000E+00 -0.18727364888E+04  0.18727364888E+04  0.25500000920E-02 0.  1.
    10030    2    1    2    0    0  0.00000000000E+00  0.00000000000E+00  0.17554004222E+03  0.39210130199E+04  0.39170816683E+04 0.  0.
        5    1    3    3  502    0  0.18215471685E+04  0.51443346808E+02  0.80625052581E+03  0.19926722022E+04  0.46999998093E+01 0.  1.
       -5    1    3    3    0  502 -0.18215471685E+04 -0.51443346808E+02 -0.63071048359E+03  0.19283408177E+04  0.46999998093E+01 0. -1.
</event>
<event>
 5   0  0.2632875E-08  0.3901914E+04  0.7818609E-02  0.8024631E-01
       -1   -1    0    0    0  501  0.00000000000E+00  0.00000000000E+00  0.18519891871E+04  0.18519891871E+04  0.50400001928E-02 0.  1.
        1   -1    0    0  501    0  0.00000000000E+00  0.00000000000E+00 -0.20552134625E+04  0.20552134625E+04  0.50400001928E-02 0. -1.
    10030    2    1    2    0    0  0.00000000000E+00  0.00000000000E+00 -0.20322427535E+03  0.39072026496E+04  0.39019139456E+04 0.  0.
        1    1    3    3  502    0  0.99520055826E+03 -0.73514448907E+03  0.14088658841E+04  0.18750372397E+04  0.50400001928E-02 0.  1.
       -1    1    3    3    0  502 -0.99520055826E+03  0.73514448907E+03 -0.16120901595E+04  0.20321654099E+04  0.50400001928E-02 0. -1.
</event>
<event>
 5   0  0.2632875E-08  0.3907759E+04  0.7818609E-02  0.8023417E-01
        3   -1    0    0  501    0  0.00000000000E+00  0.00000000000E+00  0.30274423870E+04  0.30274423886E+04  0.10100000352E+00 0. -1.
       -3   -1    0    0    0  501  0.00000000000E+00  0.00000000000E+00 -0.12610131545E+04  0.12610131585E+04  0.10100000352E+00 0.  1.
    10030    2    1    2    0    0  0.00000000000E+00  0.00000000000E+00  0.17664292325E+04  0.42884555472E+04  0.39077587882E+04 0.  0.
        1    1    3    3  502    0  0.57745152053E+02  0.17616200441E+04  0.18085719963E+04  0.25253855841E+04  0.50400001928E-02 0. -1.
       -1    1    3    3    0  502 -0.57745152053E+02 -0.17616200441E+04 -0.42142763840E+02  0.17630699631E+04  0.50400001928E-02 0.  1.
</event>
<event>
 5   0  0.2632875E-08  0.3896389E+04  0.7818609E-02  0.8025781E-01
       -1   -1    0    0    0  501  0.00000000000E+00  0.00000000000E+00  0.19900241295E+04  0.19900241295E+04  0.50400001928E-02 0. -1.
        1   -1    0    0  501    0  0.00000000000E+00  0.00000000000E+00 -0.19072440881E+04  0.19072440882E+04  0.50400001928E-02 0.  1.
    10030    2    1    2    0    0  0.00000000000E+00  0.00000000000E+00  0.82780041377E+02  0.38972682177E+04  0.38963889725E+04 0.  0.
        3    1    3    3  502    0  0.15586315515E+03 -0.87145454460E+03  0.17772168519E+04  0.19855039902E+04  0.10100000352E+00 0. -1.
       -3    1    3    3    0  502 -0.15586315515E+03  0.87145454460E+03 -0.16944368105E+04  0.19117642275E+04  0.10100000352E+00 0.  1.
</event>
<event>
 5   0  0.8342802E-08  0.3901105E+04  0.7818609E-02  0.8024799E-01
       -2   -1    0    0    0  501  0.00000000000E+00  0.00000000000E+00  0.12880588348E+04  0.12880588348E+04  0.25500000920E-02 0.  1.
        2   -1    0    0  501    0  0.00000000000E+00  0.00000000000E+00 -0.29537902375E+04  0.29537902375E+04  0.25500000920E-02 0. -1.
    10030    2    1    2    0    0  0.00000000000E+00  0.00000000000E+00 -0.16657314028E+04  0.42418490723E+04  0.39011052852E+04 0.  0.
        4    1    3    3  502    0  0.78575981294E+03  0.13087613870E+04 -0.21531642030E+04  0.26393924584E+04  0.12699999809E+01 0. -1.
       -4    1    3    3    0  502 -0.78575981294E+03 -0.13087613870E+04  0.48743280023E+03  0.16024566139E+04  0.12699999809E+01 0.  1.
</event>
<event>
 5   0  0.2632875E-08  0.3889710E+04  0.7818609E-02  0.8027173E-01
       -1   -1    0    0    0  501  0.00000000000E+00  0.00000000000E+00  0.19011586009E+04  0.19011586009E+04  0.50400001928E-02 0.  1.
        1   -1    0    0  501    0  0.00000000000E+00  0.00000000000E+00 -0.19895554339E+04  0.19895554339E+04  0.50400001928E-02 0. -1.
    10030    2    1    2    0    0  0.00000000000E+00  0.00000000000E+00 -0.88396833001E+02  0.38907140348E+04  0.38897097193E+04 0.  0.
        2    1    3    3  502    0  0.42881197193E+03  0.58892699430E+03 -0.18479237611E+04  0.19863375692E+04  0.25500000920E-02 0. -1.
       -2    1    3    3    0  502 -0.42881197193E+03 -0.58892699430E+03  0.17595269281E+04  0.19043764656E+04  0.25500000920E-02 0.  1.
</event>
<event>
 5   0  0.8551754E-08  0.4021841E+04  0.7818609E-02  0.8000155E-01
        2   -1    0    0  501    0  0.00000000000E+00  0.00000000000E+00  0.14846923652E+04  0.14846923652E+04  0.25500000920E-02 0.  1.
       -2   -1    0    0    0  501  0.00000000000E+00  0.00000000000E+00 -0.27236624847E+04  0.27236624847E+04  0.25500000920E-02 0. -1.
    10030    2    1    2    0    0  0.00000000000E+00  0.00000000000E+00 -0.12389701195E+04  0.42083548499E+04  0.40218408206E+04 0.  0.
        1    1    3    3  502    0 -0.65280568436E+03  0.83501660771E+03 -0.24076522280E+04  0.26306267785E+04  0.50400001928E-02 0. -1.
       -1    1    3    3    0  502  0.65280568436E+03 -0.83501660771E+03  0.11686821085E+04  0.15777280714E+04  0.50400001928E-02 0.  1.
</event>
<event>
 5   0  0.8342802E-08  0.3907225E+04  0.7818609E-02  0.8023528E-01
        2   -1    0    0  501    0  0.00000000000E+00  0.00000000000E+00  0.33312400758E+04  0.33312400758E+04  0.25500000920E-02 0. -1.
       -2   -1    0    0    0  501  0.00000000000E+00  0.00000000000E+00 -0.11457000100E+04  0.11457000101E+04  0.25500000920E-02 0.  1.
    10030    2    1    2    0    0  0.00000000000E+00  0.00000000000E+00  0.21855400657E+04  0.44769400858E+04  0.39072249939E+04 0.  0.
        4    1    3    3  502    0  0.14318766450E+04 -0.47341590076E+03 -0.33016205663E+03  0.15438270428E+04  0.12699999809E+01 0. -1.
       -4    1    3    3    0  502 -0.14318766450E+04  0.47341590076E+03  0.25157021223E+04  0.29331130430E+04  0.12699999809E+01 0.  1.
</event>
<event>
 5   0  0.8342802E-08  0.3889623E+04  0.7818609E-02  0.8027191E-01
        2   -1    0    0  501    0  0.00000000000E+00  0.00000000000E+00  0.15678343759E+04  0.15678343759E+04  0.25500000920E-02 0. -1.
       -2   -1    0    0    0  501  0.00000000000E+00  0.00000000000E+00 -0.24124306945E+04  0.24124306945E+04  0.25500000920E-02 0.  1.
    10030    2    1    2    0    0  0.00000000000E+00  0.00000000000E+00 -0.84459631860E+03  0.39802650703E+04  0.38896230008E+04 0.  0.
        4    1    3    3  502    0 -0.51784716730E+03  0.15852529376E+04  0.60156683451E+03  0.17728724811E+04  0.12699999809E+01 0. -1.
       -4    1    3    3    0  502  0.51784716730E+03 -0.15852529376E+04 -0.14461631531E+04  0.22073925893E+04  0.12699999809E+01 0.  1.
</event>
<event>
 5   0  0.8476262E-08  0.3879216E+04  0.7818609E-02  0.8029366E-01
       -2   -1    0    0    0  501  0.00000000000E+00  0.00000000000E+00  0.26603140742E+04  0.26603140742E+04  0.25500000920E-02 0. -1.
        2   -1    0    0  501    0  0.00000000000E+00  0.00000000000E+00 -0.14141486122E+04  0.14141486122E+04  0.25500000920E-02 0.  1.
    10030    2    1    2    0    0  0.00000000000E+00  0.00000000000E+00  0.12461654620E+04  0.40744626863E+04  0.38792161352E+04 0.  0.
        2    1    3    3  502    0 -0.13609269970E+04 -0.10346027683E+04 -0.33930650409E+03  0.17428867097E+04  0.25500000920E-02 0.  1.
       -2    1    3    3    0  502  0.13609269970E+04  0.10346027683E+04  0.15854719661E+04  0.23315759766E+04  0.25500000920E-02 0. -1.
</event>
<event>
 5   0  0.8676098E-08  0.3769601E+04  0.7818609E-02  0.8052710E-01
        2   -1    0    0  501    0  0.00000000000E+00  0.00000000000E+00  0.21729009828E+04  0.21729009828E+04  0.25500000920E-02 0. -1.
       -2   -1    0    0    0  501  0.00000000000E+00  0.00000000000E+00 -0.16348988371E+04  0.16348988371E+04  0.25500000920E-02 0.  1.
    10030    2    1    2    0    0  0.00000000000E+00  0.00000000000E+00  0.53800214572E+03  0.38077998199E+04  0.37696011937E+04 0.  0.
        3    1    3    3  502    0 -0.84172984728E+03  0.75629835039E+03  0.17915829742E+04  0.21190247507E+04  0.10100000352E+00 0.  1.
       -3    1    3    3    0  502  0.84172984728E+03 -0.75629835039E+03 -0.12535808285E+04  0.16887750692E+04  0.10100000352E+00 0. -1.
</event>
<event>
 5   0  0.2632875E-08  0.3938285E+04  0.7818609E-02  0.8017113E-01
        1   -1    0    0  501    0  0.00000000000E+00  0.00000000000E+00  0.16082829077E+04  0.16082829078E+04  0.50400001928E-02 0.  1.
       -1   -1    0    0    0  501  0.00000000000E+00  0.00000000000E+00 -0.24109706566E+04  0.24109706566E+04  0.50400001928E-02 0. -1.
    10030    2    1    2    0    0  0.00000000000E+00  0.00000000000E+00 -0.80268774886E+03  0.40192535644E+04  0.39382853620E+04 0.  0.
        3    1    3    3  502    0  0.92928302189E+03  0.97088595912E+03  0.10674591013E+04  0.17162911826E+04  0.10100000352E+00 0.  1.
       -3    1    3    3    0  502 -0.92928302189E+03 -0.97088595912E+03 -0.18701468502E+04  0.23029623817E+04  0.10100000352E+00 0. -1.
</event>
<event>
 5   0  0.2632875E-08  0.3908182E+04  0.7818609E-02  0.8023330E-01
       -1   -1    0    0    0  501  0.00000000000E+00  0.00000000000E+00  0.32386774333E+04  0.32386774333E+04  0.50400001928E-02 0.  1.
        1   -1    0    0  501    0  0.00000000000E+00  0.00000000000E+00 -0.11790220380E+04  0.11790220380E+04  0.50400001928E-02 0. -1.
    10030    2    1    2    0    0  0.00000000000E+00  0.00000000000E+00  0.20596553953E+04  0.44176994713E+04  0.39081822209E+04 0.  0.
        1    1    3    3  502    0 -0.13147862939E+04  0.96192594599E+03  0.22496386168E+04  0.27775597978E+04  0.50400001928E-02 0.  1.
       -1    1    3    3    0  502  0.13147862939E+04 -0.96192594599E+03 -0.18998322151E+03  0.16401396735E+04  0.50400001928E-02 0. -1.
</event>
<event>
 5   0  0.8676098E-08  0.3874599E+04  0.7818609E-02  0.8030333E-01
        2   -1    0    0  501    0  0.00000000000E+00  0.00000000000E+00  0.15762439763E+04  0.15762439763E+04  0.25500000920E-02 0.  1.
       -2   -1    0    0    0  501  0.00000000000E+00  0.00000000000E+00 -0.23810584905E+04  0.23810584905E+04  0.25500000920E-02 0. -1.
    10030    2    1    2    0    0  0.00000000000E+00  0.00000000000E+00 -0.80481451419E+03  0.39573024669E+04  0.38745988711E+04 0.  0.
        3    1    3    3  502    0  0.10679108709E+04  0.10180807938E+04  0.87986167193E+03  0.17178703975E+04  0.10100000352E+00 0.  1.
       -3    1    3    3    0  502 -0.10679108709E+04 -0.10180807938E+04 -0.16846761861E+04  0.22394320693E+04  0.10100000352E+00 0. -1.
</event>
<event>
 5   0  0.8476262E-08  0.3844329E+04  0.7818609E-02  0.8036708E-01
        2   -1    0    0  501    0  0.00000000000E+00  0.00000000000E+00  0.21208255252E+04  0.21208255252E+04  0.25500000920E-02 0.  1.
       -2   -1    0    0    0  501  0.00000000000E+00  0.00000000000E+00 -0.17421124478E+04  0.17421124478E+04  0.25500000920E-02 0. -1.
    10030    2    1    2    0    0  0.00000000000E+00  0.00000000000E+00  0.37871307749E+03  0.38629379730E+04  0.38443290947E+04 0.  0.
        2    1    3    3  502    0  0.76825947842E+03  0.39227064116E+03  0.19154076246E+04  0.21006868521E+04  0.25500000920E-02 0.  1.
       -2    1    3    3    0  502 -0.76825947842E+03 -0.39227064116E+03 -0.15366945471E+04  0.17622511209E+04  0.25500000920E-02 0. -1.
</event>
<event>
 5   0  0.2632875E-08  0.3915375E+04  0.7818609E-02  0.8021839E-01
       -1   -1    0    0    0  501  0.00000000000E+00  0.00000000000E+00  0.16098564788E+04  0.16098564788E+04  0.50400001928E-02 0.  1.
        1   -1    0    0  501    0  0.00000000000E+00  0.00000000000E+00 -0.23806718186E+04  0.23806718186E+04  0.50400001928E-02 0. -1.
    10030    2    1    2    0    0  0.00000000000E+00  0.00000000000E+00 -0.77081533983E+03  0.39905282974E+04  0.39153747974E+04 0.  0.
        1    1    3    3  502    0  0.43156530750E+03  0.12916722023E+03  0.15563135000E+04  0.16201989062E+04  0.50400001928E-02 0.  1.
       -1    1    3    3    0  502 -0.43156530750E+03 -0.12916722023E+03 -0.23271288398E+04  0.23703293912E+04  0.50400001928E-02 0. -1.
</event>
<event>
 5   0  0.8551754E-08  0.3915565E+04  0.7818609E-02  0.8021800E-01
       -2   -1    0    0    0  501  0.00000000000E+00  0.00000000000E+00  0.16772327684E+04  0.16772327684E+04  0.25500000920E-02 0.  1.
        2   -1    0    0  501    0  0.00000000000E+00  0.00000000000E+00 -0.22852595589E+04  0.22852595589E+04  0.25500000920E-02 0. -1.
    10030    2    1    2    0    0  0.00000000000E+00  0.00000000000E+00 -0.60802679049E+03  0.39624923274E+04  0.39155649486E+04 0.  0.
        1    1    3    3  502    0 -0.13270982745E+04 -0.62509358585E+03  0.10080515315E+04  0.17799156473E+04  0.50400001928E-02 0.  1.
       -1    1    3    3    0  502  0.13270982745E+04  0.62509358585E+03 -0.16160783220E+04  0.21825766800E+04  0.50400001928E-02 0. -1.
</event>
<event>
 5   0  0.2632875E-08  0.3921624E+04  0.7818609E-02  0.8020547E-01
       -1   -1    0    0    0  501  0.00000000000E+00  0.00000000000E+00  0.22090715439E+04  0.22090715439E+04  0.50400001928E-02 0. -1.
        1   -1    0    0  501    0  0.00000000000E+00  0.00000000000E+00 -0.17404525817E+04  0.17404525817E+04  0.50400001928E-02 0.  1.
    10030    2    1    2    0    0  0.00000000000E+00  0.00000000000E+00  0.46861896221E+03  0.39495241255E+04  0.39216242918E+04 0.  0.
        2    1    3    3  502    0  0.10967665833E+04 -0.36468172235E+03  0.18295273037E+04  0.21640378582E+04  0.25500000920E-02 0. -1.
       -2    1    3    3    0  502 -0.10967665833E+04  0.36468172235E+03 -0.13609083415E+04  0.17854862673E+04  0.25500000920E-02 0.  1.
</event>
<event>
 5   0  0.8438211E-08  0.3925324E+04  0.7818609E-02  0.8019783E-01
        2   -1    0    0  501    0  0.00000000000E+00  0.00000000000E+00  0.17813214014E+04  0.17813214014E+04  0.25500000920E-02 0. -1.
       -2   -1    0    0    0  501  0.00000000000E+00  0.00000000000E+00 -0.21624631943E+04  0.21624631943E+04  0.25500000920E-02 0.  1.
    10030    2    1    2    0    0  0.00000000000E+00  0.00000000000E+00 -0.38114179294E+03  0.39437845957E+04  0.39253239192E+04 0.  0.
        5    1    3    3  502    0 -0.14959993575E+04  0.14815445698E+03  0.10771301923E+04  0.18493770199E+04  0.46999998093E+01 0. -1.
       -5    1    3    3    0  502  0.14959993575E+04 -0.14815445698E+03 -0.14582719852E+04  0.20944075758E+04  0.46999998093E+01 0.  1.
</event>
<event>
 5   0  0.2632875E-08  0.3908507E+04  0.7818609E-02  0.8023262E-01
       -1   -1    0    0    0  501  0.00000000000E+00  0.00000000000E+00  0.18457847616E+04  0.18457847616E+04  0.50400001928E-02 0.  1.
        1   -1    0    0  501    0  0.00000000000E+00  0.00000000000E+00 -0.20690968560E+04  0.20690968561E+04  0.50400001928E-02 0. -1.
    10030    2    1    2    0    0  0.00000000000E+00  0.00000000000E+00 -0.22331209443E+03  0.39148816177E+04  0.39085073607E+04 0.  0.
        2    1    3    3  502    0  0.12476873004E+03  0.15622632570E+03 -0.20588258212E+04  0.20685109772E+04  0.25500000920E-02 0. -1.
       -2    1    3    3    0  502 -0.12476873004E+03 -0.15622632570E+03  0.18355137268E+04  0.18463706405E+04  0.25500000920E-02 0.  1.
</event>
<event>
 5   0  0.2632875E-08  0.3919856E+04  0.7818609E-02  0.8020912E-01
       -1   -1    0    0    0  501  0.00000000000E+00  0.00000000000E+00  0.15053213097E+04  0.15053213097E+04  0.50400001928E-02 0. -1.
        1   -1    0    0  501    0  0.00000000000E+00  0.00000000000E+00 -0.25518263023E+04  0.25518263023E+04  0.50400001928E-02 0.  1.
    10030    2    1    2    0    0  0.00000000000E+00  0.00000000000E+00 -0.10465049926E+04  0.40571476121E+04  0.39198563809E+04 0.  0.
        3    1    3    3  502    0 -0.10194310493E+04  0.14821506814E+04  0.28201270230E+03  0.18208628398E+04  0.10100000352E+00 0. -1.
       -3    1    3    3    0  502  0.10194310493E+04 -0.14821506814E+04 -0.13285176949E+04  0.22362847723E+04  0.10100000352E+00 0.  1.
</event>
<event>
 5   0  0.2632875E-08  0.3883338E+04  0.7818609E-02  0.8028504E-01
        3   -1    0    0  501    0  0.00000000000E+00  0.00000000000E+00  0.15950287684E+04  0.15950287716E+04  0.10100000352E+00 0.  1.
       -3   -1    0    0    0  501  0.00000000000E+00  0.00000000000E+00 -0.23636424038E+04  0.23636424060E+04  0.10100000352E+00 0. -1.
    10030    2    1    2    0    0  0.00000000000E+00  0.00000000000E+00 -0.76861363537E+03  0.39586711776E+04  0.38833375557E+04 0.  0.
        3    1    3    3  502    0 -0.39770662491E+03 -0.31696011146E+03  0.15259295985E+04  0.16084450322E+04  0.10100000352E+00 0.  1.
       -3    1    3    3    0  502  0.39770662491E+03  0.31696011146E+03 -0.22945432339E+04  0.23502261453E+04  0.10100000352E+00 0. -1.
</event>
<event>
 5   0  0.8551754E-08  0.3890500E+04  0.7818609E-02  0.8027008E-01
       -2   -1    0    0    0  501  0.00000000000E+00  0.00000000000E+00  0.31067545671E+04  0.31067545671E+04  0.25500000920E-02 0.  1.
        2   -1    0    0  501    0  0.00000000000E+00  0.00000000000E+00 -0.12179907174E+04  0.12179907174E+04  0.25500000920E-02 0. -1.
    10030    2    1    2    0    0  0.00000000000E+00  0.00000000000E+00  0.18887638496E+04  0.43247452845E+04  0.38905003401E+04 0.  0.
        1    1    3    3  502    0  0.84226159764E+03 -0.34494415870E+02  0.28931712200E+04  0.30134754308E+04  0.50400001928E-02 0.  1.
       -1    1    3    3    0  502 -0.84226159764E+03  0.34494415870E+02 -0.10044073704E+04  0.13112698537E+04  0.50400001928E-02 0. -1.
</event>
<event>
 5   0  0.2632875E-08  0.3889481E+04  0.7818609E-02  0.8027220E-01
        1   -1    0    0  501    0  0.00000000000E+00  0.00000000000E+00  0.29597151322E+04  0.29597151322E+04  0.50400001928E-02 0. -1.
       -1   -1    0    0    0  501  0.00000000000E+00  0.00000000000E+00 -0.12778312363E+04  0.12778312363E+04  0.50400001928E-02 0.  1.
    10030    2    1    2    0    0  0.00000000000E+00  0.00000000000E+00  0.16818838959E+04  0.42375463686E+04  0.38894814290E+04 0.  0.
        3    1    3    3  502    0  0.72261004390E+03  0.17998261978E+04  0.99684477932E+03  0.21806510821E+04  0.10100000352E+00 0.  1.
       -3    1    3    3    0  502 -0.72261004390E+03 -0.17998261978E+04  0.68503911656E+03  0.20568952864E+04  0.10100000352E+00 0. -1.
</event>
<event>
 5   0  0.8476262E-08  0.3844003E+04  0.7818609E-02  0.8036777E-01
        2   -1    0    0  501    0  0.00000000000E+00  0.00000000000E+00  0.22881514154E+04  0.22881514154E+04  0.25500000920E-02 0.  1.
       -2   -1    0    0    0  501  0.00000000000E+00  0.00000000000E+00 -0.16144428637E+04  0.16144428637E+04  0.25500000920E-02 0. -1.
    10030    2    1    2    0    0  0.00000000000E+00  0.00000000000E+00  0.67370855172E+03  0.39025942790E+04  0.38440029779E+04 0.  0.
        2    1    3    3  502    0  0.30363398760E+03 -0.72245901638E+03 -0.14448739390E+04  0.16437157079E+04  0.25500000920E-02 0. -1.
       -2    1    3    3    0  502 -0.30363398760E+03  0.72245901638E+03  0.21185824908E+04  0.22588785711E+04  0.25500000920E-02 0.  1.
</event>
<event>
 5   0  0.2632875E-08  0.3898355E+04  0.7818609E-02  0.8025371E-01
        1   -1    0    0  501    0  0.00000000000E+00  0.00000000000E+00  0.14773076900E+04  0.14773076900E+04  0.50400001928E-02 0.  1.
       -1   -1    0    0    0  501  0.00000000000E+00  0.00000000000E+00 -0.25717679994E+04  0.25717679994E+04  0.50400001928E-02 0. -1.
    10030    2    1    2    0    0  0.00000000000E+00  0.00000000000E+00 -0.10944603094E+04  0.40490756894E+04  0.38983548542E+04 0.  0.
        4    1    3    3  502    0 -0.90610234700E+03  0.16178140573E+04 -0.11712471099E+04  0.21932088803E+04  0.12699999809E+01 0. -1.
       -4    1    3    3    0  502  0.90610234700E+03 -0.16178140573E+04  0.76786800517E+02  0.18558668090E+04  0.12699999809E+01 0.  1.
</event>
<event>
 5   0  0.2632875E-08  0.3908425E+04  0.7818609E-02  0.8023279E-01
       -1   -1    0    0    0  501  0.00000000000E+00  0.00000000000E+00  0.13491774041E+04  0.13491774041E+04  0.50400001928E-02 0.  1.
        1   -1    0    0  501    0  0.00000000000E+00  0.00000000000E+00 -0.28305745984E+04  0.28305745984E+04  0.50400001928E-02 0. -1.
    10030    2    1    2    0    0  0.00000000000E+00  0.00000000000E+00 -0.14813971944E+04  0.41797520025E+04  0.39084254061E+04 0.  0.
        5    1    3    3  502    0 -0.50848641044E+03 -0.15384242079E+04 -0.19090710708E+04  0.25039732260E+04  0.46999998093E+01 0. -1.
       -5    1    3    3    0  502  0.50848641044E+03  0.15384242079E+04  0.42767387644E+03  0.16757787765E+04  0.46999998093E+01 0.  1.
</event>
<event>
 5   0  0.8438211E-08  0.3839151E+04  0.7818609E-02  0.8037805E-01
        2   -1    0    0  501    0  0.00000000000E+00  0.00000000000E+00  0.26417623190E+04  0.26417623190E+04  0.25500000920E-02 0.  1.
       -2   -1    0    0    0  501  0.00000000000E+00  0.00000000000E+00 -0.13948150867E+04  0.13948150867E+04  0.25500000920E-02 0. -1.
    10030    2    1    2    0    0  0.00000000000E+00  0.00000000000E+00  0.12469472322E+04  0.40365774057E+04  0.38391509155E+04 0.  0.
        5    1    3    3  502    0  0.30624860283E+03 -0.26411426677E+03  0.25964580115E+04  0.26277672744E+04  0.46999998093E+01 0.  1.
       -5    1    3    3    0  502 -0.30624860283E+03  0.26411426677E+03 -0.13495107793E+04  0.14088101313E+04  0.46999998093E+01 0. -1.
</event>
<event>
 5   0  0.2632875E-08  0.3648147E+04  0.7818609E-02  0.8079551E-01
       -3   -1    0    0    0  501  0.00000000000E+00  0.00000000000E+00  0.16414913471E+04  0.16414913502E+04  0.10100000352E+00 0. -1.
        3   -1    0    0  501    0  0.00000000000E+00  0.00000000000E+00 -0.20269646611E+04  0.20269646636E+04  0.10100000352E+00 0.  1.
    10030    2    1    2    0    0  0.00000000000E+00  0.00000000000E+00 -0.38547331399E+03  0.36684560138E+04  0.36481474545E+04 0.  0.
        4    1    3    3  502    0  0.44950414056E+03 -0.35440872071E+03  0.15488353465E+04  0.16512274396E+04  0.12699999809E+01 0. -1.
       -4    1    3    3    0  502 -0.44950414056E+03  0.35440872071E+03 -0.19343086605E+04  0.20172285743E+04  0.12699999809E+01 0.  1.
</event>
<event>
 5   0  0.2632875E-08  0.3858901E+04  0.7818609E-02  0.8033632E-01
       -1   -1    0    0    0  501  0.00000000000E+00  0.00000000000E+00  0.20299049840E+04  0.20299049840E+04  0.50400001928E-02 0. -1.
        1   -1    0    0  501    0  0.00000000000E+00  0.00000000000E+00 -0.18339671977E+04  0.18339671977E+04  0.50400001928E-02 0.  1.
    10030    2    1    2    0    0  0.00000000000E+00  0.00000000000E+00  0.19593778637E+03  0.38638721817E+04  0.38589009602E+04 0.  0.
        2    1    3    3  502    0 -0.17691932643E+04 -0.72045952439E+03  0.36974520096E+03  0.19457179257E+04  0.25500000920E-02 0. -1.
       -2    1    3    3    0  502  0.17691932643E+04  0.72045952439E+03 -0.17380741458E+03  0.19181542561E+04  0.25500000920E-02 0.  1.
</event>
<event>
 5   0  0.8551754E-08  0.3869716E+04  0.7818609E-02  0.8031357E-01
       -2   -1    0    0    0  501  0.00000000000E+00  0.00000000000E+00  0.19661991205E+04  0.19661991205E+04  0.25500000920E-02 0. -1.
        2   -1    0    0  501    0  0.00000000000E+00  0.00000000000E+00 -0.19040162341E+04  0.19040162341E+04  0.25500000920E-02 0.  1.
    10030    2    1    2    0    0  0.00000000000E+00  0.00000000000E+00  0.62182886410E+02  0.38702153546E+04  0.38697157750E+04 0.  0.
        1    1    3    3  502    0 -0.76972428369E+02  0.10715375244E+04 -0.15783265540E+04  0.19092491016E+04  0.50400001928E-02 0.  1.
       -1    1    3    3    0  502  0.76972428369E+02 -0.10715375244E+04  0.16405094405E+04  0.19609662529E+04  0.50400001928E-02 0. -1.
</event>
<event>
 5   0  0.2632875E-08  0.3911404E+04  0.7818609E-02  0.8022662E-01
       -1   -1    0    0    0  501  0.00000000000E+00  0.00000000000E+00  0.15091404625E+04  0.15091404625E+04  0.50400001928E-02 0. -1.
        1   -1    0    0  501    0  0.00000000000E+00  0.00000000000E+00 -0.25344029648E+04  0.25344029648E+04  0.50400001928E-02 0.  1.
    10030    2    1    2    0    0  0.00000000000E+00  0.00000000000E+00 -0.10252625024E+04  0.40435434273E+04  0.39114038720E+04 0.  0.
        1    1    3    3  502    0  0.58251175275E+03  0.16211683054E+04 -0.14697957961E+04  0.22644660074E+04  0.50400001928E-02 0.  1.
       -1    1    3    3    0  502 -0.58251175275E+03 -0.16211683054E+04  0.44453329370E+03  0.17790774199E+04  0.50400001928E-02 0. -1.
</event>
<event>
 5   0  0.8551754E-08  0.3895813E+04  0.7818609E-02  0.8025901E-01
       -2   -1    0    0    0  501  0.00000000000E+00  0.00000000000E+00  0.24054790243E+04  0.24054790243E+04  0.25500000920E-02 0.  1.
        2   -1    0    0  501    0  0.00000000000E+00  0.00000000000E+00 -0.15773735857E+04  0.15773735857E+04  0.25500000920E-02 0. -1.
    10030    2    1    2    0    0  0.00000000000E+00  0.00000000000E+00  0.82810543863E+03  0.39828526100E+04  0.38958126618E+04 0.  0.
        1    1    3    3  502    0 -0.19360243042E+04 -0.55648962603E+02  0.20192684530E+03  0.19473215873E+04  0.50400001928E-02 0.  1.
       -1    1    3    3    0  502  0.19360243042E+04  0.55648962603E+02  0.62617859333E+03  0.20355310227E+04  0.50400001928E-02 0. -1.
</event>
<event>
 5   0  0.8551754E-08  0.3927966E+04  0.7818609E-02  0.8019238E-01
        2   -1    0    0  501    0  0.00000000000E+00  0.00000000000E+00  0.21605281693E+04  0.21605281693E+04  0.25500000920E-02 0.  1.
       -2   -1    0    0    0  501  0.00000000000E+00  0.00000000000E+00 -0.17853174256E+04  0.17853174256E+04  0.25500000920E-02 0. -1.
    10030    2    1    2    0    0  0.00000000000E+00  0.00000000000E+00  0.37521074374E+03  0.39458455949E+04  0.39279656766E+04 0.  0.
        1    1    3    3  502    0  0.12330656260E+04 -0.54647155473E+03  0.16217406235E+04  0.21092948225E+04  0.50400001928E-02 0.  1.
       -1    1    3    3    0  502 -0.12330656260E+04  0.54647155473E+03 -0.12465298798E+04  0.18365507724E+04  0.50400001928E-02 0. -1.
</event>
<event>
 5   0  0.2632875E-08  0.3907989E+04  0.7818609E-02  0.8023370E-01
        1   -1    0    0  501    0  0.00000000000E+00  0.00000000000E+00  0.28433269525E+04  0.28433269525E+04  0.50400001928E-02 0.  1.
       -1   -1    0    0    0  501  0.00000000000E+00  0.00000000000E+00 -0.13428264365E+04  0.13428264365E+04  0.50400001928E-02 0. -1.
    10030    2    1    2    0    0  0.00000000000E+00  0.00000000000E+00  0.15005005160E+04  0.41861533890E+04  0.39079890478E+04 0.  0.
        4    1    3    3  502    0 -0.15793956665E+03  0.18478879359E+04  0.14092280696E+04  0.23292831720E+04  0.12699999809E+01 0. -1.
       -4    1    3    3    0  502  0.15793956665E+03 -0.18478879359E+04  0.91272446410E+02  0.18568702170E+04  0.12699999809E+01 0.  1.
</event>
<event>
 5   0  0.2632875E-08  0.3904915E+04  0.7818609E-02  0.8024008E-01
        1   -1    0    0  501    0  0.00000000000E+00  0.00000000000E+00  0.29336464885E+04  0.29336464885E+04  0.50400001928E-02 0.  1.
       -1   -1    0    0    0  501  0.00000000000E+00  0.00000000000E+00 -0.12994376027E+04  0.12994376027E+04  0.50400001928E-02 0. -1.
    10030    2    1    2    0    0  0.00000000000E+00  0.00000000000E+00  0.16342088859E+04  0.42330840912E+04  0.39049151387E+04 0.  0.
        5    1    3    3  502    0 -0.10800508604E+04 -0.13424197698E+04  0.18126921876E+04  0.25008949911E+04  0.46999998093E+01 0.  1.
       -5    1    3    3    0  502  0.10800508604E+04  0.13424197698E+04 -0.17848330178E+03  0.17321891001E+04  0.46999998093E+01 0. -1.
</event>
<event>
 5   0  0.8342802E-08  0.3886637E+04  0.7818609E-02  0.8027814E-01
       -2   -1    0    0    0  501  0.00000000000E+00  0.00000000000E+00  0.16855631918E+04  0.16855631918E+04  0.25500000920E-02 0. -1.
        2   -1    0    0  501    0  0.00000000000E+00  0.00000000000E+00 -0.22404893374E+04  0.22404893374E+04  0.25500000920E-02 0.  1.
    10030    2    1    2    0    0  0.00000000000E+00  0.00000000000E+00 -0.55492614560E+03  0.39260525292E+04  0.38866367768E+04 0.  0.
        4    1    3    3  502    0 -0.58747118863E+03 -0.17738736138E+04  0.26155383380E+03  0.18868391601E+04  0.12699999809E+01 0. -1.
       -4    1    3    3    0  502  0.58747118863E+03  0.17738736138E+04 -0.81647997940E+03  0.20392133691E+04  0.12699999809E+01 0.  1.
</event>
<event>
 5   0  0.2632875E-08  0.3897849E+04  0.7818609E-02  0.8025477E-01
        1   -1    0    0  501    0  0.00000000000E+00  0.00000000000E+00  0.29140094923E+04  0.29140094923E+04  0.50400001928E-02 0. -1.
       -1   -1    0    0    0  501  0.00000000000E+00  0.00000000000E+00 -0.13034641097E+04  0.13034641098E+04  0.50400001928E-02 0.  1.
    10030    2    1    2    0    0  0.00000000000E+00  0.00000000000E+00  0.16105453826E+04  0.42174736021E+04  0.38978490421E+04 0.  0.
        4    1    3    3  502    0  0.49349728082E+03 -0.17624752111E+04  0.80698613169E+02  0.18320404786E+04  0.12699999809E+01 0.  1.
       -4    1    3    3    0  502 -0.49349728082E+03  0.17624752111E+04  0.15298467694E+04  0.23854331235E+04  0.12699999809E+01 0. -1.
</event>
<event>
 5   0  0.2632875E-08  0.3908147E+04  0.7818609E-02  0.8023337E-01
       -1   -1    0    0    0  501  0.00000000000E+00  0.00000000000E+00  0.21824104973E+04  0.21824104973E+04  0.50400001928E-02 0.  1.
        1   -1    0    0  501    0  0.00000000000E+00  0.00000000000E+00 -0.17496267834E+04  0.17496267834E+04  0.50400001928E-02 0. -1.
    10030    2    1    2    0    0  0.00000000000E+00  0.00000000000E+00  0.43278371392E+03  0.39320372807E+04  0.39081473147E+04 0.  0.
        1    1    3    3  502    0 -0.49460304975E+03  0.11944798484E+04  0.16906097184E+04  0.21282799404E+04  0.50400001928E-02 0.  1.
       -1    1    3    3    0  502  0.49460304975E+03 -0.11944798484E+04 -0.12578260045E+04  0.18037573402E+04  0.50400001928E-02 0. -1.
</event>
<event>
 5   0  0.2632875E-08  0.3861434E+04  0.7818609E-02  0.8033098E-01
       -3   -1    0    0    0  501  0.00000000000E+00  0.00000000000E+00  0.20739926456E+04  0.20739926480E+04  0.10100000352E+00 0. -1.
        3   -1    0    0  501    0  0.00000000000E+00  0.00000000000E+00 -0.17973394843E+04  0.17973394871E+04  0.10100000352E+00 0.  1.
    10030    2    1    2    0    0  0.00000000000E+00  0.00000000000E+00  0.27665316128E+03  0.38713321351E+04  0.38614343875E+04 0.  0.
        4    1    3    3  502    0 -0.13966458152E+04  0.98475676163E+03 -0.76247626279E+03  0.18712928891E+04  0.12699999809E+01 0. -1.
       -4    1    3    3    0  502  0.13966458152E+04 -0.98475676163E+03  0.10391294241E+04  0.20000392460E+04  0.12699999809E+01 0.  1.
</event>
<event>
 5   0  0.8342802E-08  0.3898819E+04  0.7818609E-02  0.8025275E-01
       -2   -1    0    0    0  501  0.00000000000E+00  0.00000000000E+00  0.15818222937E+04  0.15818222937E+04  0.25500000920E-02 0.  1.
        2   -1    0    0  501    0  0.00000000000E+00  0.00000000000E+00 -0.24024169129E+04  0.24024169129E+04  0.25500000920E-02 0. -1.
    10030    2    1    2    0    0  0.00000000000E+00  0.00000000000E+00 -0.82059461928E+03  0.39842392066E+04  0.38988186065E+04 0.  0.
        4    1    3    3  502    0 -0.12072599039E+04  0.11018437837E+04  0.67536238437E+03  0.17685169386E+04  0.12699999809E+01 0.  1.
       -4    1    3    3    0  502  0.12072599039E+04 -0.11018437837E+04 -0.14959570036E+04  0.22157222680E+04  0.12699999809E+01 0. -1.
</event>
<event>
 5   0  0.8476262E-08  0.3930187E+04  0.7818609E-02  0.8018780E-01
        2   -1    0    0  501    0  0.00000000000E+00  0.00000000000E+00  0.27241438847E+04  0.27241438847E+04  0.25500000920E-02 0. -1.
       -2   -1    0    0    0  501  0.00000000000E+00  0.00000000000E+00 -0.14175437430E+04  0.14175437430E+04  0.25500000920E-02 0.  1.
    10030    2    1    2    0    0  0.00000000000E+00  0.00000000000E+00  0.13066001418E+04  0.41416876277E+04  0.39301873333E+04 0.  0.
        2    1    3    3  502    0 -0.51048128549E+03 -0.16060118485E+04 -0.41190130630E+03  0.17347990911E+04  0.25500000920E-02 0.  1.
       -2    1    3    3    0  502  0.51048128549E+03  0.16060118485E+04  0.17185014481E+04  0.24068885366E+04  0.25500000920E-02 0. -1.
</event>
<event>
 5   0  0.2632875E-08  0.3889876E+04  0.7818609E-02  0.8027138E-01
       -1   -1    0    0    0  501  0.00000000000E+00  0.00000000000E+00  0.15413491034E+04  0.15413491034E+04  0.50400001928E-02 0.  1.
        1   -1    0    0  501    0  0.00000000000E+00  0.00000000000E+00 -0.24542031621E+04  0.24542031621E+04  0.50400001928E-02 0. -1.
    10030    2    1    2    0    0  0.00000000000E+00  0.00000000000E+00 -0.91285405877E+03  0.39955522655E+04  0.38898760101E+04 0.  0.
        5    1    3    3  502    0 -0.12960663396E+04  0.57856605875E+03  0.90944830610E+03  0.16857179338E+04  0.46999998093E+01 0.  1.
       -5    1    3    3    0  502  0.12960663396E+04 -0.57856605875E+03 -0.18223023649E+04  0.23098343317E+04  0.46999998093E+01 0. -1.
</event>
<event>
 5   0  0.2632875E-08  0.3908523E+04  0.7818609E-02  0.8023259E-01
       -1   -1    0    0    0  501  0.00000000000E+00  0.00000000000E+00  0.22317174916E+04  0.22317174916E+04  0.50400001928E-02 0.  1.
        1   -1    0    0  501    0  0.00000000000E+00  0.00000000000E+00 -0.17113002156E+04  0.17113002156E+04  0.50400001928E-02 0. -1.
    10030    2    1    2    0    0  0.00000000000E+00  0.00000000000E+00  0.52041727602E+03  0.39430177072E+04  0.39085233142E+04 0.  0.
        1    1    3    3  502    0  0.13710465161E+04  0.38282947969E+03 -0.10905674225E+04  0.17932273316E+04  0.50400001928E-02 0. -1.
       -1    1    3    3    0  502 -0.13710465161E+04 -0.38282947969E+03  0.16109846985E+04  0.21497903755E+04  0.50400001928E-02 0.  1.
</event>
<event>
 5   0  0.8676098E-08  0.3872542E+04  0.7818609E-02  0.8030764E-01
       -2   -1    0    0    0  501  0.00000000000E+00  0.00000000000E+00  0.15954922885E+04  0.15954922885E+04  0.25500000920E-02 0.  1.
        2   -1    0    0  501    0  0.00000000000E+00  0.00000000000E+00 -0.23498362899E+04  0.23498362899E+04  0.25500000920E-02 0. -1.
    10030    2    1    2    0    0  0.00000000000E+00  0.00000000000E+00 -0.75434400141E+03  0.39453285784E+04  0.38725421520E+04 0.  0.
        3    1    3    3  502    0 -0.28629407771E+03  0.15727104483E+04  0.73595859769E+03  0.17598345152E+04  0.10100000352E+00 0. -1.
       -3    1    3    3    0  502  0.28629407771E+03 -0.15727104483E+04 -0.14903025991E+04  0.21854940632E+04  0.10100000352E+00 0.  1.
</event>
<event>
 5   0  0.8342802E-08  0.3885788E+04  0.7818609E-02  0.8027991E-01
        2   -1    0    0  501    0  0.00000000000E+00  0.00000000000E+00  0.25981098999E+04  0.25981098999E+04  0.25500000920E-02 0. -1.
       -2   -1    0    0    0  501  0.00000000000E+00  0.00000000000E+00 -0.14529170066E+04  0.14529170066E+04  0.25500000920E-02 0.  1.
    10030    2    1    2    0    0  0.00000000000E+00  0.00000000000E+00  0.11451928933E+04  0.40510269065E+04  0.38857884958E+04 0.  0.
        4    1    3    3  502    0  0.18422191920E+04 -0.42979021231E+03  0.11064515192E+03  0.18949235184E+04  0.12699999809E+01 0. -1.
       -4    1    3    3    0  502 -0.18422191920E+04  0.42979021231E+03  0.10345477414E+04  0.21561033881E+04  0.12699999809E+01 0.  1.
</event>
<event>
 5   0  0.8342802E-08  0.3909538E+04  0.7818609E-02  0.8023048E-01
        2   -1    0    0  501    0  0.00000000000E+00  0.00000000000E+00  0.24745894749E+04  0.24745894749E+04  0.25500000920E-02 0.  1.
       -2   -1    0    0    0  501  0.00000000000E+00  0.00000000000E+00 -0.15441440450E+04  0.15441440450E+04  0.25500000920E-02 0. -1.
    10030    2    1    2    0    0  0.00000000000E+00  0.00000000000E+00  0.93044542988E+03  0.40187335199E+04  0.39095383878E+04 0.  0.
        4    1    3    3  502    0  0.12166842170E+04  0.49022990990E+03  0.19550039525E+04  0.23542913829E+04  0.12699999809E+01 0.  1.
       -4    1    3    3    0  502 -0.12166842170E+04 -0.49022990990E+03 -0.10245585226E+04  0.16644421370E+04  0.12699999809E+01 0. -1.
</event>
<event>
 5   0  0.2632875E-08  0.3904629E+04  0.7818609E-02  0.8024067E-01
        1   -1    0    0  501    0  0.00000000000E+00  0.00000000000E+00  0.15301394245E+04  0.15301394245E+04  0.50400001928E-02 0. -1.
       -1   -1    0    0    0  501  0.00000000000E+00  0.00000000000E+00 -0.24909706278E+04  0.24909706278E+04  0.50400001928E-02 0.  1.
    10030    2    1    2    0    0  0.00000000000E+00  0.00000000000E+00 -0.96083120327E+03  0.40211100523E+04  0.39046292336E+04 0.  0.
        3    1    3    3  502    0  0.63841989587E+03  0.50498146815E+03 -0.23078793549E+04  0.24472215621E+04  0.10100000352E+00 0.  1.
       -3    1    3    3    0  502 -0.63841989587E+03 -0.50498146815E+03  0.13470481517E+04  0.15738884902E+04  0.10100000352E+00 0. -1.
</event>
<event>
 5   0  0.2632875E-08  0.3900560E+04  0.7818609E-02  0.8024913E-01
        1   -1    0    0  501    0  0.00000000000E+00  0.00000000000E+00  0.16617173707E+04  0.16617173707E+04  0.50400001928E-02 0.  1.
       -1   -1    0    0    0  501  0.00000000000E+00  0.00000000000E+00 -0.22889528810E+04  0.22889528810E+04  0.50400001928E-02 0. -1.
    10030    2    1    2    0    0  0.00000000000E+00  0.00000000000E+00 -0.62723551032E+03  0.39506702517E+04  0.39005603511E+04 0.  0.
        5    1    3    3  502    0  0.27654399062E+03 -0.10598042148E+04  0.13207759905E+04  0.17158475630E+04  0.46999998093E+01 0.  1.
       -5    1    3    3    0  502 -0.27654399062E+03  0.10598042148E+04 -0.19480115008E+04  0.22348226887E+04  0.46999998093E+01 0. -1.
</event>
<event>
 5   0  0.2632875E-08  0.3902741E+04  0.7818609E-02  0.8024459E-01
       -1   -1    0    0    0  501  0.00000000000E+00  0.00000000000E+00  0.16513469870E+04  0.16513469870E+04  0.50400001928E-02 0.  1.
        1   -1    0    0  501    0  0.00000000000E+00  0.00000000000E+00 -0.23059035896E+04  0.23059035896E+04  0.50400001928E-02 0. -1.
    10030    2    1    2    0    0  0.00000000000E+00  0.00000000000E+00 -0.65455660263E+03  0.39572505766E+04  0.39027410598E+04 0.  0.
        3    1    3    3  502    0  0.14403519959E+04 -0.78925979323E+03 -0.13957041408E+04  0.21553503084E+04  0.10100000352E+00 0. -1.
       -3    1    3    3    0  502 -0.14403519959E+04  0.78925979323E+03  0.74114753813E+03  0.18019002682E+04  0.10100000352E+00 0.  1.
</event>
<event>
 5   0  0.2632875E-08  0.3884038E+04  0.7818609E-02  0.8028357E-01
        1   -1    0    0  501    0  0.00000000000E+00  0.00000000000E+00  0.24026760240E+04  0.24026760240E+04  0.50400001928E-02 0.  1.
       -1   -1    0    0    0  501  0.00000000000E+00  0.00000000000E+00 -0.15696818969E+04  0.15696818969E+04  0.50400001928E-02 0. -1.
    10030    2    1    2    0    0  0.00000000000E+00  0.00000000000E+00  0.83299412706E+03  0.39723579209E+04  0.38840376203E+04 0.  0.
        2    1    3    3  502    0  0.77199018776E+03  0.21036204870E+03 -0.13932649155E+04  0.16066761236E+04  0.25500000920E-02 0. -1.
       -2    1    3    3    0  502 -0.77199018776E+03 -0.21036204870E+03  0.22262590425E+04  0.23656817973E+04  0.25500000920E-02 0.  1.
</event>
<event>
 5   0  0.8676098E-08  0.3884678E+04  0.7818609E-02  0.8028223E-01
        2   -1    0    0  501    0  0.00000000000E+00  0.00000000000E+00  0.16729647103E+04  0.16729647103E+04  0.25500000920E-02 0.  1.
       -2   -1    0    0    0  501  0.00000000000E+00  0.00000000000E+00 -0.22550874534E+04  0.22550874534E+04  0.25500000920E-02 0. -1.
    10030    2    1    2    0    0  0.00000000000E+00  0.00000000000E+00 -0.58212274313E+03  0.39280521637E+04  0.38846784825E+04 0.  0.
        3    1    3    3  502    0 -0.12194083735E+04  0.86263171584E+03  0.96441000093E+03  0.17779698868E+04  0.10100000352E+00 0.  1.
       -3    1    3    3    0  502  0.12194083735E+04 -0.86263171584E+03 -0.15465327441E+04  0.21500822768E+04  0.10100000352E+00 0. -1.
</event>
<event>
 5   0  0.8676098E-08  0.3903963E+04  0.7818609E-02  0.8024205E-01
       -2   -1    0    0    0  501  0.00000000000E+00  0.00000000000E+00  0.12843896728E+04  0.12843896728E+04  0.25500000920E-02 0.  1.
        2   -1    0    0  501    0  0.00000000000E+00  0.00000000000E+00 -0.29665706377E+04  0.29665706377E+04  0.25500000920E-02 0. -1.
    10030    2    1    2    0    0  0.00000000000E+00  0.00000000000E+00 -0.16821809649E+04  0.42509603105E+04  0.39039634685E+04 0.  0.
        3    1    3    3  502    0 -0.16649995369E+04  0.10059264564E+04 -0.66510462953E+03  0.20558394082E+04  0.10100000352E+00 0. -1.
       -3    1    3    3    0  502  0.16649995369E+04 -0.10059264564E+04 -0.10170763354E+04  0.21951209024E+04  0.10100000352E+00 0.  1.
</event>
<event>
 5   0  0.2632875E-08  0.3906961E+04  0.7818609E-02  0.8023583E-01
        1   -1    0    0  501    0  0.00000000000E+00  0.00000000000E+00  0.20377696230E+04  0.20377696230E+04  0.50400001928E-02 0. -1.
       -1   -1    0    0    0  501  0.00000000000E+00  0.00000000000E+00 -0.18726776892E+04  0.18726776892E+04  0.50400001928E-02 0.  1.
    10030    2    1    2    0    0  0.00000000000E+00  0.00000000000E+00  0.16509193381E+03  0.39104473121E+04  0.39069608181E+04 0.  0.
        5    1    3    3  502    0  0.10339663246E+04  0.10389393753E+04  0.13750473383E+04  0.20097907001E+04  0.46999998093E+01 0. -1.
       -5    1    3    3    0  502 -0.10339663246E+04 -0.10389393753E+04 -0.12099554045E+04  0.19006566120E+04  0.46999998093E+01 0.  1.
</event>
<event>
 5   0  0.8476262E-08  0.3904861E+04  0.7818609E-02  0.8024019E-01
        2   -1    0    0  501    0  0.00000000000E+00  0.00000000000E+00  0.22583169770E+04  0.22583169770E+04  0.25500000920E-02 0.  1.
       -2   -1    0    0    0  501  0.00000000000E+00  0.00000000000E+00 -0.16879764038E+04  0.16879764038E+04  0.25500000920E-02 0. -1.
    10030    2    1    2    0    0  0.00000000000E+00  0.00000000000E+00  0.57034057325E+03  0.39462933808E+04  0.39048614672E+04 0.  0.
        2    1    3    3  502    0  0.13433433401E+04  0.69537528633E+03 -0.96237799681E+03  0.17928439773E+04  0.25500000920E-02 0. -1.
       -2    1    3    3    0  502 -0.13433433401E+04 -0.69537528633E+03  0.15327185701E+04  0.21534494035E+04  0.25500000920E-02 0.  1.
</event>
<event>
 5   0  0.8551754E-08  0.3836370E+04  0.7818609E-02  0.8038395E-01
        2   -1    0    0  501    0  0.00000000000E+00  0.00000000000E+00  0.18582171711E+04  0.18582171712E+04  0.25500000920E-02 0.  1.
       -2   -1    0    0    0  501  0.00000000000E+00  0.00000000000E+00 -0.19800885196E+04  0.19800885196E+04  0.25500000920E-02 0. -1.
    10030    2    1    2    0    0  0.00000000000E+00  0.00000000000E+00 -0.12187134843E+03  0.38383056907E+04  0.38363704135E+04 0.  0.
        1    1    3    3  502    0 -0.57173487701E+03  0.96151166634E+03 -0.16199415547E+04  0.19686533709E+04  0.50400001928E-02 0. -1.
       -1    1    3    3    0  502  0.57173487701E+03 -0.96151166634E+03  0.14980702063E+04  0.18696523198E+04  0.50400001928E-02 0.  1.
</event>
<event>
 5   0  0.8342802E-08  0.3898010E+04  0.7818609E-02  0.8025443E-01
        2   -1    0    0  501    0  0.00000000000E+00  0.00000000000E+00  0.15318756958E+04  0.15318756958E+04  0.25500000920E-02 0. -1.
       -2   -1    0    0    0  501  0.00000000000E+00  0.00000000000E+00 -0.24797184395E+04  0.24797184395E+04  0.25500000920E-02 0.  1.
    10030    2    1    2    0    0  0.00000000000E+00  0.00000000000E+00 -0.94784274377E+03  0.40115941353E+04  0.38980099589E+04 0.  0.
        4    1    3    3  502    0 -0.17034767974E+04  0.66916951650E+03 -0.11635195868E+04  0.21687324599E+04  0.12699999809E+01 0. -1.
       -4    1    3    3    0  502  0.17034767974E+04 -0.66916951650E+03  0.21567684303E+03  0.18428616754E+04  0.12699999809E+01 0.  1.
</event>
<event>
 5   0  0.2632875E-08  0.3889774E+04  0.7818609E-02  0.8027159E-01
        1   -1    0    0  501    0  0.00000000000E+00  0.00000000000E+00  0.19978529012E+04  0.19978529012E+04  0.50400001928E-02 0.  1.
       -1   -1    0    0    0  501  0.00000000000E+00  0.00000000000E+00 -0.18933252018E+04  0.18933252019E+04  0.50400001928E-02 0. -1.
    10030    2    1    2    0    0  0.00000000000E+00  0.00000000000E+00  0.10452769933E+03  0.38911781030E+04  0.38897738996E+04 0.  0.
        5    1    3    3  502    0 -0.15733847685E+04  0.10783871836E+04 -0.32748431949E+03  0.19353879758E+04  0.46999998093E+01 0. -1.
       -5    1    3    3    0  502  0.15733847685E+04 -0.10783871836E+04  0.43201201882E+03  0.19557901272E+04  0.46999998093E+01 0.  1.
</event>
<event>
 5   0  0.8551754E-08  0.3895977E+04  0.7818609E-02  0.8025866E-01
       -2   -1    0    0    0  501  0.00000000000E+00  0.00000000000E+00  0.14183506383E+04  0.14183506383E+04  0.25500000920E-02 0.  1.
        2   -1    0    0  501    0  0.00000000000E+00  0.00000000000E+00 -0.26754029909E+04  0.26754029909E+04  0.25500000920E-02 0. -1.
    10030    2    1    2    0    0  0.00000000000E+00  0.00000000000E+00 -0.12570523526E+04  0.40937536292E+04  0.38959771765E+04 0.  0.
        1    1    3    3  502    0  0.16870845327E+04  0.93442678882E+03 -0.34027969079E+03  0.19583661333E+04  0.50400001928E-02 0.  1.
       -1    1    3    3    0  502 -0.16870845327E+04 -0.93442678882E+03 -0.91677266182E+03  0.21353874959E+04  0.50400001928E-02 0. -1.
</event>
<event>
 5   0  0.8676098E-08  0.3861599E+04  0.7818609E-02  0.8033064E-01
       -2   -1    0    0    0  501  0.00000000000E+00  0.00000000000E+00  0.32311791670E+04  0.32311791670E+04  0.25500000920E-02 0. -1.
        2   -1    0    0  501    0  0.00000000000E+00  0.00000000000E+00 -0.11537543445E+04  0.11537543445E+04  0.25500000920E-02 0.  1.
    10030    2    1    2    0    0  0.00000000000E+00  0.00000000000E+00  0.20774248226E+04  0.43849335115E+04  0.38615991515E+04 0.  0.
        3    1    3    3  502    0  0.57439578720E+03  0.78616987887E+03  0.29320048657E+04  0.30894410727E+04  0.10100000352E+00 0. -1.
       -3    1    3    3    0  502 -0.57439578720E+03 -0.78616987887E+03 -0.85458004314E+03  0.12954924389E+04  0.10100000352E+00 0.  1.
</event>
<event>
 5   0  0.2632875E-08  0.3864351E+04  0.7818609E-02  0.8032485E-01
       -1   -1    0    0    0  501  0.00000000000E+00  0.00000000000E+00  0.19209992086E+04  0.19209992086E+04  0.50400001928E-02 0.  1.
        1   -1    0    0  501    0  0.00000000000E+00  0.00000000000E+00 -0.19434169432E+04  0.19434169432E+04  0.50400001928E-02 0. -1.
    10030    2    1    2    0    0  0.00000000000E+00  0.00000000000E+00 -0.22417734619E+02  0.38644161517E+04  0.38643511278E+04 0.  0.
        4    1    3    3  502    0  0.27218886530E+03  0.12729843396E+04  0.14166543964E+04  0.19239249463E+04  0.12699999809E+01 0.  1.
       -4    1    3    3    0  502 -0.27218886530E+03 -0.12729843396E+04 -0.14390721310E+04  0.19404912054E+04  0.12699999809E+01 0. -1.
</event>
<event>
 5   0  0.8438211E-08  0.3904348E+04  0.7818609E-02  0.8024125E-01
       -2   -1    0    0    0  501  0.00000000000E+00  0.00000000000E+00  0.27981505603E+04  0.27981505603E+04  0.25500000920E-02 0.  1.
        2   -1    0    0  501    0  0.00000000000E+00  0.00000000000E+00 -0.13619652948E+04  0.13619652949E+04  0.25500000920E-02 0. -1.
    10030    2    1    2    0    0  0.00000000000E+00  0.00000000000E+00  0.14361852655E+04  0.41601158552E+04  0.39043483210E+04 0.  0.
        5    1    3    3  502    0  0.67610053980E+03  0.13497355406E+04  0.20369423439E+04  0.25353607577E+04  0.46999998093E+01 0.  1.
       -5    1    3    3    0  502 -0.67610053980E+03 -0.13497355406E+04 -0.60075707841E+03  0.16247550975E+04  0.46999998093E+01 0. -1.
</event>
<event>
 5   0  0.8476262E-08  0.3895968E+04  0.7818609E-02  0.8025868E-01
        2   -1    0    0  501    0  0.00000000000E+00  0.00000000000E+00  0.11592800974E+04  0.11592800975E+04  0.25500000920E-02 0.  1.
       -2   -1    0    0    0  501  0.00000000000E+00  0.00000000000E+00 -0.32732741102E+04  0.32732741102E+04  0.25500000920E-02 0. -1.
    10030    2    1    2    0    0  0.00000000000E+00  0.00000000000E+00 -0.21139940128E+04  0.44325542077E+04  0.38959679308E+04 0.  0.
        2    1    3    3  502    0 -0.11423583546E+04  0.87518992137E+03 -0.25507187898E+04  0.29286697242E+04  0.25500000920E-02 0. -1.
       -2    1    3    3    0  502  0.11423583546E+04 -0.87518992137E+03  0.43672477701E+03  0.15038844835E+04  0.25500000920E-02 0.  1.
</event>
<event>
 5   0  0.8476262E-08  0.3898229E+04  0.7818609E-02  0.8025398E-01
        2   -1    0    0  501    0  0.00000000000E+00  0.00000000000E+00  0.23792334982E+04  0.23792334982E+04  0.25500000920E-02 0.  1.
       -2   -1    0    0    0  501  0.00000000000E+00  0.00000000000E+00 -0.15967529854E+04  0.15967529854E+04  0.25500000920E-02 0. -1.
    10030    2    1    2    0    0  0.00000000000E+00  0.00000000000E+00  0.78248051282E+03  0.39759864835E+04  0.38982294397E+04 0.  0.
        2    1    3    3  502    0 -0.71142315059E+03  0.79180949989E+03 -0.12741060641E+04  0.16602504166E+04  0.25500000920E-02 0. -1.
       -2    1    3    3    0  502  0.71142315059E+03 -0.79180949989E+03  0.20565865769E+04  0.23157360669E+04  0.25500000920E-02 0.  1.
</event>
<event>
 5   0  0.2632875E-08  0.3968863E+04  0.7818609E-02  0.8010857E-01
       -1   -1    0    0    0  501  0.00000000000E+00  0.00000000000E+00  0.19110320105E+04  0.19110320105E+04  0.50400001928E-02 0.  1.
        1   -1    0    0  501    0  0.00000000000E+00  0.00000000000E+00 -0.20606504940E+04  0.20606504940E+04  0.50400001928E-02 0. -1.
    10030    2    1    2    0    0  0.00000000000E+00  0.00000000000E+00 -0.14961848343E+03  0.39716825045E+04  0.39688633418E+04 0.  0.
        3    1    3    3  502    0 -0.10895658310E+04  0.14639478107E+04  0.70527776848E+03  0.19564543525E+04  0.10100000352E+00 0.  1.
       -3    1    3    3    0  502  0.10895658310E+04 -0.14639478107E+04 -0.85489625191E+03  0.20152281520E+04  0.10100000352E+00 0. -1.
</event>
<event>
 5   0  0.2632875E-08  0.3898553E+04  0.7818609E-02  0.8025330E-01
       -1   -1    0    0    0  501  0.00000000000E+00  0.00000000000E+00  0.15881338787E+04  0.15881338788E+04  0.50400001928E-02 0.  1.
        1   -1    0    0  501    0  0.00000000000E+00  0.00000000000E+00 -0.23925432769E+04  0.23925432769E+04  0.50400001928E-02 0. -1.
    10030    2    1    2    0    0  0.00000000000E+00  0.00000000000E+00 -0.80440939817E+03  0.39806771557E+04  0.38985530826E+04 0.  0.
        2    1    3    3  502    0 -0.59831735857E+03  0.88579580905E+03 -0.20665915645E+04  0.23266754332E+04  0.25500000920E-02 0. -1.
       -2    1    3    3    0  502  0.59831735857E+03 -0.88579580905E+03  0.12621821664E+04  0.16540017225E+04  0.25500000920E-02 0.  1.
</event>
<event>
 5   0  0.8551754E-08  0.3917946E+04  0.7818609E-02  0.8021307E-01
        2   -1    0    0  501    0  0.00000000000E+00  0.00000000000E+00  0.23008835481E+04  0.23008835481E+04  0.25500000920E-02 0. -1.
       -2   -1    0    0    0  501  0.00000000000E+00  0.00000000000E+00 -0.16678705170E+04  0.16678705170E+04  0.25500000920E-02 0.  1.
    10030    2    1    2    0    0  0.00000000000E+00  0.00000000000E+00  0.63301303108E+03  0.39687540651E+04  0.39179463155E+04 0.  0.
        1    1    3    3  502    0  0.47993212236E+03 -0.64519518900E+03 -0.14929854940E+04  0.16957645353E+04  0.50400001928E-02 0.  1.
       -1    1    3    3    0  502 -0.47993212236E+03  0.64519518900E+03  0.21259985250E+04  0.22729895298E+04  0.50400001928E-02 0. -1.
</event>
<event>
 5   0  0.2632875E-08  0.3894066E+04  0.7818609E-02  0.8026264E-01
       -1   -1    0    0    0  501  0.00000000000E+00  0.00000000000E+00  0.15818353309E+04  0.15818353309E+04  0.50400001928E-02 0. -1.
        1   -1    0    0  501    0  0.00000000000E+00  0.00000000000E+00 -0.23965439702E+04  0.23965439702E+04  0.50400001928E-02 0.  1.
    10030    2    1    2    0    0  0.00000000000E+00  0.00000000000E+00 -0.81470863928E+03  0.39783793011E+04  0.38940662162E+04 0.  0.
        2    1    3    3  502    0  0.54645407436E+03  0.11492842248E+04  0.10981428220E+04  0.16808878435E+04  0.25500000920E-02 0. -1.
       -2    1    3    3    0  502 -0.54645407436E+03 -0.11492842248E+04 -0.19128514613E+04  0.22974914576E+04  0.25500000920E-02 0.  1.
</event>
<event>
 5   0  0.2632875E-08  0.3963820E+04  0.7818609E-02  0.8011885E-01
        1   -1    0    0  501    0  0.00000000000E+00  0.00000000000E+00  0.23045761310E+04  0.23045761310E+04  0.50400001928E-02 0. -1.
       -1   -1    0    0    0  501  0.00000000000E+00  0.00000000000E+00 -0.17044209616E+04  0.17044209616E+04  0.50400001928E-02 0.  1.
    10030    2    1    2    0    0  0.00000000000E+00  0.00000000000E+00  0.60015516936E+03  0.40089970926E+04  0.39638203114E+04 0.  0.
        5    1    3    3  502    0 -0.24553006832E+03 -0.36409174632E+03 -0.16545894148E+04  0.17118808474E+04  0.46999998093E+01 0.  1.
       -5    1    3    3    0  502  0.24553006832E+03  0.36409174632E+03  0.22547445842E+04  0.22971162452E+04  0.46999998093E+01 0. -1.
</event>
<event>
 5   0  0.8438211E-08  0.3943280E+04  0.7818609E-02  0.8016088E-01
        2   -1    0    0  501    0  0.00000000000E+00  0.00000000000E+00  0.35239959027E+04  0.35239959027E+04  0.25500000920E-02 0. -1.
       -2   -1    0    0    0  501  0.00000000000E+00  0.00000000000E+00 -0.11031125267E+04  0.11031125267E+04  0.25500000920E-02 0.  1.
    10030    2    1    2    0    0  0.00000000000E+00  0.00000000000E+00  0.24208833760E+04  0.46271084294E+04  0.39432798654E+04 0.  0.
        5    1    3    3  502    0  0.18238833585E+04 -0.23841195189E+03  0.37743918894E+03  0.18777308635E+04  0.46999998093E+01 0.  1.
       -5    1    3    3    0  502 -0.18238833585E+04  0.23841195189E+03  0.20434441871E+04  0.27493775659E+04  0.46999998093E+01 0. -1.
</event>
<event>
 5   0  0.2632875E-08  0.3904885E+04  0.7818609E-02  0.8024014E-01
       -1   -1    0    0    0  501  0.00000000000E+00  0.00000000000E+00  0.20175386614E+04  0.20175386614E+04  0.50400001928E-02 0. -1.
        1   -1    0    0  501    0  0.00000000000E+00  0.00000000000E+00 -0.18894467365E+04  0.18894467366E+04  0.50400001928E-02 0.  1.
    10030    2    1    2    0    0  0.00000000000E+00  0.00000000000E+00  0.12809192488E+03  0.39069853980E+04  0.39048850635E+04 0.  0.
        2    1    3    3  502    0 -0.11399226299E+04  0.37533962423E+03 -0.14768240743E+04  0.19029747193E+04  0.25500000920E-02 0.  1.
       -2    1    3    3    0  502  0.11399226299E+04 -0.37533962423E+03  0.16049159992E+04  0.20040106787E+04  0.25500000920E-02 0. -1.
</event>
<event>
 5   0  0.2632875E-08  0.3893223E+04  0.7818609E-02  0.8026440E-01
       -1   -1    0    0    0  501  0.00000000000E+00  0.00000000000E+00  0.20549652284E+04  0.20549652284E+04  0.50400001928E-02 0.  1.
        1   -1    0    0  501    0  0.00000000000E+00  0.00000000000E+00 -0.18439708948E+04  0.18439708948E+04  0.50400001928E-02 0. -1.
    10030    2    1    2    0    0  0.00000000000E+00  0.00000000000E+00  0.21099433359E+03  0.38989361232E+04  0.38932228660E+04 0.  0.
        3    1    3    3  502    0 -0.36424648126E+03 -0.13618651905E+04  0.14498320605E+04  0.20222179185E+04  0.10100000352E+00 0.  1.
       -3    1    3    3    0  502  0.36424648126E+03  0.13618651905E+04 -0.12388377269E+04  0.18767182047E+04  0.10100000352E+00 0. -1.
</event>
<event>
 5   0  0.2632875E-08  0.3855497E+04  0.7818609E-02  0.8034349E-01
        1   -1    0    0  501    0  0.00000000000E+00  0.00000000000E+00  0.12272163809E+04  0.12272163809E+04  0.50400001928E-02 0.  1.
       -1   -1    0    0    0  501  0.00000000000E+00  0.00000000000E+00 -0.30281661783E+04  0.30281661783E+04  0.50400001928E-02 0. -1.
    10030    2    1    2    0    0  0.00000000000E+00  0.00000000000E+00 -0.18009497974E+04  0.42553825592E+04  0.38554974455E+04 0.  0.
        5    1    3    3  502    0  0.15872433894E+04  0.65284126990E+03 -0.18693921975E+04  0.25377534511E+04  0.46999998093E+01 0. -1.
       -5    1    3    3    0  502 -0.15872433894E+04 -0.65284126990E+03  0.68442400059E+02  0.17176291081E+04  0.46999998093E+01 0.  1.
</event>
<event>
 5   0  0.8476262E-08  0.3884948E+04  0.7818609E-02  0.8028167E-01
        2   -1    0    0  501    0  0.00000000000E+00  0.00000000000E+00  0.23702085479E+04  0.23702085479E+04  0.25500000920E-02 0.  1.
       -2   -1    0    0    0  501  0.00000000000E+00  0.00000000000E+00 -0.15919294042E+04  0.15919294042E+04  0.25500000920E-02 0. -1.
    10030    2    1    2    0    0  0.00000000000E+00  0.00000000000E+00  0.77827914365E+03  0.39621379521E+04  0.38849477121E+04 0.  0.
        2    1    3    3  502    0 -0.72028347942E+03  0.14123516412E+04  0.15337849305E+04  0.22059106197E+04  0.25500000920E-02 0.  1.
       -2    1    3    3    0  502  0.72028347942E+03 -0.14123516412E+04 -0.75550578683E+03  0.17562273324E+04  0.25500000920E-02 0. -1.
</event>
<event>
 5   0  0.8551754E-08  0.3909867E+04  0.7818609E-02  0.8022980E-01
       -2   -1    0    0    0  501  0.00000000000E+00  0.00000000000E+00  0.14843247149E+04  0.14843247149E+04  0.25500000920E-02 0.  1.
        2   -1    0    0  501    0  0.00000000000E+00  0.00000000000E+00 -0.25747501120E+04  0.25747501120E+04  0.25500000920E-02 0. -1.
    10030    2    1    2    0    0  0.00000000000E+00  0.00000000000E+00 -0.10904253970E+04  0.40590748269E+04  0.39098671210E+04 0.  0.
        1    1    3    3  502    0 -0.17829400221E+03 -0.70106730660E+03 -0.24306932621E+04  0.25360508383E+04  0.50400001928E-02 0. -1.
       -1    1    3    3    0  502  0.17829400221E+03  0.70106730660E+03  0.13402678651E+04  0.15230239886E+04  0.50400001928E-02 0.  1.
</event>
<event>
 5   0  0.2632875E-08  0.3905301E+04  0.7818609E-02  0.8023928E-01
        1   -1    0    0  501    0  0.00000000000E+00  0.00000000000E+00  0.24877637756E+04  0.24877637757E+04  0.50400001928E-02 0.  1.
       -1   -1    0    0    0  501  0.00000000000E+00  0.00000000000E+00 -0.15326389923E+04  0.15326389923E+04  0.50400001928E-02 0. -1.
    10030    2    1    2    0    0  0.00000000000E+00  0.00000000000E+00  0.95512478332E+03  0.40204027680E+04  0.39053008930E+04 0.  0.
        3    1    3    3  502    0 -0.75343262573E+03  0.11965432765E+04 -0.90877813056E+03  0.16808492600E+04  0.10100000352E+00 0. -1.
       -3    1    3    3    0  502  0.75343262573E+03 -0.11965432765E+04  0.18639029139E+04  0.23395535080E+04  0.10100000352E+00 0.  1.
</event>
<event>
 5   0  0.8551754E-08  0.3918755E+04  0.7818609E-02  0.8021140E-01
       -2   -1    0    0    0  501  0.00000000000E+00  0.00000000000E+00  0.20372344087E+04  0.20372344087E+04  0.25500000920E-02 0. -1.
        2   -1    0    0  501    0  0.00000000000E+00  0.00000000000E+00 -0.18844960264E+04  0.18844960264E+04  0.25500000920E-02 0.  1.
    10030    2    1    2    0    0  0.00000000000E+00  0.00000000000E+00  0.15273838231E+03  0.39217304352E+04  0.39187549799E+04 0.  0.
        1    1    3    3  502    0 -0.49615317831E+03  0.76547494179E+03 -0.16590294447E+04  0.18932772014E+04  0.50400001928E-02 0.  1.
       -1    1    3    3    0  502  0.49615317831E+03 -0.76547494179E+03  0.18117678270E+04  0.20284532338E+04  0.50400001928E-02 0. -1.
</event>
<event>
 5   0  0.8551754E-08  0.3878864E+04  0.7818609E-02  0.8029439E-01
        2   -1    0    0  501    0  0.00000000000E+00  0.00000000000E+00  0.26725203143E+04  0.26725203143E+04  0.25500000920E-02 0. -1.
       -2   -1    0    0    0  501  0.00000000000E+00  0.00000000000E+00 -0.14074342410E+04  0.14074342410E+04  0.25500000920E-02 0.  1.
    10030    2    1    2    0    0  0.00000000000E+00  0.00000000000E+00  0.12650860733E+04  0.40799545553E+04  0.38788640606E+04 0.  0.
        1    1    3    3  502    0  0.15296932812E+04  0.33140231961E+03  0.18371703976E+04  0.24135003837E+04  0.50400001928E-02 0. -1.
       -1    1    3    3    0  502 -0.15296932812E+04 -0.33140231961E+03 -0.57208432439E+03  0.16664541717E+04  0.50400001928E-02 0.  1.
</event>
<event>
 5   0  0.8438211E-08  0.3917464E+04  0.7818609E-02  0.8021407E-01
       -2   -1    0    0    0  501  0.00000000000E+00  0.00000000000E+00  0.20720600761E+04  0.20720600761E+04  0.25500000920E-02 0.  1.
        2   -1    0    0  501    0  0.00000000000E+00  0.00000000000E+00 -0.18516024362E+04  0.18516024362E+04  0.25500000920E-02 0. -1.
    10030    2    1    2    0    0  0.00000000000E+00  0.00000000000E+00  0.22045763988E+03  0.39236625123E+04  0.39174642232E+04 0.  0.
        5    1    3    3  502    0 -0.93563262414E+03 -0.85514827982E+03  0.16058840088E+04  0.20458671823E+04  0.46999998093E+01 0.  1.
       -5    1    3    3    0  502  0.93563262414E+03  0.85514827982E+03 -0.13854263689E+04  0.18777953300E+04  0.46999998093E+01 0. -1.
</event>
<event>
 5   0  0.8676098E-08  0.3891329E+04  0.7818609E-02  0.8026835E-01
       -2   -1    0    0    0  501  0.00000000000E+00  0.00000000000E+00  0.15111757513E+04  0.15111757513E+04  0.25500000920E-02 0.  1.
        2   -1    0    0  501    0  0.00000000000E+00  0.00000000000E+00 -0.25050759449E+04  0.25050759449E+04  0.25500000920E-02 0. -1.
    10030    2    1    2    0    0  0.00000000000E+00  0.00000000000E+00 -0.99390019361E+03  0.40162516962E+04  0.38913288338E+04 0.  0.
        3    1    3    3  502    0  0.14658859757E+04 -0.25767398172E+03  0.79643272230E+03  0.16880529215E+04  0.10100000352E+00 0.  1.
       -3    1    3    3    0  502 -0.14658859757E+04  0.25767398172E+03 -0.17903329159E+04  0.23281987747E+04  0.10100000352E+00 0. -1.
</event>
<event>
 5   0  0.2632875E-08  0.3903088E+04  0.7818609E-02  0.8024387E-01
        1   -1    0    0  501    0  0.00000000000E+00  0.00000000000E+00  0.22786605896E+04  0.22786605896E+04  0.50400001928E-02 0. -1.
       -1   -1    0    0    0  501  0.00000000000E+00  0.00000000000E+00 -0.16713867650E+04  0.16713867650E+04  0.50400001928E-02 0.  1.
    10030    2    1    2    0    0  0.00000000000E+00  0.00000000000E+00  0.60727382458E+03  0.39500473547E+04  0.39030875735E+04 0.  0.
        1    1    3    3  502    0  0.17450194024E+04  0.86517541452E+03  0.42717913030E+03  0.19940168560E+04  0.50400001928E-02 0.  1.
       -1    1    3    3    0  502 -0.17450194024E+04 -0.86517541452E+03  0.18009469428E+03  0.19560304986E+04  0.50400001928E-02 0. -1.
</event>
<event>
 5   0  0.2632875E-08  0.3737380E+04  0.7818609E-02  0.8059728E-01
        1   -1    0    0  501    0  0.00000000000E+00  0.00000000000E+00  0.22953706013E+04  0.22953706013E+04  0.50400001928E-02 0.  1.
       -1   -1    0    0    0  501  0.00000000000E+00  0.00000000000E+00 -0.15213239732E+04  0.15213239732E+04  0.50400001928E-02 0. -1.
    10030    2    1    2    0    0  0.00000000000E+00  0.00000000000E+00  0.77404662814E+03  0.38166945745E+04  0.37373800037E+04 0.  0.
        3    1    3    3  502    0 -0.41528918874E+03  0.17678928394E+04 -0.62885075569E+02  0.18171033941E+04  0.10100000352E+00 0. -1.
       -3    1    3    3    0  502  0.41528918874E+03 -0.17678928394E+04  0.83693170370E+03  0.19995911804E+04  0.10100000352E+00 0.  1.
</event>
<event>
 5   0  0.2632875E-08  0.3911055E+04  0.7818609E-02  0.8022734E-01
        1   -1    0    0  501    0  0.00000000000E+00  0.00000000000E+00  0.23042261152E+04  0.23042261152E+04  0.50400001928E-02 0.  1.
       -1   -1    0    0    0  501  0.00000000000E+00  0.00000000000E+00 -0.16595975765E+04  0.16595975765E+04  0.50400001928E-02 0. -1.
    10030    2    1    2    0    0  0.00000000000E+00  0.00000000000E+00  0.64462853867E+03  0.39638236917E+04  0.39110551397E+04 0.  0.
        3    1    3    3  502    0  0.10426231045E+04 -0.39655452442E+03  0.19501510376E+04  0.22466436096E+04  0.10100000352E+00 0.  1.
       -3    1    3    3    0  502 -0.10426231045E+04  0.39655452442E+03 -0.13055224990E+04  0.17171800821E+04  0.10100000352E+00 0. -1.
</event>
<event>
 5   0  0.8438211E-08  0.3897773E+04  0.7818609E-02  0.8025493E-01
       -2   -1    0    0    0  501  0.00000000000E+00  0.00000000000E+00  0.27369747296E+04  0.27369747296E+04  0.25500000920E-02 0. -1.
        2   -1    0    0  501    0  0.00000000000E+00  0.00000000000E+00 -0.13877215686E+04  0.13877215686E+04  0.25500000920E-02 0.  1.
    10030    2    1    2    0    0  0.00000000000E+00  0.00000000000E+00  0.13492531610E+04  0.41246962982E+04  0.38977731411E+04 0.  0.
        5    1    3    3  502    0  0.41900959667E+03 -0.45754441353E+01  0.26887330321E+04  0.27211941101E+04  0.46999998093E+01 0. -1.
       -5    1    3    3    0  502 -0.41900959667E+03  0.45754441353E+01 -0.13394798711E+04  0.14035021881E+04  0.46999998093E+01 0.  1.
</event>
<event>
 5   0  0.8551754E-08  0.3924264E+04  0.7818609E-02  0.8020002E-01
       -2   -1    0    0    0  501  0.00000000000E+00  0.00000000000E+00  0.21472855579E+04  0.21472855579E+04  0.25500000920E-02 0.  1.
        2   -1    0    0  501    0  0.00000000000E+00  0.00000000000E+00 -0.17929434348E+04  0.17929434348E+04  0.25500000920E-02 0. -1.
    10030    2    1    2    0    0  0.00000000000E+00  0.00000000000E+00  0.35434212306E+03  0.39402289927E+04  0.39242637748E+04 0.  0.
        1    1    3    3  502    0 -0.91205755766E+03  0.10842644806E+04  0.15400743090E+04  0.20926794617E+04  0.50400001928E-02 0.  1.
       -1    1    3    3    0  502  0.91205755766E+03 -0.10842644806E+04 -0.11857321860E+04  0.18475495309E+04  0.50400001928E-02 0. -1.
</event>
<event>
 5   0  0.2632875E-08  0.3895432E+04  0.7818609E-02  0.8025980E-01
       -1   -1    0    0    0  501  0.00000000000E+00  0.00000000000E+00  0.15282422002E+04  0.15282422003E+04  0.50400001928E-02 0. -1.
        1   -1    0    0  501    0  0.00000000000E+00  0.00000000000E+00 -0.24823279756E+04  0.24823279756E+04  0.50400001928E-02 0.  1.
    10030    2    1    2    0    0  0.00000000000E+00  0.00000000000E+00 -0.95408577537E+03  0.40105701759E+04  0.38954323854E+04 0.  0.
        5    1    3    3  502    0  0.19204256735E+03  0.13805782693E+04 -0.18776567218E+04  0.23384810370E+04  0.46999998093E+01 0.  1.
       -5    1    3    3    0  502 -0.19204256735E+03 -0.13805782693E+04  0.92357094640E+03  0.16720891389E+04  0.46999998093E+01 0. -1.
</event>
<event>
 5   0  0.2632875E-08  0.3863269E+04  0.7818609E-02  0.8032712E-01
       -1   -1    0    0    0  501  0.00000000000E+00  0.00000000000E+00  0.18242289435E+04  0.18242289435E+04  0.50400001928E-02 0. -1.
        1   -1    0    0  501    0  0.00000000000E+00  0.00000000000E+00 -0.20453636573E+04  0.20453636573E+04  0.50400001928E-02 0.  1.
    10030    2    1    2    0    0  0.00000000000E+00  0.00000000000E+00 -0.22113471385E+03  0.38695926008E+04  0.38632688664E+04 0.  0.
        5    1    3    3  502    0  0.14140143410E+04  0.34003192630E+03 -0.13839197844E+04  0.20075642772E+04  0.46999998093E+01 0.  1.
       -5    1    3    3    0  502 -0.14140143410E+04 -0.34003192630E+03  0.11627850706E+04  0.18620283236E+04  0.46999998093E+01 0. -1.
</event>
<event>
 5   0  0.8551754E-08  0.3896875E+04  0.7818609E-02  0.8025679E-01
       -2   -1    0    0    0  501  0.00000000000E+00  0.00000000000E+00  0.29316784668E+04  0.29316784668E+04  0.25500000920E-02 0. -1.
        2   -1    0    0  501    0  0.00000000000E+00  0.00000000000E+00 -0.12949609313E+04  0.12949609313E+04  0.25500000920E-02 0.  1.
    10030    2    1    2    0    0  0.00000000000E+00  0.00000000000E+00  0.16367175355E+04  0.42266393981E+04  0.38968751982E+04 0.  0.
        1    1    3    3  502    0  0.81113203283E+03  0.17237286598E+04  0.37481117892E+03  0.19415609924E+04  0.50400001928E-02 0. -1.
       -1    1    3    3    0  502 -0.81113203283E+03 -0.17237286598E+04  0.12619063566E+04  0.22850784057E+04  0.50400001928E-02 0.  1.
</event>
<event>
 5   0  0.2632875E-08  0.3854658E+04  0.7818609E-02  0.8034526E-01
       -1   -1    0    0    0  501  0.00000000000E+00  0.00000000000E+00  0.22293916095E+04  0.22293916095E+04  0.50400001928E-02 0.  1.
        1   -1    0    0  501    0  0.00000000000E+00  0.00000000000E+00 -0.16661933751E+04  0.16661933751E+04  0.50400001928E-02 0. -1.
    10030    2    1    2    0    0  0.00000000000E+00  0.00000000000E+00  0.56319823434E+03  0.38955849846E+04  0.38546582366E+04 0.  0.
        3    1    3    3  502    0  0.12194703937E+04  0.12768181797E+04 -0.49940932244E+03  0.18348793930E+04  0.10100000352E+00 0. -1.
       -3    1    3    3    0  502 -0.12194703937E+04 -0.12768181797E+04  0.10626075568E+04  0.20607055916E+04  0.10100000352E+00 0.  1.
</event>
<event>
 5   0  0.2632875E-08  0.3873538E+04  0.7818609E-02  0.8030555E-01
       -1   -1    0    0    0  501  0.00000000000E+00  0.00000000000E+00  0.14711660702E+04  0.14711660702E+04  0.50400001928E-02 0. -1.
        1   -1    0    0  501    0  0.00000000000E+00  0.00000000000E+00 -0.25497282333E+04  0.25497282333E+04  0.50400001928E-02 0.  1.
    10030    2    1    2    0    0  0.00000000000E+00  0.00000000000E+00 -0.10785621631E+04  0.40208943036E+04  0.38735377448E+04 0.  0.
        2    1    3    3  502    0 -0.16672767295E+04  0.38425212923E+02 -0.15615206854E+04  0.22846520612E+04  0.25500000920E-02 0. -1.
       -2    1    3    3    0  502  0.16672767295E+04 -0.38425212923E+02  0.48295852226E+03  0.17362422423E+04  0.25500000920E-02 0.  1.
</event>
<event>
 5   0  0.2632875E-08  0.3879374E+04  0.7818609E-02  0.8029333E-01
       -1   -1    0    0    0  501  0.00000000000E+00  0.00000000000E+00  0.16503473050E+04  0.16503473050E+04  0.50400001928E-02 0. -1.
        1   -1    0    0  501    0  0.00000000000E+00  0.00000000000E+00 -0.22797533790E+04  0.22797533790E+04  0.50400001928E-02 0.  1.
    10030    2    1    2    0    0  0.00000000000E+00  0.00000000000E+00 -0.62940607402E+03  0.39301006840E+04  0.38793735809E+04 0.  0.
        4    1    3    3  502    0  0.98218131259E+03  0.58463131991E+03 -0.19023291607E+04  0.22193088473E+04  0.12699999809E+01 0.  1.
       -4    1    3    3    0  502 -0.98218131259E+03 -0.58463131991E+03  0.12729230867E+04  0.17107918367E+04  0.12699999809E+01 0. -1.
</event>
<event>
 5   0  0.2632875E-08  0.3930173E+04  0.7818609E-02  0.8018783E-01
       -1   -1    0    0    0  501  0.00000000000E+00  0.00000000000E+00  0.26787197849E+04  0.26787197849E+04  0.50400001928E-02 0. -1.
        1   -1    0    0  501    0  0.00000000000E+00  0.00000000000E+00 -0.14415707189E+04  0.14415707189E+04  0.50400001928E-02 0.  1.
    10030    2    1    2    0    0  0.00000000000E+00  0.00000000000E+00  0.12371490660E+04  0.41202905038E+04  0.39301725184E+04 0.  0.
        4    1    3    3  502    0  0.70911071835E+03  0.12946083658E+04  0.19785194566E+04  0.24684792250E+04  0.12699999809E+01 0. -1.
       -4    1    3    3    0  502 -0.70911071835E+03 -0.12946083658E+04 -0.74137039060E+03  0.16518112787E+04  0.12699999809E+01 0.  1.
</event>
<event>
 5   0  0.2632875E-08  0.3915617E+04  0.7818609E-02  0.8021789E-01
       -1   -1    0    0    0  501  0.00000000000E+00  0.00000000000E+00  0.25736536372E+04  0.25736536372E+04  0.50400001928E-02 0. -1.
        1   -1    0    0  501    0  0.00000000000E+00  0.00000000000E+00 -0.14893281577E+04  0.14893281577E+04  0.50400001928E-02 0.  1.
    10030    2    1    2    0    0  0.00000000000E+00  0.00000000000E+00  0.10843254795E+04  0.40629817950E+04  0.39156173614E+04 0.  0.
        1    1    3    3  502    0 -0.17683665821E+04  0.84017154718E+03  0.54475327551E+03  0.20321822577E+04  0.50400001928E-02 0. -1.
       -1    1    3    3    0  502  0.17683665821E+04 -0.84017154718E+03  0.53957220397E+03  0.20307995373E+04  0.50400001928E-02 0.  1.
</event>
<event>
 5   0  0.2632875E-08  0.3986490E+04  0.7818609E-02  0.8007278E-01
       -1   -1    0    0    0  501  0.00000000000E+00  0.00000000000E+00  0.33086565676E+04  0.33086565676E+04  0.50400001928E-02 0. -1.
        1   -1    0    0  501    0  0.00000000000E+00  0.00000000000E+00 -0.12007971039E+04  0.12007971039E+04  0.50400001928E-02 0.  1.
    10030    2    1    2    0    0  0.00000000000E+00  0.00000000000E+00  0.21078594637E+04  0.45094536715E+04  0.39864897964E+04 0.  0.
        3    1    3    3  502    0 -0.40882625486E+03 -0.46892057867E+02 -0.11522235522E+04  0.12235018988E+04  0.10100000352E+00 0.  1.
       -3    1    3    3    0  502  0.40882625486E+03  0.46892057867E+02  0.32600830159E+04  0.32859517727E+04  0.10100000352E+00 0. -1.
</event>
<event>
 5   0  0.2632875E-08  0.3804844E+04  0.7818609E-02  0.8045116E-01
        1   -1    0    0  501    0  0.00000000000E+00  0.00000000000E+00  0.16119516591E+04  0.16119516591E+04  0.50400001928E-02 0.  1.
       -1   -1    0    0    0  501  0.00000000000E+00  0.00000000000E+00 -0.22452341994E+04  0.22452341994E+04  0.50400001928E-02 0. -1.
    10030    2    1    2    0    0  0.00000000000E+00  0.00000000000E+00 -0.63328254034E+03  0.38571858585E+04  0.38048437512E+04 0.  0.
        4    1    3    3  502    0 -0.77791601741E+03 -0.16190211073E+04  0.31873813666E+03  0.18242747295E+04  0.12699999809E+01 0. -1.
       -4    1    3    3    0  502  0.77791601741E+03  0.16190211073E+04 -0.95202067701E+03  0.20329111290E+04  0.12699999809E+01 0.  1.
</event>
<event>
 5   0  0.8438211E-08  0.3899515E+04  0.7818609E-02  0.8025130E-01
        2   -1    0    0  501    0  0.00000000000E+00  0.00000000000E+00  0.24704022836E+04  0.24704022836E+04  0.25500000920E-02 0.  1.
       -2   -1    0    0    0  501  0.00000000000E+00  0.00000000000E+00 -0.15388399594E+04  0.15388399594E+04  0.25500000920E-02 0. -1.
    10030    2    1    2    0    0  0.00000000000E+00  0.00000000000E+00  0.93156232426E+03  0.40092422430E+04  0.38995147133E+04 0.  0.
        5    1    3    3  502    0 -0.10068192674E+04 -0.69488885955E+03  0.20267166240E+04  0.23673102729E+04  0.46999998093E+01 0.  1.
       -5    1    3    3    0  502  0.10068192674E+04  0.69488885955E+03 -0.10951542997E+04  0.16419319701E+04  0.46999998093E+01 0. -1.
</event>
<event>
 5   0  0.2632875E-08  0.3899822E+04  0.7818609E-02  0.8025066E-01
       -1   -1    0    0    0  501  0.00000000000E+00  0.00000000000E+00  0.18135033346E+04  0.18135033346E+04  0.50400001928E-02 0.  1.
        1   -1    0    0  501    0  0.00000000000E+00  0.00000000000E+00 -0.20965786185E+04  0.20965786185E+04  0.50400001928E-02 0. -1.
    10030    2    1    2    0    0  0.00000000000E+00  0.00000000000E+00 -0.28307528392E+03  0.39100819531E+04  0.38998216964E+04 0.  0.
        2    1    3    3  502    0 -0.13298951326E+04 -0.96419766662E+03  0.91187117445E+03  0.18787781249E+04  0.25500000920E-02 0. -1.
       -2    1    3    3    0  502  0.13298951326E+04  0.96419766662E+03 -0.11949464584E+04  0.20313038282E+04  0.25500000920E-02 0.  1.
</event>
<event>
 5   0  0.2632875E-08  0.3891414E+04  0.7818609E-02  0.8026817E-01
       -1   -1    0    0    0  501  0.00000000000E+00  0.00000000000E+00  0.19734421513E+04  0.19734421513E+04  0.50400001928E-02 0. -1.
        1   -1    0    0  501    0  0.00000000000E+00  0.00000000000E+00 -0.19183613185E+04  0.19183613185E+04  0.50400001928E-02 0.  1.
    10030    2    1    2    0    0  0.00000000000E+00  0.00000000000E+00  0.55080832833E+02  0.38918034698E+04  0.38914136698E+04 0.  0.
        3    1    3    3  502    0 -0.27212839181E+03 -0.19076063396E+04  0.29730669612E+03  0.19497197466E+04  0.10100000352E+00 0. -1.
       -3    1    3    3    0  502  0.27212839181E+03  0.19076063396E+04 -0.24222586328E+03  0.19420837231E+04  0.10100000352E+00 0.  1.
</event>
<event>
 5   0  0.2632875E-08  0.3812453E+04  0.7818609E-02  0.8043488E-01
        1   -1    0    0  501    0  0.00000000000E+00  0.00000000000E+00  0.23598521228E+04  0.23598521228E+04  0.50400001928E-02 0. -1.
       -1   -1    0    0    0  501  0.00000000000E+00  0.00000000000E+00 -0.15397998586E+04  0.15397998586E+04  0.50400001928E-02 0.  1.
    10030    2    1    2    0    0  0.00000000000E+00  0.00000000000E+00  0.82005226418E+03  0.38996519814E+04  0.38124532600E+04 0.  0.
        2    1    3    3  502    0 -0.18624642375E+04 -0.38000961307E+03  0.26350306141E+03  0.19190138627E+04  0.25500000920E-02 0. -1.
       -2    1    3    3    0  502  0.18624642375E+04  0.38000961307E+03  0.55654920277E+03  0.19806381186E+04  0.25500000920E-02 0.  1.
</event>
<event>
 5   0  0.8551754E-08  0.3898214E+04  0.7818609E-02  0.8025401E-01
       -2   -1    0    0    0  501  0.00000000000E+00  0.00000000000E+00  0.13508449851E+04  0.13508449851E+04  0.25500000920E-02 0. -1.
        2   -1    0    0  501    0  0.00000000000E+00  0.00000000000E+00 -0.28123274600E+04  0.28123274600E+04  0.25500000920E-02 0.  1.
    10030    2    1    2    0    0  0.00000000000E+00  0.00000000000E+00 -0.14614824750E+04  0.41631724451E+04  0.38982141787E+04 0.  0.
        1    1    3    3  502    0  0.13832125555E+04  0.13394987467E+04 -0.40771882832E+03  0.19681891447E+04  0.50400001928E-02 0.  1.
       -1    1    3    3    0  502 -0.13832125555E+04 -0.13394987467E+04 -0.10537636466E+04  0.21949833004E+04  0.50400001928E-02 0. -1.
</event>
<event>
 5   0  0.2632875E-08  0.3897488E+04  0.7818609E-02  0.8025552E-01
       -1   -1    0    0    0  501  0.00000000000E+00  0.00000000000E+00  0.15952024300E+04  0.15952024300E+04  0.50400001928E-02 0.  1.
        1   -1    0    0  501    0  0.00000000000E+00  0.00000000000E+00 -0.23806399428E+04  0.23806399428E+04  0.50400001928E-02 0. -1.
    10030    2    1    2    0    0  0.00000000000E+00  0.00000000000E+00 -0.78543751276E+03  0.39758423728E+04  0.38974877148E+04 0.  0.
        3    1    3    3  502    0  0.10461100473E+04  0.10516296836E+04  0.89654542157E+03  0.17332238533E+04  0.10100000352E+00 0.  1.
       -3    1    3    3    0  502 -0.10461100473E+04 -0.10516296836E+04 -0.16819829343E+04  0.22426185195E+04  0.10100000352E+00 0. -1.
</event>
<event>
 5   0  0.8476262E-08  0.3878864E+04  0.7818609E-02  0.8029440E-01
        2   -1    0    0  501    0  0.00000000000E+00  0.00000000000E+00  0.18660753729E+04  0.18660753729E+04  0.25500000920E-02 0. -1.
       -2   -1    0    0    0  501  0.00000000000E+00  0.00000000000E+00 -0.20156719142E+04  0.20156719142E+04  0.25500000920E-02 0.  1.
    10030    2    1    2    0    0  0.00000000000E+00  0.00000000000E+00 -0.14959654138E+03  0.38817472871E+04  0.38788636062E+04 0.  0.
        2    1    3    3  502    0  0.26259348106E+03  0.11357636440E+04  0.14763480249E+04  0.18810948625E+04  0.25500000920E-02 0. -1.
       -2    1    3    3    0  502 -0.26259348106E+03 -0.11357636440E+04 -0.16259445662E+04  0.20006524246E+04  0.25500000920E-02 0.  1.
</event>
<event>
 5   0  0.2632875E-08  0.3875596E+04  0.7818609E-02  0.8030124E-01
        1   -1    0    0  501    0  0.00000000000E+00  0.00000000000E+00  0.16821488940E+04  0.16821488940E+04  0.50400001928E-02 0.  1.
       -1   -1    0    0    0  501  0.00000000000E+00  0.00000000000E+00 -0.22323004429E+04  0.22323004429E+04  0.50400001928E-02 0. -1.
    10030    2    1    2    0    0  0.00000000000E+00  0.00000000000E+00 -0.55015154889E+03  0.39144493369E+04  0.38755963263E+04 0.  0.
        1    1    3    3  502    0  0.89415008930E+03 -0.64500049563E+01  0.14613202347E+04  0.17131849909E+04  0.50400001928E-02 0.  1.
       -1    1    3    3    0  502 -0.89415008930E+03  0.64500049563E+01 -0.20114717836E+04  0.22012643460E+04  0.50400001928E-02 0. -1.
</event>
<event>
 5   0  0.2632875E-08  0.3930860E+04  0.7818609E-02  0.8018641E-01
       -1   -1    0    0    0  501  0.00000000000E+00  0.00000000000E+00  0.17250083126E+04  0.17250083126E+04  0.50400001928E-02 0. -1.
        1   -1    0    0  501    0  0.00000000000E+00  0.00000000000E+00 -0.22393601388E+04  0.22393601388E+04  0.50400001928E-02 0.  1.
    10030    2    1    2    0    0  0.00000000000E+00  0.00000000000E+00 -0.51435182621E+03  0.39643684514E+04  0.39308598827E+04 0.  0.
        3    1    3    3  502    0 -0.11524506492E+04  0.11708190827E+04  0.83088835130E+03  0.18410147435E+04  0.10100000352E+00 0. -1.
       -3    1    3    3    0  502  0.11524506492E+04 -0.11708190827E+04 -0.13452401775E+04  0.21233537079E+04  0.10100000352E+00 0.  1.
</event>
<event>
 5   0  0.8676098E-08  0.3853412E+04  0.7818609E-02  0.8034789E-01
       -2   -1    0    0    0  501  0.00000000000E+00  0.00000000000E+00  0.19601630089E+04  0.19601630089E+04  0.25500000920E-02 0. -1.
        2   -1    0    0  501    0  0.00000000000E+00  0.00000000000E+00 -0.18938203731E+04  0.18938203731E+04  0.25500000920E-02 0.  1.
    10030    2    1    2    0    0  0.00000000000E+00  0.00000000000E+00  0.66342635740E+02  0.38539833820E+04  0.38534123272E+04 0.  0.
        3    1    3    3  502    0 -0.78239184960E+03 -0.91544539929E+03 -0.14710526791E+04  0.19010979144E+04  0.10100000352E+00 0.  1.
       -3    1    3    3    0  502  0.78239184960E+03  0.91544539929E+03  0.15373953148E+04  0.19528854676E+04  0.10100000352E+00 0. -1.
</event>
<event>
 5   0  0.8342802E-08  0.3889712E+04  0.7818609E-02  0.8027172E-01
       -2   -1    0    0    0  501  0.00000000000E+00  0.00000000000E+00  0.19612350191E+04  0.19612350191E+04  0.25500000920E-02 0. -1.
        2   -1    0    0  501    0  0.00000000000E+00  0.00000000000E+00 -0.19286138641E+04  0.19286138641E+04  0.25500000920E-02 0.  1.
    10030    2    1    2    0    0  0.00000000000E+00  0.00000000000E+00  0.32621155060E+02  0.38898488832E+04  0.38897120966E+04 0.  0.
        4    1    3    3  502    0 -0.14057615478E+04 -0.64868059296E+03  0.11934294512E+04  0.19547960275E+04  0.12699999809E+01 0. -1.
       -4    1    3    3    0  502  0.14057615478E+04  0.64868059296E+03 -0.11608082962E+04  0.19350528557E+04  0.12699999809E+01 0.  1.
</event>
<event>
 5   0  0.2632875E-08  0.3905332E+04  0.7818609E-02  0.8023921E-01
        1   -1    0    0  501    0  0.00000000000E+00  0.00000000000E+00  0.25580046712E+04  0.25580046712E+04  0.50400001928E-02 0.  1.
       -1   -1    0    0    0  501  0.00000000000E+00  0.00000000000E+00 -0.14905777689E+04  0.14905777689E+04  0.50400001928E-02 0. -1.
    10030    2    1    2    0    0  0.00000000000E+00  0.00000000000E+00  0.10674269023E+04  0.40485824402E+04  0.39053321988E+04 0.  0.
        1    1    3    3  502    0  0.49873186625E+03 -0.14840421959E+04 -0.67604901044E+03  0.17053319261E+04  0.50400001928E-02 0. -1.
       -1    1    3    3    0  502 -0.49873186625E+03  0.14840421959E+04  0.17434759127E+04  0.23432505141E+04  0.50400001928E-02 0.  1.
</event>
<event>
 5   0  0.2632875E-08  0.3896687E+04  0.7818609E-02  0.8025719E-01
       -1   -1    0    0    0  501  0.00000000000E+00  0.00000000000E+00  0.15154628228E+04  0.15154628228E+04  0.50400001928E-02 0. -1.
        1   -1    0    0  501    0  0.00000000000E+00  0.00000000000E+00 -0.25048737649E+04  0.25048737649E+04  0.50400001928E-02 0.  1.
    10030    2    1    2    0    0  0.00000000000E+00  0.00000000000E+00 -0.98941094209E+03  0.40203365876E+04  0.38966873451E+04 0.  0.
        5    1    3    3  502    0  0.27281089345E+03 -0.10274725333E+04  0.11898619786E+04  0.15955936852E+04  0.46999998093E+01 0. -1.
       -5    1    3    3    0  502 -0.27281089345E+03  0.10274725333E+04 -0.21792729206E+04  0.24247429024E+04  0.46999998093E+01 0.  1.
</event>
<event>
 5   0  0.8676098E-08  0.3865462E+04  0.7818609E-02  0.8032251E-01
       -2   -1    0    0    0  501  0.00000000000E+00  0.00000000000E+00  0.16776733996E+04  0.16776733996E+04  0.25500000920E-02 0. -1.
        2   -1    0    0  501    0  0.00000000000E+00  0.00000000000E+00 -0.22265656490E+04  0.22265656490E+04  0.25500000920E-02 0.  1.
    10030    2    1    2    0    0  0.00000000000E+00  0.00000000000E+00 -0.54889224949E+03  0.39042390486E+04  0.38654624364E+04 0.  0.
        3    1    3    3  502    0 -0.16919548801E+04 -0.65852092053E+03  0.39483894861E+03  0.18580255447E+04  0.10100000352E+00 0.  1.
       -3    1    3    3    0  502  0.16919548801E+04  0.65852092053E+03 -0.94373119810E+03  0.20462135039E+04  0.10100000352E+00 0. -1.
</event>
<event>
 5   0  0.2632875E-08  0.3901464E+04  0.7818609E-02  0.8024725E-01
        1   -1    0    0  501    0  0.00000000000E+00  0.00000000000E+00  0.26174252521E+04  0.26174252521E+04  0.50400001928E-02 0. -1.
       -1   -1    0    0    0  501  0.00000000000E+00  0.00000000000E+00 -0.14538540860E+04  0.14538540860E+04  0.50400001928E-02 0.  1.
    10030    2    1    2    0    0  0.00000000000E+00  0.00000000000E+00  0.11635711661E+04  0.40712793380E+04  0.39014635190E+04 0.  0.
        4    1    3    3  502    0  0.49878056419E+03 -0.25835728022E+03 -0.13676325630E+04  0.14784961873E+04  0.12699999809E+01 0.  1.
       -4    1    3    3    0  502 -0.49878056419E+03  0.25835728022E+03  0.25312037291E+04  0.25927831508E+04  0.12699999809E+01 0. -1.
</event>
<event>
 5   0  0.8676098E-08  0.3911776E+04  0.7818609E-02  0.8022584E-01
        2   -1    0    0  501    0  0.00000000000E+00  0.00000000000E+00  0.33952715329E+04  0.33952715329E+04  0.25500000920E-02 0.  1.
       -2   -1    0    0    0  501  0.00000000000E+00  0.00000000000E+00 -0.11267134688E+04  0.11267134688E+04  0.25500000920E-02 0. -1.
    10030    2    1    2    0    0  0.00000000000E+00  0.00000000000E+00  0.22685580641E+04  0.45219850018E+04  0.39117761523E+04 0.  0.
        3    1    3    3  502    0 -0.89161970194E+03  0.24451557361E+03  0.31267239269E+04  0.32605484330E+04  0.10100000352E+00 0.  1.
       -3    1    3    3    0  502  0.89161970194E+03 -0.24451557361E+03 -0.85816586283E+03  0.12614365687E+04  0.10100000352E+00 0. -1.
</event>
<event>
 5   0  0.2632875E-08  0.3907170E+04  0.7818609E-02  0.8023540E-01
       -1   -1    0    0    0  501  0.00000000000E+00  0.00000000000E+00  0.32944306736E+04  0.32944306736E+04  0.50400001928E-02 0.  1.
        1   -1    0    0  501    0  0.00000000000E+00  0.00000000000E+00 -0.11584687517E+04  0.11584687517E+04  0.50400001928E-02 0. -1.
    10030    2    1    2    0    0  0.00000000000E+00  0.00000000000E+00  0.21359619219E+04  0.44528994253E+04  0.39071703265E+04 0.  0.
        2    1    3    3  502    0 -0.69933523600E+03 -0.13735111115E+04  0.24360131751E+04  0.28826659076E+04  0.25500000920E-02 0.  1.
       -2    1    3    3    0  502  0.69933523600E+03  0.13735111115E+04 -0.30005125321E+03  0.15702335177E+04  0.25500000920E-02 0. -1.
</event>
<event>
 5   0  0.8438211E-08  0.3925558E+04  0.7818609E-02  0.8019734E-01
       -2   -1    0    0    0  501  0.00000000000E+00  0.00000000000E+00  0.12441619695E+04  0.12441619696E+04  0.25500000920E-02 0.  1.
        2   -1    0    0  501    0  0.00000000000E+00  0.00000000000E+00 -0.30964636482E+04  0.30964636482E+04  0.25500000920E-02 0. -1.
    10030    2    1    2    0    0  0.00000000000E+00  0.00000000000E+00 -0.18523016787E+04  0.43406256178E+04  0.39255584628E+04 0.  0.
        5    1    3    3  502    0 -0.11535150111E+04  0.12294219043E+04  0.18532147427E+03  0.16960074406E+04  0.46999998093E+01 0.  1.
       -5    1    3    3    0  502  0.11535150111E+04 -0.12294219043E+04 -0.20376231530E+04  0.26446181772E+04  0.46999998093E+01 0. -1.
</event>
<event>
 5   0  0.2632875E-08  0.3945216E+04  0.7818609E-02  0.8015690E-01
        1   -1    0    0  501    0  0.00000000000E+00  0.00000000000E+00  0.17468003235E+04  0.17468003235E+04  0.50400001928E-02 0. -1.
       -1   -1    0    0    0  501  0.00000000000E+00  0.00000000000E+00 -0.22276057607E+04  0.22276057607E+04  0.50400001928E-02 0.  1.
    10030    2    1    2    0    0  0.00000000000E+00  0.00000000000E+00 -0.48080543722E+03  0.39744060843E+04  0.39452160719E+04 0.  0.
        1    1    3    3  502    0 -0.11953164112E+04 -0.30150735915E+03  0.13109569686E+04  0.17995266556E+04  0.50400001928E-02 0. -1.
       -1    1    3    3    0  502  0.11953164112E+04  0.30150735915E+03 -0.17917624058E+04  0.21748794287E+04  0.50400001928E-02 0.  1.
</event>
<event>
 5   0  0.2632875E-08  0.3860131E+04  0.7818609E-02  0.8033373E-01
       -1   -1    0    0    0  501  0.00000000000E+00  0.00000000000E+00  0.18027567125E+04  0.18027567125E+04  0.50400001928E-02 0. -1.
        1   -1    0    0  501    0  0.00000000000E+00  0.00000000000E+00 -0.20663651554E+04  0.20663651554E+04  0.50400001928E-02 0.  1.
    10030    2    1    2    0    0  0.00000000000E+00  0.00000000000E+00 -0.26360844289E+03  0.38691218679E+04  0.38601314249E+04 0.  0.
        1    1    3    3  502    0 -0.47243081719E+03  0.17511915451E+04 -0.79310667911E+03  0.19796163540E+04  0.50400001928E-02 0.  1.
       -1    1    3    3    0  502  0.47243081719E+03 -0.17511915451E+04  0.52949823622E+03  0.18895055139E+04  0.50400001928E-02 0. -1.
</event>
<event>
 5   0  0.8676098E-08  0.3916368E+04  0.7818609E-02  0.8021634E-01
        2   -1    0    0  501    0  0.00000000000E+00  0.00000000000E+00  0.21114633428E+04  0.21114633428E+04  0.25500000920E-02 0.  1.
       -2   -1    0    0    0  501  0.00000000000E+00  0.00000000000E+00 -0.18160316585E+04  0.18160316585E+04  0.25500000920E-02 0. -1.
    10030    2    1    2    0    0  0.00000000000E+00  0.00000000000E+00  0.29543168435E+03  0.39274950013E+04  0.39163678460E+04 0.  0.
        3    1    3    3  502    0  0.12666633626E+04  0.12442699266E+04 -0.68036659730E+03  0.19014579778E+04  0.10100000352E+00 0. -1.
       -3    1    3    3    0  502 -0.12666633626E+04 -0.12442699266E+04  0.97579828165E+03  0.20260370236E+04  0.10100000352E+00 0.  1.
</event>
<event>
 5   0  0.2632875E-08  0.3936455E+04  0.7818609E-02  0.8017490E-01
        1   -1    0    0  501    0  0.00000000000E+00  0.00000000000E+00  0.15325943803E+04  0.15325943803E+04  0.50400001928E-02 0. -1.
       -1   -1    0    0    0  501  0.00000000000E+00  0.00000000000E+00 -0.25276879800E+04  0.25276879801E+04  0.50400001928E-02 0.  1.
    10030    2    1    2    0    0  0.00000000000E+00  0.00000000000E+00 -0.99509359976E+03  0.40602823603E+04  0.39364554581E+04 0.  0.
        4    1    3    3  502    0 -0.80333709769E+03 -0.54308001176E+03  0.12691163103E+04  0.15971675597E+04  0.12699999809E+01 0. -1.
       -4    1    3    3    0  502  0.80333709769E+03  0.54308001176E+03 -0.22642099100E+04  0.24631148007E+04  0.12699999809E+01 0.  1.
</event>
<event>
 5   0  0.2632875E-08  0.3896299E+04  0.7818609E-02  0.8025799E-01
       -1   -1    0    0    0  501  0.00000000000E+00  0.00000000000E+00  0.26232954657E+04  0.26232954657E+04  0.50400001928E-02 0.  1.
        1   -1    0    0  501    0  0.00000000000E+00  0.00000000000E+00 -0.14467632114E+04  0.14467632114E+04  0.50400001928E-02 0. -1.
    10030    2    1    2    0    0  0.00000000000E+00  0.00000000000E+00  0.11765322544E+04  0.40700586771E+04  0.38962994610E+04 0.  0.
        1    1    3    3  502    0 -0.15564995027E+03 -0.10443904058E+04  0.22984420433E+04  0.25293900556E+04  0.50400001928E-02 0.  1.
       -1    1    3    3    0  502  0.15564995027E+03  0.10443904058E+04 -0.11219097889E+04  0.15406686215E+04  0.50400001928E-02 0. -1.
</event>
<event>
 5   0  0.8438211E-08  0.3881757E+04  0.7818609E-02  0.8028834E-01
        2   -1    0    0  501    0  0.00000000000E+00  0.00000000000E+00  0.25263541373E+04  0.25263541373E+04  0.25500000920E-02 0. -1.
       -2   -1    0    0    0  501  0.00000000000E+00  0.00000000000E+00 -0.14910855295E+04  0.14910855295E+04  0.25500000920E-02 0.  1.
    10030    2    1    2    0    0  0.00000000000E+00  0.00000000000E+00  0.10352686078E+04  0.40174396668E+04  0.38817573837E+04 0.  0.
        5    1    3    3  502    0 -0.34237487096E+03 -0.12663741047E+04 -0.96277085970E+03  0.16272288541E+04  0.46999998093E+01 0.  1.
       -5    1    3    3    0  502  0.34237487096E+03  0.12663741047E+04  0.19980394675E+04  0.23902108127E+04  0.46999998093E+01 0. -1.
</event>
<event>
 5   0  0.2632875E-08  0.3887808E+04  0.7818609E-02  0.8027570E-01
        1   -1    0    0  501    0  0.00000000000E+00  0.00000000000E+00  0.12016509043E+04  0.12016509043E+04  0.50400001928E-02 0.  1.
       -1   -1    0    0    0  501  0.00000000000E+00  0.00000000000E+00 -0.31446422001E+04  0.31446422001E+04  0.50400001928E-02 0. -1.
    10030    2    1    2    0    0  0.00000000000E+00  0.00000000000E+00 -0.19429912958E+04  0.43462931044E+04  0.38878076822E+04 0.  0.
        5    1    3    3  502    0  0.57848537031E+02  0.19078997680E+04 -0.13827234940E+04  0.23569841596E+04  0.46999998093E+01 0. -1.
       -5    1    3    3    0  502 -0.57848537031E+02 -0.19078997680E+04 -0.56026780179E+03  0.19893089447E+04  0.46999998093E+01 0.  1.
</event>
<event>
 5   0  0.8676098E-08  0.3905551E+04  0.7818609E-02  0.8023876E-01
       -2   -1    0    0    0  501  0.00000000000E+00  0.00000000000E+00  0.27648266039E+04  0.27648266039E+04  0.25500000920E-02 0. -1.
        2   -1    0    0  501    0  0.00000000000E+00  0.00000000000E+00 -0.13792302274E+04  0.13792302274E+04  0.25500000920E-02 0.  1.
    10030    2    1    2    0    0  0.00000000000E+00  0.00000000000E+00  0.13855963765E+04  0.41440568313E+04  0.39055511394E+04 0.  0.
        3    1    3    3  502    0  0.49545977633E+03 -0.29725913399E+02 -0.13111800657E+04  0.14019833076E+04  0.10100000352E+00 0.  1.
       -3    1    3    3    0  502 -0.49545977633E+03  0.29725913399E+02  0.26967764422E+04  0.27420735237E+04  0.10100000352E+00 0. -1.
</event>
<event>
 5   0  0.2632875E-08  0.3688065E+04  0.7818609E-02  0.8070612E-01
        1   -1    0    0  501    0  0.00000000000E+00  0.00000000000E+00  0.18329061680E+04  0.18329061680E+04  0.50400001928E-02 0. -1.
       -1   -1    0    0    0  501  0.00000000000E+00  0.00000000000E+00 -0.18552267140E+04  0.18552267140E+04  0.50400001928E-02 0.  1.
    10030    2    1    2    0    0  0.00000000000E+00  0.00000000000E+00 -0.22320546061E+02  0.36881328820E+04  0.36880653395E+04 0.  0.
        2    1    3    3  502    0 -0.26121559504E+03 -0.16474921673E+04  0.77497908764E+03  0.18393087329E+04  0.25500000920E-02 0. -1.
       -2    1    3    3    0  502  0.26121559504E+03  0.16474921673E+04 -0.79729963371E+03  0.18488241491E+04  0.25500000920E-02 0.  1.
</event>
<event>
 5   0  0.2632875E-08  0.3900805E+04  0.7818609E-02  0.8024862E-01
        1   -1    0    0  501    0  0.00000000000E+00  0.00000000000E+00  0.24116605139E+04  0.24116605139E+04  0.50400001928E-02 0.  1.
       -1   -1    0    0    0  501  0.00000000000E+00  0.00000000000E+00 -0.15773653767E+04  0.15773653767E+04  0.50400001928E-02 0. -1.
    10030    2    1    2    0    0  0.00000000000E+00  0.00000000000E+00  0.83429513728E+03  0.39890258906E+04  0.39008049400E+04 0.  0.
        4    1    3    3  502    0 -0.10551838921E+04 -0.68450674540E+03  0.19415336443E+04  0.23133346138E+04  0.12699999809E+01 0.  1.
       -4    1    3    3    0  502  0.10551838921E+04  0.68450674540E+03 -0.11072385071E+04  0.16756912768E+04  0.12699999809E+01 0. -1.
</event>
<event>
 5   0  0.2632875E-08  0.3923412E+04  0.7818609E-02  0.8020178E-01
       -1   -1    0    0    0  501  0.00000000000E+00  0.00000000000E+00  0.23983342249E+04  0.23983342249E+04  0.50400001928E-02 0. -1.
        1   -1    0    0  501    0  0.00000000000E+00  0.00000000000E+00 -0.16045677807E+04  0.16045677807E+04  0.50400001928E-02 0.  1.
    10030    2    1    2    0    0  0.00000000000E+00  0.00000000000E+00  0.79376644419E+03  0.40029020056E+04  0.39234116912E+04 0.  0.
        1    1    3    3  502    0  0.22214394949E+03 -0.99785559555E+03 -0.13113223751E+04  0.16627176836E+04  0.50400001928E-02 0.  1.
       -1    1    3    3    0  502 -0.22214394949E+03  0.99785559555E+03  0.21050888193E+04  0.23401843220E+04  0.50400001928E-02 0. -1.
</event>
<event>
 5   0  0.2632875E-08  0.3897069E+04  0.7818609E-02  0.8025639E-01
        1   -1    0    0  501    0  0.00000000000E+00  0.00000000000E+00  0.18716724746E+04  0.18716724746E+04  0.50400001928E-02 0. -1.
       -1   -1    0    0    0  501  0.00000000000E+00  0.00000000000E+00 -0.20285525034E+04  0.20285525034E+04  0.50400001928E-02 0.  1.
    10030    2    1    2    0    0  0.00000000000E+00  0.00000000000E+00 -0.15688002876E+03  0.39002249780E+04  0.38970685824E+04 0.  0.
        4    1    3    3  502    0 -0.98965830254E+03 -0.35300133213E+03 -0.17207294163E+04  0.20161708344E+04  0.12699999809E+01 0.  1.
       -4    1    3    3    0  502  0.98965830254E+03  0.35300133213E+03  0.15638493876E+04  0.18840541437E+04  0.12699999809E+01 0. -1.
</event>
<event>
 5   0  0.8476262E-08  0.3902297E+04  0.7818609E-02  0.8024552E-01
       -2   -1    0    0    0  501  0.00000000000E+00  0.00000000000E+00  0.19976462331E+04  0.19976462331E+04  0.25500000920E-02 0.  1.
        2   -1    0    0  501    0  0.00000000000E+00  0.00000000000E+00 -0.19057327949E+04  0.19057327949E+04  0.25500000920E-02 0. -1.
    10030    2    1    2    0    0  0.00000000000E+00  0.00000000000E+00  0.91913438203E+02  0.39033790280E+04  0.39022967284E+04 0.  0.
        2    1    3    3  502    0  0.26703988787E+03 -0.11105198911E+04  0.16282978606E+04  0.19889491328E+04  0.25500000920E-02 0.  1.
       -2    1    3    3    0  502 -0.26703988787E+03  0.11105198911E+04 -0.15363844224E+04  0.19144298952E+04  0.25500000920E-02 0. -1.
</event>
<event>
 5   0  0.8551754E-08  0.3950914E+04  0.7818609E-02  0.8014523E-01
        2   -1    0    0  501    0  0.00000000000E+00  0.00000000000E+00  0.21473270327E+04  0.21473270327E+04  0.25500000920E-02 0. -1.
       -2   -1    0    0    0  501  0.00000000000E+00  0.00000000000E+00 -0.18173430496E+04  0.18173430496E+04  0.25500000920E-02 0.  1.
    10030    2    1    2    0    0  0.00000000000E+00  0.00000000000E+00  0.32998398311E+03  0.39646700823E+04  0.39509137465E+04 0.  0.
        1    1    3    3  502    0  0.11188030000E+04  0.12692445830E+04  0.11882127746E+04  0.20674988663E+04  0.50400001928E-02 0. -1.
       -1    1    3    3    0  502 -0.11188030000E+04 -0.12692445830E+04 -0.85822879151E+03  0.18971712160E+04  0.50400001928E-02 0.  1.
</event>
<event>
 5   0  0.8676098E-08  0.3809343E+04  0.7818609E-02  0.8044153E-01
       -2   -1    0    0    0  501  0.00000000000E+00  0.00000000000E+00  0.27006707283E+04  0.27006707283E+04  0.25500000920E-02 0.  1.
        2   -1    0    0  501    0  0.00000000000E+00  0.00000000000E+00 -0.13432861791E+04  0.13432861791E+04  0.25500000920E-02 0. -1.
    10030    2    1    2    0    0  0.00000000000E+00  0.00000000000E+00  0.13573845491E+04  0.40439569074E+04  0.38093430739E+04 0.  0.
        3    1    3    3  502    0  0.12510137606E+04  0.47249608914E+03  0.21185004528E+04  0.25052608970E+04  0.10100000352E+00 0.  1.
       -3    1    3    3    0  502 -0.12510137606E+04 -0.47249608914E+03 -0.76111590366E+03  0.15386960104E+04  0.10100000352E+00 0. -1.
</event>
<event>
 5   0  0.8551754E-08  0.3905835E+04  0.7818609E-02  0.8023817E-01
        2   -1    0    0  501    0  0.00000000000E+00  0.00000000000E+00  0.25307200232E+04  0.25307200232E+04  0.25500000920E-02 0. -1.
       -2   -1    0    0    0  501  0.00000000000E+00  0.00000000000E+00 -0.15070365558E+04  0.15070365558E+04  0.25500000920E-02 0.  1.
    10030    2    1    2    0    0  0.00000000000E+00  0.00000000000E+00  0.10236834674E+04  0.40377565789E+04  0.39058354227E+04 0.  0.
        1    1    3    3  502    0 -0.93006350312E+03 -0.10490714458E+03 -0.12600697970E+04  0.15696494902E+04  0.50400001928E-02 0.  1.
       -1    1    3    3    0  502  0.93006350312E+03  0.10490714458E+03  0.22837532644E+04  0.24681070887E+04  0.50400001928E-02 0. -1.
</event>
<event>
 5   0  0.8342802E-08  0.3749265E+04  0.7818609E-02  0.8057131E-01
       -2   -1    0    0    0  501  0.00000000000E+00  0.00000000000E+00  0.14993756788E+04  0.14993756788E+04  0.25500000920E-02 0. -1.
        2   -1    0    0  501    0  0.00000000000E+00  0.00000000000E+00 -0.23438070594E+04  0.23438070594E+04  0.25500000920E-02 0.  1.
    10030    2    1    2    0    0  0.00000000000E+00  0.00000000000E+00 -0.84443138056E+03  0.38431827382E+04  0.37492651550E+04 0.  0.
        4    1    3    3  502    0 -0.15118478722E+04  0.10837776490E+04 -0.18404280425E+03  0.18692595721E+04  0.12699999809E+01 0. -1.
       -4    1    3    3    0  502  0.15118478722E+04 -0.10837776490E+04 -0.66038857632E+03  0.19739231661E+04  0.12699999809E+01 0.  1.
</event>
<event>
 5   0  0.2632875E-08  0.3903567E+04  0.7818609E-02  0.8024288E-01
        1   -1    0    0  501    0  0.00000000000E+00  0.00000000000E+00  0.23533046340E+04  0.23533046340E+04  0.50400001928E-02 0.  1.
       -1   -1    0    0    0  501  0.00000000000E+00  0.00000000000E+00 -0.16187696174E+04  0.16187696174E+04  0.50400001928E-02 0. -1.
    10030    2    1    2    0    0  0.00000000000E+00  0.00000000000E+00  0.73453501659E+03  0.39720742514E+04  0.39035665959E+04 0.  0.
        3    1    3    3  502    0 -0.17831124389E+04  0.77381353066E+03  0.54694702461E+03  0.20192643234E+04  0.10100000352E+00 0.  1.
       -3    1    3    3    0  502  0.17831124389E+04 -0.77381353066E+03  0.18758799198E+03  0.19528099280E+04  0.10100000352E+00 0. -1.
</event>
<event>
 5   0  0.2632875E-08  0.3944791E+04  0.7818609E-02  0.8015778E-01
        1   -1    0    0  501    0  0.00000000000E+00  0.00000000000E+00  0.21773547147E+04  0.21773547147E+04  0.50400001928E-02 0.  1.
       -1   -1    0    0    0  501  0.00000000000E+00  0.00000000000E+00 -0.17867294386E+04  0.17867294386E+04  0.50400001928E-02 0. -1.
    10030    2    1    2    0    0  0.00000000000E+00  0.00000000000E+00  0.39062527611E+03  0.39640841532E+04  0.39447908776E+04 0.  0.
        1    1    3    3  502    0 -0.99868975501E+02  0.19629859864E+04  0.30021165438E+02  0.19657540705E+04  0.50400001928E-02 0. -1.
       -1    1    3    3    0  502  0.99868975501E+02 -0.19629859864E+04  0.36060411067E+03  0.19983300828E+04  0.50400001928E-02 0.  1.
</event>
<event>
 5   0  0.2632875E-08  0.3910847E+04  0.7818609E-02  0.8022777E-01
       -1   -1    0    0    0  501  0.00000000000E+00  0.00000000000E+00  0.20668789838E+04  0.20668789838E+04  0.50400001928E-02 0. -1.
        1   -1    0    0  501    0  0.00000000000E+00  0.00000000000E+00 -0.18499783600E+04  0.18499783600E+04  0.50400001928E-02 0.  1.
    10030    2    1    2    0    0  0.00000000000E+00  0.00000000000E+00  0.21690062379E+03  0.39168573438E+04  0.39108471679E+04 0.  0.
        1    1    3    3  502    0 -0.76702370279E+03 -0.58598363577E+03 -0.15947451576E+04  0.18641122015E+04  0.50400001928E-02 0.  1.
       -1    1    3    3    0  502  0.76702370279E+03  0.58598363577E+03  0.18116457814E+04  0.20527451423E+04  0.50400001928E-02 0. -1.
</event>
<event>
 5   0  0.2632875E-08  0.3909255E+04  0.7818609E-02  0.8023107E-01
        1   -1    0    0  501    0  0.00000000000E+00  0.00000000000E+00  0.26200091616E+04  0.26200091616E+04  0.50400001928E-02 0. -1.
       -1   -1    0    0    0  501  0.00000000000E+00  0.00000000000E+00 -0.14582271306E+04  0.14582271306E+04  0.50400001928E-02 0.  1.
    10030    2    1    2    0    0  0.00000000000E+00  0.00000000000E+00  0.11617820311E+04  0.40782362922E+04  0.39092548865E+04 0.  0.
        4    1    3    3  502    0  0.97681817637E+03  0.11444347286E+04 -0.72070314531E+03  0.16683282753E+04  0.12699999809E+01 0.  1.
       -4    1    3    3    0  502 -0.97681817637E+03 -0.11444347286E+04  0.18824851764E+04  0.24099080169E+04  0.12699999809E+01 0. -1.
</event>
<event>
 5   0  0.2632875E-08  0.3944165E+04  0.7818609E-02  0.8015906E-01
        1   -1    0    0  501    0  0.00000000000E+00  0.00000000000E+00  0.22434664416E+04  0.22434664416E+04  0.50400001928E-02 0. -1.
       -1   -1    0    0    0  501  0.00000000000E+00  0.00000000000E+00 -0.17335267323E+04  0.17335267323E+04  0.50400001928E-02 0.  1.
    10030    2    1    2    0    0  0.00000000000E+00  0.00000000000E+00  0.50993970926E+03  0.39769931739E+04  0.39441648290E+04 0.  0.
        3    1    3    3  502    0 -0.18269241584E+03 -0.10483657653E+03  0.22320914505E+04  0.22420079126E+04  0.10100000352E+00 0. -1.
       -3    1    3    3    0  502  0.18269241584E+03  0.10483657653E+03 -0.17221517413E+04  0.17349852613E+04  0.10100000352E+00 0.  1.
</event>
<event>
 5   0  0.8342802E-08  0.3904355E+04  0.7818609E-02  0.8024124E-01
       -2   -1    0    0    0  501  0.00000000000E+00  0.00000000000E+00  0.15861329917E+04  0.15861329917E+04  0.25500000920E-02 0.  1.
        2   -1    0    0  501    0  0.00000000000E+00  0.00000000000E+00 -0.24026973670E+04  0.24026973670E+04  0.25500000920E-02 0. -1.
    10030    2    1    2    0    0  0.00000000000E+00  0.00000000000E+00 -0.81656437530E+03  0.39888303586E+04  0.39043552926E+04 0.  0.
        4    1    3    3  502    0 -0.21405646556E+03 -0.14282726565E+04 -0.17501742878E+04  0.22691175823E+04  0.12699999809E+01 0. -1.
       -4    1    3    3    0  502  0.21405646556E+03  0.14282726565E+04  0.93360991246E+03  0.17197127764E+04  0.12699999809E+01 0.  1.
</event>
<event>
 5   0  0.2632875E-08  0.3902211E+04  0.7818609E-02  0.8024569E-01
       -1   -1    0    0    0  501  0.00000000000E+00  0.00000000000E+00  0.17292881352E+04  0.17292881352E+04  0.50400001928E-02 0. -1.
        1   -1    0    0  501    0  0.00000000000E+00  0.00000000000E+00 -0.22013760630E+04  0.22013760630E+04  0.50400001928E-02 0.  1.
    10030    2    1    2    0    0  0.00000000000E+00  0.00000000000E+00 -0.47208792787E+03  0.39306641982E+04  0.39022114278E+04 0.  0.
        2    1    3    3  502    0  0.86930213458E+03 -0.10605447540E+03  0.15201939522E+04  0.17544011529E+04  0.25500000920E-02 0. -1.
       -2    1    3    3    0  502 -0.86930213458E+03  0.10605447540E+03 -0.19922818800E+04  0.21762630453E+04  0.25500000920E-02 0.  1.
</event>
<event>
 5   0  0.2632875E-08  0.3892973E+04  0.7818609E-02  0.8026492E-01
        1   -1    0    0  501    0  0.00000000000E+00  0.00000000000E+00  0.25815325357E+04  0.25815325357E+04  0.50400001928E-02 0. -1.
       -1   -1    0    0    0  501  0.00000000000E+00  0.00000000000E+00 -0.14676588557E+04  0.14676588557E+04  0.50400001928E-02 0.  1.
    10030    2    1    2    0    0  0.00000000000E+00  0.00000000000E+00  0.11138736799E+04  0.40491913914E+04  0.38929726879E+04 0.  0.
        3    1    3    3  502    0 -0.73270713500E+03  0.85264013489E+03  0.22097116860E+04  0.24792500259E+04  0.10100000352E+00 0. -1.
       -3    1    3    3    0  502  0.73270713500E+03 -0.85264013489E+03 -0.10958380061E+04  0.15699413655E+04  0.10100000352E+00 0.  1.
</event>
<event>
 5   0  0.8438211E-08  0.3881000E+04  0.7818609E-02  0.8028993E-01
        2   -1    0    0  501    0  0.00000000000E+00  0.00000000000E+00  0.22428407514E+04  0.22428407514E+04  0.25500000920E-02 0. -1.
       -2   -1    0    0    0  501  0.00000000000E+00  0.00000000000E+00 -0.16789151699E+04  0.16789151699E+04  0.25500000920E-02 0.  1.
    10030    2    1    2    0    0  0.00000000000E+00  0.00000000000E+00  0.56392558150E+03  0.39217559213E+04  0.38809995420E+04 0.  0.
        5    1    3    3  502    0  0.13140447896E+04 -0.11124182526E+04  0.11865333566E+04  0.20909499214E+04  0.46999998093E+01 0. -1.
       -5    1    3    3    0  502 -0.13140447896E+04  0.11124182526E+04 -0.62260777506E+03  0.18308059999E+04  0.46999998093E+01 0.  1.
</event>
<event>
 5   0  0.2632875E-08  0.3887144E+04  0.7818609E-02  0.8027708E-01
       -1   -1    0    0    0  501  0.00000000000E+00  0.00000000000E+00  0.25168849695E+04  0.25168849695E+04  0.50400001928E-02 0.  1.
        1   -1    0    0  501    0  0.00000000000E+00  0.00000000000E+00 -0.15008519626E+04  0.15008519627E+04  0.50400001928E-02 0. -1.
    10030    2    1    2    0    0  0.00000000000E+00  0.00000000000E+00  0.10160330069E+04  0.40177369322E+04  0.38871438081E+04 0.  0.
        2    1    3    3  502    0 -0.90886280031E+03 -0.11787595500E+03 -0.12634917663E+04  0.15608772451E+04  0.25500000920E-02 0. -1.
       -2    1    3    3    0  502  0.90886280031E+03  0.11787595500E+03  0.22795247732E+04  0.24568596871E+04  0.25500000920E-02 0.  1.
</event>
<event>
 5   0  0.2632875E-08  0.3854632E+04  0.7818609E-02  0.8034532E-01
        1   -1    0    0  501    0  0.00000000000E+00  0.00000000000E+00  0.13710856982E+04  0.13710856982E+04  0.50400001928E-02 0. -1.
       -1   -1    0    0    0  501  0.00000000000E+00  0.00000000000E+00 -0.27092013508E+04  0.27092013508E+04  0.50400001928E-02 0.  1.
    10030    2    1    2    0    0  0.00000000000E+00  0.00000000000E+00 -0.13381156527E+04  0.40802870490E+04  0.38546321358E+04 0.  0.
        5    1    3    3  502    0  0.88875557631E+03  0.16018371924E+04 -0.13030845002E+04  0.22480703214E+04  0.46999998093E+01 0. -1.
       -5    1    3    3    0  502 -0.88875557631E+03 -0.16018371924E+04 -0.35031152432E+02  0.18322167276E+04  0.46999998093E+01 0.  1.
</event>
<event>
 5   0  0.2632875E-08  0.3873594E+04  0.7818609E-02  0.8030544E-01
        1   -1    0    0  501    0  0.00000000000E+00  0.00000000000E+00  0.23059063260E+04  0.23059063260E+04  0.50400001928E-02 0. -1.
       -1   -1    0    0    0  501  0.00000000000E+00  0.00000000000E+00 -0.16267711352E+04  0.16267711352E+04  0.50400001928E-02 0.  1.
    10030    2    1    2    0    0  0.00000000000E+00  0.00000000000E+00  0.67913519082E+03  0.39326774612E+04  0.38735936036E+04 0.  0.
        5    1    3    3  502    0  0.65476367826E+03  0.88003827928E+03 -0.12810181651E+04  0.16864793141E+04  0.46999998093E+01 0.  1.
       -5    1    3    3    0  502 -0.65476367826E+03 -0.88003827928E+03  0.19601533559E+04  0.22461981471E+04  0.46999998093E+01 0. -1.
</event>
<event>
 5   0  0.8476262E-08  0.3899259E+04  0.7818609E-02  0.8025183E-01
       -2   -1    0    0    0  501  0.00000000000E+00  0.00000000000E+00  0.14845305286E+04  0.14845305286E+04  0.25500000920E-02 0. -1.
        2   -1    0    0  501    0  0.00000000000E+00  0.00000000000E+00 -0.25604423380E+04  0.25604423380E+04  0.25500000920E-02 0.  1.
    10030    2    1    2    0    0  0.00000000000E+00  0.00000000000E+00 -0.10759118094E+04  0.40449728665E+04  0.38992588103E+04 0.  0.
        2    1    3    3  502    0  0.15012043896E+04  0.10738655178E+04 -0.11893158974E+04  0.21957399832E+04  0.25500000920E-02 0.  1.
       -2    1    3    3    0  502 -0.15012043896E+04 -0.10738655178E+04  0.11340408802E+03  0.18492328834E+04  0.25500000920E-02 0. -1.
</event>
<event>
 5   0  0.8476262E-08  0.3897208E+04  0.7818609E-02  0.8025610E-01
       -2   -1    0    0    0  501  0.00000000000E+00  0.00000000000E+00  0.29587468148E+04  0.29587468148E+04  0.25500000920E-02 0. -1.
        2   -1    0    0  501    0  0.00000000000E+00  0.00000000000E+00 -0.12833327694E+04  0.12833327694E+04  0.25500000920E-02 0.  1.
    10030    2    1    2    0    0  0.00000000000E+00  0.00000000000E+00  0.16754140454E+04  0.42420795842E+04  0.38972075869E+04 0.  0.
        2    1    3    3  502    0  0.62583616054E+03  0.17790514611E+04  0.13713587809E+04  0.23318061470E+04  0.25500000920E-02 0.  1.
       -2    1    3    3    0  502 -0.62583616054E+03 -0.17790514611E+04  0.30405526453E+03  0.19102734373E+04  0.25500000920E-02 0. -1.
</event>
<event>
 5   0  0.8438211E-08  0.3902366E+04  0.7818609E-02  0.8024537E-01
       -2   -1    0    0    0  501  0.00000000000E+00  0.00000000000E+00  0.21900187039E+04  0.21900187039E+04  0.25500000920E-02 0.  1.
        2   -1    0    0  501    0  0.00000000000E+00  0.00000000000E+00 -0.17383936037E+04  0.17383936037E+04  0.25500000920E-02 0. -1.
    10030    2    1    2    0    0  0.00000000000E+00  0.00000000000E+00  0.45162510013E+03  0.39284123076E+04  0.39023656963E+04 0.  0.
        5    1    3    3  502    0 -0.91640515832E+03 -0.13454255353E+04 -0.85706430920E+03  0.18397145445E+04  0.46999998093E+01 0. -1.
       -5    1    3    3    0  502  0.91640515832E+03  0.13454255353E+04  0.13086894093E+04  0.20886977631E+04  0.46999998093E+01 0.  1.
</event>
<event>
 5   0  0.8342802E-08  0.3915754E+04  0.7818609E-02  0.8021761E-01
       -2   -1    0    0    0  501  0.00000000000E+00  0.00000000000E+00  0.22022367015E+04  0.22022367015E+04  0.25500000920E-02 0. -1.
        2   -1    0    0  501    0  0.00000000000E+00  0.00000000000E+00 -0.17406313486E+04  0.17406313486E+04  0.25500000920E-02 0.  1.
    10030    2    1    2    0    0  0.00000000000E+00  0.00000000000E+00  0.46160535286E+03  0.39428680501E+04  0.39157539451E+04 0.  0.
        4    1    3    3  502    0  0.47528779860E+02 -0.94501033741E+03 -0.14951188790E+04  0.17693743521E+04  0.12699999809E+01 0.  1.
       -4    1    3    3    0  502 -0.47528779860E+02  0.94501033741E+03  0.19567242318E+04  0.21734936980E+04  0.12699999809E+01 0. -1.
</event>
<event>
 5   0  0.2632875E-08  0.3889887E+04  0.7818609E-02  0.8027136E-01
       -1   -1    0    0    0  501  0.00000000000E+00  0.00000000000E+00  0.13461693103E+04  0.13461693103E+04  0.50400001928E-02 0. -1.
        1   -1    0    0  501    0  0.00000000000E+00  0.00000000000E+00 -0.28100510680E+04  0.28100510680E+04  0.50400001928E-02 0.  1.
    10030    2    1    2    0    0  0.00000000000E+00  0.00000000000E+00 -0.14638817578E+04  0.41562203783E+04  0.38898866349E+04 0.  0.
        3    1    3    3  502    0 -0.28392558519E+03  0.88468829540E+03 -0.25575893394E+04  0.27211303455E+04  0.10100000352E+00 0.  1.
       -3    1    3    3    0  502  0.28392558519E+03 -0.88468829540E+03  0.10937075816E+04  0.14350900328E+04  0.10100000352E+00 0. -1.
</event>
<event>
 5   0  0.8342802E-08  0.3906018E+04  0.7818609E-02  0.8023779E-01
       -2   -1    0    0    0  501  0.00000000000E+00  0.00000000000E+00  0.23513726878E+04  0.23513726878E+04  0.25500000920E-02 0. -1.
        2   -1    0    0  501    0  0.00000000000E+00  0.00000000000E+00 -0.16221354769E+04  0.16221354769E+04  0.25500000920E-02 0.  1.
    10030    2    1    2    0    0  0.00000000000E+00  0.00000000000E+00  0.72923721093E+03  0.39735081648E+04  0.39060184620E+04 0.  0.
        4    1    3    3  502    0 -0.17754591085E+03 -0.86200364644E+03  0.21382079871E+04  0.23122516831E+04  0.12699999809E+01 0. -1.
       -4    1    3    3    0  502  0.17754591085E+03  0.86200364644E+03 -0.14089707762E+04  0.16612564817E+04  0.12699999809E+01 0.  1.
</event>
<event>
 5   0  0.2632875E-08  0.3887838E+04  0.7818609E-02  0.8027563E-01
       -1   -1    0    0    0  501  0.00000000000E+00  0.00000000000E+00  0.17068527267E+04  0.17068527267E+04  0.50400001928E-02 0.  1.
        1   -1    0    0  501    0  0.00000000000E+00  0.00000000000E+00 -0.22139116968E+04  0.22139116968E+04  0.50400001928E-02 0. -1.
    10030    2    1    2    0    0  0.00000000000E+00  0.00000000000E+00 -0.50705897008E+03  0.39207644235E+04  0.38878380709E+04 0.  0.
        4    1    3    3  502    0 -0.18638751536E+04 -0.42832999003E+03 -0.60479307850E+03  0.20058099235E+04  0.12699999809E+01 0.  1.
       -4    1    3    3    0  502  0.18638751536E+04  0.42832999003E+03  0.97734108423E+02  0.19149545001E+04  0.12699999809E+01 0. -1.
</event>
<event>
 5   0  0.8551754E-08  0.3900901E+04  0.7818609E-02  0.8024842E-01
        2   -1    0    0  501    0  0.00000000000E+00  0.00000000000E+00  0.14752890618E+04  0.14752890618E+04  0.25500000920E-02 0.  1.
       -2   -1    0    0    0  501  0.00000000000E+00  0.00000000000E+00 -0.25786518558E+04  0.25786518558E+04  0.25500000920E-02 0. -1.
    10030    2    1    2    0    0  0.00000000000E+00  0.00000000000E+00 -0.11033627940E+04  0.40539409176E+04  0.39009008586E+04 0.  0.
        1    1    3    3  502    0 -0.14423194323E+04  0.12289005177E+04 -0.10321787621E+04  0.21577476275E+04  0.50400001928E-02 0. -1.
       -1    1    3    3    0  502  0.14423194323E+04 -0.12289005177E+04 -0.71184031967E+02  0.18961932901E+04  0.50400001928E-02 0.  1.
</event>
<event>
 5   0  0.2632875E-08  0.3918076E+04  0.7818609E-02  0.8021280E-01
       -1   -1    0    0    0  501  0.00000000000E+00  0.00000000000E+00  0.20162945811E+04  0.20162945811E+04  0.50400001928E-02 0. -1.
        1   -1    0    0  501    0  0.00000000000E+00  0.00000000000E+00 -0.19034077547E+04  0.19034077547E+04  0.50400001928E-02 0.  1.
    10030    2    1    2    0    0  0.00000000000E+00  0.00000000000E+00  0.11288682643E+03  0.39197023358E+04  0.39180764370E+04 0.  0.
        5    1    3    3  502    0 -0.79927209049E+03  0.33187434814E+02  0.18454448070E+04  0.20113741338E+04  0.46999998093E+01 0. -1.
       -5    1    3    3    0  502  0.79927209049E+03 -0.33187434814E+02 -0.17325579806E+04  0.19083282020E+04  0.46999998093E+01 0.  1.
</event>
<event>
 5   0  0.8676098E-08  0.3899134E+04  0.7818609E-02  0.8025209E-01
       -2   -1    0    0    0  501  0.00000000000E+00  0.00000000000E+00  0.11943384173E+04  0.11943384173E+04  0.25500000920E-02 0.  1.
        2   -1    0    0  501    0  0.00000000000E+00  0.00000000000E+00 -0.31823579207E+04  0.31823579207E+04  0.25500000920E-02 0. -1.
    10030    2    1    2    0    0  0.00000000000E+00  0.00000000000E+00 -0.19880195035E+04  0.43766963380E+04  0.38991344281E+04 0.  0.
        3    1    3    3  502    0 -0.73338028347E+03 -0.32118617877E+03 -0.29893104560E+04  0.30946702917E+04  0.10100000352E+00 0. -1.
       -3    1    3    3    0  502  0.73338028347E+03  0.32118617877E+03  0.10012909525E+04  0.12820260463E+04  0.10100000352E+00 0.  1.
</event>
<event>
 5   0  0.2632875E-08  0.3825918E+04  0.7818609E-02  0.8040616E-01
        1   -1    0    0  501    0  0.00000000000E+00  0.00000000000E+00  0.15776811884E+04  0.15776811884E+04  0.50400001928E-02 0. -1.
       -1   -1    0    0    0  501  0.00000000000E+00  0.00000000000E+00 -0.23194872109E+04  0.23194872109E+04  0.50400001928E-02 0.  1.
    10030    2    1    2    0    0  0.00000000000E+00  0.00000000000E+00 -0.74180602254E+03  0.38971683993E+04  0.38259175837E+04 0.  0.
        5    1    3    3  502    0 -0.46695805782E+03  0.81361041731E+03 -0.20690971261E+04  0.22718267421E+04  0.46999998093E+01 0.  1.
       -5    1    3    3    0  502  0.46695805782E+03 -0.81361041731E+03  0.13272911036E+04  0.16253416572E+04  0.46999998093E+01 0. -1.
</event>
<event>
 5   0  0.8551754E-08  0.3879867E+04  0.7818609E-02  0.8029229E-01
       -2   -1    0    0    0  501  0.00000000000E+00  0.00000000000E+00  0.28834423857E+04  0.28834423857E+04  0.25500000920E-02 0.  1.
        2   -1    0    0  501    0  0.00000000000E+00  0.00000000000E+00 -0.13051562548E+04  0.13051562548E+04  0.25500000920E-02 0. -1.
    10030    2    1    2    0    0  0.00000000000E+00  0.00000000000E+00  0.15782861308E+04  0.41885986405E+04  0.38798674540E+04 0.  0.
        1    1    3    3  502    0  0.18818439261E+04 -0.34662030663E+03  0.44459079695E+03  0.19644702024E+04  0.50400001928E-02 0. -1.
       -1    1    3    3    0  502 -0.18818439261E+04  0.34662030663E+03  0.11336953339E+04  0.22241284382E+04  0.50400001928E-02 0.  1.
</event>
<event>
 5   0  0.8676098E-08  0.3898514E+04  0.7818609E-02  0.8025338E-01
       -2   -1    0    0    0  501  0.00000000000E+00  0.00000000000E+00  0.15292777654E+04  0.15292777654E+04  0.25500000920E-02 0.  1.
        2   -1    0    0  501    0  0.00000000000E+00  0.00000000000E+00 -0.24845732127E+04  0.24845732127E+04  0.25500000920E-02 0. -1.
    10030    2    1    2    0    0  0.00000000000E+00  0.00000000000E+00 -0.95529544731E+03  0.40138509781E+04  0.38985138557E+04 0.  0.
        3    1    3    3  502    0 -0.12699285335E+04  0.13184522648E+04 -0.11672142386E+04  0.21710421331E+04  0.10100000352E+00 0. -1.
       -3    1    3    3    0  502  0.12699285335E+04 -0.13184522648E+04  0.21191879131E+03  0.18428088450E+04  0.10100000352E+00 0.  1.
</event>
<event>
 5   0  0.2632875E-08  0.3778692E+04  0.7818609E-02  0.8050743E-01
       -1   -1    0    0    0  501  0.00000000000E+00  0.00000000000E+00  0.19804678905E+04  0.19804678905E+04  0.50400001928E-02 0. -1.
        1   -1    0    0  501    0  0.00000000000E+00  0.00000000000E+00 -0.18024170788E+04  0.18024170789E+04  0.50400001928E-02 0.  1.
    10030    2    1    2    0    0  0.00000000000E+00  0.00000000000E+00  0.17805081164E+03  0.37828849694E+04  0.37786924458E+04 0.  0.
        4    1    3    3  502    0 -0.34368994927E+03  0.18363481518E+04 -0.19294330727E+03  0.18781709317E+04  0.12699999809E+01 0. -1.
       -4    1    3    3    0  502  0.34368994927E+03 -0.18363481518E+04  0.37099411891E+03  0.19047140376E+04  0.12699999809E+01 0.  1.
</event>
<event>
 5   0  0.2632875E-08  0.3889211E+04  0.7818609E-02  0.8027277E-01
        1   -1    0    0  501    0  0.00000000000E+00  0.00000000000E+00  0.12387405805E+04  0.12387405805E+04  0.50400001928E-02 0. -1.
       -1   -1    0    0    0  501  0.00000000000E+00  0.00000000000E+00 -0.30526888873E+04  0.30526888873E+04  0.50400001928E-02 0.  1.
    10030    2    1    2    0    0  0.00000000000E+00  0.00000000000E+00 -0.18139483068E+04  0.42914294678E+04  0.38892105134E+04 0.  0.
        4    1    3    3  502    0  0.64145765027E+03 -0.14772045603E+04  0.29564481390E+03  0.16373786059E+04  0.12699999809E+01 0. -1.
       -4    1    3    3    0  502 -0.64145765027E+03  0.14772045603E+04 -0.21095931207E+04  0.26540508619E+04  0.12699999809E+01 0.  1.
</event>
<event>
 5   0  0.8342802E-08  0.3900715E+04  0.7818609E-02  0.8024881E-01
       -2   -1    0    0    0  501  0.00000000000E+00  0.00000000000E+00  0.28823284109E+04  0.28823284109E+04  0.25500000920E-02 0.  1.
        2   -1    0    0  501    0  0.00000000000E+00  0.00000000000E+00 -0.13197293810E+04  0.13197293810E+04  0.25500000920E-02 0. -1.
    10030    2    1    2    0    0  0.00000000000E+00  0.00000000000E+00  0.15625990299E+04  0.42020577919E+04  0.39007145446E+04 0.  0.
        4    1    3    3  502    0  0.17805990761E+04  0.79264980753E+03  0.70463199438E+03  0.20725189137E+04  0.12699999809E+01 0.  1.
       -4    1    3    3    0  502 -0.17805990761E+04 -0.79264980753E+03  0.85796703549E+03  0.21295388782E+04  0.12699999809E+01 0. -1.
</event>
<event>
 5   0  0.8551754E-08  0.3891535E+04  0.7818609E-02  0.8026792E-01
       -2   -1    0    0    0  501  0.00000000000E+00  0.00000000000E+00  0.21354879140E+04  0.21354879140E+04  0.25500000920E-02 0.  1.
        2   -1    0    0  501    0  0.00000000000E+00  0.00000000000E+00 -0.17729019451E+04  0.17729019451E+04  0.25500000920E-02 0. -1.
    10030    2    1    2    0    0  0.00000000000E+00  0.00000000000E+00  0.36258596889E+03  0.39083898591E+04  0.38915347494E+04 0.  0.
        1    1    3    3  502    0 -0.89841089755E+03 -0.17211676914E+04  0.31010727864E+03  0.19661451846E+04  0.50400001928E-02 0. -1.
       -1    1    3    3    0  502  0.89841089755E+03  0.17211676914E+04  0.52478690250E+02  0.19422446745E+04  0.50400001928E-02 0.  1.
</event>
<event>
 5   0  0.2632875E-08  0.3888971E+04  0.7818609E-02  0.8027327E-01
        1   -1    0    0  501    0  0.00000000000E+00  0.00000000000E+00  0.19398197753E+04  0.19398197754E+04  0.50400001928E-02 0. -1.
       -1   -1    0    0    0  501  0.00000000000E+00  0.00000000000E+00 -0.19491622026E+04  0.19491622026E+04  0.50400001928E-02 0.  1.
    10030    2    1    2    0    0  0.00000000000E+00  0.00000000000E+00 -0.93424272509E+01  0.38889819780E+04  0.38889707564E+04 0.  0.
        1    1    3    3  502    0  0.30598064102E+03  0.14861489405E+04  0.12113752879E+04  0.19415697037E+04  0.50400001928E-02 0. -1.
       -1    1    3    3    0  502 -0.30598064102E+03 -0.14861489405E+04 -0.12207177152E+04  0.19474122743E+04  0.50400001928E-02 0.  1.
</event>
<event>
 5   0  0.8438211E-08  0.3913456E+04  0.7818609E-02  0.8022237E-01
       -2   -1    0    0    0  501  0.00000000000E+00  0.00000000000E+00  0.22821841541E+04  0.22821841541E+04  0.25500000920E-02 0. -1.
        2   -1    0    0  501    0  0.00000000000E+00  0.00000000000E+00 -0.16776838651E+04  0.16776838651E+04  0.25500000920E-02 0.  1.
    10030    2    1    2    0    0  0.00000000000E+00  0.00000000000E+00  0.60450028896E+03  0.39598680192E+04  0.39134555229E+04 0.  0.
        5    1    3    3  502    0  0.19240024393E+04  0.27759456001E+02 -0.57217160770E+02  0.19250589257E+04  0.46999998093E+01 0. -1.
       -5    1    3    3    0  502 -0.19240024393E+04 -0.27759456001E+02  0.66171744973E+03  0.20348090935E+04  0.46999998093E+01 0.  1.
</event>
<event>
 5   0  0.2632875E-08  0.3933047E+04  0.7818609E-02  0.8018191E-01
       -1   -1    0    0    0  501  0.00000000000E+00  0.00000000000E+00  0.20811905655E+04  0.20811905655E+04  0.50400001928E-02 0. -1.
        1   -1    0    0  501    0  0.00000000000E+00  0.00000000000E+00 -0.18581738596E+04  0.18581738597E+04  0.50400001928E-02 0.  1.
    10030    2    1    2    0    0  0.00000000000E+00  0.00000000000E+00  0.22301670585E+03  0.39393644252E+04  0.39330466083E+04 0.  0.
        4    1    3    3  502    0  0.14906617330E+04 -0.12300182404E+04  0.47567872625E+03  0.19902987558E+04  0.12699999809E+01 0. -1.
       -4    1    3    3    0  502 -0.14906617330E+04  0.12300182404E+04 -0.25266202040E+03  0.19490656693E+04  0.12699999809E+01 0.  1.
</event>
<event>
 5   0  0.2632875E-08  0.3896819E+04  0.7818609E-02  0.8025691E-01
       -1   -1    0    0    0  501  0.00000000000E+00  0.00000000000E+00  0.14592189040E+04  0.14592189040E+04  0.50400001928E-02 0. -1.
        1   -1    0    0  501    0  0.00000000000E+00  0.00000000000E+00 -0.26015966340E+04  0.26015966340E+04  0.50400001928E-02 0.  1.
    10030    2    1    2    0    0  0.00000000000E+00  0.00000000000E+00 -0.11423777300E+04  0.40608155380E+04  0.38968186968E+04 0.  0.
        5    1    3    3  502    0  0.18702340032E+04  0.54108989764E+03 -0.49235189551E+03  0.20082295643E+04  0.46999998093E+01 0.  1.
       -5    1    3    3    0  502 -0.18702340032E+04 -0.54108989764E+03 -0.65002583449E+03  0.20525859737E+04  0.46999998093E+01 0. -1.
</event>
<event>
 5   0  0.2632875E-08  0.3903737E+04  0.7818609E-02  0.8024252E-01
       -1   -1    0    0    0  501  0.00000000000E+00  0.00000000000E+00  0.16196340630E+04  0.16196340630E+04  0.50400001928E-02 0. -1.
        1   -1    0    0  501    0  0.00000000000E+00  0.00000000000E+00 -0.23522540160E+04  0.23522540160E+04  0.50400001928E-02 0.  1.
    10030    2    1    2    0    0  0.00000000000E+00  0.00000000000E+00 -0.73261995308E+03  0.39718880790E+04  0.39037370450E+04 0.  0.
        2    1    3    3  502    0 -0.14627835169E+04 -0.97507471494E+03  0.49660254429E+03  0.18267786960E+04  0.25500000920E-02 0. -1.
       -2    1    3    3    0  502  0.14627835169E+04  0.97507471494E+03 -0.12292224974E+04  0.21451093830E+04  0.25500000920E-02 0.  1.
</event>
<event>
 5   0  0.8342802E-08  0.3905972E+04  0.7818609E-02  0.8023788E-01
        2   -1    0    0  501    0  0.00000000000E+00  0.00000000000E+00  0.25868064429E+04  0.25868064429E+04  0.25500000920E-02 0. -1.
       -2   -1    0    0    0  501  0.00000000000E+00  0.00000000000E+00 -0.14744645776E+04  0.14744645776E+04  0.25500000920E-02 0.  1.
    10030    2    1    2    0    0  0.00000000000E+00  0.00000000000E+00  0.11123418653E+04  0.40612710205E+04  0.39059720783E+04 0.  0.
        4    1    3    3  502    0 -0.13532696299E+04  0.13756863195E+04  0.24372140260E+03  0.19450586819E+04  0.12699999809E+01 0.  1.
       -4    1    3    3    0  502  0.13532696299E+04 -0.13756863195E+04  0.86862046270E+03  0.21162123386E+04  0.12699999809E+01 0. -1.
</event>
<event>
 5   0  0.2632875E-08  0.3878527E+04  0.7818609E-02  0.8029510E-01
        1   -1    0    0  501    0  0.00000000000E+00  0.00000000000E+00  0.28936202929E+04  0.28936202929E+04  0.50400001928E-02 0. -1.
       -1   -1    0    0    0  501  0.00000000000E+00  0.00000000000E+00 -0.12996671661E+04  0.12996671661E+04  0.50400001928E-02 0.  1.
    10030    2    1    2    0    0  0.00000000000E+00  0.00000000000E+00  0.15939531269E+04  0.41932874590E+04  0.38785271874E+04 0.  0.
        1    1    3    3  502    0  0.42062856330E+03 -0.18913155677E+04  0.88573876838E+03  0.21303840336E+04  0.50400001928E-02 0. -1.
       -1    1    3    3    0  502 -0.42062856330E+03  0.18913155677E+04  0.70821435849E+03  0.20629034254E+04  0.50400001928E-02 0.  1.
</event>
<event>
 5   0  0.2632875E-08  0.3918612E+04  0.7818609E-02  0.8021169E-01
        1   -1    0    0  501    0  0.00000000000E+00  0.00000000000E+00  0.17882632279E+04  0.17882632280E+04  0.50400001928E-02 0. -1.
       -1   -1    0    0    0  501  0.00000000000E+00  0.00000000000E+00 -0.21467089901E+04  0.21467089901E+04  0.50400001928E-02 0.  1.
    10030    2    1    2    0    0  0.00000000000E+00  0.00000000000E+00 -0.35844576212E+03  0.39349722180E+04  0.39186123810E+04 0.  0.
        5    1    3    3  502    0  0.15043131946E+03  0.10195313665E+04  0.14941028187E+04  0.18150589831E+04  0.46999998093E+01 0. -1.
       -5    1    3    3    0  502 -0.15043131946E+03 -0.10195313665E+04 -0.18525485808E+04  0.21199132349E+04  0.46999998093E+01 0.  1.
</event>
<event>
 5   0  0.8476262E-08  0.3882562E+04  0.7818609E-02  0.8028666E-01
        2   -1    0    0  501    0  0.00000000000E+00  0.00000000000E+00  0.11347482707E+04  0.11347482707E+04  0.25500000920E-02 0. -1.
       -2   -1    0    0    0  501  0.00000000000E+00  0.00000000000E+00 -0.33210645904E+04  0.33210645904E+04  0.25500000920E-02 0.  1.
    10030    2    1    2    0    0  0.00000000000E+00  0.00000000000E+00 -0.21863163198E+04  0.44558128611E+04  0.38825621956E+04 0.  0.
        2    1    3    3  502    0  0.22153984145E+03 -0.17386997418E+04 -0.13542887141E+03  0.17579811355E+04  0.25500000920E-02 0. -1.
       -2    1    3    3    0  502 -0.22153984145E+03  0.17386997418E+04 -0.20508874484E+04  0.26978317256E+04  0.25500000920E-02 0.  1.
</event>
<event>
 5   0  0.8342802E-08  0.3896914E+04  0.7818609E-02  0.8025671E-01
       -2   -1    0    0    0  501  0.00000000000E+00  0.00000000000E+00  0.24211741060E+04  0.24211741060E+04  0.25500000920E-02 0. -1.
        2   -1    0    0  501    0  0.00000000000E+00  0.00000000000E+00 -0.15680349152E+04  0.15680349152E+04  0.25500000920E-02 0.  1.
    10030    2    1    2    0    0  0.00000000000E+00  0.00000000000E+00  0.85313919072E+03  0.39892090212E+04  0.38969144379E+04 0.  0.
        4    1    3    3  502    0  0.16653542773E+04  0.29760895964E+03  0.14161644408E+04  0.22062409882E+04  0.12699999809E+01 0. -1.
       -4    1    3    3    0  502 -0.16653542773E+04 -0.29760895964E+03 -0.56302525008E+03  0.17829680330E+04  0.12699999809E+01 0.  1.
</event>
<event>
 5   0  0.2632875E-08  0.3903357E+04  0.7818609E-02  0.8024331E-01
        1   -1    0    0  501    0  0.00000000000E+00  0.00000000000E+00  0.13202102085E+04  0.13202102085E+04  0.50400001928E-02 0. -1.
       -1   -1    0    0    0  501  0.00000000000E+00  0.00000000000E+00 -0.28851832476E+04  0.28851832476E+04  0.50400001928E-02 0.  1.
    10030    2    1    2    0    0  0.00000000000E+00  0.00000000000E+00 -0.15649730391E+04  0.42053934561E+04  0.39033566974E+04 0.  0.
        5    1    3    3  502    0 -0.19039685859E+04  0.47107045625E+02 -0.32322632121E+03  0.19317900493E+04  0.46999998093E+01 0.  1.
       -5    1    3    3    0  502  0.19039685859E+04 -0.47107045625E+02 -0.12417467179E+04  0.22736034068E+04  0.46999998093E+01 0. -1.
</event>
<event>
 5   0  0.8342802E-08  0.3904930E+04  0.7818609E-02  0.8024005E-01
        2   -1    0    0  501    0  0.00000000000E+00  0.00000000000E+00  0.21025976335E+04  0.21025976335E+04  0.25500000920E-02 0.  1.
       -2   -1    0    0    0  501  0.00000000000E+00  0.00000000000E+00 -0.18130522663E+04  0.18130522663E+04  0.25500000920E-02 0. -1.
    10030    2    1    2    0    0  0.00000000000E+00  0.00000000000E+00  0.28954536728E+03  0.39156498998E+04  0.39049299121E+04 0.  0.
        4    1    3    3  502    0  0.84927942094E+03 -0.37713044976E+03 -0.15770944543E+04  0.18305003255E+04  0.12699999809E+01 0. -1.
       -4    1    3    3    0  502 -0.84927942094E+03  0.37713044976E+03  0.18666398216E+04  0.20851495743E+04  0.12699999809E+01 0.  1.
</event>
<event>
 5   0  0.2632875E-08  0.3898602E+04  0.7818609E-02  0.8025320E-01
        1   -1    0    0  501    0  0.00000000000E+00  0.00000000000E+00  0.25872899574E+04  0.25872899574E+04  0.50400001928E-02 0.  1.
       -1   -1    0    0    0  501  0.00000000000E+00  0.00000000000E+00 -0.14686313694E+04  0.14686313694E+04  0.50400001928E-02 0. -1.
    10030    2    1    2    0    0  0.00000000000E+00  0.00000000000E+00  0.11186585880E+04  0.40559213269E+04  0.38986024128E+04 0.  0.
        2    1    3    3  502    0 -0.94363348910E+03 -0.12487080708E+04  0.17681363298E+04  0.23613602200E+04  0.25500000920E-02 0.  1.
       -2    1    3    3    0  502  0.94363348910E+03  0.12487080708E+04 -0.64947774179E+03  0.16945611069E+04  0.25500000920E-02 0. -1.
</event>
<event>
 5   0  0.8438211E-08  0.3626356E+04  0.7818609E-02  0.8084481E-01
        2   -1    0    0  501    0  0.00000000000E+00  0.00000000000E+00  0.20198683337E+04  0.20198683337E+04  0.25500000920E-02 0. -1.
       -2   -1    0    0    0  501  0.00000000000E+00  0.00000000000E+00 -0.16276375633E+04  0.16276375633E+04  0.25500000920E-02 0.  1.
    10030    2    1    2    0    0  0.00000000000E+00  0.00000000000E+00  0.39223077033E+03  0.36475058970E+04  0.36263555109E+04 0.  0.
        5    1    3    3  502    0  0.17324080297E+04 -0.43115833104E+03 -0.12268175680E+03  0.17894714279E+04  0.46999998093E+01 0. -1.
       -5    1    3    3    0  502 -0.17324080297E+04  0.43115833104E+03  0.51491252713E+03  0.18580344691E+04  0.46999998093E+01 0.  1.
</event>
<event>
 5   0  0.2632875E-08  0.3903167E+04  0.7818609E-02  0.8024371E-01
       -1   -1    0    0    0  501  0.00000000000E+00  0.00000000000E+00  0.20537257695E+04  0.20537257695E+04  0.50400001928E-02 0.  1.
        1   -1    0    0  501    0  0.00000000000E+00  0.00000000000E+00 -0.18545209593E+04  0.18545209593E+04  0.50400001928E-02 0. -1.
    10030    2    1    2    0    0  0.00000000000E+00  0.00000000000E+00  0.19920481024E+03  0.39082467288E+04  0.39031666550E+04 0.  0.
        4    1    3    3  502    0  0.16709406742E+03  0.13580619859E+04 -0.12937629373E+04  0.18831030072E+04  0.12699999809E+01 0. -1.
       -4    1    3    3    0  502 -0.16709406742E+03 -0.13580619859E+04  0.14929677475E+04  0.20251437216E+04  0.12699999809E+01 0.  1.
</event>
<event>
 5   0  0.8676098E-08  0.3900389E+04  0.7818609E-02  0.8024948E-01
        2   -1    0    0  501    0  0.00000000000E+00  0.00000000000E+00  0.17491937145E+04  0.17491937145E+04  0.25500000920E-02 0.  1.
       -2   -1    0    0    0  501  0.00000000000E+00  0.00000000000E+00 -0.21742920460E+04  0.21742920460E+04  0.25500000920E-02 0. -1.
    10030    2    1    2    0    0  0.00000000000E+00  0.00000000000E+00 -0.42509833153E+03  0.39234857605E+04  0.39003886885E+04 0.  0.
        3    1    3    3  502    0  0.72452427087E+03  0.49928327128E+02 -0.20331923993E+04  0.21590043075E+04  0.10100000352E+00 0. -1.
       -3    1    3    3    0  502 -0.72452427087E+03 -0.49928327128E+02  0.16080940678E+04  0.17644814530E+04  0.10100000352E+00 0.  1.
</event>
<event>
 5   0  0.2632875E-08  0.3866384E+04  0.7818609E-02  0.8032057E-01
        1   -1    0    0  501    0  0.00000000000E+00  0.00000000000E+00  0.31595275590E+04  0.31595275590E+04  0.50400001928E-02 0. -1.
       -1   -1    0    0    0  501  0.00000000000E+00  0.00000000000E+00 -0.11828452521E+04  0.11828452521E+04  0.50400001928E-02 0.  1.
    10030    2    1    2    0    0  0.00000000000E+00  0.00000000000E+00  0.19766823069E+04  0.43423728112E+04  0.38663844466E+04 0.  0.
        2    1    3    3  502    0  0.10308188090E+04  0.94146879914E+03 -0.51355527256E+03  0.14875113226E+04  0.25500000920E-02 0.  1.
       -2    1    3    3    0  502 -0.10308188090E+04 -0.94146879914E+03  0.24902375795E+04  0.28548614886E+04  0.25500000920E-02 0. -1.
</event>
<event>
 5   0  0.8476262E-08  0.3904948E+04  0.7818609E-02  0.8024001E-01
       -2   -1    0    0    0  501  0.00000000000E+00  0.00000000000E+00  0.14277277000E+04  0.14277277000E+04  0.25500000920E-02 0.  1.
        2   -1    0    0  501    0  0.00000000000E+00  0.00000000000E+00 -0.26700855805E+04  0.26700855805E+04  0.25500000920E-02 0. -1.
    10030    2    1    2    0    0  0.00000000000E+00  0.00000000000E+00 -0.12423578805E+04  0.40978132805E+04  0.39049482172E+04 0.  0.
        2    1    3    3  502    0  0.20834603169E+03  0.60507089554E+03  0.13145504814E+04  0.14620402955E+04  0.25500000920E-02 0.  1.
       -2    1    3    3    0  502 -0.20834603169E+03 -0.60507089554E+03 -0.25569083619E+04  0.26357729850E+04  0.25500000920E-02 0. -1.
</event>
<event>
 5   0  0.8342802E-08  0.3891564E+04  0.7818609E-02  0.8026786E-01
        2   -1    0    0  501    0  0.00000000000E+00  0.00000000000E+00  0.13194380157E+04  0.13194380157E+04  0.25500000920E-02 0.  1.
       -2   -1    0    0    0  501  0.00000000000E+00  0.00000000000E+00 -0.28694544209E+04  0.28694544209E+04  0.25500000920E-02 0. -1.
    10030    2    1    2    0    0  0.00000000000E+00  0.00000000000E+00 -0.15500164053E+04  0.41888924366E+04  0.38915638231E+04 0.  0.
        4    1    3    3  502    0 -0.11913798306E+04 -0.15373463245E+04 -0.83633497795E+03  0.21171389728E+04  0.12699999809E+01 0.  1.
       -4    1    3    3    0  502  0.11913798306E+04  0.15373463245E+04 -0.71368142731E+03  0.20717534638E+04  0.12699999809E+01 0. -1.
</event>
<event>
 5   0  0.8438211E-08  0.3892953E+04  0.7818609E-02  0.8026496E-01
        2   -1    0    0  501    0  0.00000000000E+00  0.00000000000E+00  0.12903987939E+04  0.12903987939E+04  0.25500000920E-02 0.  1.
       -2   -1    0    0    0  501  0.00000000000E+00  0.00000000000E+00 -0.29361240929E+04  0.29361240929E+04  0.25500000920E-02 0. -1.
    10030    2    1    2    0    0  0.00000000000E+00  0.00000000000E+00 -0.16457252990E+04  0.42265228869E+04  0.38929531147E+04 0.  0.
        5    1    3    3  502    0 -0.19207532121E+04 -0.24418255675E+03 -0.60618506898E+03  0.20288914340E+04  0.46999998093E+01 0.  1.
       -5    1    3    3    0  502  0.19207532121E+04  0.24418255675E+03 -0.10395402300E+04  0.21976314529E+04  0.46999998093E+01 0. -1.
</event>
<event>
 5   0  0.2632875E-08  0.3892578E+04  0.7818609E-02  0.8026575E-01
       -1   -1    0    0    0  501  0.00000000000E+00  0.00000000000E+00  0.19975146483E+04  0.19975146484E+04  0.50400001928E-02 0.  1.
        1   -1    0    0  501    0  0.00000000000E+00  0.00000000000E+00 -0.18963773387E+04  0.18963773387E+04  0.50400001928E-02 0. -1.
    10030    2    1    2    0    0  0.00000000000E+00  0.00000000000E+00  0.10113730967E+03  0.38938919870E+04  0.38925783295E+04 0.  0.
        1    1    3    3  502    0  0.62013092143E+03  0.15252277663E+04 -0.98764450766E+03  0.19199801489E+04  0.50400001928E-02 0. -1.
       -1    1    3    3    0  502 -0.62013092143E+03 -0.15252277663E+04  0.10887818173E+04  0.19739118381E+04  0.50400001928E-02 0.  1.
</event>
<event>
 5   0  0.2632875E-08  0.3926730E+04  0.7818609E-02  0.8019493E-01
        1   -1    0    0  501    0  0.00000000000E+00  0.00000000000E+00  0.21215204137E+04  0.21215204137E+04  0.50400001928E-02 0.  1.
       -1   -1    0    0    0  501  0.00000000000E+00  0.00000000000E+00 -0.18169999466E+04  0.18169999466E+04  0.50400001928E-02 0. -1.
    10030    2    1    2    0    0  0.00000000000E+00  0.00000000000E+00  0.30452046716E+03  0.39385203603E+04  0.39267301809E+04 0.  0.
        2    1    3    3  502    0 -0.95930693700E+03  0.16999909250E+04 -0.59474373058E+02  0.19528891790E+04  0.25500000920E-02 0.  1.
       -2    1    3    3    0  502  0.95930693700E+03 -0.16999909250E+04  0.36399484021E+03  0.19856311813E+04  0.25500000920E-02 0. -1.
</event>
<event>
 5   0  0.8438211E-08  0.3899857E+04  0.7818609E-02  0.8025059E-01
        2   -1    0    0  501    0  0.00000000000E+00  0.00000000000E+00  0.16565261185E+04  0.16565261185E+04  0.25500000920E-02 0.  1.
       -2   -1    0    0    0  501  0.00000000000E+00  0.00000000000E+00 -0.22952983767E+04  0.22952983767E+04  0.25500000920E-02 0. -1.
    10030    2    1    2    0    0  0.00000000000E+00  0.00000000000E+00 -0.63877225817E+03  0.39518244952E+04  0.38998572850E+04 0.  0.
        5    1    3    3  502    0 -0.26929411731E+03 -0.19128015962E+04 -0.58914841382E+03  0.20195165787E+04  0.46999998093E+01 0. -1.
       -5    1    3    3    0  502  0.26929411731E+03  0.19128015962E+04 -0.49623844351E+02  0.19323079165E+04  0.46999998093E+01 0.  1.
</event>
<event>
 5   0  0.2632875E-08  0.3902561E+04  0.7818609E-02  0.8024497E-01
        1   -1    0    0  501    0  0.00000000000E+00  0.00000000000E+00  0.19754517912E+04  0.19754517912E+04  0.50400001928E-02 0.  1.
       -1   -1    0    0    0  501  0.00000000000E+00  0.00000000000E+00 -0.19274051093E+04  0.19274051093E+04  0.50400001928E-02 0. -1.
    10030    2    1    2    0    0  0.00000000000E+00  0.00000000000E+00  0.48046681927E+02  0.39028569005E+04  0.39025611465E+04 0.  0.
        3    1    3    3  502    0  0.13102604866E+04  0.32793595472E+03 -0.13843345436E+04  0.19340906577E+04  0.10100000352E+00 0. -1.
       -3    1    3    3    0  502 -0.13102604866E+04 -0.32793595472E+03  0.14323812256E+04  0.19687662428E+04  0.10100000352E+00 0.  1.
</event>
<event>
 5   0  0.8551754E-08  0.3900076E+04  0.7818609E-02  0.8025013E-01
       -2   -1    0    0    0  501  0.00000000000E+00  0.00000000000E+00  0.17833303929E+04  0.17833303929E+04  0.25500000920E-02 0. -1.
        2   -1    0    0  501    0  0.00000000000E+00  0.00000000000E+00 -0.21323300430E+04  0.21323300430E+04  0.25500000920E-02 0.  1.
    10030    2    1    2    0    0  0.00000000000E+00  0.00000000000E+00 -0.34899965011E+03  0.39156604359E+04  0.39000763958E+04 0.  0.
        1    1    3    3  502    0  0.12082719619E+04  0.71284652927E+03  0.11853782122E+04  0.18366253875E+04  0.50400001928E-02 0. -1.
       -1    1    3    3    0  502 -0.12082719619E+04 -0.71284652927E+03 -0.15343778623E+04  0.20790350484E+04  0.50400001928E-02 0.  1.
</event>
<event>
 5   0  0.2632875E-08  0.3895624E+04  0.7818609E-02  0.8025940E-01
       -1   -1    0    0    0  501  0.00000000000E+00  0.00000000000E+00  0.23202476117E+04  0.23202476117E+04  0.50400001928E-02 0.  1.
        1   -1    0    0  501    0  0.00000000000E+00  0.00000000000E+00 -0.16351581893E+04  0.16351581893E+04  0.50400001928E-02 0. -1.
    10030    2    1    2    0    0  0.00000000000E+00  0.00000000000E+00  0.68508942243E+03  0.39554058010E+04  0.38956241520E+04 0.  0.
        1    1    3    3  502    0 -0.11320480434E+04 -0.15832573305E+04  0.26565053666E+03  0.19643845741E+04  0.50400001928E-02 0.  1.
       -1    1    3    3    0  502  0.11320480434E+04  0.15832573305E+04  0.41943888577E+03  0.19910212269E+04  0.50400001928E-02 0. -1.
</event>
<event>
 5   0  0.8551754E-08  0.3898036E+04  0.7818609E-02  0.8025438E-01
       -2   -1    0    0    0  501  0.00000000000E+00  0.00000000000E+00  0.19814656661E+04  0.19814656661E+04  0.25500000920E-02 0.  1.
        2   -1    0    0  501    0  0.00000000000E+00  0.00000000000E+00 -0.19171020420E+04  0.19171020420E+04  0.25500000920E-02 0. -1.
    10030    2    1    2    0    0  0.00000000000E+00  0.00000000000E+00  0.64363624135E+02  0.38985677082E+04  0.38980363645E+04 0.  0.
        1    1    3    3  502    0  0.45426732861E+03 -0.12019524056E+04 -0.14334951685E+04  0.19250861771E+04  0.50400001928E-02 0. -1.
       -1    1    3    3    0  502 -0.45426732861E+03  0.12019524056E+04  0.14978587926E+04  0.19734815311E+04  0.50400001928E-02 0.  1.
</event>
<event>
 5   0  0.8551754E-08  0.3902245E+04  0.7818609E-02  0.8024562E-01
       -2   -1    0    0    0  501  0.00000000000E+00  0.00000000000E+00  0.21608757088E+04  0.21608757088E+04  0.25500000920E-02 0. -1.
        2   -1    0    0  501    0  0.00000000000E+00  0.00000000000E+00 -0.17617299213E+04  0.17617299213E+04  0.25500000920E-02 0.  1.
    10030    2    1    2    0    0  0.00000000000E+00  0.00000000000E+00  0.39914578748E+03  0.39226056300E+04  0.39022451959E+04 0.  0.
        1    1    3    3  502    0 -0.10215963531E+04 -0.16612736486E+04  0.14104411896E+03  0.19553472038E+04  0.50400001928E-02 0.  1.
       -1    1    3    3    0  502  0.10215963531E+04  0.16612736486E+04  0.25810166852E+03  0.19672584262E+04  0.50400001928E-02 0. -1.
</event>
<event>
 5   0  0.8438211E-08  0.3899664E+04  0.7818609E-02  0.8025099E-01
        2   -1    0    0  501    0  0.00000000000E+00  0.00000000000E+00  0.17747219044E+04  0.17747219044E+04  0.25500000920E-02 0.  1.
       -2   -1    0    0    0  501  0.00000000000E+00  0.00000000000E+00 -0.21422196576E+04  0.21422196576E+04  0.25500000920E-02 0. -1.
    10030    2    1    2    0    0  0.00000000000E+00  0.00000000000E+00 -0.36749775320E+03  0.39169415620E+04  0.38996636523E+04 0.  0.
        5    1    3    3  502    0  0.37140523427E+03 -0.13364570303E+04  0.11926373225E+04  0.18293346099E+04  0.46999998093E+01 0.  1.
       -5    1    3    3    0  502 -0.37140523427E+03  0.13364570303E+04 -0.15601350757E+04  0.20876069521E+04  0.46999998093E+01 0. -1.
</event>
<event>
 5   0  0.8676098E-08  0.3782617E+04  0.7818609E-02  0.8049895E-01
       -2   -1    0    0    0  501  0.00000000000E+00  0.00000000000E+00  0.12139347015E+04  0.12139347015E+04  0.25500000920E-02 0.  1.
        2   -1    0    0  501    0  0.00000000000E+00  0.00000000000E+00 -0.29466563883E+04  0.29466563883E+04  0.25500000920E-02 0. -1.
    10030    2    1    2    0    0  0.00000000000E+00  0.00000000000E+00 -0.17327216868E+04  0.41605910898E+04  0.37826173178E+04 0.  0.
        3    1    3    3  502    0  0.15171661886E+04  0.26119304822E+03  0.34207129951E+03  0.15770313366E+04  0.10100000352E+00 0.  1.
       -3    1    3    3    0  502 -0.15171661886E+04 -0.26119304822E+03 -0.20747929863E+04  0.25835597532E+04  0.10100000352E+00 0. -1.
</event>
<event>
 5   0  0.2632875E-08  0.3880692E+04  0.7818609E-02  0.8029057E-01
        1   -1    0    0  501    0  0.00000000000E+00  0.00000000000E+00  0.26521737930E+04  0.26521737930E+04  0.50400001928E-02 0.  1.
       -1   -1    0    0    0  501  0.00000000000E+00  0.00000000000E+00 -0.14195688965E+04  0.14195688965E+04  0.50400001928E-02 0. -1.
    10030    2    1    2    0    0  0.00000000000E+00  0.00000000000E+00  0.12326048965E+04  0.40717426896E+04  0.38806924252E+04 0.  0.
        4    1    3    3  502    0  0.13042982466E+04 -0.11778016876E+04  0.14793107611E+04  0.22971226942E+04  0.12699999809E+01 0.  1.
       -4    1    3    3    0  502 -0.13042982466E+04  0.11778016876E+04 -0.24670586458E+03  0.17746199954E+04  0.12699999809E+01 0. -1.
</event>
<event>
 5   0  0.2632875E-08  0.3829454E+04  0.7818609E-02  0.8039863E-01
       -1   -1    0    0    0  501  0.00000000000E+00  0.00000000000E+00  0.15776678556E+04  0.15776678556E+04  0.50400001928E-02 0.  1.
        1   -1    0    0  501    0  0.00000000000E+00  0.00000000000E+00 -0.23237971610E+04  0.23237971610E+04  0.50400001928E-02 0. -1.
    10030    2    1    2    0    0  0.00000000000E+00  0.00000000000E+00 -0.74612930545E+03  0.39014650166E+04  0.38294543130E+04 0.  0.
        3    1    3    3  502    0  0.15518611332E+04  0.11155821797E+04 -0.49092714839E+03  0.19732729288E+04  0.10100000352E+00 0.  1.
       -3    1    3    3    0  502 -0.15518611332E+04 -0.11155821797E+04 -0.25520215706E+03  0.19281920878E+04  0.10100000352E+00 0. -1.
</event>
<event>
 5   0  0.2632875E-08  0.3879466E+04  0.7818609E-02  0.8029314E-01
        1   -1    0    0  501    0  0.00000000000E+00  0.00000000000E+00  0.19015556201E+04  0.19015556201E+04  0.50400001928E-02 0. -1.
       -1   -1    0    0    0  501  0.00000000000E+00  0.00000000000E+00 -0.19786766261E+04  0.19786766261E+04  0.50400001928E-02 0.  1.
    10030    2    1    2    0    0  0.00000000000E+00  0.00000000000E+00 -0.77121006035E+02  0.38802322462E+04  0.38794657667E+04 0.  0.
        2    1    3    3  502    0  0.61664886849E+02 -0.24807950776E+03  0.18846344291E+04  0.19018919348E+04  0.25500000920E-02 0. -1.
       -2    1    3    3    0  502 -0.61664886849E+02  0.24807950776E+03 -0.19617554351E+04  0.19783403114E+04  0.25500000920E-02 0.  1.
</event>
<event>
 5   0  0.2632875E-08  0.3942970E+04  0.7818609E-02  0.8016151E-01
        1   -1    0    0  501    0  0.00000000000E+00  0.00000000000E+00  0.23828515424E+04  0.23828515424E+04  0.50400001928E-02 0.  1.
       -1   -1    0    0    0  501  0.00000000000E+00  0.00000000000E+00 -0.16311352408E+04  0.16311352408E+04  0.50400001928E-02 0. -1.
    10030    2    1    2    0    0  0.00000000000E+00  0.00000000000E+00  0.75171630165E+03  0.40139867833E+04  0.39429700098E+04 0.  0.
        3    1    3    3  502    0 -0.12926946698E+04 -0.13990887112E+04 -0.14147213809E+03  0.19101107578E+04  0.10100000352E+00 0.  1.
       -3    1    3    3    0  502  0.12926946698E+04  0.13990887112E+04  0.89318843974E+03  0.21038760254E+04  0.10100000352E+00 0. -1.
</event>
<event>
 5   0  0.8551754E-08  0.3897594E+04  0.7818609E-02  0.8025530E-01
       -2   -1    0    0    0  501  0.00000000000E+00  0.00000000000E+00  0.20669947682E+04  0.20669947682E+04  0.25500000920E-02 0. -1.
        2   -1    0    0  501    0  0.00000000000E+00  0.00000000000E+00 -0.18373586064E+04  0.18373586064E+04  0.25500000920E-02 0.  1.
    10030    2    1    2    0    0  0.00000000000E+00  0.00000000000E+00  0.22963616183E+03  0.39043533746E+04  0.38975944513E+04 0.  0.
        1    1    3    3  502    0 -0.13021532179E+04 -0.76361641878E+03 -0.11198360297E+04  0.18795599941E+04  0.50400001928E-02 0.  1.
       -1    1    3    3    0  502  0.13021532179E+04  0.76361641878E+03  0.13494721916E+04  0.20247933805E+04  0.50400001928E-02 0. -1.
</event>
<event>
 5   0  0.2632875E-08  0.3943777E+04  0.7818609E-02  0.8015986E-01
        1   -1    0    0  501    0  0.00000000000E+00  0.00000000000E+00  0.18893921284E+04  0.18893921284E+04  0.50400001928E-02 0. -1.
       -1   -1    0    0    0  501  0.00000000000E+00  0.00000000000E+00 -0.20579866162E+04  0.20579866162E+04  0.50400001928E-02 0.  1.
    10030    2    1    2    0    0  0.00000000000E+00  0.00000000000E+00 -0.16859448780E+03  0.39473787445E+04  0.39437767244E+04 0.  0.
        3    1    3    3  502    0 -0.14671677633E+03  0.19655533048E+04 -0.14281512999E+03  0.19761887000E+04  0.10100000352E+00 0.  1.
       -3    1    3    3    0  502  0.14671677633E+03 -0.19655533048E+04 -0.25779357812E+02  0.19711900446E+04  0.10100000352E+00 0. -1.
</event>
<event>
 5   0  0.8476262E-08  0.3913814E+04  0.7818609E-02  0.8022162E-01
        2   -1    0    0  501    0  0.00000000000E+00  0.00000000000E+00  0.19582581902E+04  0.19582581902E+04  0.25500000920E-02 0.  1.
       -2   -1    0    0    0  501  0.00000000000E+00  0.00000000000E+00 -0.19555562466E+04  0.19555562466E+04  0.25500000920E-02 0. -1.
    10030    2    1    2    0    0  0.00000000000E+00  0.00000000000E+00  0.27019435987E+01  0.39138144369E+04  0.39138135042E+04 0.  0.
        2    1    3    3  502    0  0.16639345258E+04  0.15381767654E+03  0.10197548931E+04  0.19576102845E+04  0.25500000920E-02 0.  1.
       -2    1    3    3    0  502 -0.16639345258E+04 -0.15381767654E+03 -0.10170529495E+04  0.19562041524E+04  0.25500000920E-02 0. -1.
</event>
<event>
 5   0  0.2632875E-08  0.3933588E+04  0.7818609E-02  0.8018080E-01
       -1   -1    0    0    0  501  0.00000000000E+00  0.00000000000E+00  0.22997371959E+04  0.22997371959E+04  0.50400001928E-02 0.  1.
        1   -1    0    0  501    0  0.00000000000E+00  0.00000000000E+00 -0.16820523487E+04  0.16820523487E+04  0.50400001928E-02 0. -1.
    10030    2    1    2    0    0  0.00000000000E+00  0.00000000000E+00  0.61768484728E+03  0.39817895446E+04  0.39335878542E+04 0.  0.
        5    1    3    3  502    0 -0.54837196291E+03  0.18639123438E+04  0.61816048667E+03  0.20388784938E+04  0.46999998093E+01 0.  1.
       -5    1    3    3    0  502  0.54837196291E+03 -0.18639123438E+04 -0.47563938339E+00  0.19429110508E+04  0.46999998093E+01 0. -1.
</event>
<event>
 5   0  0.8342802E-08  0.3893742E+04  0.7818609E-02  0.8026332E-01
        2   -1    0    0  501    0  0.00000000000E+00  0.00000000000E+00  0.13928184776E+04  0.13928184776E+04  0.25500000920E-02 0. -1.
       -2   -1    0    0    0  501  0.00000000000E+00  0.00000000000E+00 -0.27213220116E+04  0.27213220116E+04  0.25500000920E-02 0.  1.
    10030    2    1    2    0    0  0.00000000000E+00  0.00000000000E+00 -0.13285035341E+04  0.41141404892E+04  0.38937424574E+04 0.  0.
        4    1    3    3  502    0  0.69215780517E+02 -0.11291787231E+04  0.10098793208E+04  0.15164739591E+04  0.12699999809E+01 0. -1.
       -4    1    3    3    0  502 -0.69215780517E+02  0.11291787231E+04 -0.23383828549E+04  0.25976665301E+04  0.12699999809E+01 0.  1.
</event>
<event>
 5   0  0.8551754E-08  0.3878499E+04  0.7818609E-02  0.8029516E-01
       -2   -1    0    0    0  501  0.00000000000E+00  0.00000000000E+00  0.19363377475E+04  0.19363377475E+04  0.25500000920E-02 0. -1.
        2   -1    0    0  501    0  0.00000000000E+00  0.00000000000E+00 -0.19421660733E+04  0.19421660733E+04  0.25500000920E-02 0.  1.
    10030    2    1    2    0    0  0.00000000000E+00  0.00000000000E+00 -0.58283257858E+01  0.38785038207E+04  0.38784994415E+04 0.  0.
        1    1    3    3  502    0 -0.67749430400E+03 -0.31773385811E+02  0.18138656402E+04  0.19365217894E+04  0.50400001928E-02 0. -1.
       -1    1    3    3    0  502  0.67749430400E+03  0.31773385811E+02 -0.18196939660E+04  0.19419820313E+04  0.50400001928E-02 0.  1.
</event>
<event>
 5   0  0.8551754E-08  0.3926389E+04  0.7818609E-02  0.8019563E-01
       -2   -1    0    0    0  501  0.00000000000E+00  0.00000000000E+00  0.12445173885E+04  0.12445173885E+04  0.25500000920E-02 0.  1.
        2   -1    0    0  501    0  0.00000000000E+00  0.00000000000E+00 -0.30968896080E+04  0.30968896080E+04  0.25500000920E-02 0. -1.
    10030    2    1    2    0    0  0.00000000000E+00  0.00000000000E+00 -0.18523722194E+04  0.43414069965E+04  0.39263891643E+04 0.  0.
        1    1    3    3  502    0  0.45905096795E+03 -0.17057940786E+04 -0.18732691380E+04  0.25748006705E+04  0.50400001928E-02 0. -1.
       -1    1    3    3    0  502 -0.45905096795E+03  0.17057940786E+04  0.20896918570E+02  0.17666063259E+04  0.50400001928E-02 0.  1.
</event>
<event>
 5   0  0.2632875E-08  0.3902596E+04  0.7818609E-02  0.8024490E-01
       -1   -1    0    0    0  501  0.00000000000E+00  0.00000000000E+00  0.11668114880E+04  0.11668114881E+04  0.50400001928E-02 0. -1.
        1   -1    0    0  501    0  0.00000000000E+00  0.00000000000E+00 -0.32632204405E+04  0.32632204405E+04  0.50400001928E-02 0.  1.
    10030    2    1    2    0    0  0.00000000000E+00  0.00000000000E+00 -0.20964089524E+04  0.44300319285E+04  0.39025955968E+04 0.  0.
        4    1    3    3  502    0  0.17288825499E+04  0.19466974308E+03 -0.20511469174E+04  0.26896350068E+04  0.12699999809E+01 0. -1.
       -4    1    3    3    0  502 -0.17288825499E+04 -0.19466974308E+03 -0.45262035031E+02  0.17403969217E+04  0.12699999809E+01 0.  1.
</event>
<event>
 5   0  0.8342802E-08  0.3828463E+04  0.7818609E-02  0.8040074E-01
        2   -1    0    0  501    0  0.00000000000E+00  0.00000000000E+00  0.28270391891E+04  0.28270391891E+04  0.25500000920E-02 0.  1.
       -2   -1    0    0    0  501  0.00000000000E+00  0.00000000000E+00 -0.12961555833E+04  0.12961555833E+04  0.25500000920E-02 0. -1.
    10030    2    1    2    0    0  0.00000000000E+00  0.00000000000E+00  0.15308836058E+04  0.41231947723E+04  0.38284632055E+04 0.  0.
        4    1    3    3  502    0  0.18293273566E+04  0.34207683123E+03  0.12480772466E+04  0.22407930655E+04  0.12699999809E+01 0.  1.
       -4    1    3    3    0  502 -0.18293273566E+04 -0.34207683123E+03  0.28280635915E+03  0.18824017068E+04  0.12699999809E+01 0. -1.
</event>
<event>
 5   0  0.8342802E-08  0.3907874E+04  0.7818609E-02  0.8023394E-01
       -2   -1    0    0    0  501  0.00000000000E+00  0.00000000000E+00  0.23446651553E+04  0.23446651553E+04  0.25500000920E-02 0.  1.
        2   -1    0    0  501    0  0.00000000000E+00  0.00000000000E+00 -0.16283218132E+04  0.16283218132E+04  0.25500000920E-02 0. -1.
    10030    2    1    2    0    0  0.00000000000E+00  0.00000000000E+00  0.71634334219E+03  0.39729869685E+04  0.39078738040E+04 0.  0.
        4    1    3    3  502    0 -0.29721499404E+02 -0.14767581410E+04  0.16586131099E+04  0.22209675900E+04  0.12699999809E+01 0.  1.
       -4    1    3    3    0  502  0.29721499404E+02  0.14767581410E+04 -0.94226976768E+03  0.17520193785E+04  0.12699999809E+01 0. -1.
</event>
<event>
 5   0  0.2632875E-08  0.3899584E+04  0.7818609E-02  0.8025116E-01
        1   -1    0    0  501    0  0.00000000000E+00  0.00000000000E+00  0.22899044056E+04  0.22899044056E+04  0.50400001928E-02 0. -1.
       -1   -1    0    0    0  501  0.00000000000E+00  0.00000000000E+00 -0.16601952967E+04  0.16601952968E+04  0.50400001928E-02 0.  1.
    10030    2    1    2    0    0  0.00000000000E+00  0.00000000000E+00  0.62970910880E+03  0.39500997023E+04  0.38995838363E+04 0.  0.
        2    1    3    3  502    0  0.11981741319E+04  0.72003363463E+02 -0.12415661847E+04  0.17269314768E+04  0.25500000920E-02 0.  1.
       -2    1    3    3    0  502 -0.11981741319E+04 -0.72003363463E+02  0.18712752935E+04  0.22231682255E+04  0.25500000920E-02 0. -1.
</event>
<event>
 5   0  0.8551754E-08  0.3905055E+04  0.7818609E-02  0.8023979E-01
        2   -1    0    0  501    0  0.00000000000E+00  0.00000000000E+00  0.24717896191E+04  0.24717896191E+04  0.25500000920E-02 0.  1.
       -2   -1    0    0    0  501  0.00000000000E+00  0.00000000000E+00 -0.15423495535E+04  0.15423495535E+04  0.25500000920E-02 0. -1.
    10030    2    1    2    0    0  0.00000000000E+00  0.00000000000E+00  0.92944006560E+03  0.40141391725E+04  0.39050549882E+04 0.  0.
        1    1    3    3  502    0  0.15241263239E+04 -0.10609798518E+04  0.10846625768E+04  0.21506120530E+04  0.50400001928E-02 0.  1.
       -1    1    3    3    0  502 -0.15241263239E+04  0.10609798518E+04 -0.15522251118E+03  0.18635271195E+04  0.50400001928E-02 0. -1.
</event>
<event>
 5   0  0.2632875E-08  0.3929880E+04  0.7818609E-02  0.8018843E-01
       -1   -1    0    0    0  501  0.00000000000E+00  0.00000000000E+00  0.34565939548E+04  0.34565939548E+04  0.50400001928E-02 0.  1.
        1   -1    0    0  501    0  0.00000000000E+00  0.00000000000E+00 -0.11169924123E+04  0.11169924123E+04  0.50400001928E-02 0. -1.
    10030    2    1    2    0    0  0.00000000000E+00  0.00000000000E+00  0.23396015426E+04  0.45735863671E+04  0.39298800083E+04 0.  0.
        5    1    3    3  502    0  0.67358487377E+03 -0.94480071017E+03 -0.67569152701E+03  0.13427382819E+04  0.46999998093E+01 0. -1.
       -5    1    3    3    0  502 -0.67358487377E+03  0.94480071017E+03  0.30152930696E+04  0.32308480852E+04  0.46999998093E+01 0.  1.
</event>
<event>
 5   0  0.2632875E-08  0.3876719E+04  0.7818609E-02  0.8029889E-01
       -1   -1    0    0    0  501  0.00000000000E+00  0.00000000000E+00  0.23230323601E+04  0.23230323601E+04  0.50400001928E-02 0. -1.
        1   -1    0    0  501    0  0.00000000000E+00  0.00000000000E+00 -0.16173851302E+04  0.16173851302E+04  0.50400001928E-02 0.  1.
    10030    2    1    2    0    0  0.00000000000E+00  0.00000000000E+00  0.70564722988E+03  0.39404174903E+04  0.38767192296E+04 0.  0.
        5    1    3    3  502    0  0.78122111060E+03  0.52029874213E+03  0.20766254257E+04  0.22789059773E+04  0.46999998093E+01 0. -1.
       -5    1    3    3    0  502 -0.78122111060E+03 -0.52029874213E+03 -0.13709781958E+04  0.16615115130E+04  0.46999998093E+01 0.  1.
</event>
<event>
 5   0  0.2632875E-08  0.3908146E+04  0.7818609E-02  0.8023337E-01
       -1   -1    0    0    0  501  0.00000000000E+00  0.00000000000E+00  0.19113102774E+04  0.19113102774E+04  0.50400001928E-02 0.  1.
        1   -1    0    0  501    0  0.00000000000E+00  0.00000000000E+00 -0.19977924199E+04  0.19977924199E+04  0.50400001928E-02 0. -1.
    10030    2    1    2    0    0  0.00000000000E+00  0.00000000000E+00 -0.86482142517E+02  0.39091026973E+04  0.39081459462E+04 0.  0.
        5    1    3    3  502    0 -0.73830032487E+03 -0.15899099771E+04 -0.90686311484E+03  0.19736574941E+04  0.46999998093E+01 0. -1.
       -5    1    3    3    0  502  0.73830032487E+03  0.15899099771E+04  0.82038097232E+03  0.19354452032E+04  0.46999998093E+01 0.  1.
</event>
<event>
 5   0  0.2632875E-08  0.3895776E+04  0.7818609E-02  0.8025908E-01
       -1   -1    0    0    0  501  0.00000000000E+00  0.00000000000E+00  0.17228549772E+04  0.17228549773E+04  0.50400001928E-02 0. -1.
        1   -1    0    0  501    0  0.00000000000E+00  0.00000000000E+00 -0.22023134962E+04  0.22023134962E+04  0.50400001928E-02 0.  1.
    10030    2    1    2    0    0  0.00000000000E+00  0.00000000000E+00 -0.47945851894E+03  0.39251684735E+04  0.38957755420E+04 0.  0.
        2    1    3    3  502    0  0.94033552555E+03 -0.55571569665E+03  0.13852677944E+04  0.17640911820E+04  0.25500000920E-02 0. -1.
       -2    1    3    3    0  502 -0.94033552555E+03  0.55571569665E+03 -0.18647263133E+04  0.21610772915E+04  0.25500000920E-02 0.  1.
</event>
<event>
 5   0  0.8676098E-08  0.3893241E+04  0.7818609E-02  0.8026436E-01
        2   -1    0    0  501    0  0.00000000000E+00  0.00000000000E+00  0.15926474033E+04  0.15926474033E+04  0.25500000920E-02 0. -1.
       -2   -1    0    0    0  501  0.00000000000E+00  0.00000000000E+00 -0.23792655307E+04  0.23792655307E+04  0.25500000920E-02 0.  1.
    10030    2    1    2    0    0  0.00000000000E+00  0.00000000000E+00 -0.78661812737E+03  0.39719129339E+04  0.38932408449E+04 0.  0.
        3    1    3    3  502    0 -0.15858051050E+04 -0.64094039705E+03 -0.13414701691E+04  0.21737351836E+04  0.10100000352E+00 0.  1.
       -3    1    3    3    0  502  0.15858051050E+04  0.64094039705E+03  0.55485204169E+03  0.17981777504E+04  0.10100000352E+00 0. -1.
</event>
<event>
 5   0  0.8438211E-08  0.3888918E+04  0.7818609E-02  0.8027338E-01
        2   -1    0    0  501    0  0.00000000000E+00  0.00000000000E+00  0.21103914017E+04  0.21103914017E+04  0.25500000920E-02 0. -1.
       -2   -1    0    0    0  501  0.00000000000E+00  0.00000000000E+00 -0.17915730355E+04  0.17915730355E+04  0.25500000920E-02 0.  1.
    10030    2    1    2    0    0  0.00000000000E+00  0.00000000000E+00  0.31881836622E+03  0.39019644371E+04  0.38889177567E+04 0.  0.
        5    1    3    3  502    0  0.66854276629E+03 -0.13880479466E+04 -0.10308554416E+04  0.18537290967E+04  0.46999998093E+01 0.  1.
       -5    1    3    3    0  502 -0.66854276629E+03  0.13880479466E+04  0.13496738079E+04  0.20482353405E+04  0.46999998093E+01 0. -1.
</event>
<event>
 5   0  0.8476262E-08  0.3967842E+04  0.7818609E-02  0.8011065E-01
       -2   -1    0    0    0  501  0.00000000000E+00  0.00000000000E+00  0.19253938658E+04  0.19253938658E+04  0.25500000920E-02 0.  1.
        2   -1    0    0  501    0  0.00000000000E+00  0.00000000000E+00 -0.20442273179E+04  0.20442273179E+04  0.25500000920E-02 0. -1.
    10030    2    1    2    0    0  0.00000000000E+00  0.00000000000E+00 -0.11883345207E+03  0.39696211837E+04  0.39678421028E+04 0.  0.
        2    1    3    3  502    0 -0.11629429683E+04  0.15369981891E+04 -0.52988597224E+03  0.19988944256E+04  0.25500000920E-02 0. -1.
       -2    1    3    3    0  502  0.11629429683E+04 -0.15369981891E+04  0.41105252017E+03  0.19707267582E+04  0.25500000920E-02 0.  1.
</event>
<event>
 5   0  0.2632875E-08  0.3901944E+04  0.7818609E-02  0.8024625E-01
       -1   -1    0    0    0  501  0.00000000000E+00  0.00000000000E+00  0.23597830156E+04  0.23597830156E+04  0.50400001928E-02 0. -1.
        1   -1    0    0  501    0  0.00000000000E+00  0.00000000000E+00 -0.16129838504E+04  0.16129838504E+04  0.50400001928E-02 0.  1.
    10030    2    1    2    0    0  0.00000000000E+00  0.00000000000E+00  0.74679916520E+03  0.39727668661E+04  0.39019440769E+04 0.  0.
        4    1    3    3  502    0  0.25104963867E+02  0.16229450016E+04 -0.72870300777E+03  0.17792106182E+04  0.12699999809E+01 0.  1.
       -4    1    3    3    0  502 -0.25104963867E+02 -0.16229450016E+04  0.14755021730E+04  0.21935562479E+04  0.12699999809E+01 0. -1.
</event>
<event>
 5   0  0.8551754E-08  0.3913318E+04  0.7818609E-02  0.8022265E-01
        2   -1    0    0  501    0  0.00000000000E+00  0.00000000000E+00  0.13415832050E+04  0.13415832050E+04  0.25500000920E-02 0. -1.
       -2   -1    0    0    0  501  0.00000000000E+00  0.00000000000E+00 -0.28537281584E+04  0.28537281584E+04  0.25500000920E-02 0.  1.
    10030    2    1    2    0    0  0.00000000000E+00  0.00000000000E+00 -0.15121449534E+04  0.41953113633E+04  0.39133176558E+04 0.  0.
        1    1    3    3  502    0 -0.48323829093E+03  0.18815782841E+04 -0.50543575093E+03  0.20073169613E+04  0.50400001928E-02 0. -1.
       -1    1    3    3    0  502  0.48323829093E+03 -0.18815782841E+04 -0.10067092025E+04  0.21879944020E+04  0.50400001928E-02 0.  1.
</event>
<event>
 5   0  0.2632875E-08  0.3900152E+04  0.7818609E-02  0.8024998E-01
       -1   -1    0    0    0  501  0.00000000000E+00  0.00000000000E+00  0.18854537992E+04  0.18854537992E+04  0.50400001928E-02 0.  1.
        1   -1    0    0  501    0  0.00000000000E+00  0.00000000000E+00 -0.20169129383E+04  0.20169129383E+04  0.50400001928E-02 0. -1.
    10030    2    1    2    0    0  0.00000000000E+00  0.00000000000E+00 -0.13145913911E+03  0.39023667374E+04  0.39001518750E+04 0.  0.
        2    1    3    3  502    0  0.13930530488E+04 -0.62939337715E+03  0.11457690660E+04  0.19103715798E+04  0.25500000920E-02 0.  1.
       -2    1    3    3    0  502 -0.13930530488E+04  0.62939337715E+03 -0.12772282051E+04  0.19919951577E+04  0.25500000920E-02 0. -1.
</event>
<event>
 5   0  0.2632875E-08  0.3900152E+04  0.7818609E-02  0.8024998E-01
        1   -1    0    0  501    0  0.00000000000E+00  0.00000000000E+00  0.12025844882E+04  0.12025844882E+04  0.50400001928E-02 0. -1.
       -1   -1    0    0    0  501  0.00000000000E+00  0.00000000000E+00 -0.31621869610E+04  0.31621869610E+04  0.50400001928E-02 0.  1.
    10030    2    1    2    0    0  0.00000000000E+00  0.00000000000E+00 -0.19596024728E+04  0.43647714492E+04  0.39001522986E+04 0.  0.
        1    1    3    3  502    0 -0.14143562507E+04  0.26379169668E+02  0.52237498255E+03  0.15079705193E+04  0.50400001928E-02 0. -1.
       -1    1    3    3    0  502  0.14143562507E+04 -0.26379169668E+02 -0.24819774554E+04  0.28568009300E+04  0.50400001928E-02 0.  1.
</event>
<event>
 5   0  0.2632875E-08  0.3887401E+04  0.7818609E-02  0.8027655E-01
        1   -1    0    0  501    0  0.00000000000E+00  0.00000000000E+00  0.13058828742E+04  0.13058828742E+04  0.50400001928E-02 0. -1.
       -1   -1    0    0    0  501  0.00000000000E+00  0.00000000000E+00 -0.28930407724E+04  0.28930407725E+04  0.50400001928E-02 0.  1.
    10030    2    1    2    0    0  0.00000000000E+00  0.00000000000E+00 -0.15871578982E+04  0.41989236467E+04  0.38874013939E+04 0.  0.
        3    1    3    3  502    0 -0.75968551068E+03  0.43752874527E+03 -0.26673646234E+04  0.28077370821E+04  0.10100000352E+00 0.  1.
       -3    1    3    3    0  502  0.75968551068E+03 -0.43752874527E+03  0.10802067252E+04  0.13911865646E+04  0.10100000352E+00 0. -1.
</event>
<event>
 5   0  0.2632875E-08  0.3886799E+04  0.7818609E-02  0.8027780E-01
       -1   -1    0    0    0  501  0.00000000000E+00  0.00000000000E+00  0.20547694101E+04  0.20547694101E+04  0.50400001928E-02 0. -1.
        1   -1    0    0  501    0  0.00000000000E+00  0.00000000000E+00 -0.18380662786E+04  0.18380662786E+04  0.50400001928E-02 0.  1.
    10030    2    1    2    0    0  0.00000000000E+00  0.00000000000E+00  0.21670313157E+03  0.38928356887E+04  0.38867993841E+04 0.  0.
        2    1    3    3  502    0 -0.45687397414E+03  0.94059348020E+03 -0.15322865874E+04  0.18550881675E+04  0.25500000920E-02 0.  1.
       -2    1    3    3    0  502  0.45687397414E+03 -0.94059348020E+03  0.17489897189E+04  0.20377475212E+04  0.25500000920E-02 0. -1.
</event>
<event>
 5   0  0.2632875E-08  0.3901158E+04  0.7818609E-02  0.8024788E-01
        1   -1    0    0  501    0  0.00000000000E+00  0.00000000000E+00  0.15071812937E+04  0.15071812937E+04  0.50400001928E-02 0.  1.
       -1   -1    0    0    0  501  0.00000000000E+00  0.00000000000E+00 -0.25244200560E+04  0.25244200560E+04  0.50400001928E-02 0. -1.
    10030    2    1    2    0    0  0.00000000000E+00  0.00000000000E+00 -0.10172387624E+04  0.40316013497E+04  0.39011581285E+04 0.  0.
        3    1    3    3  502    0 -0.62124602100E+03 -0.16223322929E+04 -0.14253252232E+04  0.22471005072E+04  0.10100000352E+00 0. -1.
       -3    1    3    3    0  502  0.62124602100E+03  0.16223322929E+04  0.40808646080E+03  0.17845008425E+04  0.10100000352E+00 0.  1.
</event>
<event>
 5   0  0.2632875E-08  0.3922518E+04  0.7818609E-02  0.8020362E-01
       -1   -1    0    0    0  501  0.00000000000E+00  0.00000000000E+00  0.16248860891E+04  0.16248860891E+04  0.50400001928E-02 0. -1.
        1   -1    0    0  501    0  0.00000000000E+00  0.00000000000E+00 -0.23672656626E+04  0.23672656626E+04  0.50400001928E-02 0.  1.
    10030    2    1    2    0    0  0.00000000000E+00  0.00000000000E+00 -0.74237957355E+03  0.39921517517E+04  0.39225180914E+04 0.  0.
        1    1    3    3  502    0 -0.10204664276E+04  0.13906109777E+03 -0.20699056490E+04  0.23119686665E+04  0.50400001928E-02 0.  1.
       -1    1    3    3    0  502  0.10204664276E+04 -0.13906109777E+03  0.13275260755E+04  0.16801830852E+04  0.50400001928E-02 0. -1.
</event>
<event>
 5   0  0.2632875E-08  0.3916997E+04  0.7818609E-02  0.8021503E-01
        1   -1    0    0  501    0  0.00000000000E+00  0.00000000000E+00  0.29810630831E+04  0.29810630831E+04  0.50400001928E-02 0. -1.
       -1   -1    0    0    0  501  0.00000000000E+00  0.00000000000E+00 -0.12866939191E+04  0.12866939191E+04  0.50400001928E-02 0.  1.
    10030    2    1    2    0    0  0.00000000000E+00  0.00000000000E+00  0.16943691640E+04  0.42677570022E+04  0.39169966768E+04 0.  0.
        2    1    3    3  502    0  0.87796938749E+03 -0.31336990164E+03 -0.10294606675E+04  0.13888197171E+04  0.25500000920E-02 0.  1.
       -2    1    3    3    0  502 -0.87796938749E+03  0.31336990164E+03  0.27238298315E+04  0.28789372851E+04  0.25500000920E-02 0. -1.
</event>
<event>
 5   0  0.8476262E-08  0.3896943E+04  0.7818609E-02  0.8025665E-01
       -2   -1    0    0    0  501  0.00000000000E+00  0.00000000000E+00  0.14468816328E+04  0.14468816328E+04  0.25500000920E-02 0.  1.
        2   -1    0    0  501    0  0.00000000000E+00  0.00000000000E+00 -0.26239467799E+04  0.26239467799E+04  0.25500000920E-02 0. -1.
    10030    2    1    2    0    0  0.00000000000E+00  0.00000000000E+00 -0.11770651471E+04  0.40708284127E+04  0.38969425971E+04 0.  0.
        2    1    3    3  502    0  0.12956468810E+04 -0.25009290251E+03 -0.20861320195E+04  0.24684396089E+04  0.25500000920E-02 0. -1.
       -2    1    3    3    0  502 -0.12956468810E+04  0.25009290251E+03  0.90906687238E+03  0.16023888038E+04  0.25500000920E-02 0.  1.
</event>
<event>
 5   0  0.2632875E-08  0.3879434E+04  0.7818609E-02  0.8029320E-01
        1   -1    0    0  501    0  0.00000000000E+00  0.00000000000E+00  0.24247979146E+04  0.24247979146E+04  0.50400001928E-02 0.  1.
       -1   -1    0    0    0  501  0.00000000000E+00  0.00000000000E+00 -0.15516768342E+04  0.15516768342E+04  0.50400001928E-02 0. -1.
    10030    2    1    2    0    0  0.00000000000E+00  0.00000000000E+00  0.87312108032E+03  0.39764747488E+04  0.38794343669E+04 0.  0.
        2    1    3    3  502    0 -0.16284895795E+04  0.10252166211E+04  0.18662662937E+03  0.19333589758E+04  0.25500000920E-02 0. -1.
       -2    1    3    3    0  502  0.16284895795E+04 -0.10252166211E+04  0.68649445095E+03  0.20431157730E+04  0.25500000920E-02 0.  1.
</event>
<event>
 5   0  0.2632875E-08  0.3906620E+04  0.7818609E-02  0.8023654E-01
        1   -1    0    0  501    0  0.00000000000E+00  0.00000000000E+00  0.21814437674E+04  0.21814437674E+04  0.50400001928E-02 0.  1.
       -1   -1    0    0    0  501  0.00000000000E+00  0.00000000000E+00 -0.17490342632E+04  0.17490342632E+04  0.50400001928E-02 0. -1.
    10030    2    1    2    0    0  0.00000000000E+00  0.00000000000E+00  0.43240950418E+03  0.39304780306E+04  0.39066199675E+04 0.  0.
        5    1    3    3  502    0  0.24594837912E+03  0.22071981533E+03 -0.17206990215E+04  0.17521515502E+04  0.46999998093E+01 0. -1.
       -5    1    3    3    0  502 -0.24594837912E+03 -0.22071981533E+03  0.21531085257E+04  0.21783264805E+04  0.46999998093E+01 0.  1.
</event>
<event>
 5   0  0.8676098E-08  0.3901813E+04  0.7818609E-02  0.8024652E-01
       -2   -1    0    0    0  501  0.00000000000E+00  0.00000000000E+00  0.31120796676E+04  0.31120796676E+04  0.25500000920E-02 0.  1.
        2   -1    0    0  501    0  0.00000000000E+00  0.00000000000E+00 -0.12229877939E+04  0.12229877939E+04  0.25500000920E-02 0. -1.
    10030    2    1    2    0    0  0.00000000000E+00  0.00000000000E+00  0.18890918737E+04  0.43350674615E+04  0.39018126286E+04 0.  0.
        3    1    3    3  502    0  0.41830284848E+03  0.96990420452E+03  0.27669025088E+04  0.29616618549E+04  0.10100000352E+00 0.  1.
       -3    1    3    3    0  502 -0.41830284848E+03 -0.96990420452E+03 -0.87781063515E+03  0.13734056066E+04  0.10100000352E+00 0. -1.
</event>
<event>
 5   0  0.8676098E-08  0.3921891E+04  0.7818609E-02  0.8020492E-01
       -2   -1    0    0    0  501  0.00000000000E+00  0.00000000000E+00  0.18253432400E+04  0.18253432400E+04  0.25500000920E-02 0. -1.
        2   -1    0    0  501    0  0.00000000000E+00  0.00000000000E+00 -0.21066219435E+04  0.21066219435E+04  0.25500000920E-02 0.  1.
    10030    2    1    2    0    0  0.00000000000E+00  0.00000000000E+00 -0.28127870350E+03  0.39319651835E+04  0.39218914436E+04 0.  0.
        3    1    3    3  502    0 -0.38894550859E+03 -0.33299227143E+03 -0.20384213658E+04  0.21017431185E+04  0.10100000352E+00 0.  1.
       -3    1    3    3    0  502  0.38894550859E+03  0.33299227143E+03  0.17571426623E+04  0.18302220650E+04  0.10100000352E+00 0. -1.
</event>
<event>
 5   0  0.8342802E-08  0.3881089E+04  0.7818609E-02  0.8028974E-01
        2   -1    0    0  501    0  0.00000000000E+00  0.00000000000E+00  0.18406189756E+04  0.18406189756E+04  0.25500000920E-02 0. -1.
       -2   -1    0    0    0  501  0.00000000000E+00  0.00000000000E+00 -0.20458952619E+04  0.20458952619E+04  0.25500000920E-02 0.  1.
    10030    2    1    2    0    0  0.00000000000E+00  0.00000000000E+00 -0.20527628635E+03  0.38865142375E+04  0.38810893528E+04 0.  0.
        4    1    3    3  502    0 -0.37940346929E+03  0.10502787244E+04  0.14866150293E+04  0.18593166082E+04  0.12699999809E+01 0. -1.
       -4    1    3    3    0  502  0.37940346929E+03 -0.10502787244E+04 -0.16918913156E+04  0.20271976293E+04  0.12699999809E+01 0.  1.
</event>
<event>
 5   0  0.8676098E-08  0.3855703E+04  0.7818609E-02  0.8034306E-01
        2   -1    0    0  501    0  0.00000000000E+00  0.00000000000E+00  0.21786816920E+04  0.21786816920E+04  0.25500000920E-02 0. -1.
       -2   -1    0    0    0  501  0.00000000000E+00  0.00000000000E+00 -0.17058988184E+04  0.17058988184E+04  0.25500000920E-02 0.  1.
    10030    2    1    2    0    0  0.00000000000E+00  0.00000000000E+00  0.47278287358E+03  0.38845805104E+04  0.38557025425E+04 0.  0.
        3    1    3    3  502    0  0.13578701905E+04 -0.13141237189E+04 -0.14840883759E+03  0.18954571470E+04  0.10100000352E+00 0.  1.
       -3    1    3    3    0  502 -0.13578701905E+04  0.13141237189E+04  0.62119171116E+03  0.19891233634E+04  0.10100000352E+00 0. -1.
</event>
<event>
 5   0  0.8551754E-08  0.3899442E+04  0.7818609E-02  0.8025145E-01
        2   -1    0    0  501    0  0.00000000000E+00  0.00000000000E+00  0.10562203608E+04  0.10562203608E+04  0.25500000920E-02 0. -1.
       -2   -1    0    0    0  501  0.00000000000E+00  0.00000000000E+00 -0.35990708562E+04  0.35990708562E+04  0.25500000920E-02 0.  1.
    10030    2    1    2    0    0  0.00000000000E+00  0.00000000000E+00 -0.25428504953E+04  0.46552912170E+04  0.38994419695E+04 0.  0.
        1    1    3    3  502    0  0.10125058067E+04  0.94259238530E+03  0.36885549131E+03  0.14316783113E+04  0.50400001928E-02 0. -1.
       -1    1    3    3    0  502 -0.10125058067E+04 -0.94259238530E+03 -0.29117059866E+04  0.32236129057E+04  0.50400001928E-02 0.  1.
</event>
<event>
 5   0  0.8438211E-08  0.3902000E+04  0.7818609E-02  0.8024613E-01
       -2   -1    0    0    0  501  0.00000000000E+00  0.00000000000E+00  0.18902198135E+04  0.18902198135E+04  0.25500000920E-02 0.  1.
        2   -1    0    0  501    0  0.00000000000E+00  0.00000000000E+00 -0.20137343343E+04  0.20137343343E+04  0.25500000920E-02 0. -1.
    10030    2    1    2    0    0  0.00000000000E+00  0.00000000000E+00 -0.12351452083E+03  0.39039541478E+04  0.39019997631E+04 0.  0.
        5    1    3    3  502    0  0.18326592593E+04  0.35014060141E+03 -0.63225338850E+03  0.19700266086E+04  0.46999998093E+01 0. -1.
       -5    1    3    3    0  502 -0.18326592593E+04 -0.35014060141E+03  0.50873886766E+03  0.19339275392E+04  0.46999998093E+01 0.  1.
</event>
<event>
 5   0  0.8438211E-08  0.3667022E+04  0.7818609E-02  0.8075310E-01
        2   -1    0    0  501    0  0.00000000000E+00  0.00000000000E+00  0.18899903982E+04  0.18899903982E+04  0.25500000920E-02 0.  1.
       -2   -1    0    0    0  501  0.00000000000E+00  0.00000000000E+00 -0.17787198810E+04  0.17787198810E+04  0.25500000920E-02 0. -1.
    10030    2    1    2    0    0  0.00000000000E+00  0.00000000000E+00  0.11127051719E+03  0.36687102793E+04  0.36670224959E+04 0.  0.
        5    1    3    3  502    0 -0.14592752999E+04  0.80281904794E+03 -0.71135869918E+03  0.18110925193E+04  0.46999998093E+01 0.  1.
       -5    1    3    3    0  502  0.14592752999E+04 -0.80281904794E+03  0.82262921637E+03  0.18576177600E+04  0.46999998093E+01 0. -1.
</event>
<event>
 5   0  0.2632875E-08  0.3892425E+04  0.7818609E-02  0.8026607E-01
        1   -1    0    0  501    0  0.00000000000E+00  0.00000000000E+00  0.19300237517E+04  0.19300237517E+04  0.50400001928E-02 0.  1.
       -1   -1    0    0    0  501  0.00000000000E+00  0.00000000000E+00 -0.19625366994E+04  0.19625366994E+04  0.50400001928E-02 0. -1.
    10030    2    1    2    0    0  0.00000000000E+00  0.00000000000E+00 -0.32512947724E+02  0.38925604512E+04  0.38924246652E+04 0.  0.
        5    1    3    3  502    0 -0.71092587310E+02  0.26829181666E+03  0.19101247437E+04  0.19301899599E+04  0.46999998093E+01 0.  1.
       -5    1    3    3    0  502  0.71092587310E+02 -0.26829181666E+03 -0.19426376914E+04  0.19623704913E+04  0.46999998093E+01 0. -1.
</event>
<event>
 5   0  0.2632875E-08  0.3843987E+04  0.7818609E-02  0.8036781E-01
        1   -1    0    0  501    0  0.00000000000E+00  0.00000000000E+00  0.20996171419E+04  0.20996171419E+04  0.50400001928E-02 0.  1.
       -1   -1    0    0    0  501  0.00000000000E+00  0.00000000000E+00 -0.17593969130E+04  0.17593969130E+04  0.50400001928E-02 0. -1.
    10030    2    1    2    0    0  0.00000000000E+00  0.00000000000E+00  0.34022022892E+03  0.38590140549E+04  0.38439874703E+04 0.  0.
        1    1    3    3  502    0  0.10077225218E+04  0.10773115015E+04  0.14069795825E+04  0.20385525006E+04  0.50400001928E-02 0.  1.
       -1    1    3    3    0  502 -0.10077225218E+04 -0.10773115015E+04 -0.10667593535E+04  0.18204615543E+04  0.50400001928E-02 0. -1.
</event>
<event>
 5   0  0.2632875E-08  0.3921739E+04  0.7818609E-02  0.8020523E-01
        1   -1    0    0  501    0  0.00000000000E+00  0.00000000000E+00  0.26871776717E+04  0.26871776717E+04  0.50400001928E-02 0.  1.
       -1   -1    0    0    0  501  0.00000000000E+00  0.00000000000E+00 -0.14308730490E+04  0.14308730490E+04  0.50400001928E-02 0. -1.
    10030    2    1    2    0    0  0.00000000000E+00  0.00000000000E+00  0.12563046227E+04  0.41180507207E+04  0.39217394652E+04 0.  0.
        3    1    3    3  502    0  0.10789981708E+04  0.12947742310E+03 -0.10857290961E+04  0.15361670274E+04  0.10100000352E+00 0. -1.
       -3    1    3    3    0  502 -0.10789981708E+04 -0.12947742310E+03  0.23420337188E+04  0.25818836933E+04  0.10100000352E+00 0.  1.
</event>
<event>
 5   0  0.2632875E-08  0.3653486E+04  0.7818609E-02  0.8078349E-01
       -1   -1    0    0    0  501  0.00000000000E+00  0.00000000000E+00  0.24356529427E+04  0.24356529427E+04  0.50400001928E-02 0. -1.
        1   -1    0    0  501    0  0.00000000000E+00  0.00000000000E+00 -0.13700596712E+04  0.13700596712E+04  0.50400001928E-02 0.  1.
    10030    2    1    2    0    0  0.00000000000E+00  0.00000000000E+00  0.10655932715E+04  0.38057126139E+04  0.36534859353E+04 0.  0.
        1    1    3    3  502    0 -0.46064413954E+03 -0.33651639154E+03 -0.12748929082E+04  0.13967062083E+04  0.50400001928E-02 0.  1.
       -1    1    3    3    0  502  0.46064413954E+03  0.33651639154E+03  0.23404861796E+04  0.24090064056E+04  0.50400001928E-02 0. -1.
</event>
<event>
 5   0  0.2632875E-08  0.3913403E+04  0.7818609E-02  0.8022247E-01
        1   -1    0    0  501    0  0.00000000000E+00  0.00000000000E+00  0.12741316464E+04  0.12741316464E+04  0.50400001928E-02 0. -1.
       -1   -1    0    0    0  501  0.00000000000E+00  0.00000000000E+00 -0.30049332960E+04  0.30049332960E+04  0.50400001928E-02 0.  1.
    10030    2    1    2    0    0  0.00000000000E+00  0.00000000000E+00 -0.17308016496E+04  0.42790649424E+04  0.39134029222E+04 0.  0.
        4    1    3    3  502    0  0.12086078056E+03 -0.38709847569E+02 -0.30004280085E+04  0.30031109915E+04  0.12699999809E+01 0.  1.
       -4    1    3    3    0  502 -0.12086078056E+03  0.38709847569E+02  0.12696263589E+04  0.12759539509E+04  0.12699999809E+01 0. -1.
</event>
<event>
 5   0  0.8342802E-08  0.3887059E+04  0.7818609E-02  0.8027726E-01
        2   -1    0    0  501    0  0.00000000000E+00  0.00000000000E+00  0.19273586493E+04  0.19273586493E+04  0.25500000920E-02 0. -1.
       -2   -1    0    0    0  501  0.00000000000E+00  0.00000000000E+00 -0.19598364228E+04  0.19598364228E+04  0.25500000920E-02 0.  1.
    10030    2    1    2    0    0  0.00000000000E+00  0.00000000000E+00 -0.32477773523E+02  0.38871950722E+04  0.38870593928E+04 0.  0.
        4    1    3    3  502    0  0.20718245336E+02 -0.15999016326E+04 -0.11195414575E+04  0.19528157025E+04  0.12699999809E+01 0.  1.
       -4    1    3    3    0  502 -0.20718245336E+02  0.15999016326E+04  0.10870636840E+04  0.19343793697E+04  0.12699999809E+01 0. -1.
</event>
<event>
 5   0  0.8438211E-08  0.3823973E+04  0.7818609E-02  0.8041030E-01
       -2   -1    0    0    0  501  0.00000000000E+00  0.00000000000E+00  0.17150935862E+04  0.17150935862E+04  0.25500000920E-02 0. -1.
        2   -1    0    0  501    0  0.00000000000E+00  0.00000000000E+00 -0.21314828695E+04  0.21314828695E+04  0.25500000920E-02 0.  1.
    10030    2    1    2    0    0  0.00000000000E+00  0.00000000000E+00 -0.41638928331E+03  0.38465764558E+04  0.38239731164E+04 0.  0.
        5    1    3    3  502    0  0.12254837505E+04 -0.52227940502E+03 -0.15878279439E+04  0.20726325939E+04  0.46999998093E+01 0.  1.
       -5    1    3    3    0  502 -0.12254837505E+04  0.52227940502E+03  0.11714386606E+04  0.17739438619E+04  0.46999998093E+01 0. -1.
</event>
<event>
 5   0  0.2632875E-08  0.3861641E+04  0.7818609E-02  0.8033055E-01
        1   -1    0    0  501    0  0.00000000000E+00  0.00000000000E+00  0.22161248466E+04  0.22161248466E+04  0.50400001928E-02 0. -1.
       -1   -1    0    0    0  501  0.00000000000E+00  0.00000000000E+00 -0.16822467008E+04  0.16822467008E+04  0.50400001928E-02 0.  1.
    10030    2    1    2    0    0  0.00000000000E+00  0.00000000000E+00  0.53387814574E+03  0.38983715474E+04  0.38616414705E+04 0.  0.
        1    1    3    3  502    0  0.70740798762E+02  0.32813985238E+03 -0.16525638436E+04  0.16863117389E+04  0.50400001928E-02 0.  1.
       -1    1    3    3    0  502 -0.70740798762E+02 -0.32813985238E+03  0.21864419894E+04  0.22120598085E+04  0.50400001928E-02 0. -1.
</event>
<event>
 5   0  0.8676098E-08  0.3899859E+04  0.7818609E-02  0.8025058E-01
       -2   -1    0    0    0  501  0.00000000000E+00  0.00000000000E+00  0.14966447101E+04  0.14966447101E+04  0.25500000920E-02 0.  1.
        2   -1    0    0  501    0  0.00000000000E+00  0.00000000000E+00 -0.25405000657E+04  0.25405000657E+04  0.25500000920E-02 0. -1.
    10030    2    1    2    0    0  0.00000000000E+00  0.00000000000E+00 -0.10438553557E+04  0.40371447758E+04  0.38998594766E+04 0.  0.
        3    1    3    3  502    0 -0.13655197788E+03 -0.26744840677E+03 -0.25164198021E+04  0.25342738060E+04  0.10100000352E+00 0. -1.
       -3    1    3    3    0  502  0.13655197788E+03  0.26744840677E+03  0.14725644464E+04  0.15028709698E+04  0.10100000352E+00 0.  1.
</event>
<event>
 5   0  0.8551754E-08  0.3925395E+04  0.7818609E-02  0.8019768E-01
       -2   -1    0    0    0  501  0.00000000000E+00  0.00000000000E+00  0.27751156896E+04  0.27751156896E+04  0.25500000920E-02 0.  1.
        2   -1    0    0  501    0  0.00000000000E+00  0.00000000000E+00 -0.13881155158E+04  0.13881155158E+04  0.25500000920E-02 0. -1.
    10030    2    1    2    0    0  0.00000000000E+00  0.00000000000E+00  0.13870001739E+04  0.41632312054E+04  0.39253948320E+04 0.  0.
        1    1    3    3  502    0  0.19119954289E+04  0.16348161502E+03  0.11304427258E+04  0.22271851102E+04  0.50400001928E-02 0.  1.
       -1    1    3    3    0  502 -0.19119954289E+04 -0.16348161502E+03  0.25655744805E+03  0.19360460952E+04  0.50400001928E-02 0. -1.
</event>
<event>
 5   0  0.8476262E-08  0.3926782E+04  0.7818609E-02  0.8019482E-01
        2   -1    0    0  501    0  0.00000000000E+00  0.00000000000E+00  0.15746796453E+04  0.15746796454E+04  0.25500000920E-02 0. -1.
       -2   -1    0    0    0  501  0.00000000000E+00  0.00000000000E+00 -0.24480557439E+04  0.24480557439E+04  0.25500000920E-02 0.  1.
    10030    2    1    2    0    0  0.00000000000E+00  0.00000000000E+00 -0.87337609858E+03  0.40227353893E+04  0.39267816597E+04 0.  0.
        2    1    3    3  502    0 -0.12371797144E+04 -0.13949511557E+04 -0.10668627332E+04  0.21481849231E+04  0.25500000920E-02 0.  1.
       -2    1    3    3    0  502  0.12371797144E+04  0.13949511557E+04  0.19348663458E+03  0.18745504662E+04  0.25500000920E-02 0. -1.
</event>
<event>
 5   0  0.2632875E-08  0.3878727E+04  0.7818609E-02  0.8029468E-01
        1   -1    0    0  501    0  0.00000000000E+00  0.00000000000E+00  0.13685448657E+04  0.13685448657E+04  0.50400001928E-02 0.  1.
       -1   -1    0    0    0  501  0.00000000000E+00  0.00000000000E+00 -0.27482695001E+04  0.27482695001E+04  0.50400001928E-02 0. -1.
    10030    2    1    2    0    0  0.00000000000E+00  0.00000000000E+00 -0.13797246344E+04  0.41168143658E+04  0.38787266539E+04 0.  0.
        2    1    3    3  502    0 -0.11985954799E+04 -0.10725728867E+04 -0.18399266560E+04  0.24438440664E+04  0.25500000920E-02 0. -1.
       -2    1    3    3    0  502  0.11985954799E+04  0.10725728867E+04  0.46020202161E+03  0.16729702993E+04  0.25500000920E-02 0.  1.
</event>
<event>
 5   0  0.2632875E-08  0.3840308E+04  0.7818609E-02  0.8037560E-01
        1   -1    0    0  501    0  0.00000000000E+00  0.00000000000E+00  0.20415671402E+04  0.20415671402E+04  0.50400001928E-02 0.  1.
       -1   -1    0    0    0  501  0.00000000000E+00  0.00000000000E+00 -0.18059614993E+04  0.18059614993E+04  0.50400001928E-02 0. -1.
    10030    2    1    2    0    0  0.00000000000E+00  0.00000000000E+00  0.23560564090E+03  0.38475286395E+04  0.38403081405E+04 0.  0.
        4    1    3    3  502    0 -0.11224298020E+04  0.14096230250E+04  0.78245372170E+03  0.19644646020E+04  0.12699999809E+01 0.  1.
       -4    1    3    3    0  502  0.11224298020E+04 -0.14096230250E+04 -0.54684808080E+03  0.18830640375E+04  0.12699999809E+01 0. -1.
</event>
<event>
 5   0  0.8438211E-08  0.3902531E+04  0.7818609E-02  0.8024503E-01
       -2   -1    0    0    0  501  0.00000000000E+00  0.00000000000E+00  0.22792878099E+04  0.22792878099E+04  0.25500000920E-02 0. -1.
        2   -1    0    0  501    0  0.00000000000E+00  0.00000000000E+00 -0.16704507313E+04  0.16704507313E+04  0.25500000920E-02 0.  1.
    10030    2    1    2    0    0  0.00000000000E+00  0.00000000000E+00  0.60883707859E+03  0.39497385413E+04  0.39025314805E+04 0.  0.
        5    1    3    3  502    0  0.53940327242E+03  0.16296278325E+04 -0.63458295867E+03  0.18301257837E+04  0.46999998093E+01 0.  1.
       -5    1    3    3    0  502 -0.53940327242E+03 -0.16296278325E+04  0.12434200373E+04  0.21196127575E+04  0.46999998093E+01 0. -1.
</event>
<event>
 5   0  0.2632875E-08  0.3763803E+04  0.7818609E-02  0.8053967E-01
        1   -1    0    0  501    0  0.00000000000E+00  0.00000000000E+00  0.26337524519E+04  0.26337524519E+04  0.50400001928E-02 0. -1.
       -1   -1    0    0    0  501  0.00000000000E+00  0.00000000000E+00 -0.13446799629E+04  0.13446799629E+04  0.50400001928E-02 0.  1.
    10030    2    1    2    0    0  0.00000000000E+00  0.00000000000E+00  0.12890724889E+04  0.39784324148E+04  0.37638034749E+04 0.  0.
        2    1    3    3  502    0  0.28656377728E+03 -0.34982879289E+03 -0.12863946845E+04  0.13635652779E+04  0.25500000920E-02 0.  1.
       -2    1    3    3    0  502 -0.28656377728E+03  0.34982879289E+03  0.25754671734E+04  0.26148671370E+04  0.25500000920E-02 0. -1.
</event>
<event>
 5   0  0.2632875E-08  0.3895288E+04  0.7818609E-02  0.8026010E-01
        1   -1    0    0  501    0  0.00000000000E+00  0.00000000000E+00  0.27484149625E+04  0.27484149625E+04  0.50400001928E-02 0.  1.
       -1   -1    0    0    0  501  0.00000000000E+00  0.00000000000E+00 -0.13801834996E+04  0.13801834996E+04  0.50400001928E-02 0. -1.
    10030    2    1    2    0    0  0.00000000000E+00  0.00000000000E+00  0.13682314629E+04  0.41285984620E+04  0.38952879129E+04 0.  0.
        5    1    3    3  502    0  0.96852231155E+03  0.24729786898E+03  0.24557917376E+04  0.26514386382E+04  0.46999998093E+01 0.  1.
       -5    1    3    3    0  502 -0.96852231155E+03 -0.24729786898E+03 -0.10875602747E+04  0.14771598238E+04  0.46999998093E+01 0. -1.
</event>
<event>
 5   0  0.2632875E-08  0.3895271E+04  0.7818609E-02  0.8026014E-01
       -1   -1    0    0    0  501  0.00000000000E+00  0.00000000000E+00  0.13879799855E+04  0.13879799855E+04  0.50400001928E-02 0. -1.
        1   -1    0    0  501    0  0.00000000000E+00  0.00000000000E+00 -0.27329525374E+04  0.27329525374E+04  0.50400001928E-02 0.  1.
    10030    2    1    2    0    0  0.00000000000E+00  0.00000000000E+00 -0.13449725519E+04  0.41209325228E+04  0.38952706828E+04 0.  0.
        4    1    3    3  502    0  0.62269636274E+03  0.14920769321E+04  0.47635094535E+03  0.16855136213E+04  0.12699999809E+01 0. -1.
       -4    1    3    3    0  502 -0.62269636274E+03 -0.14920769321E+04 -0.18213234973E+04  0.24354189016E+04  0.12699999809E+01 0.  1.
</event>
<event>
 5   0  0.2632875E-08  0.3876757E+04  0.7818609E-02  0.8029881E-01
       -1   -1    0    0    0  501  0.00000000000E+00  0.00000000000E+00  0.13015831932E+04  0.13015831932E+04  0.50400001928E-02 0. -1.
        1   -1    0    0  501    0  0.00000000000E+00  0.00000000000E+00 -0.28867243881E+04  0.28867243881E+04  0.50400001928E-02 0.  1.
    10030    2    1    2    0    0  0.00000000000E+00  0.00000000000E+00 -0.15851411950E+04  0.41883075813E+04  0.38767573806E+04 0.  0.
        3    1    3    3  502    0 -0.10551271083E+03  0.48410751313E+03  0.12320143459E+04  0.13279127890E+04  0.10100000352E+00 0. -1.
       -3    1    3    3    0  502  0.10551271083E+03 -0.48410751313E+03 -0.28171555409E+04  0.28603947923E+04  0.10100000352E+00 0.  1.
</event>
<event>
 5   0  0.2632875E-08  0.3968108E+04  0.7818609E-02  0.8011011E-01
        1   -1    0    0  501    0  0.00000000000E+00  0.00000000000E+00  0.15937934947E+04  0.15937934947E+04  0.50400001928E-02 0.  1.
       -1   -1    0    0    0  501  0.00000000000E+00  0.00000000000E+00 -0.24698748524E+04  0.24698748524E+04  0.50400001928E-02 0. -1.
    10030    2    1    2    0    0  0.00000000000E+00  0.00000000000E+00 -0.87608135778E+03  0.40636683471E+04  0.39681080996E+04 0.  0.
        5    1    3    3  502    0 -0.46900507290E+03  0.46363220766E+03 -0.23543409047E+04  0.24449670280E+04  0.46999998093E+01 0. -1.
       -5    1    3    3    0  502  0.46900507290E+03 -0.46363220766E+03  0.14782595469E+04  0.16187013191E+04  0.46999998093E+01 0.  1.
</event>
<event>
 5   0  0.2632875E-08  0.3903248E+04  0.7818609E-02  0.8024354E-01
        1   -1    0    0  501    0  0.00000000000E+00  0.00000000000E+00  0.18542672688E+04  0.18542672688E+04  0.50400001928E-02 0. -1.
       -1   -1    0    0    0  501  0.00000000000E+00  0.00000000000E+00 -0.20540927060E+04  0.20540927060E+04  0.50400001928E-02 0.  1.
    10030    2    1    2    0    0  0.00000000000E+00  0.00000000000E+00 -0.19982543725E+03  0.39083599748E+04  0.39032483251E+04 0.  0.
        1    1    3    3  502    0 -0.17148361860E+04 -0.73323898006E+03 -0.67558677569E+03  0.19836128751E+04  0.50400001928E-02 0.  1.
       -1    1    3    3    0  502  0.17148361860E+04  0.73323898006E+03  0.47576133844E+03  0.19247470997E+04  0.50400001928E-02 0. -1.
</event>
<event>
 5   0  0.8551754E-08  0.3897118E+04  0.7818609E-02  0.8025629E-01
        2   -1    0    0  501    0  0.00000000000E+00  0.00000000000E+00  0.21824989517E+04  0.21824989517E+04  0.25500000920E-02 0. -1.
       -2   -1    0    0    0  501  0.00000000000E+00  0.00000000000E+00 -0.17396945726E+04  0.17396945726E+04  0.25500000920E-02 0.  1.
    10030    2    1    2    0    0  0.00000000000E+00  0.00000000000E+00  0.44280437911E+03  0.39221935242E+04  0.38971176943E+04 0.  0.
        1    1    3    3  502    0  0.15042292401E+04 -0.95194157502E+03  0.10189551168E+04  0.20511381960E+04  0.50400001928E-02 0. -1.
       -1    1    3    3    0  502 -0.15042292401E+04  0.95194157502E+03 -0.57615073765E+03  0.18710553283E+04  0.50400001928E-02 0.  1.
</event>
<event>
 5   0  0.2632875E-08  0.3934572E+04  0.7818609E-02  0.8017877E-01
        1   -1    0    0  501    0  0.00000000000E+00  0.00000000000E+00  0.16870682435E+04  0.16870682435E+04  0.50400001928E-02 0. -1.
       -1   -1    0    0    0  501  0.00000000000E+00  0.00000000000E+00 -0.22940469378E+04  0.22940469378E+04  0.50400001928E-02 0.  1.
    10030    2    1    2    0    0  0.00000000000E+00  0.00000000000E+00 -0.60697869431E+03  0.39811151813E+04  0.39345717621E+04 0.  0.
        1    1    3    3  502    0 -0.53723981981E+03 -0.18847979899E+04 -0.47616463220E+03  0.20168844399E+04  0.50400001928E-02 0. -1.
       -1    1    3    3    0  502  0.53723981981E+03  0.18847979899E+04 -0.13081406211E+03  0.19642307414E+04  0.50400001928E-02 0.  1.
</event>
<event>
 5   0  0.8342802E-08  0.3893241E+04  0.7818609E-02  0.8026436E-01
       -2   -1    0    0    0  501  0.00000000000E+00  0.00000000000E+00  0.98246785941E+03  0.98246785941E+03  0.25500000920E-02 0.  1.
        2   -1    0    0  501    0  0.00000000000E+00  0.00000000000E+00 -0.38569528510E+04  0.38569528510E+04  0.25500000920E-02 0. -1.
    10030    2    1    2    0    0  0.00000000000E+00  0.00000000000E+00 -0.28744849916E+04  0.48394207105E+04  0.38932414317E+04 0.  0.
        4    1    3    3  502    0  0.94594724977E+03 -0.15529396695E+04 -0.23010309590E+04  0.29327773362E+04  0.12699999809E+01 0. -1.
       -4    1    3    3    0  502 -0.94594724977E+03  0.15529396695E+04 -0.57345403263E+03  0.19066433743E+04  0.12699999809E+01 0.  1.
</event>
<event>
 5   0  0.8438211E-08  0.3894143E+04  0.7818609E-02  0.8026248E-01
       -2   -1    0    0    0  501  0.00000000000E+00  0.00000000000E+00  0.30321357864E+04  0.30321357864E+04  0.25500000920E-02 0.  1.
        2   -1    0    0  501    0  0.00000000000E+00  0.00000000000E+00 -0.12503027144E+04  0.12503027144E+04  0.25500000920E-02 0. -1.
    10030    2    1    2    0    0  0.00000000000E+00  0.00000000000E+00  0.17818330721E+04  0.42824385008E+04  0.38941430914E+04 0.  0.
        5    1    3    3  502    0  0.21945712775E+03 -0.10110318524E+04 -0.92301565480E+03  0.13864800130E+04  0.46999998093E+01 0. -1.
       -5    1    3    3    0  502 -0.21945712775E+03  0.10110318524E+04  0.27048487269E+04  0.28959584877E+04  0.46999998093E+01 0.  1.
</event>
<event>
 5   0  0.2632875E-08  0.3885778E+04  0.7818609E-02  0.8027994E-01
       -1   -1    0    0    0  501  0.00000000000E+00  0.00000000000E+00  0.21221263210E+04  0.21221263210E+04  0.50400001928E-02 0.  1.
        1   -1    0    0  501    0  0.00000000000E+00  0.00000000000E+00 -0.17787907263E+04  0.17787907263E+04  0.50400001928E-02 0. -1.
    10030    2    1    2    0    0  0.00000000000E+00  0.00000000000E+00  0.34333559468E+03  0.39009170473E+04  0.38857784908E+04 0.  0.
        2    1    3    3  502    0  0.13681376874E+04 -0.59725675924E+03 -0.10766807763E+04  0.18405862822E+04  0.25500000920E-02 0. -1.
       -2    1    3    3    0  502 -0.13681376874E+04  0.59725675924E+03  0.14200163710E+04  0.20603307652E+04  0.25500000920E-02 0.  1.
</event>
<event>
 5   0  0.2632875E-08  0.3900556E+04  0.7818609E-02  0.8024914E-01
        1   -1    0    0  501    0  0.00000000000E+00  0.00000000000E+00  0.19646472869E+04  0.19646472869E+04  0.50400001928E-02 0. -1.
       -1   -1    0    0    0  501  0.00000000000E+00  0.00000000000E+00 -0.19360139677E+04  0.19360139677E+04  0.50400001928E-02 0.  1.
    10030    2    1    2    0    0  0.00000000000E+00  0.00000000000E+00  0.28633319254E+02  0.39006612546E+04  0.39005561599E+04 0.  0.
        1    1    3    3  502    0  0.99059119093E+02  0.16224383528E+03 -0.19267273474E+04  0.19360821373E+04  0.50400001928E-02 0.  1.
       -1    1    3    3    0  502 -0.99059119093E+02 -0.16224383528E+03  0.19553606667E+04  0.19645791173E+04  0.50400001928E-02 0. -1.
</event>
<event>
 5   0  0.8476262E-08  0.3868372E+04  0.7818609E-02  0.8031640E-01
        2   -1    0    0  501    0  0.00000000000E+00  0.00000000000E+00  0.19631380038E+04  0.19631380038E+04  0.25500000920E-02 0.  1.
       -2   -1    0    0    0  501  0.00000000000E+00  0.00000000000E+00 -0.19056605980E+04  0.19056605980E+04  0.25500000920E-02 0. -1.
    10030    2    1    2    0    0  0.00000000000E+00  0.00000000000E+00  0.57477405767E+02  0.38687986018E+04  0.38683716173E+04 0.  0.
        2    1    3    3  502    0 -0.81402828474E+03 -0.51991224772E+03 -0.16471920520E+04  0.19095005760E+04  0.25500000920E-02 0. -1.
       -2    1    3    3    0  502  0.81402828474E+03  0.51991224772E+03  0.17046694578E+04  0.19592980258E+04  0.25500000920E-02 0.  1.
</event>
<event>
 5   0  0.2632875E-08  0.3910715E+04  0.7818609E-02  0.8022804E-01
       -1   -1    0    0    0  501  0.00000000000E+00  0.00000000000E+00  0.23725374143E+04  0.23725374143E+04  0.50400001928E-02 0. -1.
        1   -1    0    0  501    0  0.00000000000E+00  0.00000000000E+00 -0.16115335821E+04  0.16115335821E+04  0.50400001928E-02 0.  1.
    10030    2    1    2    0    0  0.00000000000E+00  0.00000000000E+00  0.76100383221E+03  0.39840709965E+04  0.39107153913E+04 0.  0.
        3    1    3    3  502    0 -0.17045718921E+04  0.95585637917E+03  0.31450281687E+03  0.19794289037E+04  0.10100000352E+00 0.  1.
       -3    1    3    3    0  502  0.17045718921E+04 -0.95585637917E+03  0.44650101534E+03  0.20046420927E+04  0.10100000352E+00 0. -1.
</event>
<event>
 5   0  0.2632875E-08  0.3918851E+04  0.7818609E-02  0.8021120E-01
        1   -1    0    0  501    0  0.00000000000E+00  0.00000000000E+00  0.13987200670E+04  0.13987200671E+04  0.50400001928E-02 0. -1.
       -1   -1    0    0    0  501  0.00000000000E+00  0.00000000000E+00 -0.27449014349E+04  0.27449014349E+04  0.50400001928E-02 0.  1.
    10030    2    1    2    0    0  0.00000000000E+00  0.00000000000E+00 -0.13461813679E+04  0.41436215020E+04  0.39188512190E+04 0.  0.
        3    1    3    3  502    0 -0.69337626763E+03 -0.10257064264E+04 -0.22789165347E+04  0.25935120790E+04  0.10100000352E+00 0.  1.
       -3    1    3    3    0  502  0.69337626763E+03  0.10257064264E+04  0.93273516681E+03  0.15501094230E+04  0.10100000352E+00 0. -1.
</event>
<event>
 5   0  0.8476262E-08  0.3891560E+04  0.7818609E-02  0.8026787E-01
        2   -1    0    0  501    0  0.00000000000E+00  0.00000000000E+00  0.24158634651E+04  0.24158634651E+04  0.25500000920E-02 0.  1.
       -2   -1    0    0    0  501  0.00000000000E+00  0.00000000000E+00 -0.15671666208E+04  0.15671666208E+04  0.25500000920E-02 0. -1.
    10030    2    1    2    0    0  0.00000000000E+00  0.00000000000E+00  0.84869684430E+03  0.39830300860E+04  0.38915603981E+04 0.  0.
        2    1    3    3  502    0 -0.12128414445E+04  0.13382359911E+04 -0.31668635043E+03  0.18336166944E+04  0.25500000920E-02 0. -1.
       -2    1    3    3    0  502  0.12128414445E+04 -0.13382359911E+04  0.11653831947E+04  0.21494133916E+04  0.25500000920E-02 0.  1.
</event>
<event>
 5   0  0.2632875E-08  0.3879977E+04  0.7818609E-02  0.8029207E-01
       -1   -1    0    0    0  501  0.00000000000E+00  0.00000000000E+00  0.22271580117E+04  0.22271580117E+04  0.50400001928E-02 0. -1.
        1   -1    0    0  501    0  0.00000000000E+00  0.00000000000E+00 -0.16898465079E+04  0.16898465079E+04  0.50400001928E-02 0.  1.
    10030    2    1    2    0    0  0.00000000000E+00  0.00000000000E+00  0.53731150375E+03  0.39170045196E+04  0.38799769013E+04 0.  0.
        5    1    3    3  502    0 -0.10335064617E+04 -0.15707542137E+04 -0.21353057159E+03  0.18923587929E+04  0.46999998093E+01 0.  1.
       -5    1    3    3    0  502  0.10335064617E+04  0.15707542137E+04  0.75084207534E+03  0.20246457266E+04  0.46999998093E+01 0. -1.
</event>
<event>
 5   0  0.8676098E-08  0.3864867E+04  0.7818609E-02  0.8032376E-01
       -2   -1    0    0    0  501  0.00000000000E+00  0.00000000000E+00  0.13846760001E+04  0.13846760001E+04  0.25500000920E-02 0. -1.
        2   -1    0    0  501    0  0.00000000000E+00  0.00000000000E+00 -0.26968763786E+04  0.26968763786E+04  0.25500000920E-02 0.  1.
    10030    2    1    2    0    0  0.00000000000E+00  0.00000000000E+00 -0.13122003786E+04  0.40815523787E+04  0.38648673958E+04 0.  0.
        3    1    3    3  502    0  0.30993285366E+03 -0.42941973040E+03  0.13065454930E+04  0.14097946000E+04  0.10100000352E+00 0. -1.
       -3    1    3    3    0  502 -0.30993285366E+03  0.42941973040E+03 -0.26187458715E+04  0.26717577788E+04  0.10100000352E+00 0.  1.
</event>
<event>
 5   0  0.8676098E-08  0.3898655E+04  0.7818609E-02  0.8025309E-01
       -2   -1    0    0    0  501  0.00000000000E+00  0.00000000000E+00  0.18167056506E+04  0.18167056506E+04  0.25500000920E-02 0. -1.
        2   -1    0    0  501    0  0.00000000000E+00  0.00000000000E+00 -0.20916307759E+04  0.20916307759E+04  0.25500000920E-02 0.  1.
    10030    2    1    2    0    0  0.00000000000E+00  0.00000000000E+00 -0.27492512526E+03  0.39083364265E+04  0.38986548704E+04 0.  0.
        3    1    3    3  502    0  0.11074101307E+04  0.13505493141E+04  0.73044530904E+03  0.18931167442E+04  0.10100000352E+00 0. -1.
       -3    1    3    3    0  502 -0.11074101307E+04 -0.13505493141E+04 -0.10053704343E+04  0.20152196823E+04  0.10100000352E+00 0.  1.
</event>
<event>
 5   0  0.8476262E-08  0.3857670E+04  0.7818609E-02  0.8033891E-01
       -2   -1    0    0    0  501  0.00000000000E+00  0.00000000000E+00  0.19508875078E+04  0.19508875078E+04  0.25500000920E-02 0.  1.
        2   -1    0    0  501    0  0.00000000000E+00  0.00000000000E+00 -0.19070314674E+04  0.19070314674E+04  0.25500000920E-02 0. -1.
    10030    2    1    2    0    0  0.00000000000E+00  0.00000000000E+00  0.43856040438E+02  0.38579189752E+04  0.38576696939E+04 0.  0.
        2    1    3    3  502    0 -0.10631991755E+04  0.62165114815E+03 -0.14626076062E+04  0.19120835877E+04  0.25500000920E-02 0. -1.
       -2    1    3    3    0  502  0.10631991755E+04 -0.62165114815E+03  0.15064636466E+04  0.19458353875E+04  0.25500000920E-02 0.  1.
</event>
<event>
 5   0  0.2632875E-08  0.3893268E+04  0.7818609E-02  0.8026431E-01
        1   -1    0    0  501    0  0.00000000000E+00  0.00000000000E+00  0.15536485633E+04  0.15536485633E+04  0.50400001928E-02 0. -1.
       -1   -1    0    0    0  501  0.00000000000E+00  0.00000000000E+00 -0.24390225784E+04  0.24390225784E+04  0.50400001928E-02 0.  1.
    10030    2    1    2    0    0  0.00000000000E+00  0.00000000000E+00 -0.88537401506E+03  0.39926711417E+04  0.38932679974E+04 0.  0.
        4    1    3    3  502    0 -0.17778069939E+02 -0.49313971303E+03  0.14884417260E+04  0.15681081663E+04  0.12699999809E+01 0. -1.
       -4    1    3    3    0  502  0.17778069939E+02  0.49313971303E+03 -0.23738157411E+04  0.24245629755E+04  0.12699999809E+01 0.  1.
</event>
<event>
 5   0  0.8551754E-08  0.3889085E+04  0.7818609E-02  0.8027303E-01
       -2   -1    0    0    0  501  0.00000000000E+00  0.00000000000E+00  0.13963549985E+04  0.13963549985E+04  0.25500000920E-02 0. -1.
        2   -1    0    0  501    0  0.00000000000E+00  0.00000000000E+00 -0.27079406136E+04  0.27079406136E+04  0.25500000920E-02 0.  1.
    10030    2    1    2    0    0  0.00000000000E+00  0.00000000000E+00 -0.13115856151E+04  0.41042956121E+04  0.38890854510E+04 0.  0.
        1    1    3    3  502    0  0.10834698198E+04 -0.48504868318E+03  0.96958622979E+03  0.15327349844E+04  0.50400001928E-02 0. -1.
       -1    1    3    3    0  502 -0.10834698198E+04  0.48504868318E+03 -0.22811718449E+04  0.25715606276E+04  0.50400001928E-02 0.  1.
</event>
<event>
 5   0  0.8476262E-08  0.3898207E+04  0.7818609E-02  0.8025402E-01
        2   -1    0    0  501    0  0.00000000000E+00  0.00000000000E+00  0.21986876611E+04  0.21986876611E+04  0.25500000920E-02 0.  1.
       -2   -1    0    0    0  501  0.00000000000E+00  0.00000000000E+00 -0.17278507847E+04  0.17278507847E+04  0.25500000920E-02 0. -1.
    10030    2    1    2    0    0  0.00000000000E+00  0.00000000000E+00  0.47083687635E+03  0.39265384458E+04  0.38982068701E+04 0.  0.
        2    1    3    3  502    0  0.75229640521E+03 -0.14675126712E+04 -0.81110371326E+03  0.18377792455E+04  0.25500000920E-02 0. -1.
       -2    1    3    3    0  502 -0.75229640521E+03  0.14675126712E+04  0.12819405896E+04  0.20887592003E+04  0.25500000920E-02 0.  1.
</event>
<event>
 5   0  0.8551754E-08  0.4029486E+04  0.7818609E-02  0.7998625E-01
        2   -1    0    0  501    0  0.00000000000E+00  0.00000000000E+00  0.15281696844E+04  0.15281696844E+04  0.25500000920E-02 0. -1.
       -2   -1    0    0    0  501  0.00000000000E+00  0.00000000000E+00 -0.26562419119E+04  0.26562419119E+04  0.25500000920E-02 0.  1.
    10030    2    1    2    0    0  0.00000000000E+00  0.00000000000E+00 -0.11280722275E+04  0.41844115963E+04  0.40294855077E+04 0.  0.
        1    1    3    3  502    0  0.14247869162E+04 -0.64648519307E+03 -0.18821812517E+04  0.24475635080E+04  0.50400001928E-02 0.  1.
       -1    1    3    3    0  502 -0.14247869162E+04  0.64648519307E+03  0.75410902416E+03  0.17368480883E+04  0.50400001928E-02 0. -1.
</event>
<event>
 5   0  0.8676098E-08  0.3915176E+04  0.7818609E-02  0.8021880E-01
        2   -1    0    0  501    0  0.00000000000E+00  0.00000000000E+00  0.14381533604E+04  0.14381533604E+04  0.25500000920E-02 0. -1.
       -2   -1    0    0    0  501  0.00000000000E+00  0.00000000000E+00 -0.26646324542E+04  0.26646324542E+04  0.25500000920E-02 0.  1.
    10030    2    1    2    0    0  0.00000000000E+00  0.00000000000E+00 -0.12264790938E+04  0.41027858145E+04  0.39151756630E+04 0.  0.
        3    1    3    3  502    0 -0.17978385044E+03  0.16465384533E+04  0.48018666898E+03  0.17245261258E+04  0.10100000352E+00 0. -1.
       -3    1    3    3    0  502  0.17978385044E+03 -0.16465384533E+04 -0.17066657628E+04  0.23782596888E+04  0.10100000352E+00 0.  1.
</event>
<event>
 5   0  0.2632875E-08  0.3896524E+04  0.7818609E-02  0.8025753E-01
        1   -1    0    0  501    0  0.00000000000E+00  0.00000000000E+00  0.28333318886E+04  0.28333318886E+04  0.50400001928E-02 0. -1.
       -1   -1    0    0    0  501  0.00000000000E+00  0.00000000000E+00 -0.13396679617E+04  0.13396679617E+04  0.50400001928E-02 0.  1.
    10030    2    1    2    0    0  0.00000000000E+00  0.00000000000E+00  0.14936639269E+04  0.41729998503E+04  0.38965235562E+04 0.  0.
        2    1    3    3  502    0  0.10565385486E+04  0.10810965091E+03 -0.10023889024E+04  0.14603920408E+04  0.25500000920E-02 0.  1.
       -2    1    3    3    0  502 -0.10565385486E+04 -0.10810965091E+03  0.24960528293E+04  0.27126078094E+04  0.25500000920E-02 0. -1.
</event>
<event>
 5   0  0.8551754E-08  0.3910028E+04  0.7818609E-02  0.8022947E-01
       -2   -1    0    0    0  501  0.00000000000E+00  0.00000000000E+00  0.14451941579E+04  0.14451941579E+04  0.25500000920E-02 0.  1.
        2   -1    0    0  501    0  0.00000000000E+00  0.00000000000E+00 -0.26446825845E+04  0.26446825845E+04  0.25500000920E-02 0. -1.
    10030    2    1    2    0    0  0.00000000000E+00  0.00000000000E+00 -0.11994884266E+04  0.40898767425E+04  0.39100280412E+04 0.  0.
        1    1    3    3  502    0 -0.12075485628E+04  0.95763204702E+03  0.65843259197E+03  0.16759373936E+04  0.50400001928E-02 0.  1.
       -1    1    3    3    0  502  0.12075485628E+04 -0.95763204702E+03 -0.18579210186E+04  0.24139393489E+04  0.50400001928E-02 0. -1.
</event>
<event>
 5   0  0.8342802E-08  0.3956226E+04  0.7818609E-02  0.8013436E-01
       -2   -1    0    0    0  501  0.00000000000E+00  0.00000000000E+00  0.14544246944E+04  0.14544246944E+04  0.25500000920E-02 0.  1.
        2   -1    0    0  501    0  0.00000000000E+00  0.00000000000E+00 -0.26903640623E+04  0.26903640624E+04  0.25500000920E-02 0. -1.
    10030    2    1    2    0    0  0.00000000000E+00  0.00000000000E+00 -0.12359393679E+04  0.41447887568E+04  0.39562264492E+04 0.  0.
        4    1    3    3  502    0  0.86079031856E+03  0.77615066777E+03 -0.22973562764E+04  0.25731726147E+04  0.12699999809E+01 0. -1.
       -4    1    3    3    0  502 -0.86079031856E+03 -0.77615066777E+03  0.10614169085E+04  0.15716161421E+04  0.12699999809E+01 0.  1.
</event>
<event>
 5   0  0.2632875E-08  0.3901511E+04  0.7818609E-02  0.8024715E-01
        1   -1    0    0  501    0  0.00000000000E+00  0.00000000000E+00  0.27857029713E+04  0.27857029713E+04  0.50400001928E-02 0. -1.
       -1   -1    0    0    0  501  0.00000000000E+00  0.00000000000E+00 -0.13660636994E+04  0.13660636994E+04  0.50400001928E-02 0.  1.
    10030    2    1    2    0    0  0.00000000000E+00  0.00000000000E+00  0.14196392719E+04  0.41517666706E+04  0.39015113514E+04 0.  0.
        1    1    3    3  502    0 -0.15266292508E+04 -0.11071050123E+04  0.12410065339E+04  0.22575153587E+04  0.50400001928E-02 0. -1.
       -1    1    3    3    0  502  0.15266292508E+04  0.11071050123E+04  0.17863273795E+03  0.18942513119E+04  0.50400001928E-02 0.  1.
</event>
<event>
 5   0  0.2632875E-08  0.3904544E+04  0.7818609E-02  0.8024085E-01
        1   -1    0    0  501    0  0.00000000000E+00  0.00000000000E+00  0.15393428757E+04  0.15393428757E+04  0.50400001928E-02 0. -1.
       -1   -1    0    0    0  501  0.00000000000E+00  0.00000000000E+00 -0.24759694621E+04  0.24759694621E+04  0.50400001928E-02 0.  1.
    10030    2    1    2    0    0  0.00000000000E+00  0.00000000000E+00 -0.93662658636E+03  0.40153123378E+04  0.39045439949E+04 0.  0.
        2    1    3    3  502    0  0.32868801204E+03  0.18984045740E+04 -0.14410745601E+03  0.19320307179E+04  0.25500000920E-02 0. -1.
       -2    1    3    3    0  502 -0.32868801204E+03 -0.18984045740E+04 -0.79251913034E+03  0.20832816199E+04  0.25500000920E-02 0.  1.
</event>
<event>
 5   0  0.2632875E-08  0.3899670E+04  0.7818609E-02  0.8025098E-01
        1   -1    0    0  501    0  0.00000000000E+00  0.00000000000E+00  0.22273062136E+04  0.22273062136E+04  0.50400001928E-02 0. -1.
       -1   -1    0    0    0  501  0.00000000000E+00  0.00000000000E+00 -0.17069300747E+04  0.17069300747E+04  0.50400001928E-02 0.  1.
    10030    2    1    2    0    0  0.00000000000E+00  0.00000000000E+00  0.52037613886E+03  0.39342362883E+04  0.38996697099E+04 0.  0.
        5    1    3    3  502    0 -0.36835987095E+03 -0.11797659279E+04  0.17816329603E+04  0.21683576122E+04  0.46999998093E+01 0. -1.
       -5    1    3    3    0  502  0.36835987095E+03  0.11797659279E+04 -0.12612568214E+04  0.17658786761E+04  0.46999998093E+01 0.  1.
</event>
<event>
 5   0  0.2632875E-08  0.3906464E+04  0.7818609E-02  0.8023686E-01
        1   -1    0    0  501    0  0.00000000000E+00  0.00000000000E+00  0.24503461701E+04  0.24503461702E+04  0.50400001928E-02 0.  1.
       -1   -1    0    0    0  501  0.00000000000E+00  0.00000000000E+00 -0.15569701577E+04  0.15569701577E+04  0.50400001928E-02 0. -1.
    10030    2    1    2    0    0  0.00000000000E+00  0.00000000000E+00  0.89337601248E+03  0.40073163278E+04  0.39064643159E+04 0.  0.
        3    1    3    3  502    0  0.27976492023E+03 -0.35993682691E+03  0.23950088163E+04  0.24380094689E+04  0.10100000352E+00 0.  1.
       -3    1    3    3    0  502 -0.27976492023E+03  0.35993682691E+03 -0.15016328038E+04  0.15693068590E+04  0.10100000352E+00 0. -1.
</event>
<event>
 5   0  0.8342802E-08  0.3902842E+04  0.7818609E-02  0.8024438E-01
        2   -1    0    0  501    0  0.00000000000E+00  0.00000000000E+00  0.20916552903E+04  0.20916552903E+04  0.25500000920E-02 0. -1.
       -2   -1    0    0    0  501  0.00000000000E+00  0.00000000000E+00 -0.18205888427E+04  0.18205888427E+04  0.25500000920E-02 0.  1.
    10030    2    1    2    0    0  0.00000000000E+00  0.00000000000E+00  0.27106644760E+03  0.39122441330E+04  0.39028421870E+04 0.  0.
        4    1    3    3  502    0 -0.22533325123E+03  0.14932793050E+04  0.13743844321E+04  0.20419579665E+04  0.12699999809E+01 0.  1.
       -4    1    3    3    0  502  0.22533325123E+03 -0.14932793050E+04 -0.11033179845E+04  0.18702861665E+04  0.12699999809E+01 0. -1.
</event>
<event>
 5   0  0.2632875E-08  0.3877304E+04  0.7818609E-02  0.8029766E-01
        1   -1    0    0  501    0  0.00000000000E+00  0.00000000000E+00  0.27631659047E+04  0.27631659047E+04  0.50400001928E-02 0.  1.
       -1   -1    0    0    0  501  0.00000000000E+00  0.00000000000E+00 -0.13601686706E+04  0.13601686706E+04  0.50400001928E-02 0. -1.
    10030    2    1    2    0    0  0.00000000000E+00  0.00000000000E+00  0.14029972341E+04  0.41233345753E+04  0.38773040610E+04 0.  0.
        1    1    3    3  502    0 -0.26841413672E+03  0.14623987045E+04  0.20245121675E+04  0.25118331226E+04  0.50400001928E-02 0.  1.
       -1    1    3    3    0  502  0.26841413672E+03 -0.14623987045E+04 -0.62151493337E+03  0.16115014527E+04  0.50400001928E-02 0. -1.
</event>
<event>
 5   0  0.8438211E-08  0.3891624E+04  0.7818609E-02  0.8026773E-01
        2   -1    0    0  501    0  0.00000000000E+00  0.00000000000E+00  0.11585207202E+04  0.11585207202E+04  0.25500000920E-02 0.  1.
       -2   -1    0    0    0  501  0.00000000000E+00  0.00000000000E+00 -0.32681200977E+04  0.32681200977E+04  0.25500000920E-02 0. -1.
    10030    2    1    2    0    0  0.00000000000E+00  0.00000000000E+00 -0.21095993775E+04  0.44266408179E+04  0.38916242620E+04 0.  0.
        5    1    3    3  502    0  0.11764712051E+04 -0.91098431651E+03 -0.24810485870E+04  0.28930262879E+04  0.46999998093E+01 0. -1.
       -5    1    3    3    0  502 -0.11764712051E+04  0.91098431651E+03  0.37144920949E+03  0.15336145300E+04  0.46999998093E+01 0.  1.
</event>
<event>
 5   0  0.8438211E-08  0.3902028E+04  0.7818609E-02  0.8024608E-01
       -2   -1    0    0    0  501  0.00000000000E+00  0.00000000000E+00  0.26444090237E+04  0.26444090237E+04  0.25500000920E-02 0. -1.
        2   -1    0    0  501    0  0.00000000000E+00  0.00000000000E+00 -0.14394349928E+04  0.14394349928E+04  0.25500000920E-02 0.  1.
    10030    2    1    2    0    0  0.00000000000E+00  0.00000000000E+00  0.12049740309E+04  0.40838440165E+04  0.39020276186E+04 0.  0.
        5    1    3    3  502    0 -0.13126752042E+04 -0.97435463388E+03  0.17169757742E+04  0.23707617011E+04  0.46999998093E+01 0. -1.
       -5    1    3    3    0  502  0.13126752042E+04  0.97435463388E+03 -0.51200174327E+03  0.17130823154E+04  0.46999998093E+01 0.  1.
</event>
<event>
 5   0  0.8438211E-08  0.3875946E+04  0.7818609E-02  0.8030051E-01
       -2   -1    0    0    0  501  0.00000000000E+00  0.00000000000E+00  0.18194336812E+04  0.18194336812E+04  0.25500000920E-02 0. -1.
        2   -1    0    0  501    0  0.00000000000E+00  0.00000000000E+00 -0.20642348331E+04  0.20642348331E+04  0.25500000920E-02 0.  1.
    10030    2    1    2    0    0  0.00000000000E+00  0.00000000000E+00 -0.24480115198E+03  0.38836685143E+04  0.38759455008E+04 0.  0.
        5    1    3    3  502    0  0.18363110377E+04 -0.60576366708E+03  0.71956220553E+01  0.19336653575E+04  0.46999998093E+01 0.  1.
       -5    1    3    3    0  502 -0.18363110377E+04  0.60576366708E+03 -0.25199677404E+03  0.19500031569E+04  0.46999998093E+01 0. -1.
</event>
<event>
 5   0  0.8476262E-08  0.3896249E+04  0.7818609E-02  0.8025810E-01
       -2   -1    0    0    0  501  0.00000000000E+00  0.00000000000E+00  0.18864667666E+04  0.18864667666E+04  0.25500000920E-02 0.  1.
        2   -1    0    0  501    0  0.00000000000E+00  0.00000000000E+00 -0.20117973244E+04  0.20117973244E+04  0.25500000920E-02 0. -1.
    10030    2    1    2    0    0  0.00000000000E+00  0.00000000000E+00 -0.12533055780E+03  0.38982640909E+04  0.38962488594E+04 0.  0.
        2    1    3    3  502    0 -0.69697980278E+01  0.63401814433E+03  0.17803410047E+04  0.18898787470E+04  0.25500000920E-02 0.  1.
       -2    1    3    3    0  502  0.69697980278E+01 -0.63401814433E+03 -0.19056715625E+04  0.20083853439E+04  0.25500000920E-02 0. -1.
</event>
<event>
 5   0  0.2632875E-08  0.3874301E+04  0.7818609E-02  0.8030395E-01
       -1   -1    0    0    0  501  0.00000000000E+00  0.00000000000E+00  0.16933131373E+04  0.16933131373E+04  0.50400001928E-02 0. -1.
        1   -1    0    0  501    0  0.00000000000E+00  0.00000000000E+00 -0.22161004052E+04  0.22161004052E+04  0.50400001928E-02 0.  1.
    10030    2    1    2    0    0  0.00000000000E+00  0.00000000000E+00 -0.52278726788E+03  0.39094135426E+04  0.38743009330E+04 0.  0.
        4    1    3    3  502    0 -0.10684733173E+04 -0.14697223208E+04  0.41613138026E+03  0.18641045755E+04  0.12699999809E+01 0. -1.
       -4    1    3    3    0  502  0.10684733173E+04  0.14697223208E+04 -0.93891864814E+03  0.20453089670E+04  0.12699999809E+01 0.  1.
</event>
<event>
 5   0  0.8551754E-08  0.3925598E+04  0.7818609E-02  0.8019726E-01
       -2   -1    0    0    0  501  0.00000000000E+00  0.00000000000E+00  0.23554722944E+04  0.23554722944E+04  0.25500000920E-02 0.  1.
        2   -1    0    0  501    0  0.00000000000E+00  0.00000000000E+00 -0.16355871077E+04  0.16355871077E+04  0.25500000920E-02 0. -1.
    10030    2    1    2    0    0  0.00000000000E+00  0.00000000000E+00  0.71988518673E+03  0.39910594021E+04  0.39255981033E+04 0.  0.
        1    1    3    3  502    0  0.52111588197E+03 -0.57453910154E+03 -0.14731555178E+04  0.16648856181E+04  0.50400001928E-02 0. -1.
       -1    1    3    3    0  502 -0.52111588197E+03  0.57453910154E+03  0.21930407045E+04  0.23261737840E+04  0.50400001928E-02 0.  1.
</event>
<event>
 5   0  0.8438211E-08  0.3911915E+04  0.7818609E-02  0.8022556E-01
       -2   -1    0    0    0  501  0.00000000000E+00  0.00000000000E+00  0.16333665367E+04  0.16333665367E+04  0.25500000920E-02 0. -1.
        2   -1    0    0  501    0  0.00000000000E+00  0.00000000000E+00 -0.23422600449E+04  0.23422600449E+04  0.25500000920E-02 0.  1.
    10030    2    1    2    0    0  0.00000000000E+00  0.00000000000E+00 -0.70889350812E+03  0.39756265816E+04  0.39119147116E+04 0.  0.
        5    1    3    3  502    0  0.47856335247E+03  0.18639613405E+04 -0.70996166156E+03  0.20512051121E+04  0.46999998093E+01 0.  1.
       -5    1    3    3    0  502 -0.47856335247E+03 -0.18639613405E+04  0.10681534388E+01  0.19244214695E+04  0.46999998093E+01 0. -1.
</event>
<event>
 5   0  0.8342802E-08  0.3973998E+04  0.7818609E-02  0.8009813E-01
        2   -1    0    0  501    0  0.00000000000E+00  0.00000000000E+00  0.24953034277E+04  0.24953034277E+04  0.25500000920E-02 0.  1.
       -2   -1    0    0    0  501  0.00000000000E+00  0.00000000000E+00 -0.15822386672E+04  0.15822386672E+04  0.25500000920E-02 0. -1.
    10030    2    1    2    0    0  0.00000000000E+00  0.00000000000E+00  0.91306476049E+03  0.40775420950E+04  0.39739982737E+04 0.  0.
        4    1    3    3  502    0  0.12516115117E+04 -0.14476149693E+04  0.10052978886E+04  0.21616535183E+04  0.12699999809E+01 0.  1.
       -4    1    3    3    0  502 -0.12516115117E+04  0.14476149693E+04 -0.92233128121E+02  0.19158885767E+04  0.12699999809E+01 0. -1.
</event>
<event>
 5   0  0.8676098E-08  0.3900225E+04  0.7818609E-02  0.8024982E-01
        2   -1    0    0  501    0  0.00000000000E+00  0.00000000000E+00  0.24264335779E+04  0.24264335779E+04  0.25500000920E-02 0. -1.
       -2   -1    0    0    0  501  0.00000000000E+00  0.00000000000E+00 -0.15672955364E+04  0.15672955364E+04  0.25500000920E-02 0.  1.
    10030    2    1    2    0    0  0.00000000000E+00  0.00000000000E+00  0.85913804147E+03  0.39937291143E+04  0.39002248735E+04 0.  0.
        3    1    3    3  502    0 -0.40191739062E+03 -0.82262593187E+03 -0.13335369545E+04  0.16175820943E+04  0.10100000352E+00 0.  1.
       -3    1    3    3    0  502  0.40191739062E+03  0.82262593187E+03  0.21926749959E+04  0.23761470200E+04  0.10100000352E+00 0. -1.
</event>
<event>
 5   0  0.8438211E-08  0.3814962E+04  0.7818609E-02  0.8042952E-01
        2   -1    0    0  501    0  0.00000000000E+00  0.00000000000E+00  0.28834685520E+04  0.28834685520E+04  0.25500000920E-02 0. -1.
       -2   -1    0    0    0  501  0.00000000000E+00  0.00000000000E+00 -0.12618426237E+04  0.12618426237E+04  0.25500000920E-02 0.  1.
    10030    2    1    2    0    0  0.00000000000E+00  0.00000000000E+00  0.16216259283E+04  0.41453111757E+04  0.38149618729E+04 0.  0.
        5    1    3    3  502    0 -0.19068108198E+04 -0.99358280408E+01  0.75719193827E+03  0.20516792987E+04  0.46999998093E+01 0. -1.
       -5    1    3    3    0  502  0.19068108198E+04  0.99358280408E+01  0.86443398999E+03  0.20936318770E+04  0.46999998093E+01 0.  1.
</event>
<event>
 5   0  0.2632875E-08  0.3872309E+04  0.7818609E-02  0.8030813E-01
        1   -1    0    0  501    0  0.00000000000E+00  0.00000000000E+00  0.20863937852E+04  0.20863937853E+04  0.50400001928E-02 0.  1.
       -1   -1    0    0    0  501  0.00000000000E+00  0.00000000000E+00 -0.17967335256E+04  0.17967335256E+04  0.50400001928E-02 0. -1.
    10030    2    1    2    0    0  0.00000000000E+00  0.00000000000E+00  0.28966025962E+03  0.38831273109E+04  0.38723086972E+04 0.  0.
        4    1    3    3  502    0  0.15949699011E+04  0.10824305013E+04 -0.37632262307E+02  0.19279529495E+04  0.12699999809E+01 0.  1.
       -4    1    3    3    0  502 -0.15949699011E+04 -0.10824305013E+04  0.32729252193E+03  0.19551743614E+04  0.12699999809E+01 0. -1.
</event>
<event>
 5   0  0.2632875E-08  0.3899333E+04  0.7818609E-02  0.8025168E-01
        1   -1    0    0  501    0  0.00000000000E+00  0.00000000000E+00  0.25961754985E+04  0.25961754985E+04  0.50400001928E-02 0. -1.
       -1   -1    0    0    0  501  0.00000000000E+00  0.00000000000E+00 -0.14641531834E+04  0.14641531834E+04  0.50400001928E-02 0.  1.
    10030    2    1    2    0    0  0.00000000000E+00  0.00000000000E+00  0.11320223151E+04  0.40603286819E+04  0.38993325689E+04 0.  0.
        3    1    3    3  502    0 -0.23315453739E+03  0.76306244372E+03 -0.12863620557E+04  0.15137214671E+04  0.10100000352E+00 0.  1.
       -3    1    3    3    0  502  0.23315453739E+03 -0.76306244372E+03  0.24183843708E+04  0.25466072148E+04  0.10100000352E+00 0. -1.
</event>
<event>
 5   0  0.2632875E-08  0.3859989E+04  0.7818609E-02  0.8033402E-01
        3   -1    0    0  501    0  0.00000000000E+00  0.00000000000E+00  0.28268901489E+04  0.28268901507E+04  0.10100000352E+00 0. -1.
       -3   -1    0    0    0  501  0.00000000000E+00  0.00000000000E+00 -0.13176597303E+04  0.13176597342E+04  0.10100000352E+00 0.  1.
    10030    2    1    2    0    0  0.00000000000E+00  0.00000000000E+00  0.15092304185E+04  0.41445498849E+04  0.38599892865E+04 0.  0.
        4    1    3    3  502    0 -0.10437031415E+04 -0.13503877138E+04 -0.21293421806E+03  0.17199435512E+04  0.12699999809E+01 0.  1.
       -4    1    3    3    0  502  0.10437031415E+04  0.13503877138E+04  0.17221646366E+04  0.24246063337E+04  0.12699999809E+01 0. -1.
</event>
<event>
 5   0  0.8551754E-08  0.3889312E+04  0.7818609E-02  0.8027256E-01
       -2   -1    0    0    0  501  0.00000000000E+00  0.00000000000E+00  0.19813925607E+04  0.19813925607E+04  0.25500000920E-02 0. -1.
        2   -1    0    0  501    0  0.00000000000E+00  0.00000000000E+00 -0.19086002696E+04  0.19086002696E+04  0.25500000920E-02 0.  1.
    10030    2    1    2    0    0  0.00000000000E+00  0.00000000000E+00  0.72792291088E+02  0.38899928303E+04  0.38893117003E+04 0.  0.
        1    1    3    3  502    0 -0.71976409321E+03 -0.17592242376E+04  0.44726744012E+03  0.19526849288E+04  0.50400001928E-02 0. -1.
       -1    1    3    3    0  502  0.71976409321E+03  0.17592242376E+04 -0.37447514903E+03  0.19373079015E+04  0.50400001928E-02 0.  1.
</event>
<event>
 5   0  0.8438211E-08  0.3971032E+04  0.7818609E-02  0.8010416E-01
       -2   -1    0    0    0  501  0.00000000000E+00  0.00000000000E+00  0.19365295221E+04  0.19365295221E+04  0.25500000920E-02 0. -1.
        2   -1    0    0  501    0  0.00000000000E+00  0.00000000000E+00 -0.20357417915E+04  0.20357417915E+04  0.25500000920E-02 0.  1.
    10030    2    1    2    0    0  0.00000000000E+00  0.00000000000E+00 -0.99212269394E+02  0.39722713136E+04  0.39710321473E+04 0.  0.
        5    1    3    3  502    0 -0.88484604975E+03  0.95058104978E+03  0.14527597096E+04  0.19486122569E+04  0.46999998093E+01 0. -1.
       -5    1    3    3    0  502  0.88484604975E+03 -0.95058104978E+03 -0.15519719790E+04  0.20236590567E+04  0.46999998093E+01 0.  1.
</event>
<event>
 5   0  0.2632875E-08  0.3898015E+04  0.7818609E-02  0.8025442E-01
       -3   -1    0    0    0  501  0.00000000000E+00  0.00000000000E+00  0.17753074252E+04  0.17753074281E+04  0.10100000352E+00 0. -1.
        3   -1    0    0  501    0  0.00000000000E+00  0.00000000000E+00 -0.21397026703E+04  0.21397026726E+04  0.10100000352E+00 0.  1.
    10030    2    1    2    0    0  0.00000000000E+00  0.00000000000E+00 -0.36439524507E+03  0.39150101007E+04  0.38980149043E+04 0.  0.
        1    1    3    3  502    0 -0.17031208668E+04 -0.40668064690E+03  0.67746657464E+03  0.18774905580E+04  0.50400001928E-02 0. -1.
       -1    1    3    3    0  502  0.17031208668E+04  0.40668064690E+03 -0.10418618197E+04  0.20375195427E+04  0.50400001928E-02 0.  1.
</event>
<event>
 5   0  0.2632875E-08  0.3898041E+04  0.7818609E-02  0.8025437E-01
       -1   -1    0    0    0  501  0.00000000000E+00  0.00000000000E+00  0.18120010634E+04  0.18120010634E+04  0.50400001928E-02 0. -1.
        1   -1    0    0  501    0  0.00000000000E+00  0.00000000000E+00 -0.20964012135E+04  0.20964012135E+04  0.50400001928E-02 0.  1.
    10030    2    1    2    0    0  0.00000000000E+00  0.00000000000E+00 -0.28440015012E+03  0.39084022770E+04  0.38980411636E+04 0.  0.
        1    1    3    3  502    0  0.61385827648E+03  0.15865478802E+04  0.81149853282E+03  0.18848039762E+04  0.50400001928E-02 0. -1.
       -1    1    3    3    0  502 -0.61385827648E+03 -0.15865478802E+04 -0.10958986829E+04  0.20235983008E+04  0.50400001928E-02 0.  1.
</event>
<event>
 5   0  0.8342802E-08  0.3893621E+04  0.7818609E-02  0.8026357E-01
        2   -1    0    0  501    0  0.00000000000E+00  0.00000000000E+00  0.27103528724E+04  0.27103528724E+04  0.25500000920E-02 0. -1.
       -2   -1    0    0    0  501  0.00000000000E+00  0.00000000000E+00 -0.13983681517E+04  0.13983681517E+04  0.25500000920E-02 0.  1.
    10030    2    1    2    0    0  0.00000000000E+00  0.00000000000E+00  0.13119847207E+04  0.41087210241E+04  0.38936210070E+04 0.  0.
        4    1    3    3  502    0  0.52634610706E+03  0.38972210324E+03  0.25906167810E+04  0.26721190956E+04  0.12699999809E+01 0. -1.
       -4    1    3    3    0  502 -0.52634610706E+03 -0.38972210324E+03 -0.12786320603E+04  0.14366019284E+04  0.12699999809E+01 0.  1.
</event>
<event>
 5   0  0.2632875E-08  0.3883985E+04  0.7818609E-02  0.8028368E-01
       -1   -1    0    0    0  501  0.00000000000E+00  0.00000000000E+00  0.17696074020E+04  0.17696074020E+04  0.50400001928E-02 0.  1.
        1   -1    0    0  501    0  0.00000000000E+00  0.00000000000E+00 -0.21311705025E+04  0.21311705025E+04  0.50400001928E-02 0. -1.
    10030    2    1    2    0    0  0.00000000000E+00  0.00000000000E+00 -0.36156310049E+03  0.39007779045E+04  0.38839851164E+04 0.  0.
        1    1    3    3  502    0 -0.16077772121E+04 -0.89011657501E+03  0.44969054952E+03  0.18919504939E+04  0.50400001928E-02 0.  1.
       -1    1    3    3    0  502  0.16077772121E+04  0.89011657501E+03 -0.81125365000E+03  0.20088274106E+04  0.50400001928E-02 0. -1.
</event>
<event>
 5   0  0.8342802E-08  0.3900635E+04  0.7818609E-02  0.8024897E-01
       -2   -1    0    0    0  501  0.00000000000E+00  0.00000000000E+00  0.15736332457E+04  0.15736332457E+04  0.25500000920E-02 0.  1.
        2   -1    0    0  501    0  0.00000000000E+00  0.00000000000E+00 -0.24171692342E+04  0.24171692342E+04  0.25500000920E-02 0. -1.
    10030    2    1    2    0    0  0.00000000000E+00  0.00000000000E+00 -0.84353598855E+03  0.39908024799E+04  0.39006347522E+04 0.  0.
        4    1    3    3  502    0 -0.10819667224E+04 -0.31888172149E+03 -0.20495836658E+04  0.23394726663E+04  0.12699999809E+01 0. -1.
       -4    1    3    3    0  502  0.10819667224E+04  0.31888172149E+03  0.12060476772E+04  0.16513298136E+04  0.12699999809E+01 0.  1.
</event>
<event>
 5   0  0.8551754E-08  0.3902816E+04  0.7818609E-02  0.8024444E-01
        2   -1    0    0  501    0  0.00000000000E+00  0.00000000000E+00  0.22933133907E+04  0.22933133907E+04  0.25500000920E-02 0. -1.
       -2   -1    0    0    0  501  0.00000000000E+00  0.00000000000E+00 -0.16604769444E+04  0.16604769444E+04  0.25500000920E-02 0.  1.
    10030    2    1    2    0    0  0.00000000000E+00  0.00000000000E+00  0.63283644636E+03  0.39537903351E+04  0.39028164249E+04 0.  0.
        1    1    3    3  502    0  0.15831575606E+03  0.96164343278E+03  0.20291119015E+04  0.22510257838E+04  0.50400001928E-02 0. -1.
       -1    1    3    3    0  502 -0.15831575606E+03 -0.96164343278E+03 -0.13962754552E+04  0.17027645513E+04  0.50400001928E-02 0.  1.
</event>
<event>
 5   0  0.2632875E-08  0.3882422E+04  0.7818609E-02  0.8028695E-01
       -1   -1    0    0    0  501  0.00000000000E+00  0.00000000000E+00  0.17597761556E+04  0.17597761556E+04  0.50400001928E-02 0.  1.
        1   -1    0    0  501    0  0.00000000000E+00  0.00000000000E+00 -0.21413522887E+04  0.21413522887E+04  0.50400001928E-02 0. -1.
    10030    2    1    2    0    0  0.00000000000E+00  0.00000000000E+00 -0.38157613308E+03  0.39011284443E+04  0.38824222843E+04 0.  0.
        2    1    3    3  502    0  0.99889908719E+03  0.59991597481E+03 -0.17508802002E+04  0.21031595371E+04  0.25500000920E-02 0. -1.
       -2    1    3    3    0  502 -0.99889908719E+03 -0.59991597481E+03  0.13693040671E+04  0.17979689072E+04  0.25500000920E-02 0.  1.
</event>
<event>
 5   0  0.2632875E-08  0.3934549E+04  0.7818609E-02  0.8017882E-01
        1   -1    0    0  501    0  0.00000000000E+00  0.00000000000E+00  0.20114358401E+04  0.20114358401E+04  0.50400001928E-02 0. -1.
       -1   -1    0    0    0  501  0.00000000000E+00  0.00000000000E+00 -0.19240823132E+04  0.19240823132E+04  0.50400001928E-02 0.  1.
    10030    2    1    2    0    0  0.00000000000E+00  0.00000000000E+00  0.87353526895E+02  0.39355181532E+04  0.39345485758E+04 0.  0.
        1    1    3    3  502    0  0.68306590040E+03  0.18310647823E+04  0.26910058249E+03  0.19727626276E+04  0.50400001928E-02 0. -1.
       -1    1    3    3    0  502 -0.68306590040E+03 -0.18310647823E+04 -0.18174705560E+03  0.19627555256E+04  0.50400001928E-02 0.  1.
</event>
<event>
 5   0  0.8342802E-08  0.3899905E+04  0.7818609E-02  0.8025049E-01
       -2   -1    0    0    0  501  0.00000000000E+00  0.00000000000E+00  0.17831899401E+04  0.17831899401E+04  0.25500000920E-02 0. -1.
        2   -1    0    0  501    0  0.00000000000E+00  0.00000000000E+00 -0.21323104937E+04  0.21323104937E+04  0.25500000920E-02 0.  1.
    10030    2    1    2    0    0  0.00000000000E+00  0.00000000000E+00 -0.34912055357E+03  0.39155004338E+04  0.38999049330E+04 0.  0.
        4    1    3    3  502    0  0.58587752241E+03  0.17673724420E+04  0.40694078615E+03  0.19059014235E+04  0.12699999809E+01 0. -1.
       -4    1    3    3    0  502 -0.58587752241E+03 -0.17673724420E+04 -0.75606133972E+03  0.20095990103E+04  0.12699999809E+01 0.  1.
</event>
<event>
 5   0  0.2632875E-08  0.3744157E+04  0.7818609E-02  0.8058246E-01
        1   -1    0    0  501    0  0.00000000000E+00  0.00000000000E+00  0.21544575793E+04  0.21544575793E+04  0.50400001928E-02 0.  1.
       -1   -1    0    0    0  501  0.00000000000E+00  0.00000000000E+00 -0.16267098239E+04  0.16267098240E+04  0.50400001928E-02 0. -1.
    10030    2    1    2    0    0  0.00000000000E+00  0.00000000000E+00  0.52774775532E+03  0.37811674032E+04  0.37441566791E+04 0.  0.
        4    1    3    3  502    0 -0.36141529994E+03 -0.18176422865E+04 -0.37574343207E+01  0.18532296760E+04  0.12699999809E+01 0.  1.
       -4    1    3    3    0  502  0.36141529994E+03  0.18176422865E+04  0.53150518964E+03  0.19279377273E+04  0.12699999809E+01 0. -1.
</event>
<event>
 5   0  0.8342802E-08  0.3910534E+04  0.7818609E-02  0.8022842E-01
       -2   -1    0    0    0  501  0.00000000000E+00  0.00000000000E+00  0.18865035027E+04  0.18865035027E+04  0.25500000920E-02 0.  1.
        2   -1    0    0  501    0  0.00000000000E+00  0.00000000000E+00 -0.20265364586E+04  0.20265364586E+04  0.25500000920E-02 0. -1.
    10030    2    1    2    0    0  0.00000000000E+00  0.00000000000E+00 -0.14003295593E+03  0.39130399613E+04  0.39105335327E+04 0.  0.
        4    1    3    3  502    0 -0.17708809147E+04 -0.80215228390E+03 -0.27895407874E+03  0.19639970701E+04  0.12699999809E+01 0.  1.
       -4    1    3    3    0  502  0.17708809147E+04  0.80215228390E+03  0.13892112281E+03  0.19490428912E+04  0.12699999809E+01 0. -1.
</event>
<event>
 5   0  0.2632875E-08  0.3895044E+04  0.7818609E-02  0.8026061E-01
        1   -1    0    0  501    0  0.00000000000E+00  0.00000000000E+00  0.14691161440E+04  0.14691161440E+04  0.50400001928E-02 0.  1.
       -1   -1    0    0    0  501  0.00000000000E+00  0.00000000000E+00 -0.25817171353E+04  0.25817171353E+04  0.50400001928E-02 0. -1.
    10030    2    1    2    0    0  0.00000000000E+00  0.00000000000E+00 -0.11126009914E+04  0.40508332793E+04  0.38950441962E+04 0.  0.
        2    1    3    3  502    0 -0.90613245599E+02 -0.57126299646E+03  0.13777272191E+04  0.14942170063E+04  0.25500000920E-02 0.  1.
       -2    1    3    3    0  502  0.90613245599E+02  0.57126299646E+03 -0.24903282105E+04  0.25566162730E+04  0.25500000920E-02 0. -1.
</event>
<event>
 5   0  0.8551754E-08  0.3628474E+04  0.7818609E-02  0.8084000E-01
       -2   -1    0    0    0  501  0.00000000000E+00  0.00000000000E+00  0.14430083279E+04  0.14430083279E+04  0.25500000920E-02 0. -1.
        2   -1    0    0  501    0  0.00000000000E+00  0.00000000000E+00 -0.22809680820E+04  0.22809680820E+04  0.25500000920E-02 0.  1.
    10030    2    1    2    0    0  0.00000000000E+00  0.00000000000E+00 -0.83795975407E+03  0.37239764099E+04  0.36284740253E+04 0.  0.
        1    1    3    3  502    0  0.74160468680E+03  0.12373810346E+04 -0.15481031747E+04  0.21160606739E+04  0.50400001928E-02 0.  1.
       -1    1    3    3    0  502 -0.74160468680E+03 -0.12373810346E+04  0.71014342059E+03  0.16079157360E+04  0.50400001928E-02 0. -1.
</event>
<event>
 5   0  0.2632875E-08  0.3898374E+04  0.7818609E-02  0.8025368E-01
       -1   -1    0    0    0  501  0.00000000000E+00  0.00000000000E+00  0.19722171558E+04  0.19722171558E+04  0.50400001928E-02 0.  1.
        1   -1    0    0  501    0  0.00000000000E+00  0.00000000000E+00 -0.19264253820E+04  0.19264253820E+04  0.50400001928E-02 0. -1.
    10030    2    1    2    0    0  0.00000000000E+00  0.00000000000E+00  0.45791773784E+02  0.38986425378E+04  0.38983736033E+04 0.  0.
        3    1    3    3  502    0  0.18251506541E+04 -0.48043687806E+03 -0.46430778759E+03  0.19435987847E+04  0.10100000352E+00 0.  1.
       -3    1    3    3    0  502 -0.18251506541E+04  0.48043687806E+03  0.51009956138E+03  0.19550437531E+04  0.10100000352E+00 0. -1.
</event>
<event>
 5   0  0.2632875E-08  0.3926857E+04  0.7818609E-02  0.8019467E-01
        1   -1    0    0  501    0  0.00000000000E+00  0.00000000000E+00  0.20289906176E+04  0.20289906176E+04  0.50400001928E-02 0.  1.
       -1   -1    0    0    0  501  0.00000000000E+00  0.00000000000E+00 -0.18999846327E+04  0.18999846327E+04  0.50400001928E-02 0. -1.
    10030    2    1    2    0    0  0.00000000000E+00  0.00000000000E+00  0.12900598488E+03  0.39289752503E+04  0.39268567549E+04 0.  0.
        1    1    3    3  502    0 -0.23705967433E+03 -0.19340967110E+04  0.30572145664E+03  0.19724079157E+04  0.50400001928E-02 0.  1.
       -1    1    3    3    0  502  0.23705967433E+03  0.19340967110E+04 -0.17671547176E+03  0.19565673346E+04  0.50400001928E-02 0. -1.
</event>
<event>
 5   0  0.2632875E-08  0.3877096E+04  0.7818609E-02  0.8029810E-01
        1   -1    0    0  501    0  0.00000000000E+00  0.00000000000E+00  0.27557872546E+04  0.27557872546E+04  0.50400001928E-02 0.  1.
       -1   -1    0    0    0  501  0.00000000000E+00  0.00000000000E+00 -0.13636641653E+04  0.13636641653E+04  0.50400001928E-02 0. -1.
    10030    2    1    2    0    0  0.00000000000E+00  0.00000000000E+00  0.13921230893E+04  0.41194514200E+04  0.38770959887E+04 0.  0.
        3    1    3    3  502    0 -0.10621796335E+04 -0.13595153138E+04  0.16353228823E+04  0.23771387006E+04  0.10100000352E+00 0.  1.
       -3    1    3    3    0  502  0.10621796335E+04  0.13595153138E+04 -0.24319979306E+03  0.17423127193E+04  0.10100000352E+00 0. -1.
</event>
<event>
 5   0  0.8676098E-08  0.3906834E+04  0.7818609E-02  0.8023609E-01
        2   -1    0    0  501    0  0.00000000000E+00  0.00000000000E+00  0.29246029317E+04  0.29246029317E+04  0.25500000920E-02 0. -1.
       -2   -1    0    0    0  501  0.00000000000E+00  0.00000000000E+00 -0.13047372079E+04  0.13047372079E+04  0.25500000920E-02 0.  1.
    10030    2    1    2    0    0  0.00000000000E+00  0.00000000000E+00  0.16198657238E+04  0.42293401397E+04  0.39068341472E+04 0.  0.
        3    1    3    3  502    0  0.72274299672E+03  0.87064758568E+03  0.25336875979E+04  0.27748797292E+04  0.10100000352E+00 0. -1.
       -3    1    3    3    0  502 -0.72274299672E+03 -0.87064758568E+03 -0.91382187407E+03  0.14544604104E+04  0.10100000352E+00 0.  1.
</event>
<event>
 5   0  0.8476262E-08  0.3903834E+04  0.7818609E-02  0.8024232E-01
        2   -1    0    0  501    0  0.00000000000E+00  0.00000000000E+00  0.23535652413E+04  0.23535652413E+04  0.25500000920E-02 0.  1.
       -2   -1    0    0    0  501  0.00000000000E+00  0.00000000000E+00 -0.16188119771E+04  0.16188119771E+04  0.25500000920E-02 0. -1.
    10030    2    1    2    0    0  0.00000000000E+00  0.00000000000E+00  0.73475326419E+03  0.39723772183E+04  0.39038338087E+04 0.  0.
        2    1    3    3  502    0  0.10734815731E+04 -0.91856858930E+03  0.17378155584E+04  0.22396727118E+04  0.25500000920E-02 0.  1.
       -2    1    3    3    0  502 -0.10734815731E+04  0.91856858930E+03 -0.10030622942E+04  0.17327045066E+04  0.25500000920E-02 0. -1.
</event>
<event>
 5   0  0.2632875E-08  0.3889306E+04  0.7818609E-02  0.8027257E-01
       -1   -1    0    0    0  501  0.00000000000E+00  0.00000000000E+00  0.18557905801E+04  0.18557905801E+04  0.50400001928E-02 0. -1.
        1   -1    0    0  501    0  0.00000000000E+00  0.00000000000E+00 -0.20377708991E+04  0.20377708991E+04  0.50400001928E-02 0.  1.
    10030    2    1    2    0    0  0.00000000000E+00  0.00000000000E+00 -0.18198031905E+03  0.38935614792E+04  0.38893063849E+04 0.  0.
        4    1    3    3  502    0  0.10486574897E+04  0.83355977039E+03 -0.15022025845E+04  0.20127390887E+04  0.12699999809E+01 0.  1.
       -4    1    3    3    0  502 -0.10486574897E+04 -0.83355977039E+03  0.13202222654E+04  0.18808223905E+04  0.12699999809E+01 0. -1.
</event>
<event>
 5   0  0.8551754E-08  0.3879041E+04  0.7818609E-02  0.8029402E-01
        2   -1    0    0  501    0  0.00000000000E+00  0.00000000000E+00  0.23799669788E+04  0.23799669788E+04  0.25500000920E-02 0. -1.
       -2   -1    0    0    0  501  0.00000000000E+00  0.00000000000E+00 -0.15805848406E+04  0.15805848406E+04  0.25500000920E-02 0.  1.
    10030    2    1    2    0    0  0.00000000000E+00  0.00000000000E+00  0.79938213819E+03  0.39605518195E+04  0.38790409784E+04 0.  0.
        1    1    3    3  502    0  0.27302396066E+02  0.12418283028E+04  0.19205746353E+04  0.22872450424E+04  0.50400001928E-02 0. -1.
       -1    1    3    3    0  502 -0.27302396066E+02 -0.12418283028E+04 -0.11211924971E+04  0.16733067770E+04  0.50400001928E-02 0.  1.
</event>
<event>
 5   0  0.8438211E-08  0.3902447E+04  0.7818609E-02  0.8024520E-01
       -2   -1    0    0    0  501  0.00000000000E+00  0.00000000000E+00  0.22775405316E+04  0.22775405316E+04  0.25500000920E-02 0. -1.
        2   -1    0    0  501    0  0.00000000000E+00  0.00000000000E+00 -0.16716601749E+04  0.16716601749E+04  0.25500000920E-02 0.  1.
    10030    2    1    2    0    0  0.00000000000E+00  0.00000000000E+00  0.60588035672E+03  0.39492007065E+04  0.39024473364E+04 0.  0.
        5    1    3    3  502    0 -0.32515861360E+02  0.72046355421E+02 -0.16700335593E+04  0.16719097278E+04  0.46999998093E+01 0.  1.
       -5    1    3    3    0  502  0.32515861360E+02 -0.72046355421E+02  0.22759139161E+04  0.22772909787E+04  0.46999998093E+01 0. -1.
</event>
<event>
 5   0  0.2632875E-08  0.3893186E+04  0.7818609E-02  0.8026448E-01
        1   -1    0    0  501    0  0.00000000000E+00  0.00000000000E+00  0.15707392918E+04  0.15707392919E+04  0.50400001928E-02 0. -1.
       -1   -1    0    0    0  501  0.00000000000E+00  0.00000000000E+00 -0.24123822834E+04  0.24123822834E+04  0.50400001928E-02 0.  1.
    10030    2    1    2    0    0  0.00000000000E+00  0.00000000000E+00 -0.84164299156E+03  0.39831215753E+04  0.38931856568E+04 0.  0.
        4    1    3    3  502    0  0.13228312380E+04 -0.14234178864E+04 -0.53846058039E+03  0.20164182039E+04  0.12699999809E+01 0. -1.
       -4    1    3    3    0  502 -0.13228312380E+04  0.14234178864E+04 -0.30318241116E+03  0.19667033713E+04  0.12699999809E+01 0.  1.
</event>
<event>
 5   0  0.8551754E-08  0.3901100E+04  0.7818609E-02  0.8024801E-01
       -2   -1    0    0    0  501  0.00000000000E+00  0.00000000000E+00  0.25691683156E+04  0.25691683156E+04  0.25500000920E-02 0.  1.
        2   -1    0    0  501    0  0.00000000000E+00  0.00000000000E+00 -0.14808858260E+04  0.14808858260E+04  0.25500000920E-02 0. -1.
    10030    2    1    2    0    0  0.00000000000E+00  0.00000000000E+00  0.10882824896E+04  0.40500541415E+04  0.39010998157E+04 0.  0.
        1    1    3    3  502    0 -0.11376949128E+04 -0.14791757603E+04  0.11335641738E+04  0.21834098060E+04  0.50400001928E-02 0. -1.
       -1    1    3    3    0  502  0.11376949128E+04  0.14791757603E+04 -0.45281684216E+02  0.18666443356E+04  0.50400001928E-02 0.  1.
</event>
<event>
 5   0  0.2632875E-08  0.3933935E+04  0.7818609E-02  0.8018008E-01
        1   -1    0    0  501    0  0.00000000000E+00  0.00000000000E+00  0.14630642408E+04  0.14630642408E+04  0.50400001928E-02 0.  1.
       -1   -1    0    0    0  501  0.00000000000E+00  0.00000000000E+00 -0.26444236120E+04  0.26444236120E+04  0.50400001928E-02 0. -1.
    10030    2    1    2    0    0  0.00000000000E+00  0.00000000000E+00 -0.11813593712E+04  0.41074878528E+04  0.39339352431E+04 0.  0.
        1    1    3    3  502    0  0.76552561534E+03  0.16705267517E+04 -0.13232543272E+04  0.22644405734E+04  0.50400001928E-02 0. -1.
       -1    1    3    3    0  502 -0.76552561534E+03 -0.16705267517E+04  0.14189495603E+03  0.18430472795E+04  0.50400001928E-02 0.  1.
</event>
<event>
 5   0  0.8551754E-08  0.3895188E+04  0.7818609E-02  0.8026031E-01
        2   -1    0    0  501    0  0.00000000000E+00  0.00000000000E+00  0.16443722822E+04  0.16443722822E+04  0.25500000920E-02 0. -1.
       -2   -1    0    0    0  501  0.00000000000E+00  0.00000000000E+00 -0.23067294682E+04  0.23067294682E+04  0.25500000920E-02 0.  1.
    10030    2    1    2    0    0  0.00000000000E+00  0.00000000000E+00 -0.66235718597E+03  0.39511017505E+04  0.38951878004E+04 0.  0.
        1    1    3    3  502    0 -0.95249923008E+03 -0.63602243879E+03  0.12666610241E+04  0.17076912707E+04  0.50400001928E-02 0. -1.
       -1    1    3    3    0  502  0.95249923008E+03  0.63602243879E+03 -0.19290182101E+04  0.22434104798E+04  0.50400001928E-02 0.  1.
</event>
<event>
 5   0  0.2632875E-08  0.3853013E+04  0.7818609E-02  0.8034873E-01
        1   -1    0    0  501    0  0.00000000000E+00  0.00000000000E+00  0.17256526249E+04  0.17256526249E+04  0.50400001928E-02 0. -1.
       -1   -1    0    0    0  501  0.00000000000E+00  0.00000000000E+00 -0.21507379339E+04  0.21507379339E+04  0.50400001928E-02 0.  1.
    10030    2    1    2    0    0  0.00000000000E+00  0.00000000000E+00 -0.42508530902E+03  0.38763905588E+04  0.38530126193E+04 0.  0.
        4    1    3    3  502    0  0.15771312226E+04 -0.72623415305E+03  0.62718683833E+03  0.18461104738E+04  0.12699999809E+01 0. -1.
       -4    1    3    3    0  502 -0.15771312226E+04  0.72623415305E+03 -0.10522721473E+04  0.20302800850E+04  0.12699999809E+01 0.  1.
</event>
<event>
 5   0  0.8476262E-08  0.3903381E+04  0.7818609E-02  0.8024326E-01
       -2   -1    0    0    0  501  0.00000000000E+00  0.00000000000E+00  0.26481539097E+04  0.26481539097E+04  0.25500000920E-02 0.  1.
        2   -1    0    0  501    0  0.00000000000E+00  0.00000000000E+00 -0.14383966956E+04  0.14383966956E+04  0.25500000920E-02 0. -1.
    10030    2    1    2    0    0  0.00000000000E+00  0.00000000000E+00  0.12097572141E+04  0.40865506053E+04  0.39033810130E+04 0.  0.
        2    1    3    3  502    0 -0.15303749780E+04 -0.11327902122E+04  0.15599932903E+03  0.19103918522E+04  0.25500000920E-02 0. -1.
       -2    1    3    3    0  502  0.15303749780E+04  0.11327902122E+04  0.10537578851E+04  0.21761587531E+04  0.25500000920E-02 0.  1.
</event>
<event>
 5   0  0.8476262E-08  0.3902489E+04  0.7818609E-02  0.8024512E-01
       -2   -1    0    0    0  501  0.00000000000E+00  0.00000000000E+00  0.14510726132E+04  0.14510726132E+04  0.25500000920E-02 0. -1.
        2   -1    0    0  501    0  0.00000000000E+00  0.00000000000E+00 -0.26238208431E+04  0.26238208431E+04  0.25500000920E-02 0.  1.
    10030    2    1    2    0    0  0.00000000000E+00  0.00000000000E+00 -0.11727482299E+04  0.40748934562E+04  0.39024887276E+04 0.  0.
        2    1    3    3  502    0  0.15832734245E+04 -0.10783659970E+04 -0.19886357016E+03  0.19259217741E+04  0.25500000920E-02 0.  1.
       -2    1    3    3    0  502 -0.15832734245E+04  0.10783659970E+04 -0.97388465974E+03  0.21489716822E+04  0.25500000920E-02 0. -1.
</event>
<event>
 5   0  0.2632875E-08  0.3895512E+04  0.7818609E-02  0.8025963E-01
        1   -1    0    0  501    0  0.00000000000E+00  0.00000000000E+00  0.24600714670E+04  0.24600714670E+04  0.50400001928E-02 0.  1.
       -1   -1    0    0    0  501  0.00000000000E+00  0.00000000000E+00 -0.15421316833E+04  0.15421316833E+04  0.50400001928E-02 0. -1.
    10030    2    1    2    0    0  0.00000000000E+00  0.00000000000E+00  0.91793978371E+03  0.40022031503E+04  0.38955123681E+04 0.  0.
        1    1    3    3  502    0 -0.12193556939E+04  0.45519866712E+02  0.20187243369E+04  0.23588446992E+04  0.50400001928E-02 0.  1.
       -1    1    3    3    0  502  0.12193556939E+04 -0.45519866712E+02 -0.11007845532E+04  0.16433584512E+04  0.50400001928E-02 0. -1.
</event>
<event>
 5   0  0.2632875E-08  0.3941670E+04  0.7818609E-02  0.8016418E-01
       -1   -1    0    0    0  501  0.00000000000E+00  0.00000000000E+00  0.24083041572E+04  0.24083041572E+04  0.50400001928E-02 0.  1.
        1   -1    0    0  501    0  0.00000000000E+00  0.00000000000E+00 -0.16128323537E+04  0.16128323537E+04  0.50400001928E-02 0. -1.
    10030    2    1    2    0    0  0.00000000000E+00  0.00000000000E+00  0.79547180343E+03  0.40211365109E+04  0.39416701345E+04 0.  0.
        5    1    3    3  502    0 -0.21031776314E+03  0.54859558005E+03 -0.15214077234E+04  0.16309182146E+04  0.46999998093E+01 0. -1.
       -5    1    3    3    0  502  0.21031776314E+03 -0.54859558005E+03  0.23168795268E+04  0.23902182963E+04  0.46999998093E+01 0.  1.
</event>
<event>
 5   0  0.2632875E-08  0.3885606E+04  0.7818609E-02  0.8028030E-01
       -1   -1    0    0    0  501  0.00000000000E+00  0.00000000000E+00  0.10906592040E+04  0.10906592041E+04  0.50400001928E-02 0. -1.
        1   -1    0    0  501    0  0.00000000000E+00  0.00000000000E+00 -0.34607354268E+04  0.34607354268E+04  0.50400001928E-02 0.  1.
    10030    2    1    2    0    0  0.00000000000E+00  0.00000000000E+00 -0.23700762228E+04  0.45513946309E+04  0.38856057165E+04 0.  0.
        2    1    3    3  502    0 -0.19044413105E+04 -0.16592782183E+02 -0.16346142318E+04  0.25098079034E+04  0.25500000920E-02 0.  1.
       -2    1    3    3    0  502  0.19044413105E+04  0.16592782183E+02 -0.73546199099E+03  0.20415867274E+04  0.25500000920E-02 0. -1.
</event>
<event>
 5   0  0.8676098E-08  0.3891132E+04  0.7818609E-02  0.8026876E-01
       -2   -1    0    0    0  501  0.00000000000E+00  0.00000000000E+00  0.26301295763E+04  0.26301295763E+04  0.25500000920E-02 0. -1.
        2   -1    0    0  501    0  0.00000000000E+00  0.00000000000E+00 -0.14391787102E+04  0.14391787102E+04  0.25500000920E-02 0.  1.
    10030    2    1    2    0    0  0.00000000000E+00  0.00000000000E+00  0.11909508662E+04  0.40693082865E+04  0.38911317075E+04 0.  0.
        3    1    3    3  502    0 -0.57836507136E+02  0.66405172276E+03  0.25069894512E+04  0.25940905671E+04  0.10100000352E+00 0. -1.
       -3    1    3    3    0  502  0.57836507136E+02 -0.66405172276E+03 -0.13160385850E+04  0.14752177194E+04  0.10100000352E+00 0.  1.
</event>
<event>
 5   0  0.2632875E-08  0.3900761E+04  0.7818609E-02  0.8024871E-01
       -1   -1    0    0    0  501  0.00000000000E+00  0.00000000000E+00  0.15786947967E+04  0.15786947967E+04  0.50400001928E-02 0. -1.
        1   -1    0    0  501    0  0.00000000000E+00  0.00000000000E+00 -0.24095754907E+04  0.24095754907E+04  0.50400001928E-02 0.  1.
    10030    2    1    2    0    0  0.00000000000E+00  0.00000000000E+00 -0.83088069399E+03  0.39882702875E+04  0.39007610999E+04 0.  0.
        2    1    3    3  502    0 -0.19001087804E+04  0.40693467150E+03 -0.24443057053E+03  0.19585084907E+04  0.25500000920E-02 0. -1.
       -2    1    3    3    0  502  0.19001087804E+04 -0.40693467150E+03 -0.58645012346E+03  0.20297617968E+04  0.25500000920E-02 0.  1.
</event>
<event>
 5   0  0.2632875E-08  0.3904039E+04  0.7818609E-02  0.8024190E-01
        1   -1    0    0  501    0  0.00000000000E+00  0.00000000000E+00  0.24033323657E+04  0.24033323657E+04  0.50400001928E-02 0. -1.
       -1   -1    0    0    0  501  0.00000000000E+00  0.00000000000E+00 -0.15854571061E+04  0.15854571061E+04  0.50400001928E-02 0.  1.
    10030    2    1    2    0    0  0.00000000000E+00  0.00000000000E+00  0.81787525962E+03  0.39887894718E+04  0.39040391276E+04 0.  0.
        1    1    3    3  502    0 -0.17607598401E+04 -0.16093861934E+03 -0.43618500476E+03  0.18211078530E+04  0.50400001928E-02 0.  1.
       -1    1    3    3    0  502  0.17607598401E+04  0.16093861934E+03  0.12540602644E+04  0.21676816188E+04  0.50400001928E-02 0. -1.
</event>
<event>
 5   0  0.8551754E-08  0.3875027E+04  0.7818609E-02  0.8030243E-01
        2   -1    0    0  501    0  0.00000000000E+00  0.00000000000E+00  0.13923651191E+04  0.13923651191E+04  0.25500000920E-02 0.  1.
       -2   -1    0    0    0  501  0.00000000000E+00  0.00000000000E+00 -0.26961018198E+04  0.26961018198E+04  0.25500000920E-02 0. -1.
    10030    2    1    2    0    0  0.00000000000E+00  0.00000000000E+00 -0.13037367006E+04  0.40884669389E+04  0.38750267774E+04 0.  0.
        1    1    3    3  502    0 -0.95267080923E+03 -0.98746041251E+03 -0.20951706538E+04  0.25044759543E+04  0.50400001928E-02 0. -1.
       -1    1    3    3    0  502  0.95267080923E+03  0.98746041251E+03  0.79143395317E+03  0.15839909846E+04  0.50400001928E-02 0.  1.
</event>
<event>
 5   0  0.2632875E-08  0.3901026E+04  0.7818609E-02  0.8024816E-01
       -1   -1    0    0    0  501  0.00000000000E+00  0.00000000000E+00  0.15627706422E+04  0.15627706423E+04  0.50400001928E-02 0. -1.
        1   -1    0    0  501    0  0.00000000000E+00  0.00000000000E+00 -0.24344590184E+04  0.24344590184E+04  0.50400001928E-02 0.  1.
    10030    2    1    2    0    0  0.00000000000E+00  0.00000000000E+00 -0.87168837617E+03  0.39972296607E+04  0.39010260618E+04 0.  0.
        5    1    3    3  502    0 -0.36682670763E+03 -0.11966442691E+04 -0.19687178987E+04  0.23328933955E+04  0.46999998093E+01 0.  1.
       -5    1    3    3    0  502  0.36682670763E+03  0.11966442691E+04  0.10970295225E+04  0.16643362651E+04  0.46999998093E+01 0. -1.
</event>
<event>
 5   0  0.8476262E-08  0.3901474E+04  0.7818609E-02  0.8024723E-01
       -2   -1    0    0    0  501  0.00000000000E+00  0.00000000000E+00  0.14628003600E+04  0.14628003600E+04  0.25500000920E-02 0. -1.
        2   -1    0    0  501    0  0.00000000000E+00  0.00000000000E+00 -0.26014312292E+04  0.26014312292E+04  0.25500000920E-02 0.  1.
    10030    2    1    2    0    0  0.00000000000E+00  0.00000000000E+00 -0.11386308692E+04  0.40642315892E+04  0.39014738438E+04 0.  0.
        2    1    3    3  502    0 -0.16658136893E+04 -0.96661806580E+03 -0.24640197627E+03  0.19416486980E+04  0.25500000920E-02 0.  1.
       -2    1    3    3    0  502  0.16658136893E+04  0.96661806580E+03 -0.89222889292E+03  0.21225828912E+04  0.25500000920E-02 0. -1.
</event>
<event>
 5   0  0.8476262E-08  0.3930003E+04  0.7818609E-02  0.8018818E-01
       -2   -1    0    0    0  501  0.00000000000E+00  0.00000000000E+00  0.19626555588E+04  0.19626555588E+04  0.25500000920E-02 0. -1.
        2   -1    0    0  501    0  0.00000000000E+00  0.00000000000E+00 -0.19673504710E+04  0.19673504710E+04  0.25500000920E-02 0.  1.
    10030    2    1    2    0    0  0.00000000000E+00  0.00000000000E+00 -0.46949121606E+01  0.39300060298E+04  0.39300032255E+04 0.  0.
        2    1    3    3  502    0 -0.34602155105E+03 -0.65658704734E+03 -0.18217975373E+04  0.19671765888E+04  0.25500000920E-02 0.  1.
       -2    1    3    3    0  502  0.34602155105E+03  0.65658704734E+03  0.18171026251E+04  0.19628294411E+04  0.25500000920E-02 0. -1.
</event>
<event>
 5   0  0.2632875E-08  0.3902576E+04  0.7818609E-02  0.8024494E-01
        1   -1    0    0  501    0  0.00000000000E+00  0.00000000000E+00  0.12797547513E+04  0.12797547513E+04  0.50400001928E-02 0.  1.
       -1   -1    0    0    0  501  0.00000000000E+00  0.00000000000E+00 -0.29751983417E+04  0.29751983417E+04  0.50400001928E-02 0. -1.
    10030    2    1    2    0    0  0.00000000000E+00  0.00000000000E+00 -0.16954435904E+04  0.42549530930E+04  0.39025756694E+04 0.  0.
        3    1    3    3  502    0 -0.17287667913E+04 -0.80942156322E+03 -0.12888884627E+04  0.23032653701E+04  0.10100000352E+00 0. -1.
       -3    1    3    3    0  502  0.17287667913E+04  0.80942156322E+03 -0.40655512772E+03  0.19516877229E+04  0.10100000352E+00 0.  1.
</event>
<event>
 5   0  0.8438211E-08  0.3895430E+04  0.7818609E-02  0.8025980E-01
       -2   -1    0    0    0  501  0.00000000000E+00  0.00000000000E+00  0.21684366512E+04  0.21684366512E+04  0.25500000920E-02 0.  1.
        2   -1    0    0  501    0  0.00000000000E+00  0.00000000000E+00 -0.17494604435E+04  0.17494604435E+04  0.25500000920E-02 0. -1.
    10030    2    1    2    0    0  0.00000000000E+00  0.00000000000E+00  0.41897620762E+03  0.39178970947E+04  0.38954302178E+04 0.  0.
        5    1    3    3  502    0 -0.13513256887E+04  0.10175264931E+04  0.11805256423E+04  0.20627903828E+04  0.46999998093E+01 0.  1.
       -5    1    3    3    0  502  0.13513256887E+04 -0.10175264931E+04 -0.76154943471E+03  0.18551067119E+04  0.46999998093E+01 0. -1.
</event>
<event>
 5   0  0.2632875E-08  0.3903143E+04  0.7818609E-02  0.8024376E-01
        1   -1    0    0  501    0  0.00000000000E+00  0.00000000000E+00  0.17383370406E+04  0.17383370406E+04  0.50400001928E-02 0. -1.
       -1   -1    0    0    0  501  0.00000000000E+00  0.00000000000E+00 -0.21909626475E+04  0.21909626475E+04  0.50400001928E-02 0.  1.
    10030    2    1    2    0    0  0.00000000000E+00  0.00000000000E+00 -0.45262560691E+03  0.39292996881E+04  0.39031431051E+04 0.  0.
        4    1    3    3  502    0 -0.11250251485E+04  0.10359499369E+04  0.99414651657E+03  0.18240621607E+04  0.12699999809E+01 0. -1.
       -4    1    3    3    0  502  0.11250251485E+04 -0.10359499369E+04 -0.14467721235E+04  0.21052375274E+04  0.12699999809E+01 0.  1.
</event>
<event>
 5   0  0.8476262E-08  0.3898949E+04  0.7818609E-02  0.8025248E-01
        2   -1    0    0  501    0  0.00000000000E+00  0.00000000000E+00  0.15776373996E+04  0.15776373997E+04  0.25500000920E-02 0.  1.
       -2   -1    0    0    0  501  0.00000000000E+00  0.00000000000E+00 -0.24089508628E+04  0.24089508628E+04  0.25500000920E-02 0. -1.
    10030    2    1    2    0    0  0.00000000000E+00  0.00000000000E+00 -0.83131346316E+03  0.39865882625E+04  0.38989490764E+04 0.  0.
        2    1    3    3  502    0 -0.14606530460E+04  0.12713076815E+04 -0.18538252303E+03  0.19452756159E+04  0.25500000920E-02 0.  1.
       -2    1    3    3    0  502  0.14606530460E+04 -0.12713076815E+04 -0.64593094013E+03  0.20413126466E+04  0.25500000920E-02 0. -1.
</event>
<event>
 5   0  0.2632875E-08  0.3912134E+04  0.7818609E-02  0.8022510E-01
        1   -1    0    0  501    0  0.00000000000E+00  0.00000000000E+00  0.18417760137E+04  0.18417760137E+04  0.50400001928E-02 0. -1.
       -1   -1    0    0    0  501  0.00000000000E+00  0.00000000000E+00 -0.20774501895E+04  0.20774501895E+04  0.50400001928E-02 0.  1.
    10030    2    1    2    0    0  0.00000000000E+00  0.00000000000E+00 -0.23567417582E+03  0.39192262033E+04  0.39121339081E+04 0.  0.
        5    1    3    3  502    0 -0.69101572429E+03 -0.12173345037E+04  0.12509377187E+04  0.18773047944E+04  0.46999998093E+01 0. -1.
       -5    1    3    3    0  502  0.69101572429E+03  0.12173345037E+04 -0.14866118945E+04  0.20419214089E+04  0.46999998093E+01 0.  1.
</event>
<event>
 5   0  0.2632875E-08  0.3895024E+04  0.7818609E-02  0.8026065E-01
       -1   -1    0    0    0  501  0.00000000000E+00  0.00000000000E+00  0.16867405836E+04  0.16867405836E+04  0.50400001928E-02 0. -1.
        1   -1    0    0  501    0  0.00000000000E+00  0.00000000000E+00 -0.22485989090E+04  0.22485989090E+04  0.50400001928E-02 0.  1.
    10030    2    1    2    0    0  0.00000000000E+00  0.00000000000E+00 -0.56185832543E+03  0.39353394926E+04  0.38950240236E+04 0.  0.
        2    1    3    3  502    0 -0.13981952484E+04 -0.82932161329E+02 -0.16480701722E+04  0.21628599096E+04  0.25500000920E-02 0.  1.
       -2    1    3    3    0  502  0.13981952484E+04  0.82932161329E+02  0.10862118468E+04  0.17724795830E+04  0.25500000920E-02 0. -1.
</event>
<event>
 5   0  0.2632875E-08  0.3899356E+04  0.7818609E-02  0.8025163E-01
        1   -1    0    0  501    0  0.00000000000E+00  0.00000000000E+00  0.16776785104E+04  0.16776785104E+04  0.50400001928E-02 0. -1.
       -1   -1    0    0    0  501  0.00000000000E+00  0.00000000000E+00 -0.22657764652E+04  0.22657764652E+04  0.50400001928E-02 0.  1.
    10030    2    1    2    0    0  0.00000000000E+00  0.00000000000E+00 -0.58809795479E+03  0.39434549756E+04  0.38993560930E+04 0.  0.
        5    1    3    3  502    0 -0.12677200553E+04 -0.89098282634E+02 -0.17893407028E+04  0.21947243297E+04  0.46999998093E+01 0.  1.
       -5    1    3    3    0  502  0.12677200553E+04  0.89098282634E+02  0.12012427480E+04  0.17487306460E+04  0.46999998093E+01 0. -1.
</event>
<event>
 5   0  0.8476262E-08  0.3896652E+04  0.7818609E-02  0.8025726E-01
        2   -1    0    0  501    0  0.00000000000E+00  0.00000000000E+00  0.20459530280E+04  0.20459530280E+04  0.25500000920E-02 0.  1.
       -2   -1    0    0    0  501  0.00000000000E+00  0.00000000000E+00 -0.18553574990E+04  0.18553574990E+04  0.25500000920E-02 0. -1.
    10030    2    1    2    0    0  0.00000000000E+00  0.00000000000E+00  0.19059552897E+03  0.39013105269E+04  0.38966520466E+04 0.  0.
        2    1    3    3  502    0 -0.44626281512E+03  0.17753603502E+04 -0.57252246996E+03  0.19180294189E+04  0.25500000920E-02 0.  1.
       -2    1    3    3    0  502  0.44626281512E+03 -0.17753603502E+04  0.76311799892E+03  0.19832811080E+04  0.25500000920E-02 0. -1.
</event>
<event>
 5   0  0.8476262E-08  0.3896030E+04  0.7818609E-02  0.8025855E-01
       -2   -1    0    0    0  501  0.00000000000E+00  0.00000000000E+00  0.18051717669E+04  0.18051717669E+04  0.25500000920E-02 0. -1.
        2   -1    0    0  501    0  0.00000000000E+00  0.00000000000E+00 -0.21021612016E+04  0.21021612016E+04  0.25500000920E-02 0.  1.
    10030    2    1    2    0    0  0.00000000000E+00  0.00000000000E+00 -0.29698943470E+03  0.39073329685E+04  0.38960298000E+04 0.  0.
        2    1    3    3  502    0 -0.33620996176E+03 -0.19087108115E+04  0.48411213178E+02  0.19387000144E+04  0.25500000920E-02 0.  1.
       -2    1    3    3    0  502  0.33620996176E+03  0.19087108115E+04 -0.34540064788E+03  0.19686329541E+04  0.25500000920E-02 0. -1.
</event>
<event>
 5   0  0.2632875E-08  0.3904173E+04  0.7818609E-02  0.8024162E-01
       -1   -1    0    0    0  501  0.00000000000E+00  0.00000000000E+00  0.18409018101E+04  0.18409018101E+04  0.50400001928E-02 0. -1.
        1   -1    0    0  501    0  0.00000000000E+00  0.00000000000E+00 -0.20699868285E+04  0.20699868285E+04  0.50400001928E-02 0.  1.
    10030    2    1    2    0    0  0.00000000000E+00  0.00000000000E+00 -0.22908501837E+03  0.39108886386E+04  0.39041734077E+04 0.  0.
        4    1    3    3  502    0  0.77703587362E+03 -0.13900399351E+04 -0.12454862305E+04  0.20216907116E+04  0.12699999809E+01 0.  1.
       -4    1    3    3    0  502 -0.77703587362E+03  0.13900399351E+04  0.10164012122E+04  0.18891979269E+04  0.12699999809E+01 0. -1.
</event>
<event>
 5   0  0.8342802E-08  0.3950234E+04  0.7818609E-02  0.8014662E-01
       -2   -1    0    0    0  501  0.00000000000E+00  0.00000000000E+00  0.18550643478E+04  0.18550643478E+04  0.25500000920E-02 0. -1.
        2   -1    0    0  501    0  0.00000000000E+00  0.00000000000E+00 -0.21029390748E+04  0.21029390748E+04  0.25500000920E-02 0.  1.
    10030    2    1    2    0    0  0.00000000000E+00  0.00000000000E+00 -0.24787472705E+03  0.39580034225E+04  0.39502340706E+04 0.  0.
        4    1    3    3  502    0  0.18934293337E+04  0.39239059094E+03 -0.52727184654E+03  0.20042610186E+04  0.12699999809E+01 0.  1.
       -4    1    3    3    0  502 -0.18934293337E+04 -0.39239059094E+03  0.27939711949E+03  0.19537424039E+04  0.12699999809E+01 0. -1.
</event>
<event>
 5   0  0.2632875E-08  0.3892137E+04  0.7818609E-02  0.8026667E-01
       -1   -1    0    0    0  501  0.00000000000E+00  0.00000000000E+00  0.19621140349E+04  0.19621140349E+04  0.50400001928E-02 0. -1.
        1   -1    0    0  501    0  0.00000000000E+00  0.00000000000E+00 -0.19301543965E+04  0.19301543965E+04  0.50400001928E-02 0.  1.
    10030    2    1    2    0    0  0.00000000000E+00  0.00000000000E+00  0.31959638411E+02  0.38922684315E+04  0.38921372180E+04 0.  0.
        5    1    3    3  502    0 -0.86958337353E+03  0.37671706876E+03  0.17157635543E+04  0.19600912371E+04  0.46999998093E+01 0. -1.
       -5    1    3    3    0  502  0.86958337353E+03 -0.37671706876E+03 -0.16838039159E+04  0.19321771944E+04  0.46999998093E+01 0.  1.
</event>
<event>
 5   0  0.8476262E-08  0.3885993E+04  0.7818609E-02  0.8027949E-01
        2   -1    0    0  501    0  0.00000000000E+00  0.00000000000E+00  0.23860480536E+04  0.23860480536E+04  0.25500000920E-02 0. -1.
       -2   -1    0    0    0  501  0.00000000000E+00  0.00000000000E+00 -0.15822125520E+04  0.15822125520E+04  0.25500000920E-02 0.  1.
    10030    2    1    2    0    0  0.00000000000E+00  0.00000000000E+00  0.80383550162E+03  0.39682606056E+04  0.38859928873E+04 0.  0.
        2    1    3    3  502    0 -0.10612923083E+04 -0.16257729619E+04  0.47939283823E+03  0.19998241374E+04  0.25500000920E-02 0.  1.
       -2    1    3    3    0  502  0.10612923083E+04  0.16257729619E+04  0.32444266339E+03  0.19684364681E+04  0.25500000920E-02 0. -1.
</event>
<event>
 5   0  0.2632875E-08  0.3886933E+04  0.7818609E-02  0.8027752E-01
       -1   -1    0    0    0  501  0.00000000000E+00  0.00000000000E+00  0.17837046359E+04  0.17837046359E+04  0.50400001928E-02 0.  1.
        1   -1    0    0  501    0  0.00000000000E+00  0.00000000000E+00 -0.21175382110E+04  0.21175382110E+04  0.50400001928E-02 0. -1.
    10030    2    1    2    0    0  0.00000000000E+00  0.00000000000E+00 -0.33383357508E+03  0.39012428470E+04  0.38869333536E+04 0.  0.
        1    1    3    3  502    0 -0.14327910501E+04 -0.76005366362E+03 -0.12416018398E+04  0.20425833872E+04  0.50400001928E-02 0. -1.
       -1    1    3    3    0  502  0.14327910501E+04  0.76005366362E+03  0.90776826474E+03  0.18586594598E+04  0.50400001928E-02 0.  1.
</event>
<event>
 5   0  0.8476262E-08  0.3910586E+04  0.7818609E-02  0.8022831E-01
       -2   -1    0    0    0  501  0.00000000000E+00  0.00000000000E+00  0.15679589187E+04  0.15679589187E+04  0.25500000920E-02 0. -1.
        2   -1    0    0  501    0  0.00000000000E+00  0.00000000000E+00 -0.24383105796E+04  0.24383105796E+04  0.25500000920E-02 0.  1.
    10030    2    1    2    0    0  0.00000000000E+00  0.00000000000E+00 -0.87035166094E+03  0.40062694983E+04  0.39105860532E+04 0.  0.
        2    1    3    3  502    0 -0.96309886753E+02 -0.18660591316E+04 -0.10252181859E+04  0.21313199210E+04  0.25500000920E-02 0.  1.
       -2    1    3    3    0  502  0.96309886753E+02  0.18660591316E+04  0.15486652493E+03  0.18749495773E+04  0.25500000920E-02 0. -1.
</event>
<event>
 5   0  0.8476262E-08  0.3725541E+04  0.7818609E-02  0.8062325E-01
       -2   -1    0    0    0  501  0.00000000000E+00  0.00000000000E+00  0.18888010381E+04  0.18888010381E+04  0.25500000920E-02 0. -1.
        2   -1    0    0  501    0  0.00000000000E+00  0.00000000000E+00 -0.18370990829E+04  0.18370990829E+04  0.25500000920E-02 0.  1.
    10030    2    1    2    0    0  0.00000000000E+00  0.00000000000E+00  0.51701955220E+02  0.37259001211E+04  0.37255413862E+04 0.  0.
        2    1    3    3  502    0  0.16875285517E+04  0.52117972408E+03  0.61796688429E+03  0.18711664778E+04  0.25500000920E-02 0. -1.
       -2    1    3    3    0  502 -0.16875285517E+04 -0.52117972408E+03 -0.56626492907E+03  0.18547336433E+04  0.25500000920E-02 0.  1.
</event>
<event>
 5   0  0.2632875E-08  0.3867142E+04  0.7818609E-02  0.8031898E-01
        1   -1    0    0  501    0  0.00000000000E+00  0.00000000000E+00  0.16591851717E+04  0.16591851717E+04  0.50400001928E-02 0. -1.
       -1   -1    0    0    0  501  0.00000000000E+00  0.00000000000E+00 -0.22533334759E+04  0.22533334759E+04  0.50400001928E-02 0.  1.
    10030    2    1    2    0    0  0.00000000000E+00  0.00000000000E+00 -0.59414830417E+03  0.39125186476E+04  0.38671423507E+04 0.  0.
        5    1    3    3  502    0  0.19154309925E+04 -0.54832013815E+01 -0.29835726821E+02  0.19156769595E+04  0.46999998093E+01 0. -1.
       -5    1    3    3    0  502 -0.19154309925E+04  0.54832013815E+01 -0.56431257734E+03  0.19968416881E+04  0.46999998093E+01 0.  1.
</event>
<event>
 5   0  0.2632875E-08  0.3819693E+04  0.7818609E-02  0.8041942E-01
       -1   -1    0    0    0  501  0.00000000000E+00  0.00000000000E+00  0.13043791917E+04  0.13043791917E+04  0.50400001928E-02 0.  1.
        1   -1    0    0  501    0  0.00000000000E+00  0.00000000000E+00 -0.27963602077E+04  0.27963602077E+04  0.50400001928E-02 0. -1.
    10030    2    1    2    0    0  0.00000000000E+00  0.00000000000E+00 -0.14919810160E+04  0.41007393994E+04  0.38196932167E+04 0.  0.
        1    1    3    3  502    0  0.69899244751E+03  0.17755376767E+04 -0.66017416744E+03  0.20191469522E+04  0.50400001928E-02 0. -1.
       -1    1    3    3    0  502 -0.69899244751E+03 -0.17755376767E+04 -0.83180684852E+03  0.20815924472E+04  0.50400001928E-02 0.  1.
</event>
<event>
 5   0  0.2632875E-08  0.3901586E+04  0.7818609E-02  0.8024700E-01
       -1   -1    0    0    0  501  0.00000000000E+00  0.00000000000E+00  0.13203961416E+04  0.13203961416E+04  0.50400001928E-02 0.  1.
        1   -1    0    0  501    0  0.00000000000E+00  0.00000000000E+00 -0.28821595831E+04  0.28821595831E+04  0.50400001928E-02 0. -1.
    10030    2    1    2    0    0  0.00000000000E+00  0.00000000000E+00 -0.15617634415E+04  0.42025557248E+04  0.39015855203E+04 0.  0.
        3    1    3    3  502    0 -0.30718432380E+03 -0.66950005805E+03  0.11648406699E+04  0.13782040244E+04  0.10100000352E+00 0.  1.
       -3    1    3    3    0  502  0.30718432380E+03  0.66950005805E+03 -0.27266041114E+04  0.28243517003E+04  0.10100000352E+00 0. -1.
</event>
<event>
 5   0  0.2632875E-08  0.3882909E+04  0.7818609E-02  0.8028593E-01
       -1   -1    0    0    0  501  0.00000000000E+00  0.00000000000E+00  0.14990864345E+04  0.14990864345E+04  0.50400001928E-02 0.  1.
        1   -1    0    0  501    0  0.00000000000E+00  0.00000000000E+00 -0.25143623863E+04  0.25143623863E+04  0.50400001928E-02 0. -1.
    10030    2    1    2    0    0  0.00000000000E+00  0.00000000000E+00 -0.10152759518E+04  0.40134488208E+04  0.38829094992E+04 0.  0.
        4    1    3    3  502    0  0.27626658298E+02 -0.58972366045E+03 -0.24193322694E+04  0.24903227644E+04  0.12699999809E+01 0. -1.
       -4    1    3    3    0  502 -0.27626658298E+02  0.58972366045E+03  0.14040563176E+04  0.15231260564E+04  0.12699999809E+01 0.  1.
</event>
<event>
 5   0  0.2632875E-08  0.3900910E+04  0.7818609E-02  0.8024840E-01
       -1   -1    0    0    0  501  0.00000000000E+00  0.00000000000E+00  0.19091861180E+04  0.19091861180E+04  0.50400001928E-02 0.  1.
        1   -1    0    0  501    0  0.00000000000E+00  0.00000000000E+00 -0.19926156910E+04  0.19926156910E+04  0.50400001928E-02 0. -1.
    10030    2    1    2    0    0  0.00000000000E+00  0.00000000000E+00 -0.83429572974E+02  0.39018018090E+04  0.39009097481E+04 0.  0.
        4    1    3    3  502    0 -0.11099103019E+04  0.11010542069E+04 -0.12081938745E+04  0.19758429331E+04  0.12699999809E+01 0. -1.
       -4    1    3    3    0  502  0.11099103019E+04 -0.11010542069E+04  0.11247643015E+04  0.19259588759E+04  0.12699999809E+01 0.  1.
</event>
<event>
 5   0  0.8551754E-08  0.3927579E+04  0.7818609E-02  0.8019318E-01
        2   -1    0    0  501    0  0.00000000000E+00  0.00000000000E+00  0.21454924930E+04  0.21454924930E+04  0.25500000920E-02 0. -1.
       -2   -1    0    0    0  501  0.00000000000E+00  0.00000000000E+00 -0.17974746876E+04  0.17974746876E+04  0.25500000920E-02 0.  1.
    10030    2    1    2    0    0  0.00000000000E+00  0.00000000000E+00  0.34801780532E+03  0.39429671806E+04  0.39275786172E+04 0.  0.
        1    1    3    3  502    0  0.19615995525E+04 -0.26783385382E+02  0.26311642770E+03  0.19793484808E+04  0.50400001928E-02 0. -1.
       -1    1    3    3    0  502 -0.19615995525E+04  0.26783385382E+02  0.84901377620E+02  0.19636186998E+04  0.50400001928E-02 0.  1.
</event>
<event>
 5   0  0.8676098E-08  0.3744882E+04  0.7818609E-02  0.8058087E-01
       -2   -1    0    0    0  501  0.00000000000E+00  0.00000000000E+00  0.18111128741E+04  0.18111128741E+04  0.25500000920E-02 0. -1.
        2   -1    0    0  501    0  0.00000000000E+00  0.00000000000E+00 -0.19358462486E+04  0.19358462486E+04  0.25500000920E-02 0.  1.
    10030    2    1    2    0    0  0.00000000000E+00  0.00000000000E+00 -0.12473337457E+03  0.37469591227E+04  0.37448824084E+04 0.  0.
        3    1    3    3  502    0  0.82769894039E+03 -0.13416020620E+04  0.94866604423E+03  0.18398230628E+04  0.10100000352E+00 0. -1.
       -3    1    3    3    0  502 -0.82769894039E+03  0.13416020620E+04 -0.10733994188E+04  0.19071360599E+04  0.10100000352E+00 0.  1.
</event>
<event>
 5   0  0.8476262E-08  0.3897729E+04  0.7818609E-02  0.8025502E-01
        2   -1    0    0  501    0  0.00000000000E+00  0.00000000000E+00  0.25463887884E+04  0.25463887884E+04  0.25500000920E-02 0.  1.
       -2   -1    0    0    0  501  0.00000000000E+00  0.00000000000E+00 -0.14915528321E+04  0.14915528322E+04  0.25500000920E-02 0. -1.
    10030    2    1    2    0    0  0.00000000000E+00  0.00000000000E+00  0.10548359562E+04  0.40379416205E+04  0.38977292923E+04 0.  0.
        2    1    3    3  502    0 -0.13874060716E+04 -0.54531998167E+03  0.18278853216E+04  0.23586933330E+04  0.25500000920E-02 0.  1.
       -2    1    3    3    0  502  0.13874060716E+04  0.54531998167E+03 -0.77304936537E+03  0.16792482876E+04  0.25500000920E-02 0. -1.
</event>
<event>
 5   0  0.8342802E-08  0.3899926E+04  0.7818609E-02  0.8025045E-01
       -2   -1    0    0    0  501  0.00000000000E+00  0.00000000000E+00  0.20068756570E+04  0.20068756570E+04  0.25500000920E-02 0. -1.
        2   -1    0    0  501    0  0.00000000000E+00  0.00000000000E+00 -0.18946643852E+04  0.18946643852E+04  0.25500000920E-02 0.  1.
    10030    2    1    2    0    0  0.00000000000E+00  0.00000000000E+00  0.11221127181E+03  0.39015400422E+04  0.38999260674E+04 0.  0.
        4    1    3    3  502    0  0.91353593372E+03  0.12772058374E+03 -0.16625965525E+04  0.19013388333E+04  0.12699999809E+01 0.  1.
       -4    1    3    3    0  502 -0.91353593372E+03 -0.12772058374E+03  0.17748078243E+04  0.20002012089E+04  0.12699999809E+01 0. -1.
</event>
<event>
 5   0  0.2632875E-08  0.3837773E+04  0.7818609E-02  0.8038097E-01
       -1   -1    0    0    0  501  0.00000000000E+00  0.00000000000E+00  0.23465113186E+04  0.23465113186E+04  0.50400001928E-02 0.  1.
        1   -1    0    0  501    0  0.00000000000E+00  0.00000000000E+00 -0.15691917871E+04  0.15691917871E+04  0.50400001928E-02 0. -1.
    10030    2    1    2    0    0  0.00000000000E+00  0.00000000000E+00  0.77731953155E+03  0.39157031057E+04  0.38377734636E+04 0.  0.
        4    1    3    3  502    0 -0.19150522651E+04 -0.96892493101E+02  0.46301860717E+03  0.19726127792E+04  0.12699999809E+01 0. -1.
       -4    1    3    3    0  502  0.19150522651E+04  0.96892493101E+02  0.31430092438E+03  0.19430903265E+04  0.12699999809E+01 0.  1.
</event>
<event>
 5   0  0.8438211E-08  0.3899938E+04  0.7818609E-02  0.8025042E-01
        2   -1    0    0  501    0  0.00000000000E+00  0.00000000000E+00  0.23559836964E+04  0.23559836964E+04  0.25500000920E-02 0.  1.
       -2   -1    0    0    0  501  0.00000000000E+00  0.00000000000E+00 -0.16139239154E+04  0.16139239154E+04  0.25500000920E-02 0. -1.
    10030    2    1    2    0    0  0.00000000000E+00  0.00000000000E+00  0.74205978105E+03  0.39699076118E+04  0.38999376569E+04 0.  0.
        5    1    3    3  502    0  0.14635100640E+04  0.76432711802E+03 -0.68503144230E+03  0.17875535845E+04  0.46999998093E+01 0. -1.
       -5    1    3    3    0  502 -0.14635100640E+04 -0.76432711802E+03  0.14270912234E+04  0.21823540273E+04  0.46999998093E+01 0.  1.
</event>
<event>
 5   0  0.8676098E-08  0.3896171E+04  0.7818609E-02  0.8025826E-01
       -2   -1    0    0    0  501  0.00000000000E+00  0.00000000000E+00  0.16436987689E+04  0.16436987689E+04  0.25500000920E-02 0. -1.
        2   -1    0    0  501    0  0.00000000000E+00  0.00000000000E+00 -0.23088394541E+04  0.23088394541E+04  0.25500000920E-02 0.  1.
    10030    2    1    2    0    0  0.00000000000E+00  0.00000000000E+00 -0.66514068519E+03  0.39525382231E+04  0.38961707193E+04 0.  0.
        3    1    3    3  502    0  0.78572187205E+02 -0.19309697448E+04 -0.58151579655E+03  0.20181621282E+04  0.10100000352E+00 0.  1.
       -3    1    3    3    0  502 -0.78572187205E+02  0.19309697448E+04 -0.83624888641E+02  0.19343760948E+04  0.10100000352E+00 0. -1.
</event>
<event>
 5   0  0.2632875E-08  0.3873162E+04  0.7818609E-02  0.8030634E-01
        1   -1    0    0  501    0  0.00000000000E+00  0.00000000000E+00  0.20653601592E+04  0.20653601592E+04  0.50400001928E-02 0.  1.
       -1   -1    0    0    0  501  0.00000000000E+00  0.00000000000E+00 -0.18158313406E+04  0.18158313406E+04  0.50400001928E-02 0. -1.
    10030    2    1    2    0    0  0.00000000000E+00  0.00000000000E+00  0.24952881858E+03  0.38811914998E+04  0.38731618643E+04 0.  0.
        4    1    3    3  502    0 -0.14110540422E+04 -0.12825973643E+04 -0.21389270833E+03  0.19188228715E+04  0.12699999809E+01 0.  1.
       -4    1    3    3    0  502  0.14110540422E+04  0.12825973643E+04  0.46342152691E+03  0.19623686283E+04  0.12699999809E+01 0. -1.
</event>
<event>
 5   0  0.2632875E-08  0.3905150E+04  0.7818609E-02  0.8023959E-01
        1   -1    0    0  501    0  0.00000000000E+00  0.00000000000E+00  0.26889022510E+04  0.26889022510E+04  0.50400001928E-02 0.  1.
       -1   -1    0    0    0  501  0.00000000000E+00  0.00000000000E+00 -0.14178831205E+04  0.14178831205E+04  0.50400001928E-02 0. -1.
    10030    2    1    2    0    0  0.00000000000E+00  0.00000000000E+00  0.12710191305E+04  0.41067853715E+04  0.39051499917E+04 0.  0.
        3    1    3    3  502    0  0.14002973494E+04 -0.11758685397E+04 -0.84724533812E+02  0.18304856586E+04  0.10100000352E+00 0. -1.
       -3    1    3    3    0  502 -0.14002973494E+04  0.11758685397E+04  0.13557436643E+04  0.22762997129E+04  0.10100000352E+00 0.  1.
</event>
<event>
 5   0  0.8342802E-08  0.3903915E+04  0.7818609E-02  0.8024215E-01
        2   -1    0    0  501    0  0.00000000000E+00  0.00000000000E+00  0.24756884416E+04  0.24756884416E+04  0.25500000920E-02 0. -1.
       -2   -1    0    0    0  501  0.00000000000E+00  0.00000000000E+00 -0.15390218015E+04  0.15390218015E+04  0.25500000920E-02 0.  1.
    10030    2    1    2    0    0  0.00000000000E+00  0.00000000000E+00  0.93666664007E+03  0.40147102431E+04  0.39039152067E+04 0.  0.
        4    1    3    3  502    0 -0.15941904313E+04 -0.11955650558E+03  0.16201194639E+04  0.22760767956E+04  0.12699999809E+01 0. -1.
       -4    1    3    3    0  502  0.15941904313E+04  0.11955650558E+03 -0.68345282382E+03  0.17386334475E+04  0.12699999809E+01 0.  1.
</event>
<event>
 5   0  0.8676098E-08  0.3928148E+04  0.7818609E-02  0.8019200E-01
        2   -1    0    0  501    0  0.00000000000E+00  0.00000000000E+00  0.28664367451E+04  0.28664367451E+04  0.25500000920E-02 0.  1.
       -2   -1    0    0    0  501  0.00000000000E+00  0.00000000000E+00 -0.13457779060E+04  0.13457779060E+04  0.25500000920E-02 0. -1.
    10030    2    1    2    0    0  0.00000000000E+00  0.00000000000E+00  0.15206588392E+04  0.42122146511E+04  0.39281482866E+04 0.  0.
        3    1    3    3  502    0  0.18081458179E+04  0.76101277542E+03  0.86237131753E+03  0.21429456462E+04  0.10100000352E+00 0. -1.
       -3    1    3    3    0  502 -0.18081458179E+04 -0.76101277542E+03  0.65828752164E+03  0.20692690049E+04  0.10100000352E+00 0.  1.
</event>
<event>
 5   0  0.8476262E-08  0.3902694E+04  0.7818609E-02  0.8024469E-01
        2   -1    0    0  501    0  0.00000000000E+00  0.00000000000E+00  0.16075874952E+04  0.16075874953E+04  0.25500000920E-02 0.  1.
       -2   -1    0    0    0  501  0.00000000000E+00  0.00000000000E+00 -0.23686149997E+04  0.23686149997E+04  0.25500000920E-02 0. -1.
    10030    2    1    2    0    0  0.00000000000E+00  0.00000000000E+00 -0.76102750447E+03  0.39762024950E+04  0.39026943793E+04 0.  0.
        2    1    3    3  502    0  0.13543033947E+04 -0.31960699441E+03  0.10132697893E+04  0.17213372656E+04  0.25500000920E-02 0.  1.
       -2    1    3    3    0  502 -0.13543033947E+04  0.31960699441E+03 -0.17742972938E+04  0.22548652294E+04  0.25500000920E-02 0. -1.
</event>
<event>
 5   0  0.8476262E-08  0.3910321E+04  0.7818609E-02  0.8022886E-01
       -2   -1    0    0    0  501  0.00000000000E+00  0.00000000000E+00  0.13957400333E+04  0.13957400333E+04  0.25500000920E-02 0. -1.
        2   -1    0    0  501    0  0.00000000000E+00  0.00000000000E+00 -0.27387994469E+04  0.27387994469E+04  0.25500000920E-02 0.  1.
    10030    2    1    2    0    0  0.00000000000E+00  0.00000000000E+00 -0.13430594137E+04  0.41345394802E+04  0.39103207189E+04 0.  0.
        2    1    3    3  502    0  0.22073399551E+03  0.19410918547E+04 -0.58901010303E+03  0.20404641596E+04  0.25500000920E-02 0. -1.
       -2    1    3    3    0  502 -0.22073399551E+03 -0.19410918547E+04 -0.75404931062E+03  0.20940753205E+04  0.25500000920E-02 0.  1.
</event>
<event>
 5   0  0.8342802E-08  0.3900601E+04  0.7818609E-02  0.8024904E-01
        2   -1    0    0  501    0  0.00000000000E+00  0.00000000000E+00  0.21364746989E+04  0.21364746989E+04  0.25500000920E-02 0.  1.
       -2   -1    0    0    0  501  0.00000000000E+00  0.00000000000E+00 -0.17803500600E+04  0.17803500600E+04  0.25500000920E-02 0. -1.
    10030    2    1    2    0    0  0.00000000000E+00  0.00000000000E+00  0.35612463888E+03  0.39168247589E+04  0.39006014195E+04 0.  0.
        4    1    3    3  502    0  0.25823014873E+02 -0.51178065532E+03  0.20676660663E+04  0.21302184962E+04  0.12699999809E+01 0.  1.
       -4    1    3    3    0  502 -0.25823014873E+02  0.51178065532E+03 -0.17115414274E+04  0.17866062627E+04  0.12699999809E+01 0. -1.
</event>
<event>
 5   0  0.8438211E-08  0.3921208E+04  0.7818609E-02  0.8020633E-01
       -2   -1    0    0    0  501  0.00000000000E+00  0.00000000000E+00  0.15129364663E+04  0.15129364663E+04  0.25500000920E-02 0.  1.
        2   -1    0    0  501    0  0.00000000000E+00  0.00000000000E+00 -0.25407334989E+04  0.25407334989E+04  0.25500000920E-02 0. -1.
    10030    2    1    2    0    0  0.00000000000E+00  0.00000000000E+00 -0.10277970327E+04  0.40536699652E+04  0.39212081616E+04 0.  0.
        5    1    3    3  502    0 -0.61223179499E+03 -0.17050223419E+04 -0.12889014329E+04  0.22233348716E+04  0.46999998093E+01 0. -1.
       -5    1    3    3    0  502  0.61223179499E+03  0.17050223419E+04  0.26110440027E+03  0.18303350937E+04  0.46999998093E+01 0.  1.
</event>
<event>
 5   0  0.8438211E-08  0.3902643E+04  0.7818609E-02  0.8024480E-01
        2   -1    0    0  501    0  0.00000000000E+00  0.00000000000E+00  0.22627942473E+04  0.22627942473E+04  0.25500000920E-02 0. -1.
       -2   -1    0    0    0  501  0.00000000000E+00  0.00000000000E+00 -0.16827227120E+04  0.16827227120E+04  0.25500000920E-02 0.  1.
    10030    2    1    2    0    0  0.00000000000E+00  0.00000000000E+00  0.58007153522E+03  0.39455169593E+04  0.39026428341E+04 0.  0.
        5    1    3    3  502    0  0.17867039598E+04 -0.75478794852E+03  0.74107314458E+02  0.19410125892E+04  0.46999998093E+01 0. -1.
       -5    1    3    3    0  502 -0.17867039598E+04  0.75478794852E+03  0.50596422076E+03  0.20045043701E+04  0.46999998093E+01 0.  1.
</event>
<event>
 5   0  0.8676098E-08  0.3882429E+04  0.7818609E-02  0.8028694E-01
       -2   -1    0    0    0  501  0.00000000000E+00  0.00000000000E+00  0.26073031322E+04  0.26073031323E+04  0.25500000920E-02 0.  1.
        2   -1    0    0  501    0  0.00000000000E+00  0.00000000000E+00 -0.14452918783E+04  0.14452918783E+04  0.25500000920E-02 0. -1.
    10030    2    1    2    0    0  0.00000000000E+00  0.00000000000E+00  0.11620112539E+04  0.40525950106E+04  0.38824291578E+04 0.  0.
        3    1    3    3  502    0 -0.73120001353E+03  0.17930683551E+04  0.43877469755E+03  0.19855152558E+04  0.10100000352E+00 0.  1.
       -3    1    3    3    0  502  0.73120001353E+03 -0.17930683551E+04  0.72323655638E+03  0.20670797547E+04  0.10100000352E+00 0. -1.
</event>
<event>
 5   0  0.2632875E-08  0.3889276E+04  0.7818609E-02  0.8027263E-01
        1   -1    0    0  501    0  0.00000000000E+00  0.00000000000E+00  0.22869136810E+04  0.22869136810E+04  0.50400001928E-02 0.  1.
       -1   -1    0    0    0  501  0.00000000000E+00  0.00000000000E+00 -0.16535899841E+04  0.16535899841E+04  0.50400001928E-02 0. -1.
    10030    2    1    2    0    0  0.00000000000E+00  0.00000000000E+00  0.63332369688E+03  0.39405036651E+04  0.38892763118E+04 0.  0.
        1    1    3    3  502    0  0.43858195271E+03 -0.16531980853E+04  0.12541600149E+04  0.21209279529E+04  0.50400001928E-02 0.  1.
       -1    1    3    3    0  502 -0.43858195271E+03  0.16531980853E+04 -0.62083631807E+03  0.18195757122E+04  0.50400001928E-02 0. -1.
</event>
<event>
 5   0  0.2632875E-08  0.3903247E+04  0.7818609E-02  0.8024354E-01
        1   -1    0    0  501    0  0.00000000000E+00  0.00000000000E+00  0.13604433587E+04  0.13604433587E+04  0.50400001928E-02 0.  1.
       -1   -1    0    0    0  501  0.00000000000E+00  0.00000000000E+00 -0.27997002061E+04  0.27997002061E+04  0.50400001928E-02 0. -1.
    10030    2    1    2    0    0  0.00000000000E+00  0.00000000000E+00 -0.14392568474E+04  0.41601435649E+04  0.39032466240E+04 0.  0.
        1    1    3    3  502    0  0.18869223174E+03 -0.18390934194E+04 -0.53204138671E+02  0.18495134614E+04  0.50400001928E-02 0.  1.
       -1    1    3    3    0  502 -0.18869223174E+03  0.18390934194E+04 -0.13860527087E+04  0.23106301035E+04  0.50400001928E-02 0. -1.
</event>
<event>
 5   0  0.8476262E-08  0.3904533E+04  0.7818609E-02  0.8024087E-01
        2   -1    0    0  501    0  0.00000000000E+00  0.00000000000E+00  0.29349560059E+04  0.29349560059E+04  0.25500000920E-02 0. -1.
       -2   -1    0    0    0  501  0.00000000000E+00  0.00000000000E+00 -0.12986033638E+04  0.12986033638E+04  0.25500000920E-02 0.  1.
    10030    2    1    2    0    0  0.00000000000E+00  0.00000000000E+00  0.16363526421E+04  0.42335593697E+04  0.39045326183E+04 0.  0.
        2    1    3    3  502    0  0.98935257448E+03  0.11792893738E+04  0.21201115559E+04  0.26200028537E+04  0.25500000920E-02 0. -1.
       -2    1    3    3    0  502 -0.98935257448E+03 -0.11792893738E+04 -0.48375891386E+03  0.16135565160E+04  0.25500000920E-02 0.  1.
</event>
<event>
 5   0  0.8342802E-08  0.3900279E+04  0.7818609E-02  0.8024971E-01
       -2   -1    0    0    0  501  0.00000000000E+00  0.00000000000E+00  0.18555708260E+04  0.18555708260E+04  0.25500000920E-02 0.  1.
        2   -1    0    0  501    0  0.00000000000E+00  0.00000000000E+00 -0.20495281629E+04  0.20495281629E+04  0.25500000920E-02 0. -1.
    10030    2    1    2    0    0  0.00000000000E+00  0.00000000000E+00 -0.19395733689E+03  0.39050989889E+04  0.39002793059E+04 0.  0.
        4    1    3    3  502    0 -0.44727430146E+03  0.10909051693E+04  0.14582967925E+04  0.18753025188E+04  0.12699999809E+01 0.  1.
       -4    1    3    3    0  502  0.44727430146E+03 -0.10909051693E+04 -0.16522541294E+04  0.20297964701E+04  0.12699999809E+01 0. -1.
</event>
<event>
 5   0  0.2632875E-08  0.3905702E+04  0.7818609E-02  0.8023844E-01
       -1   -1    0    0    0  501  0.00000000000E+00  0.00000000000E+00  0.15294856906E+04  0.15294856906E+04  0.50400001928E-02 0. -1.
        1   -1    0    0  501    0  0.00000000000E+00  0.00000000000E+00 -0.24934054735E+04  0.24934054735E+04  0.50400001928E-02 0.  1.
    10030    2    1    2    0    0  0.00000000000E+00  0.00000000000E+00 -0.96391978292E+03  0.40228911642E+04  0.39057024939E+04 0.  0.
        5    1    3    3  502    0 -0.66603445508E+03 -0.68361047646E+03 -0.22368048755E+04  0.24319217340E+04  0.46999998093E+01 0.  1.
       -5    1    3    3    0  502  0.66603445508E+03  0.68361047646E+03  0.12728850926E+04  0.15909694302E+04  0.46999998093E+01 0. -1.
</event>
<event>
 5   0  0.8551754E-08  0.3995917E+04  0.7818609E-02  0.8005371E-01
       -2   -1    0    0    0  501  0.00000000000E+00  0.00000000000E+00  0.17980496506E+04  0.17980496506E+04  0.25500000920E-02 0. -1.
        2   -1    0    0  501    0  0.00000000000E+00  0.00000000000E+00 -0.22200931848E+04  0.22200931848E+04  0.25500000920E-02 0.  1.
    10030    2    1    2    0    0  0.00000000000E+00  0.00000000000E+00 -0.42204353419E+03  0.40181428354E+04  0.39959168035E+04 0.  0.
        1    1    3    3  502    0  0.17296456947E+04 -0.95254659513E+03  0.95334152516E+02  0.19768934837E+04  0.50400001928E-02 0. -1.
       -1    1    3    3    0  502 -0.17296456947E+04  0.95254659513E+03 -0.51737768670E+03  0.20412493517E+04  0.50400001928E-02 0.  1.
</event>
<event>
 5   0  0.2632875E-08  0.3896127E+04  0.7818609E-02  0.8025835E-01
       -1   -1    0    0    0  501  0.00000000000E+00  0.00000000000E+00  0.13919668032E+04  0.13919668032E+04  0.50400001928E-02 0. -1.
        1   -1    0    0  501    0  0.00000000000E+00  0.00000000000E+00 -0.27263230427E+04  0.27263230427E+04  0.50400001928E-02 0.  1.
    10030    2    1    2    0    0  0.00000000000E+00  0.00000000000E+00 -0.13343562395E+04  0.41182898459E+04  0.38961268821E+04 0.  0.
        5    1    3    3  502    0 -0.11176278073E+04  0.92018511723E+03  0.71064301377E+03  0.16127207286E+04  0.46999998093E+01 0. -1.
       -5    1    3    3    0  502  0.11176278073E+04 -0.92018511723E+03 -0.20449992533E+04  0.25055691173E+04  0.46999998093E+01 0.  1.
</event>
<event>
 5   0  0.2632875E-08  0.3896299E+04  0.7818609E-02  0.8025799E-01
       -1   -1    0    0    0  501  0.00000000000E+00  0.00000000000E+00  0.22882985335E+04  0.22882985335E+04  0.50400001928E-02 0.  1.
        1   -1    0    0  501    0  0.00000000000E+00  0.00000000000E+00 -0.16585623497E+04  0.16585623497E+04  0.50400001928E-02 0. -1.
    10030    2    1    2    0    0  0.00000000000E+00  0.00000000000E+00  0.62973618379E+03  0.39468608831E+04  0.38962986500E+04 0.  0.
        4    1    3    3  502    0  0.32366797546E+03  0.12411129987E+04 -0.11705036117E+04  0.17364339180E+04  0.12699999809E+01 0. -1.
       -4    1    3    3    0  502 -0.32366797546E+03 -0.12411129987E+04  0.18002397955E+04  0.22104269651E+04  0.12699999809E+01 0.  1.
</event>
<event>
 5   0  0.2632875E-08  0.3890088E+04  0.7818609E-02  0.8027094E-01
        1   -1    0    0  501    0  0.00000000000E+00  0.00000000000E+00  0.17431565996E+04  0.17431565996E+04  0.50400001928E-02 0. -1.
       -1   -1    0    0    0  501  0.00000000000E+00  0.00000000000E+00 -0.21703136247E+04  0.21703136247E+04  0.50400001928E-02 0.  1.
    10030    2    1    2    0    0  0.00000000000E+00  0.00000000000E+00 -0.42715702511E+03  0.39134702243E+04  0.38900881831E+04 0.  0.
        1    1    3    3  502    0 -0.12283092308E+04 -0.14412272444E+04 -0.66045223654E+03  0.20055115790E+04  0.50400001928E-02 0.  1.
       -1    1    3    3    0  502  0.12283092308E+04  0.14412272444E+04  0.23329521143E+03  0.19079586453E+04  0.50400001928E-02 0. -1.
</event>
<event>
 5   0  0.2632875E-08  0.3899130E+04  0.7818609E-02  0.8025210E-01
       -1   -1    0    0    0  501  0.00000000000E+00  0.00000000000E+00  0.14055860435E+04  0.14055860435E+04  0.50400001928E-02 0.  1.
        1   -1    0    0  501    0  0.00000000000E+00  0.00000000000E+00 -0.27040707725E+04  0.27040707725E+04  0.50400001928E-02 0. -1.
    10030    2    1    2    0    0  0.00000000000E+00  0.00000000000E+00 -0.12984847290E+04  0.41096568160E+04  0.38991302304E+04 0.  0.
        1    1    3    3  502    0  0.23986681857E+03 -0.67274095114E+03 -0.25612126892E+04  0.26589334173E+04  0.50400001928E-02 0. -1.
       -1    1    3    3    0  502 -0.23986681857E+03  0.67274095114E+03  0.12627279603E+04  0.14507233987E+04  0.50400001928E-02 0.  1.
</event>
<event>
 5   0  0.2632875E-08  0.3894473E+04  0.7818609E-02  0.8026180E-01
        1   -1    0    0  501    0  0.00000000000E+00  0.00000000000E+00  0.30584758468E+04  0.30584758468E+04  0.50400001928E-02 0. -1.
       -1   -1    0    0    0  501  0.00000000000E+00  0.00000000000E+00 -0.12397446987E+04  0.12397446987E+04  0.50400001928E-02 0.  1.
    10030    2    1    2    0    0  0.00000000000E+00  0.00000000000E+00  0.18187311481E+04  0.42982205455E+04  0.38944726046E+04 0.  0.
        1    1    3    3  502    0 -0.12018305939E+04  0.14220787414E+04  0.15385791549E+04  0.24153530879E+04  0.50400001928E-02 0. -1.
       -1    1    3    3    0  502  0.12018305939E+04 -0.14220787414E+04  0.28015199318E+03  0.18828674575E+04  0.50400001928E-02 0.  1.
</event>
<event>
 5   0  0.2632875E-08  0.3899524E+04  0.7818609E-02  0.8025128E-01
       -1   -1    0    0    0  501  0.00000000000E+00  0.00000000000E+00  0.26397670177E+04  0.26397670177E+04  0.50400001928E-02 0. -1.
        1   -1    0    0  501    0  0.00000000000E+00  0.00000000000E+00 -0.14401163818E+04  0.14401163818E+04  0.50400001928E-02 0.  1.
    10030    2    1    2    0    0  0.00000000000E+00  0.00000000000E+00  0.11996506359E+04  0.40798833996E+04  0.38995239332E+04 0.  0.
        2    1    3    3  502    0  0.96892132306E+03  0.13551051505E+04 -0.46017438492E+03  0.17282589400E+04  0.25500000920E-02 0.  1.
       -2    1    3    3    0  502 -0.96892132306E+03 -0.13551051505E+04  0.16598250208E+04  0.23516244596E+04  0.25500000920E-02 0. -1.
</event>
<event>
 5   0  0.2632875E-08  0.3872336E+04  0.7818609E-02  0.8030808E-01
       -1   -1    0    0    0  501  0.00000000000E+00  0.00000000000E+00  0.19404504078E+04  0.19404504078E+04  0.50400001928E-02 0. -1.
        1   -1    0    0  501    0  0.00000000000E+00  0.00000000000E+00 -0.19318949448E+04  0.19318949448E+04  0.50400001928E-02 0.  1.
    10030    2    1    2    0    0  0.00000000000E+00  0.00000000000E+00  0.85554630233E+01  0.38723453526E+04  0.38723359015E+04 0.  0.
        5    1    3    3  502    0  0.13619387643E+04  0.11028945823E+02 -0.13718525865E+04  0.19331322884E+04  0.46999998093E+01 0.  1.
       -5    1    3    3    0  502 -0.13619387643E+04 -0.11028945823E+02  0.13804080495E+04  0.19392130642E+04  0.46999998093E+01 0. -1.
</event>
<event>
 5   0  0.8676098E-08  0.3917530E+04  0.7818609E-02  0.8021393E-01
        2   -1    0    0  501    0  0.00000000000E+00  0.00000000000E+00  0.26702344332E+04  0.26702344332E+04  0.25500000920E-02 0.  1.
       -2   -1    0    0    0  501  0.00000000000E+00  0.00000000000E+00 -0.14368630074E+04  0.14368630074E+04  0.25500000920E-02 0. -1.
    10030    2    1    2    0    0  0.00000000000E+00  0.00000000000E+00  0.12333714258E+04  0.41070974406E+04  0.39175303844E+04 0.  0.
        3    1    3    3  502    0 -0.14962988742E+04  0.53097435996E+03 -0.58595770260E+03  0.16923919556E+04  0.10100000352E+00 0. -1.
       -3    1    3    3    0  502  0.14962988742E+04 -0.53097435996E+03  0.18193291284E+04  0.24147054850E+04  0.10100000352E+00 0.  1.
</event>
<event>
 5   0  0.2632875E-08  0.3909046E+04  0.7818609E-02  0.8023150E-01
       -1   -1    0    0    0  501  0.00000000000E+00  0.00000000000E+00  0.12071369757E+04  0.12071369758E+04  0.50400001928E-02 0. -1.
        1   -1    0    0  501    0  0.00000000000E+00  0.00000000000E+00 -0.31646447566E+04  0.31646447566E+04  0.50400001928E-02 0.  1.
    10030    2    1    2    0    0  0.00000000000E+00  0.00000000000E+00 -0.19575077808E+04  0.43717817323E+04  0.39090457663E+04 0.  0.
        3    1    3    3  502    0  0.37504088984E+03 -0.18992458907E+04 -0.67789406025E+03  0.20511779517E+04  0.10100000352E+00 0. -1.
       -3    1    3    3    0  502 -0.37504088984E+03  0.18992458907E+04 -0.12796137206E+04  0.23206037806E+04  0.10100000352E+00 0.  1.
</event>
<event>
 5   0  0.2632875E-08  0.3900742E+04  0.7818609E-02  0.8024875E-01
        1   -1    0    0  501    0  0.00000000000E+00  0.00000000000E+00  0.18260853656E+04  0.18260853656E+04  0.50400001928E-02 0.  1.
       -1   -1    0    0    0  501  0.00000000000E+00  0.00000000000E+00 -0.20831160581E+04  0.20831160581E+04  0.50400001928E-02 0. -1.
    10030    2    1    2    0    0  0.00000000000E+00  0.00000000000E+00 -0.25703069253E+03  0.39092014237E+04  0.39007423645E+04 0.  0.
        2    1    3    3  502    0 -0.18922018758E+04  0.32127945759E+03  0.21907873065E+03  0.19317463392E+04  0.25500000920E-02 0.  1.
       -2    1    3    3    0  502  0.18922018758E+04 -0.32127945759E+03 -0.47610942318E+03  0.19774550846E+04  0.25500000920E-02 0. -1.
</event>
<event>
 5   0  0.8438211E-08  0.3890125E+04  0.7818609E-02  0.8027086E-01
       -2   -1    0    0    0  501  0.00000000000E+00  0.00000000000E+00  0.26124024021E+04  0.26124024021E+04  0.25500000920E-02 0.  1.
        2   -1    0    0  501    0  0.00000000000E+00  0.00000000000E+00 -0.14481949209E+04  0.14481949209E+04  0.25500000920E-02 0. -1.
    10030    2    1    2    0    0  0.00000000000E+00  0.00000000000E+00  0.11642074813E+04  0.40605973230E+04  0.38901248772E+04 0.  0.
        5    1    3    3  502    0  0.49853309204E+00 -0.51264003843E+03 -0.13764036230E+04  0.14687780911E+04  0.46999998093E+01 0. -1.
       -5    1    3    3    0  502 -0.49853309204E+00  0.51264003843E+03  0.25406111043E+04  0.25918192319E+04  0.46999998093E+01 0.  1.
</event>
<event>
 5   0  0.8676098E-08  0.3899726E+04  0.7818609E-02  0.8025086E-01
       -2   -1    0    0    0  501  0.00000000000E+00  0.00000000000E+00  0.20945731355E+04  0.20945731355E+04  0.25500000920E-02 0. -1.
        2   -1    0    0  501    0  0.00000000000E+00  0.00000000000E+00 -0.18151506739E+04  0.18151506739E+04  0.25500000920E-02 0.  1.
    10030    2    1    2    0    0  0.00000000000E+00  0.00000000000E+00  0.27942246160E+03  0.39097238094E+04  0.38997260614E+04 0.  0.
        3    1    3    3  502    0 -0.25990131505E+03  0.16887133082E+04  0.10816220981E+04  0.20221789496E+04  0.10100000352E+00 0. -1.
       -3    1    3    3    0  502  0.25990131505E+03 -0.16887133082E+04 -0.80219963653E+03  0.18875448598E+04  0.10100000352E+00 0.  1.
</event>
<event>
 5   0  0.2632875E-08  0.3904085E+04  0.7818609E-02  0.8024180E-01
       -1   -1    0    0    0  501  0.00000000000E+00  0.00000000000E+00  0.16664149986E+04  0.16664149986E+04  0.50400001928E-02 0. -1.
        1   -1    0    0  501    0  0.00000000000E+00  0.00000000000E+00 -0.22866277744E+04  0.22866277744E+04  0.50400001928E-02 0.  1.
    10030    2    1    2    0    0  0.00000000000E+00  0.00000000000E+00 -0.62021277588E+03  0.39530427730E+04  0.39040854599E+04 0.  0.
        1    1    3    3  502    0 -0.15609354465E+04 -0.10055904346E+04  0.29972456043E+03  0.18808419398E+04  0.50400001928E-02 0. -1.
       -1    1    3    3    0  502  0.15609354465E+04  0.10055904346E+04 -0.91993733630E+03  0.20722008332E+04  0.50400001928E-02 0.  1.
</event>
<event>
 5   0  0.8342802E-08  0.3863157E+04  0.7818609E-02  0.8032736E-01
        2   -1    0    0  501    0  0.00000000000E+00  0.00000000000E+00  0.20741191236E+04  0.20741191237E+04  0.25500000920E-02 0. -1.
       -2   -1    0    0    0  501  0.00000000000E+00  0.00000000000E+00 -0.17988335668E+04  0.17988335668E+04  0.25500000920E-02 0.  1.
    10030    2    1    2    0    0  0.00000000000E+00  0.00000000000E+00  0.27528555689E+03  0.38729526904E+04  0.38631567926E+04 0.  0.
        4    1    3    3  502    0 -0.13751291158E+04  0.13186144806E+04  0.45667802302E+03  0.19591530475E+04  0.12699999809E+01 0. -1.
       -4    1    3    3    0  502  0.13751291158E+04 -0.13186144806E+04 -0.18139246613E+03  0.19137996430E+04  0.12699999809E+01 0.  1.
</event>
<event>
 5   0  0.8551754E-08  0.3914306E+04  0.7818609E-02  0.8022060E-01
       -2   -1    0    0    0  501  0.00000000000E+00  0.00000000000E+00  0.12675454015E+04  0.12675454015E+04  0.25500000920E-02 0.  1.
        2   -1    0    0  501    0  0.00000000000E+00  0.00000000000E+00 -0.30219411519E+04  0.30219411519E+04  0.25500000920E-02 0. -1.
    10030    2    1    2    0    0  0.00000000000E+00  0.00000000000E+00 -0.17543957504E+04  0.42894865533E+04  0.39143058698E+04 0.  0.
        1    1    3    3  502    0  0.14959274958E+04  0.12146509068E+04 -0.12524707594E+04  0.22982295145E+04  0.50400001928E-02 0. -1.
       -1    1    3    3    0  502 -0.14959274958E+04 -0.12146509068E+04 -0.50192499099E+03  0.19912570388E+04  0.50400001928E-02 0.  1.
</event>
<event>
 5   0  0.8676098E-08  0.3801423E+04  0.7818609E-02  0.8045850E-01
        2   -1    0    0  501    0  0.00000000000E+00  0.00000000000E+00  0.25612270507E+04  0.25612270507E+04  0.25500000920E-02 0.  1.
       -2   -1    0    0    0  501  0.00000000000E+00  0.00000000000E+00 -0.14105363161E+04  0.14105363161E+04  0.25500000920E-02 0. -1.
    10030    2    1    2    0    0  0.00000000000E+00  0.00000000000E+00  0.11506907346E+04  0.39717633668E+04  0.38014227698E+04 0.  0.
        3    1    3    3  502    0 -0.31124797494E+03  0.55702002958E+03 -0.12952892013E+04  0.14439254622E+04  0.10100000352E+00 0. -1.
       -3    1    3    3    0  502  0.31124797494E+03 -0.55702002958E+03  0.24459799358E+04  0.25278379046E+04  0.10100000352E+00 0.  1.
</event>
<event>
 5   0  0.2632875E-08  0.3898369E+04  0.7818609E-02  0.8025369E-01
       -3   -1    0    0    0  501  0.00000000000E+00  0.00000000000E+00  0.20221889341E+04  0.20221889367E+04  0.10100000352E+00 0. -1.
        3   -1    0    0  501    0  0.00000000000E+00  0.00000000000E+00 -0.18788155444E+04  0.18788155472E+04  0.10100000352E+00 0.  1.
    10030    2    1    2    0    0  0.00000000000E+00  0.00000000000E+00  0.14337338970E+03  0.39010044838E+04  0.38983688966E+04 0.  0.
        4    1    3    3  502    0 -0.14181528006E+04  0.11561073952E+04  0.74413560067E+03  0.19752167172E+04  0.12699999809E+01 0. -1.
       -4    1    3    3    0  502  0.14181528006E+04 -0.11561073952E+04 -0.60076221097E+03  0.19257877666E+04  0.12699999809E+01 0.  1.
</event>
<event>
 5   0  0.2632875E-08  0.3698022E+04  0.7818609E-02  0.8068400E-01
        1   -1    0    0  501    0  0.00000000000E+00  0.00000000000E+00  0.13718561804E+04  0.13718561804E+04  0.50400001928E-02 0.  1.
       -1   -1    0    0    0  501  0.00000000000E+00  0.00000000000E+00 -0.24921284615E+04  0.24921284615E+04  0.50400001928E-02 0. -1.
    10030    2    1    2    0    0  0.00000000000E+00  0.00000000000E+00 -0.11202722811E+04  0.38639846419E+04  0.36980220833E+04 0.  0.
        2    1    3    3  502    0 -0.91001671096E+03  0.47071824983E+03 -0.21684131887E+04  0.23982747637E+04  0.25500000920E-02 0. -1.
       -2    1    3    3    0  502  0.91001671096E+03 -0.47071824983E+03  0.10481409076E+04  0.14657098782E+04  0.25500000920E-02 0.  1.
</event>
<event>
 5   0  0.2632875E-08  0.3893203E+04  0.7818609E-02  0.8026444E-01
        1   -1    0    0  501    0  0.00000000000E+00  0.00000000000E+00  0.14586596792E+04  0.14586596792E+04  0.50400001928E-02 0.  1.
       -1   -1    0    0    0  501  0.00000000000E+00  0.00000000000E+00 -0.25977663954E+04  0.25977663954E+04  0.50400001928E-02 0. -1.
    10030    2    1    2    0    0  0.00000000000E+00  0.00000000000E+00 -0.11391067162E+04  0.40564260746E+04  0.38932028444E+04 0.  0.
        3    1    3    3  502    0 -0.10924305926E+04  0.11646040131E+04 -0.17295815795E+04  0.23539667707E+04  0.10100000352E+00 0. -1.
       -3    1    3    3    0  502  0.10924305926E+04 -0.11646040131E+04  0.59047486322E+03  0.17024593039E+04  0.10100000352E+00 0.  1.
</event>
<event>
 5   0  0.8476262E-08  0.3901335E+04  0.7818609E-02  0.8024752E-01
       -2   -1    0    0    0  501  0.00000000000E+00  0.00000000000E+00  0.15072329213E+04  0.15072329213E+04  0.25500000920E-02 0. -1.
        2   -1    0    0  501    0  0.00000000000E+00  0.00000000000E+00 -0.25245627180E+04  0.25245627180E+04  0.25500000920E-02 0.  1.
    10030    2    1    2    0    0  0.00000000000E+00  0.00000000000E+00 -0.10173297967E+04  0.40317956393E+04  0.39013351768E+04 0.  0.
        2    1    3    3  502    0  0.20965105881E+03 -0.16052196669E+04 -0.16333687110E+04  0.22996906513E+04  0.25500000920E-02 0.  1.
       -2    1    3    3    0  502 -0.20965105881E+03  0.16052196669E+04  0.61603891432E+03  0.17321049880E+04  0.25500000920E-02 0. -1.
</event>
<event>
 5   0  0.8342802E-08  0.3905612E+04  0.7818609E-02  0.8023863E-01
        2   -1    0    0  501    0  0.00000000000E+00  0.00000000000E+00  0.13781737176E+04  0.13781737176E+04  0.25500000920E-02 0.  1.
       -2   -1    0    0    0  501  0.00000000000E+00  0.00000000000E+00 -0.27670319990E+04  0.27670319990E+04  0.25500000920E-02 0. -1.
    10030    2    1    2    0    0  0.00000000000E+00  0.00000000000E+00 -0.13888582814E+04  0.41452057166E+04  0.39056117455E+04 0.  0.
        4    1    3    3  502    0 -0.94129313934E+03 -0.12675127042E+04  0.52534702464E+03  0.16639147631E+04  0.12699999809E+01 0.  1.
       -4    1    3    3    0  502  0.94129313934E+03  0.12675127042E+04 -0.19142053060E+04  0.24812909535E+04  0.12699999809E+01 0. -1.
</event>
<event>
 5   0  0.2632875E-08  0.3892995E+04  0.7818609E-02  0.8026488E-01
        1   -1    0    0  501    0  0.00000000000E+00  0.00000000000E+00  0.11420659947E+04  0.11420659948E+04  0.50400001928E-02 0. -1.
       -1   -1    0    0    0  501  0.00000000000E+00  0.00000000000E+00 -0.33175424828E+04  0.33175424828E+04  0.50400001928E-02 0.  1.
    10030    2    1    2    0    0  0.00000000000E+00  0.00000000000E+00 -0.21754764881E+04  0.44596084776E+04  0.38929949683E+04 0.  0.
        2    1    3    3  502    0  0.20597318991E+03  0.98564283822E+03 -0.29960061745E+04  0.31606913417E+04  0.25500000920E-02 0.  1.
       -2    1    3    3    0  502 -0.20597318991E+03 -0.98564283822E+03  0.82052968648E+03  0.12989171359E+04  0.25500000920E-02 0. -1.
</event>
<event>
 5   0  0.2632875E-08  0.3718368E+04  0.7818609E-02  0.8063904E-01
       -1   -1    0    0    0  501  0.00000000000E+00  0.00000000000E+00  0.21116846279E+04  0.21116846279E+04  0.50400001928E-02 0.  1.
        1   -1    0    0  501    0  0.00000000000E+00  0.00000000000E+00 -0.16368752152E+04  0.16368752152E+04  0.50400001928E-02 0. -1.
    10030    2    1    2    0    0  0.00000000000E+00  0.00000000000E+00  0.47480941264E+03  0.37485598431E+04  0.37183675072E+04 0.  0.
        5    1    3    3  502    0  0.13504999459E+04 -0.72231670354E+03  0.12999795115E+04  0.20088704150E+04  0.46999998093E+01 0.  1.
       -5    1    3    3    0  502 -0.13504999459E+04  0.72231670354E+03 -0.82517009883E+03  0.17396894281E+04  0.46999998093E+01 0. -1.
</event>
<event>
 5   0  0.2632875E-08  0.3886845E+04  0.7818609E-02  0.8027771E-01
       -1   -1    0    0    0  501  0.00000000000E+00  0.00000000000E+00  0.21565342644E+04  0.21565342644E+04  0.50400001928E-02 0.  1.
        1   -1    0    0  501    0  0.00000000000E+00  0.00000000000E+00 -0.17513711082E+04  0.17513711082E+04  0.50400001928E-02 0. -1.
    10030    2    1    2    0    0  0.00000000000E+00  0.00000000000E+00  0.40516315623E+03  0.39079053726E+04  0.38868454070E+04 0.  0.
        2    1    3    3  502    0  0.17463404428E+03 -0.14744327995E+04 -0.10581835332E+04  0.18232392930E+04  0.25500000920E-02 0. -1.
       -2    1    3    3    0  502 -0.17463404428E+03  0.14744327995E+04  0.14633466894E+04  0.20846660795E+04  0.25500000920E-02 0.  1.
</event>
<event>
 5   0  0.8476262E-08  0.3902140E+04  0.7818609E-02  0.8024584E-01
        2   -1    0    0  501    0  0.00000000000E+00  0.00000000000E+00  0.23337921100E+04  0.23337921100E+04  0.25500000920E-02 0. -1.
       -2   -1    0    0    0  501  0.00000000000E+00  0.00000000000E+00 -0.16311111738E+04  0.16311111738E+04  0.25500000920E-02 0.  1.
    10030    2    1    2    0    0  0.00000000000E+00  0.00000000000E+00  0.70268093614E+03  0.39649032838E+04  0.39021401246E+04 0.  0.
        2    1    3    3  502    0  0.13217188227E+04  0.12305819224E+04  0.11017322172E+04  0.21154399997E+04  0.25500000920E-02 0. -1.
       -2    1    3    3    0  502 -0.13217188227E+04 -0.12305819224E+04 -0.39905128107E+03  0.18494632840E+04  0.25500000920E-02 0.  1.
</event>
<event>
 5   0  0.8676098E-08  0.3924812E+04  0.7818609E-02  0.8019889E-01
       -2   -1    0    0    0  501  0.00000000000E+00  0.00000000000E+00  0.17775131484E+04  0.17775131484E+04  0.25500000920E-02 0.  1.
        2   -1    0    0  501    0  0.00000000000E+00  0.00000000000E+00 -0.21665306225E+04  0.21665306225E+04  0.25500000920E-02 0. -1.
    10030    2    1    2    0    0  0.00000000000E+00  0.00000000000E+00 -0.38901747408E+03  0.39440437710E+04  0.39248116735E+04 0.  0.
        3    1    3    3  502    0 -0.14927146975E+04  0.10960903811E+04 -0.84686260223E+03  0.20363662659E+04  0.10100000352E+00 0. -1.
       -3    1    3    3    0  502  0.14927146975E+04 -0.10960903811E+04  0.45784512815E+03  0.19076775051E+04  0.10100000352E+00 0.  1.
</event>
<event>
 5   0  0.8476262E-08  0.3911908E+04  0.7818609E-02  0.8022557E-01
        2   -1    0    0  501    0  0.00000000000E+00  0.00000000000E+00  0.23939972346E+04  0.23939972346E+04  0.25500000920E-02 0.  1.
       -2   -1    0    0    0  501  0.00000000000E+00  0.00000000000E+00 -0.15980622740E+04  0.15980622741E+04  0.25500000920E-02 0. -1.
    10030    2    1    2    0    0  0.00000000000E+00  0.00000000000E+00  0.79593496051E+03  0.39920595086E+04  0.39119083142E+04 0.  0.
        2    1    3    3  502    0  0.17555037588E+03 -0.14207408631E+04  0.17581052273E+04  0.22672133831E+04  0.25500000920E-02 0.  1.
       -2    1    3    3    0  502 -0.17555037588E+03  0.14207408631E+04 -0.96217026674E+03  0.17248461255E+04  0.25500000920E-02 0. -1.
</event>
<event>
 5   0  0.2632875E-08  0.3916450E+04  0.7818609E-02  0.8021617E-01
        1   -1    0    0  501    0  0.00000000000E+00  0.00000000000E+00  0.17716505346E+04  0.17716505346E+04  0.50400001928E-02 0.  1.
       -1   -1    0    0    0  501  0.00000000000E+00  0.00000000000E+00 -0.21644480129E+04  0.21644480129E+04  0.50400001928E-02 0. -1.
    10030    2    1    2    0    0  0.00000000000E+00  0.00000000000E+00 -0.39279747838E+03  0.39360985475E+04  0.39164501678E+04 0.  0.
        3    1    3    3  502    0 -0.47250114881E+03  0.16941513454E+04 -0.10616706235E+04  0.20543978776E+04  0.10100000352E+00 0. -1.
       -3    1    3    3    0  502  0.47250114881E+03 -0.16941513454E+04  0.66887314508E+03  0.18817006699E+04  0.10100000352E+00 0.  1.
</event>
<event>
 5   0  0.2632875E-08  0.3894414E+04  0.7818609E-02  0.8026192E-01
       -1   -1    0    0    0  501  0.00000000000E+00  0.00000000000E+00  0.20362196890E+04  0.20362196890E+04  0.50400001928E-02 0. -1.
        1   -1    0    0  501    0  0.00000000000E+00  0.00000000000E+00 -0.18620856842E+04  0.18620856842E+04  0.50400001928E-02 0.  1.
    10030    2    1    2    0    0  0.00000000000E+00  0.00000000000E+00  0.17413400480E+03  0.38983053732E+04  0.38944142218E+04 0.  0.
        5    1    3    3  502    0  0.49838635410E+03  0.10521959872E+04 -0.14752897480E+04  0.18793635316E+04  0.46999998093E+01 0.  1.
       -5    1    3    3    0  502 -0.49838635410E+03 -0.10521959872E+04  0.16494237528E+04  0.20189418416E+04  0.46999998093E+01 0. -1.
</event>
<event>
 5   0  0.8438211E-08  0.3964723E+04  0.7818609E-02  0.8011701E-01
       -2   -1    0    0    0  501  0.00000000000E+00  0.00000000000E+00  0.26480150923E+04  0.26480150923E+04  0.25500000920E-02 0.  1.
        2   -1    0    0  501    0  0.00000000000E+00  0.00000000000E+00 -0.14840388091E+04  0.14840388091E+04  0.25500000920E-02 0. -1.
    10030    2    1    2    0    0  0.00000000000E+00  0.00000000000E+00  0.11639762832E+04  0.41320539014E+04  0.39647230239E+04 0.  0.
        5    1    3    3  502    0  0.19636338860E+04  0.27162725317E+03  0.57179416385E+03  0.20631553647E+04  0.46999998093E+01 0. -1.
       -5    1    3    3    0  502 -0.19636338860E+04 -0.27162725317E+03  0.59218211934E+03  0.20688985368E+04  0.46999998093E+01 0.  1.
</event>
<event>
 5   0  0.2632875E-08  0.4029432E+04  0.7818609E-02  0.7998635E-01
        1   -1    0    0  501    0  0.00000000000E+00  0.00000000000E+00  0.12556138277E+04  0.12556138277E+04  0.50400001928E-02 0. -1.
       -1   -1    0    0    0  501  0.00000000000E+00  0.00000000000E+00 -0.32327454742E+04  0.32327454742E+04  0.50400001928E-02 0.  1.
    10030    2    1    2    0    0  0.00000000000E+00  0.00000000000E+00 -0.19771316466E+04  0.44883593019E+04  0.40294316814E+04 0.  0.
        5    1    3    3  502    0 -0.79335973198E+03 -0.88557878751E+03 -0.28002752306E+04  0.30422414287E+04  0.46999998093E+01 0.  1.
       -5    1    3    3    0  502  0.79335973198E+03  0.88557878751E+03  0.82314358406E+03  0.14461178732E+04  0.46999998093E+01 0. -1.
</event>
<event>
 5   0  0.2632875E-08  0.3904138E+04  0.7818609E-02  0.8024169E-01
        1   -1    0    0  501    0  0.00000000000E+00  0.00000000000E+00  0.19735522551E+04  0.19735522551E+04  0.50400001928E-02 0.  1.
       -1   -1    0    0    0  501  0.00000000000E+00  0.00000000000E+00 -0.19308194356E+04  0.19308194356E+04  0.50400001928E-02 0. -1.
    10030    2    1    2    0    0  0.00000000000E+00  0.00000000000E+00  0.42732819458E+02  0.39043716907E+04  0.39041378312E+04 0.  0.
        2    1    3    3  502    0 -0.10019742851E+04  0.12451285650E+04 -0.10995376661E+04  0.19399177020E+04  0.25500000920E-02 0. -1.
       -2    1    3    3    0  502  0.10019742851E+04 -0.12451285650E+04  0.11422704856E+04  0.19644539887E+04  0.25500000920E-02 0.  1.
</event>
<event>
 5   0  0.8438211E-08  0.3895754E+04  0.7818609E-02  0.8025913E-01
       -2   -1    0    0    0  501  0.00000000000E+00  0.00000000000E+00  0.15590265133E+04  0.15590265133E+04  0.25500000920E-02 0. -1.
        2   -1    0    0  501    0  0.00000000000E+00  0.00000000000E+00 -0.24337134856E+04  0.24337134856E+04  0.25500000920E-02 0.  1.
    10030    2    1    2    0    0  0.00000000000E+00  0.00000000000E+00 -0.87468697235E+03  0.39927399989E+04  0.38957535085E+04 0.  0.
        5    1    3    3  502    0 -0.13863289180E+04 -0.19964421387E+03  0.95003187366E+03  0.16924385756E+04  0.46999998093E+01 0. -1.
       -5    1    3    3    0  502  0.13863289180E+04  0.19964421387E+03 -0.18247188460E+04  0.23003014233E+04  0.46999998093E+01 0.  1.
</event>
<event>
 5   0  0.2632875E-08  0.3900496E+04  0.7818609E-02  0.8024926E-01
        1   -1    0    0  501    0  0.00000000000E+00  0.00000000000E+00  0.13421312012E+04  0.13421312012E+04  0.50400001928E-02 0. -1.
       -1   -1    0    0    0  501  0.00000000000E+00  0.00000000000E+00 -0.28339005321E+04  0.28339005321E+04  0.50400001928E-02 0.  1.
    10030    2    1    2    0    0  0.00000000000E+00  0.00000000000E+00 -0.14917693308E+04  0.41760317333E+04  0.39004955199E+04 0.  0.
        1    1    3    3  502    0  0.16499104593E+04  0.10176072982E+04 -0.51691458450E+03  0.20062227755E+04  0.50400001928E-02 0.  1.
       -1    1    3    3    0  502 -0.16499104593E+04 -0.10176072982E+04 -0.97485474632E+03  0.21698089578E+04  0.50400001928E-02 0. -1.
</event>
<event>
 5   0  0.8676098E-08  0.3900398E+04  0.7818609E-02  0.8024946E-01
       -2   -1    0    0    0  501  0.00000000000E+00  0.00000000000E+00  0.15794008273E+04  0.15794008273E+04  0.25500000920E-02 0.  1.
        2   -1    0    0  501    0  0.00000000000E+00  0.00000000000E+00 -0.24080499234E+04  0.24080499234E+04  0.25500000920E-02 0. -1.
    10030    2    1    2    0    0  0.00000000000E+00  0.00000000000E+00 -0.82864909609E+03  0.39874507507E+04  0.39003979496E+04 0.  0.
        3    1    3    3  502    0 -0.60858348777E+03  0.70955236929E+03  0.13354356717E+04  0.16301002637E+04  0.10100000352E+00 0.  1.
       -3    1    3    3    0  502  0.60858348777E+03 -0.70955236929E+03 -0.21640847678E+04  0.23573504870E+04  0.10100000352E+00 0. -1.
</event>
<event>
 5   0  0.8551754E-08  0.3883491E+04  0.7818609E-02  0.8028472E-01
        2   -1    0    0  501    0  0.00000000000E+00  0.00000000000E+00  0.12798003231E+04  0.12798003231E+04  0.25500000920E-02 0.  1.
       -2   -1    0    0    0  501  0.00000000000E+00  0.00000000000E+00 -0.29460657835E+04  0.29460657835E+04  0.25500000920E-02 0. -1.
    10030    2    1    2    0    0  0.00000000000E+00  0.00000000000E+00 -0.16662654604E+04  0.42258661066E+04  0.38834911827E+04 0.  0.
        1    1    3    3  502    0 -0.79982249808E+03  0.53770281072E+03  0.10011655545E+04  0.13896664379E+04  0.50400001928E-02 0.  1.
       -1    1    3    3    0  502  0.79982249808E+03 -0.53770281072E+03 -0.26674310149E+04  0.28361996687E+04  0.50400001928E-02 0. -1.
</event>
<event>
 5   0  0.8676098E-08  0.3658767E+04  0.7818609E-02  0.8077162E-01
       -2   -1    0    0    0  501  0.00000000000E+00  0.00000000000E+00  0.13757650555E+04  0.13757650555E+04  0.25500000920E-02 0. -1.
        2   -1    0    0  501    0  0.00000000000E+00  0.00000000000E+00 -0.24325688483E+04  0.24325688483E+04  0.25500000920E-02 0.  1.
    10030    2    1    2    0    0  0.00000000000E+00  0.00000000000E+00 -0.10568037929E+04  0.38083339038E+04  0.36587665772E+04 0.  0.
        3    1    3    3  502    0 -0.91663573821E+03 -0.15148990090E+04 -0.49707099185E+02  0.17713302600E+04  0.10100000352E+00 0. -1.
       -3    1    3    3    0  502  0.91663573821E+03  0.15148990090E+04 -0.10070966937E+04  0.20370036438E+04  0.10100000352E+00 0.  1.
</event>
<event>
 5   0  0.2632875E-08  0.3906096E+04  0.7818609E-02  0.8023763E-01
        1   -1    0    0  501    0  0.00000000000E+00  0.00000000000E+00  0.26992496540E+04  0.26992496540E+04  0.50400001928E-02 0. -1.
       -1   -1    0    0    0  501  0.00000000000E+00  0.00000000000E+00 -0.14131321213E+04  0.14131321213E+04  0.50400001928E-02 0.  1.
    10030    2    1    2    0    0  0.00000000000E+00  0.00000000000E+00  0.12861175327E+04  0.41123817753E+04  0.39060959484E+04 0.  0.
        2    1    3    3  502    0 -0.60294594570E+03  0.16695633447E+04  0.15005738976E+04  0.23243725170E+04  0.25500000920E-02 0. -1.
       -2    1    3    3    0  502  0.60294594570E+03 -0.16695633447E+04 -0.21445636492E+03  0.17880092583E+04  0.25500000920E-02 0.  1.
</event>
<event>
 5   0  0.8342802E-08  0.3920087E+04  0.7818609E-02  0.8020864E-01
       -2   -1    0    0    0  501  0.00000000000E+00  0.00000000000E+00  0.18457460127E+04  0.18457460127E+04  0.25500000920E-02 0. -1.
        2   -1    0    0  501    0  0.00000000000E+00  0.00000000000E+00 -0.20814184558E+04  0.20814184558E+04  0.25500000920E-02 0.  1.
    10030    2    1    2    0    0  0.00000000000E+00  0.00000000000E+00 -0.23567244312E+03  0.39271644685E+04  0.39200866397E+04 0.  0.
        4    1    3    3  502    0 -0.13537026196E+03  0.15265997182E+04  0.11062276417E+04  0.18901251322E+04  0.12699999809E+01 0. -1.
       -4    1    3    3    0  502  0.13537026196E+03 -0.15265997182E+04 -0.13419000848E+04  0.20370393363E+04  0.12699999809E+01 0.  1.
</event>
<event>
 5   0  0.2632875E-08  0.3888004E+04  0.7818609E-02  0.8027529E-01
        1   -1    0    0  501    0  0.00000000000E+00  0.00000000000E+00  0.11957913208E+04  0.11957913208E+04  0.50400001928E-02 0.  1.
       -1   -1    0    0    0  501  0.00000000000E+00  0.00000000000E+00 -0.31603703473E+04  0.31603703473E+04  0.50400001928E-02 0. -1.
    10030    2    1    2    0    0  0.00000000000E+00  0.00000000000E+00 -0.19645790265E+04  0.43561616682E+04  0.38880038230E+04 0.  0.
        5    1    3    3  502    0 -0.53164482093E+03  0.28772709394E+03 -0.30523795458E+04  0.31116677325E+04  0.46999998093E+01 0. -1.
       -5    1    3    3    0  502  0.53164482093E+03 -0.28772709394E+03  0.10878005192E+04  0.12444939357E+04  0.46999998093E+01 0.  1.
</event>
<event>
 5   0  0.2632875E-08  0.3935492E+04  0.7818609E-02  0.8017688E-01
        1   -1    0    0  501    0  0.00000000000E+00  0.00000000000E+00  0.19281844105E+04  0.19281844105E+04  0.50400001928E-02 0. -1.
       -1   -1    0    0    0  501  0.00000000000E+00  0.00000000000E+00 -0.20081193980E+04  0.20081193980E+04  0.50400001928E-02 0.  1.
    10030    2    1    2    0    0  0.00000000000E+00  0.00000000000E+00 -0.79934987522E+02  0.39363038086E+04  0.39354921003E+04 0.  0.
        2    1    3    3  502    0 -0.88502809094E+03 -0.47027984530E+03  0.16537767855E+04  0.19337568387E+04  0.25500000920E-02 0. -1.
       -2    1    3    3    0  502  0.88502809094E+03  0.47027984530E+03 -0.17337117731E+04  0.20025469699E+04  0.25500000920E-02 0.  1.
</event>
<event>
 5   0  0.2632875E-08  0.3907019E+04  0.7818609E-02  0.8023571E-01
       -1   -1    0    0    0  501  0.00000000000E+00  0.00000000000E+00  0.13525945196E+04  0.13525945196E+04  0.50400001928E-02 0.  1.
        1   -1    0    0  501    0  0.00000000000E+00  0.00000000000E+00 -0.28213920821E+04  0.28213920821E+04  0.50400001928E-02 0. -1.
    10030    2    1    2    0    0  0.00000000000E+00  0.00000000000E+00 -0.14687975625E+04  0.41739866018E+04  0.39070190519E+04 0.  0.
        2    1    3    3  502    0  0.12242233332E+04  0.34757790017E+03 -0.23177875699E+04  0.26441770715E+04  0.25500000920E-02 0. -1.
       -2    1    3    3    0  502 -0.12242233332E+04 -0.34757790017E+03  0.84899000736E+03  0.15298095303E+04  0.25500000920E-02 0.  1.
</event>
<event>
 5   0  0.2632875E-08  0.3903808E+04  0.7818609E-02  0.8024238E-01
        1   -1    0    0  501    0  0.00000000000E+00  0.00000000000E+00  0.17426420884E+04  0.17426420884E+04  0.50400001928E-02 0.  1.
       -1   -1    0    0    0  501  0.00000000000E+00  0.00000000000E+00 -0.21862943922E+04  0.21862943922E+04  0.50400001928E-02 0. -1.
    10030    2    1    2    0    0  0.00000000000E+00  0.00000000000E+00 -0.44365230378E+03  0.39289364806E+04  0.39038076927E+04 0.  0.
        3    1    3    3  502    0 -0.39941559487E+03 -0.18158649992E+04 -0.81981414167E+03  0.20319925565E+04  0.10100000352E+00 0. -1.
       -3    1    3    3    0  502  0.39941559487E+03  0.18158649992E+04  0.37616183790E+03  0.18969439241E+04  0.10100000352E+00 0.  1.
</event>
<event>
 5   0  0.2632875E-08  0.3907462E+04  0.7818609E-02  0.8023479E-01
       -1   -1    0    0    0  501  0.00000000000E+00  0.00000000000E+00  0.20398052832E+04  0.20398052832E+04  0.50400001928E-02 0. -1.
        1   -1    0    0  501    0  0.00000000000E+00  0.00000000000E+00 -0.18712886038E+04  0.18712886039E+04  0.50400001928E-02 0.  1.
    10030    2    1    2    0    0  0.00000000000E+00  0.00000000000E+00  0.16851667939E+03  0.39110938871E+04  0.39074617749E+04 0.  0.
        5    1    3    3  502    0 -0.59538842044E+03  0.12606169834E+04  0.14542525479E+04  0.20145756658E+04  0.46999998093E+01 0. -1.
       -5    1    3    3    0  502  0.59538842044E+03 -0.12606169834E+04 -0.12857358686E+04  0.18965182213E+04  0.46999998093E+01 0.  1.
</event>
<event>
 5   0  0.8438211E-08  0.3893346E+04  0.7818609E-02  0.8026415E-01
       -2   -1    0    0    0  501  0.00000000000E+00  0.00000000000E+00  0.17288223598E+04  0.17288223598E+04  0.25500000920E-02 0. -1.
        2   -1    0    0  501    0  0.00000000000E+00  0.00000000000E+00 -0.21919748853E+04  0.21919748853E+04  0.25500000920E-02 0.  1.
    10030    2    1    2    0    0  0.00000000000E+00  0.00000000000E+00 -0.46315252546E+03  0.39207972451E+04  0.38933457046E+04 0.  0.
        5    1    3    3  502    0 -0.97411307195E+03 -0.20672452302E+03 -0.19160571892E+04  0.21593815197E+04  0.46999998093E+01 0.  1.
       -5    1    3    3    0  502  0.97411307195E+03  0.20672452302E+03  0.14529046638E+04  0.17614157253E+04  0.46999998093E+01 0. -1.
</event>
<event>
 5   0  0.2632875E-08  0.3904408E+04  0.7818609E-02  0.8024113E-01
       -1   -1    0    0    0  501  0.00000000000E+00  0.00000000000E+00  0.19758406848E+04  0.19758406848E+04  0.50400001928E-02 0. -1.
        1   -1    0    0  501    0  0.00000000000E+00  0.00000000000E+00 -0.19288500911E+04  0.19288500912E+04  0.50400001928E-02 0.  1.
    10030    2    1    2    0    0  0.00000000000E+00  0.00000000000E+00  0.46990593621E+02  0.39046907759E+04  0.39044080140E+04 0.  0.
        3    1    3    3  502    0  0.13830615906E+04 -0.93933644156E+03 -0.98449047191E+03  0.19402148884E+04  0.10100000352E+00 0.  1.
       -3    1    3    3    0  502 -0.13830615906E+04  0.93933644156E+03  0.10314810655E+04  0.19644758875E+04  0.10100000352E+00 0. -1.
</event>
<event>
 5   0  0.2632875E-08  0.3893673E+04  0.7818609E-02  0.8026346E-01
        1   -1    0    0  501    0  0.00000000000E+00  0.00000000000E+00  0.22163300629E+04  0.22163300629E+04  0.50400001928E-02 0. -1.
       -1   -1    0    0    0  501  0.00000000000E+00  0.00000000000E+00 -0.17101122930E+04  0.17101122931E+04  0.50400001928E-02 0.  1.
    10030    2    1    2    0    0  0.00000000000E+00  0.00000000000E+00  0.50621776990E+03  0.39264423560E+04  0.38936734769E+04 0.  0.
        5    1    3    3  502    0 -0.10837323684E+04 -0.26953603089E+02  0.18837984666E+04  0.21734583262E+04  0.46999998093E+01 0. -1.
       -5    1    3    3    0  502  0.10837323684E+04  0.26953603089E+02 -0.13775806967E+04  0.17529840298E+04  0.46999998093E+01 0.  1.
</event>
<event>
 5   0  0.2632875E-08  0.3865563E+04  0.7818609E-02  0.8032230E-01
        1   -1    0    0  501    0  0.00000000000E+00  0.00000000000E+00  0.15840856626E+04  0.15840856626E+04  0.50400001928E-02 0.  1.
       -1   -1    0    0    0  501  0.00000000000E+00  0.00000000000E+00 -0.23582334997E+04  0.23582334997E+04  0.50400001928E-02 0. -1.
    10030    2    1    2    0    0  0.00000000000E+00  0.00000000000E+00 -0.77414783707E+03  0.39423191623E+04  0.38655627668E+04 0.  0.
        4    1    3    3  502    0  0.70747912302E+03 -0.13683193991E+04  0.80350424927E+03  0.17373673701E+04  0.12699999809E+01 0.  1.
       -4    1    3    3    0  502 -0.70747912302E+03  0.13683193991E+04 -0.15776520863E+04  0.22049517922E+04  0.12699999809E+01 0. -1.
</event>
<event>
 5   0  0.2632875E-08  0.3869759E+04  0.7818609E-02  0.8031348E-01
        1   -1    0    0  501    0  0.00000000000E+00  0.00000000000E+00  0.13391141370E+04  0.13391141371E+04  0.50400001928E-02 0.  1.
       -1   -1    0    0    0  501  0.00000000000E+00  0.00000000000E+00 -0.27956979133E+04  0.27956979133E+04  0.50400001928E-02 0. -1.
    10030    2    1    2    0    0  0.00000000000E+00  0.00000000000E+00 -0.14565837763E+04  0.41348120504E+04  0.38697589582E+04 0.  0.
        2    1    3    3  502    0 -0.27504938720E+03  0.14805918300E+03 -0.27685786129E+04  0.27861445086E+04  0.25500000920E-02 0. -1.
       -2    1    3    3    0  502  0.27504938720E+03 -0.14805918300E+03  0.13119948366E+04  0.13486675418E+04  0.25500000920E-02 0.  1.
</event>
<event>
 5   0  0.8476262E-08  0.3899527E+04  0.7818609E-02  0.8025128E-01
        2   -1    0    0  501    0  0.00000000000E+00  0.00000000000E+00  0.16260305302E+04  0.16260305302E+04  0.25500000920E-02 0.  1.
       -2   -1    0    0    0  501  0.00000000000E+00  0.00000000000E+00 -0.23379495594E+04  0.23379495594E+04  0.25500000920E-02 0. -1.
    10030    2    1    2    0    0  0.00000000000E+00  0.00000000000E+00 -0.71191902920E+03  0.39639800895E+04  0.38995268233E+04 0.  0.
        2    1    3    3  502    0  0.18199668406E+04  0.46985124621E+03 -0.88273107478E+03  0.20765966495E+04  0.25500000920E-02 0.  1.
       -2    1    3    3    0  502 -0.18199668406E+04 -0.46985124621E+03  0.17081204558E+03  0.18873834400E+04  0.25500000920E-02 0. -1.
</event>
<event>
 5   0  0.8676098E-08  0.3910294E+04  0.7818609E-02  0.8022892E-01
       -2   -1    0    0    0  501  0.00000000000E+00  0.00000000000E+00  0.33005882451E+04  0.33005882451E+04  0.25500000920E-02 0. -1.
        2   -1    0    0  501    0  0.00000000000E+00  0.00000000000E+00 -0.11581572114E+04  0.11581572114E+04  0.25500000920E-02 0.  1.
    10030    2    1    2    0    0  0.00000000000E+00  0.00000000000E+00  0.21424310338E+04  0.44587454565E+04  0.39102941464E+04 0.  0.
        3    1    3    3  502    0  0.94195391433E+03 -0.15869017072E+04  0.18076016028E+04  0.25832068770E+04  0.10100000352E+00 0. -1.
       -3    1    3    3    0  502 -0.94195391433E+03  0.15869017072E+04  0.33482943098E+03  0.18755385795E+04  0.10100000352E+00 0.  1.
</event>
<event>
 5   0  0.8342802E-08  0.3904736E+04  0.7818609E-02  0.8024045E-01
       -2   -1    0    0    0  501  0.00000000000E+00  0.00000000000E+00  0.30332262923E+04  0.30332262923E+04  0.25500000920E-02 0. -1.
        2   -1    0    0  501    0  0.00000000000E+00  0.00000000000E+00 -0.12566620702E+04  0.12566620702E+04  0.25500000920E-02 0.  1.
    10030    2    1    2    0    0  0.00000000000E+00  0.00000000000E+00  0.17765642220E+04  0.42898883625E+04  0.39047358076E+04 0.  0.
        4    1    3    3  502    0 -0.16998517789E+04  0.95729903050E+03  0.80445878691E+03  0.21102305696E+04  0.12699999809E+01 0.  1.
       -4    1    3    3    0  502  0.16998517789E+04 -0.95729903050E+03  0.97210543512E+03  0.21796577929E+04  0.12699999809E+01 0. -1.
</event>
<event>
 5   0  0.2632875E-08  0.3911440E+04  0.7818609E-02  0.8022654E-01
       -1   -1    0    0    0  501  0.00000000000E+00  0.00000000000E+00  0.22009190327E+04  0.22009190327E+04  0.50400001928E-02 0. -1.
        1   -1    0    0  501    0  0.00000000000E+00  0.00000000000E+00 -0.17378377188E+04  0.17378377188E+04  0.50400001928E-02 0.  1.
    10030    2    1    2    0    0  0.00000000000E+00  0.00000000000E+00  0.46308131392E+03  0.39387567515E+04  0.39114396894E+04 0.  0.
        5    1    3    3  502    0 -0.43376391651E+03  0.70270006210E+03 -0.15536573284E+04  0.17594918860E+04  0.46999998093E+01 0.  1.
       -5    1    3    3    0  502  0.43376391651E+03 -0.70270006210E+03  0.20167386424E+04  0.21792648655E+04  0.46999998093E+01 0. -1.
</event>
<event>
 5   0  0.8551754E-08  0.3889560E+04  0.7818609E-02  0.8027204E-01
       -2   -1    0    0    0  501  0.00000000000E+00  0.00000000000E+00  0.14767087299E+04  0.14767087299E+04  0.25500000920E-02 0. -1.
        2   -1    0    0  501    0  0.00000000000E+00  0.00000000000E+00 -0.25612158174E+04  0.25612158174E+04  0.25500000920E-02 0.  1.
    10030    2    1    2    0    0  0.00000000000E+00  0.00000000000E+00 -0.10845070876E+04  0.40379245473E+04  0.38895602614E+04 0.  0.
        1    1    3    3  502    0 -0.54861862997E+03  0.14524634472E+04 -0.17580517687E+04  0.23455017561E+04  0.50400001928E-02 0.  1.
       -1    1    3    3    0  502  0.54861862997E+03 -0.14524634472E+04  0.67354468110E+03  0.16924227912E+04  0.50400001928E-02 0. -1.
</event>
<event>
 5   0  0.8438211E-08  0.3897605E+04  0.7818609E-02  0.8025527E-01
        2   -1    0    0  501    0  0.00000000000E+00  0.00000000000E+00  0.25300261710E+04  0.25300261710E+04  0.25500000920E-02 0.  1.
       -2   -1    0    0    0  501  0.00000000000E+00  0.00000000000E+00 -0.15011037051E+04  0.15011037051E+04  0.25500000920E-02 0. -1.
    10030    2    1    2    0    0  0.00000000000E+00  0.00000000000E+00  0.10289224659E+04  0.40311298761E+04  0.38976052439E+04 0.  0.
        5    1    3    3  502    0  0.97720743787E+03  0.12663393294E+04 -0.63689611609E+03  0.17216876681E+04  0.46999998093E+01 0. -1.
       -5    1    3    3    0  502 -0.97720743787E+03 -0.12663393294E+04  0.16658185820E+04  0.23094422080E+04  0.46999998093E+01 0.  1.
</event>
<event>
 5   0  0.2632875E-08  0.3896999E+04  0.7818609E-02  0.8025654E-01
        1   -1    0    0  501    0  0.00000000000E+00  0.00000000000E+00  0.21773723812E+04  0.21773723812E+04  0.50400001928E-02 0.  1.
       -1   -1    0    0    0  501  0.00000000000E+00  0.00000000000E+00 -0.17436842482E+04  0.17436842482E+04  0.50400001928E-02 0. -1.
    10030    2    1    2    0    0  0.00000000000E+00  0.00000000000E+00  0.43368813300E+03  0.39210566294E+04  0.38969988060E+04 0.  0.
        4    1    3    3  502    0  0.38764086961E+03  0.10780723699E+03  0.21351185050E+04  0.21726988948E+04  0.12699999809E+01 0.  1.
       -4    1    3    3    0  502 -0.38764086961E+03 -0.10780723699E+03 -0.17014303720E+04  0.17483577345E+04  0.12699999809E+01 0. -1.
</event>
<event>
 5   0  0.2632875E-08  0.3881787E+04  0.7818609E-02  0.8028828E-01
        1   -1    0    0  501    0  0.00000000000E+00  0.00000000000E+00  0.20462590645E+04  0.20462590645E+04  0.50400001928E-02 0. -1.
       -1   -1    0    0    0  501  0.00000000000E+00  0.00000000000E+00 -0.18409534931E+04  0.18409534931E+04  0.50400001928E-02 0.  1.
    10030    2    1    2    0    0  0.00000000000E+00  0.00000000000E+00  0.20530557145E+03  0.38872125576E+04  0.38817871001E+04 0.  0.
        2    1    3    3  502    0 -0.16858685224E+04  0.62878319235E+03 -0.62606395806E+03  0.19051186465E+04  0.25500000920E-02 0.  1.
       -2    1    3    3    0  502  0.16858685224E+04 -0.62878319235E+03  0.83136952951E+03  0.19820939111E+04  0.25500000920E-02 0. -1.
</event>
<event>
 5   0  0.2632875E-08  0.3903392E+04  0.7818609E-02  0.8024324E-01
       -1   -1    0    0    0  501  0.00000000000E+00  0.00000000000E+00  0.25220372402E+04  0.25220372402E+04  0.50400001928E-02 0. -1.
        1   -1    0    0  501    0  0.00000000000E+00  0.00000000000E+00 -0.15103336613E+04  0.15103336613E+04  0.50400001928E-02 0.  1.
    10030    2    1    2    0    0  0.00000000000E+00  0.00000000000E+00  0.10117035789E+04  0.40323709016E+04  0.39033922370E+04 0.  0.
        2    1    3    3  502    0 -0.12926919985E+04  0.14160984117E+04  0.12949173761E+03  0.19217584200E+04  0.25500000920E-02 0.  1.
       -2    1    3    3    0  502  0.12926919985E+04 -0.14160984117E+04  0.88221184131E+03  0.21106124816E+04  0.25500000920E-02 0. -1.
</event>
<event>
 5   0  0.2632875E-08  0.3898223E+04  0.7818609E-02  0.8025399E-01
       -1   -1    0    0    0  501  0.00000000000E+00  0.00000000000E+00  0.30228170854E+04  0.30228170854E+04  0.50400001928E-02 0. -1.
        1   -1    0    0  501    0  0.00000000000E+00  0.00000000000E+00 -0.12567866086E+04  0.12567866086E+04  0.50400001928E-02 0.  1.
    10030    2    1    2    0    0  0.00000000000E+00  0.00000000000E+00  0.17660304768E+04  0.42796036940E+04  0.38982232020E+04 0.  0.
        5    1    3    3  502    0  0.15106946664E+03 -0.10271317300E+04  0.26940069965E+04  0.28871296060E+04  0.46999998093E+01 0. -1.
       -5    1    3    3    0  502 -0.15106946664E+03  0.10271317300E+04 -0.92797651976E+03  0.13924740880E+04  0.46999998093E+01 0.  1.
</event>
<event>
 5   0  0.2632875E-08  0.3889388E+04  0.7818609E-02  0.8027240E-01
       -1   -1    0    0    0  501  0.00000000000E+00  0.00000000000E+00  0.21134929810E+04  0.21134929811E+04  0.50400001928E-02 0.  1.
        1   -1    0    0  501    0  0.00000000000E+00  0.00000000000E+00 -0.17893768569E+04  0.17893768569E+04  0.50400001928E-02 0. -1.
    10030    2    1    2    0    0  0.00000000000E+00  0.00000000000E+00  0.32411612415E+03  0.39028698380E+04  0.38893883465E+04 0.  0.
        4    1    3    3  502    0 -0.10664553539E+04 -0.16261918644E+04  0.15943883929E+03  0.19512174041E+04  0.12699999809E+01 0.  1.
       -4    1    3    3    0  502  0.10664553539E+04  0.16261918644E+04  0.16467728485E+03  0.19516524339E+04  0.12699999809E+01 0. -1.
</event>
<event>
 5   0  0.8476262E-08  0.3897632E+04  0.7818609E-02  0.8025522E-01
       -2   -1    0    0    0  501  0.00000000000E+00  0.00000000000E+00  0.18141549269E+04  0.18141549269E+04  0.25500000920E-02 0. -1.
        2   -1    0    0  501    0  0.00000000000E+00  0.00000000000E+00 -0.20934729851E+04  0.20934729851E+04  0.25500000920E-02 0.  1.
    10030    2    1    2    0    0  0.00000000000E+00  0.00000000000E+00 -0.27931805821E+03  0.39076279119E+04  0.38976322711E+04 0.  0.
        2    1    3    3  502    0  0.17792288451E+04 -0.26511459306E+03 -0.89121025775E+03  0.20075349946E+04  0.25500000920E-02 0.  1.
       -2    1    3    3    0  502 -0.17792288451E+04  0.26511459306E+03  0.61189219954E+03  0.19000929174E+04  0.25500000920E-02 0. -1.
</event>
<event>
 5   0  0.8476262E-08  0.3892189E+04  0.7818609E-02  0.8026656E-01
       -2   -1    0    0    0  501  0.00000000000E+00  0.00000000000E+00  0.13002746456E+04  0.13002746456E+04  0.25500000920E-02 0. -1.
        2   -1    0    0  501    0  0.00000000000E+00  0.00000000000E+00 -0.29126792278E+04  0.29126792278E+04  0.25500000920E-02 0.  1.
    10030    2    1    2    0    0  0.00000000000E+00  0.00000000000E+00 -0.16124045822E+04  0.42129538733E+04  0.38921885620E+04 0.  0.
        2    1    3    3  502    0 -0.16848751316E+04  0.62439578871E+03 -0.16151988169E+04  0.24161004798E+04  0.25500000920E-02 0.  1.
       -2    1    3    3    0  502  0.16848751316E+04 -0.62439578871E+03  0.27942347328E+01  0.17968533936E+04  0.25500000920E-02 0. -1.
</event>
<event>
 5   0  0.8676098E-08  0.3918163E+04  0.7818609E-02  0.8021262E-01
       -2   -1    0    0    0  501  0.00000000000E+00  0.00000000000E+00  0.16550026462E+04  0.16550026462E+04  0.25500000920E-02 0.  1.
        2   -1    0    0  501    0  0.00000000000E+00  0.00000000000E+00 -0.23190295640E+04  0.23190295640E+04  0.25500000920E-02 0. -1.
    10030    2    1    2    0    0  0.00000000000E+00  0.00000000000E+00 -0.66402691779E+03  0.39740322102E+04  0.39181628680E+04 0.  0.
        3    1    3    3  502    0 -0.33108423985E+02  0.19573759771E+04 -0.40779952606E+03  0.19996793111E+04  0.10100000352E+00 0. -1.
       -3    1    3    3    0  502  0.33108423985E+02 -0.19573759771E+04 -0.25622739174E+03  0.19743528991E+04  0.10100000352E+00 0.  1.
</event>
<event>
 5   0  0.2632875E-08  0.3983647E+04  0.7818609E-02  0.8007854E-01
       -1   -1    0    0    0  501  0.00000000000E+00  0.00000000000E+00  0.24722362473E+04  0.24722362473E+04  0.50400001928E-02 0.  1.
        1   -1    0    0  501    0  0.00000000000E+00  0.00000000000E+00 -0.16047660183E+04  0.16047660183E+04  0.50400001928E-02 0. -1.
    10030    2    1    2    0    0  0.00000000000E+00  0.00000000000E+00  0.86747022897E+03  0.40770022656E+04  0.39836469316E+04 0.  0.
        1    1    3    3  502    0  0.14074338886E+04  0.96653234342E+03  0.14835944010E+04  0.22618813559E+04  0.50400001928E-02 0.  1.
       -1    1    3    3    0  502 -0.14074338886E+04 -0.96653234342E+03 -0.61612417202E+03  0.18151209097E+04  0.50400001928E-02 0. -1.
</event>
<event>
 5   0  0.2632875E-08  0.3971639E+04  0.7818609E-02  0.8010292E-01
       -1   -1    0    0    0  501  0.00000000000E+00  0.00000000000E+00  0.16834406091E+04  0.16834406091E+04  0.50400001928E-02 0.  1.
        1   -1    0    0  501    0  0.00000000000E+00  0.00000000000E+00 -0.23425118310E+04  0.23425118310E+04  0.50400001928E-02 0. -1.
    10030    2    1    2    0    0  0.00000000000E+00  0.00000000000E+00 -0.65907122195E+03  0.40259524401E+04  0.39716392302E+04 0.  0.
        2    1    3    3  502    0 -0.36501962064E+03  0.77922821970E+03  0.14846439660E+04  0.17159847458E+04  0.25500000920E-02 0.  1.
       -2    1    3    3    0  502  0.36501962064E+03 -0.77922821970E+03 -0.21437151880E+04  0.23099676944E+04  0.25500000920E-02 0. -1.
</event>
<event>
 5   0  0.2632875E-08  0.3896892E+04  0.7818609E-02  0.8025676E-01
       -1   -1    0    0    0  501  0.00000000000E+00  0.00000000000E+00  0.12110683381E+04  0.12110683381E+04  0.50400001928E-02 0. -1.
        1   -1    0    0  501    0  0.00000000000E+00  0.00000000000E+00 -0.31347871143E+04  0.31347871143E+04  0.50400001928E-02 0.  1.
    10030    2    1    2    0    0  0.00000000000E+00  0.00000000000E+00 -0.19237187762E+04  0.43458554524E+04  0.38968917978E+04 0.  0.
        2    1    3    3  502    0 -0.45466205383E+03  0.13021518254E+04 -0.24966925932E+04  0.28523307775E+04  0.25500000920E-02 0.  1.
       -2    1    3    3    0  502  0.45466205383E+03 -0.13021518254E+04  0.57297381706E+03  0.14935246749E+04  0.25500000920E-02 0. -1.
</event>
<event>
 5   0  0.8676098E-08  0.3955155E+04  0.7818609E-02  0.8013655E-01
        2   -1    0    0  501    0  0.00000000000E+00  0.00000000000E+00  0.16752826762E+04  0.16752826762E+04  0.25500000920E-02 0. -1.
       -2   -1    0    0    0  501  0.00000000000E+00  0.00000000000E+00 -0.23344195369E+04  0.23344195369E+04  0.25500000920E-02 0.  1.
    10030    2    1    2    0    0  0.00000000000E+00  0.00000000000E+00 -0.65913686067E+03  0.40097022131E+04  0.39551549194E+04 0.  0.
        3    1    3    3  502    0  0.57584959562E+03 -0.14655430513E+04  0.88334031513E+03  0.18054665088E+04  0.10100000352E+00 0. -1.
       -3    1    3    3    0  502 -0.57584959562E+03  0.14655430513E+04 -0.15424771758E+04  0.22042357043E+04  0.10100000352E+00 0.  1.
</event>
<event>
 5   0  0.8476262E-08  0.3900508E+04  0.7818609E-02  0.8024924E-01
        2   -1    0    0  501    0  0.00000000000E+00  0.00000000000E+00  0.21904982450E+04  0.21904982450E+04  0.25500000920E-02 0.  1.
       -2   -1    0    0    0  501  0.00000000000E+00  0.00000000000E+00 -0.17363584867E+04  0.17363584867E+04  0.25500000920E-02 0. -1.
    10030    2    1    2    0    0  0.00000000000E+00  0.00000000000E+00  0.45413975836E+03  0.39268567317E+04  0.39005077710E+04 0.  0.
        2    1    3    3  502    0  0.15078274871E+04  0.80912271568E+03 -0.71480706508E+03  0.18545005905E+04  0.25500000920E-02 0. -1.
       -2    1    3    3    0  502 -0.15078274871E+04 -0.80912271568E+03  0.11689468234E+04  0.20723561412E+04  0.25500000920E-02 0.  1.
</event>
<event>
 5   0  0.8476262E-08  0.3891907E+04  0.7818609E-02  0.8026715E-01
        2   -1    0    0  501    0  0.00000000000E+00  0.00000000000E+00  0.22042192620E+04  0.22042192620E+04  0.25500000920E-02 0. -1.
       -2   -1    0    0    0  501  0.00000000000E+00  0.00000000000E+00 -0.17179482041E+04  0.17179482041E+04  0.25500000920E-02 0.  1.
    10030    2    1    2    0    0  0.00000000000E+00  0.00000000000E+00  0.48627105784E+03  0.39221674661E+04  0.38919067422E+04 0.  0.
        2    1    3    3  502    0  0.11365980168E+04 -0.41453834117E+03  0.17791376376E+04  0.21515175625E+04  0.25500000920E-02 0. -1.
       -2    1    3    3    0  502 -0.11365980168E+04  0.41453834117E+03 -0.12928665798E+04  0.17706499036E+04  0.25500000920E-02 0.  1.
</event>
<event>
 5   0  0.2632875E-08  0.3923765E+04  0.7818609E-02  0.8020105E-01
        1   -1    0    0  501    0  0.00000000000E+00  0.00000000000E+00  0.18870884975E+04  0.18870884975E+04  0.50400001928E-02 0.  1.
       -1   -1    0    0    0  501  0.00000000000E+00  0.00000000000E+00 -0.20396404295E+04  0.20396404295E+04  0.50400001928E-02 0. -1.
    10030    2    1    2    0    0  0.00000000000E+00  0.00000000000E+00 -0.15255193208E+03  0.39267289270E+04  0.39237645156E+04 0.  0.
        4    1    3    3  502    0  0.88588874601E+03 -0.44888025455E+03  0.16169503017E+04  0.18975832641E+04  0.12699999809E+01 0.  1.
       -4    1    3    3    0  502 -0.88588874601E+03  0.44888025455E+03 -0.17695022337E+04  0.20291456629E+04  0.12699999809E+01 0. -1.
</event>
<event>
 5   0  0.8551754E-08  0.3914672E+04  0.7818609E-02  0.8021985E-01
       -2   -1    0    0    0  501  0.00000000000E+00  0.00000000000E+00  0.18052849846E+04  0.18052849846E+04  0.25500000920E-02 0.  1.
        2   -1    0    0  501    0  0.00000000000E+00  0.00000000000E+00 -0.21221938324E+04  0.21221938324E+04  0.25500000920E-02 0. -1.
    10030    2    1    2    0    0  0.00000000000E+00  0.00000000000E+00 -0.31690884775E+03  0.39274788170E+04  0.39146722264E+04 0.  0.
        1    1    3    3  502    0 -0.12844385249E+04  0.13552993073E+04 -0.74735520542E+03  0.20112578998E+04  0.50400001928E-02 0. -1.
       -1    1    3    3    0  502  0.12844385249E+04 -0.13552993073E+04  0.43044635766E+03  0.19162209172E+04  0.50400001928E-02 0.  1.
</event>
<event>
 5   0  0.8676098E-08  0.3943546E+04  0.7818609E-02  0.8016033E-01
        2   -1    0    0  501    0  0.00000000000E+00  0.00000000000E+00  0.24016729780E+04  0.24016729780E+04  0.25500000920E-02 0.  1.
       -2   -1    0    0    0  501  0.00000000000E+00  0.00000000000E+00 -0.16188254027E+04  0.16188254027E+04  0.25500000920E-02 0. -1.
    10030    2    1    2    0    0  0.00000000000E+00  0.00000000000E+00  0.78284757528E+03  0.40204983808E+04  0.39435462345E+04 0.  0.
        3    1    3    3  502    0  0.16102812451E+03  0.91171488666E+03  0.21662954101E+04  0.23558416554E+04  0.10100000352E+00 0.  1.
       -3    1    3    3    0  502 -0.16102812451E+03 -0.91171488666E+03 -0.13834478348E+04  0.16646567254E+04  0.10100000352E+00 0. -1.
</event>
<event>
 5   0  0.2632875E-08  0.3905083E+04  0.7818609E-02  0.8023973E-01
        1   -1    0    0  501    0  0.00000000000E+00  0.00000000000E+00  0.11622655450E+04  0.11622655450E+04  0.50400001928E-02 0.  1.
       -1   -1    0    0    0  501  0.00000000000E+00  0.00000000000E+00 -0.32801619445E+04  0.32801619445E+04  0.50400001928E-02 0. -1.
    10030    2    1    2    0    0  0.00000000000E+00  0.00000000000E+00 -0.21178963995E+04  0.44424274895E+04  0.39050834614E+04 0.  0.
        2    1    3    3  502    0 -0.90586935107E+03  0.77455165922E+03 -0.28183320369E+04  0.30599877490E+04  0.25500000920E-02 0. -1.
       -2    1    3    3    0  502  0.90586935107E+03 -0.77455165922E+03  0.70043563738E+03  0.13824397405E+04  0.25500000920E-02 0.  1.
</event>
<event>
 5   0  0.8676098E-08  0.3914194E+04  0.7818609E-02  0.8022084E-01
       -2   -1    0    0    0  501  0.00000000000E+00  0.00000000000E+00  0.28550961134E+04  0.28550961134E+04  0.25500000920E-02 0.  1.
        2   -1    0    0  501    0  0.00000000000E+00  0.00000000000E+00 -0.13415409911E+04  0.13415409911E+04  0.25500000920E-02 0. -1.
    10030    2    1    2    0    0  0.00000000000E+00  0.00000000000E+00  0.15135551224E+04  0.41966371045E+04  0.39141938990E+04 0.  0.
        3    1    3    3  502    0 -0.72281690204E+03 -0.14122407964E+04 -0.47192760951E+03  0.16551749211E+04  0.10100000352E+00 0. -1.
       -3    1    3    3    0  502  0.72281690204E+03  0.14122407964E+04  0.19854827319E+04  0.25414621834E+04  0.10100000352E+00 0.  1.
</event>
<event>
 5   0  0.8476262E-08  0.3900944E+04  0.7818609E-02  0.8024833E-01
       -2   -1    0    0    0  501  0.00000000000E+00  0.00000000000E+00  0.13387414720E+04  0.13387414720E+04  0.25500000920E-02 0.  1.
        2   -1    0    0  501    0  0.00000000000E+00  0.00000000000E+00 -0.28417293670E+04  0.28417293670E+04  0.25500000920E-02 0. -1.
    10030    2    1    2    0    0  0.00000000000E+00  0.00000000000E+00 -0.15029878950E+04  0.41804708390E+04  0.39009439657E+04 0.  0.
        2    1    3    3  502    0  0.11721434010E+02 -0.17826066485E+04  0.96752307569E+02  0.17852688494E+04  0.25500000920E-02 0.  1.
       -2    1    3    3    0  502 -0.11721434010E+02  0.17826066485E+04 -0.15997402026E+04  0.23952019897E+04  0.25500000920E-02 0. -1.
</event>
<event>
 5   0  0.8438211E-08  0.3824424E+04  0.7818609E-02  0.8040934E-01
       -2   -1    0    0    0  501  0.00000000000E+00  0.00000000000E+00  0.19036283757E+04  0.19036283757E+04  0.25500000920E-02 0. -1.
        2   -1    0    0  501    0  0.00000000000E+00  0.00000000000E+00 -0.19208346747E+04  0.19208346747E+04  0.25500000920E-02 0.  1.
    10030    2    1    2    0    0  0.00000000000E+00  0.00000000000E+00 -0.17206299016E+02  0.38244630504E+04  0.38244243445E+04 0.  0.
        5    1    3    3  502    0  0.40820190371E+03 -0.59749951927E+03 -0.17786207332E+04  0.19201948527E+04  0.46999998093E+01 0.  1.
       -5    1    3    3    0  502 -0.40820190371E+03  0.59749951927E+03  0.17614144342E+04  0.19042681977E+04  0.46999998093E+01 0. -1.
</event>
<event>
 5   0  0.2632875E-08  0.3908067E+04  0.7818609E-02  0.8023353E-01
        1   -1    0    0  501    0  0.00000000000E+00  0.00000000000E+00  0.21630455277E+04  0.21630455277E+04  0.50400001928E-02 0. -1.
       -1   -1    0    0    0  501  0.00000000000E+00  0.00000000000E+00 -0.17652182567E+04  0.17652182567E+04  0.50400001928E-02 0.  1.
    10030    2    1    2    0    0  0.00000000000E+00  0.00000000000E+00  0.39782727098E+03  0.39282637845E+04  0.39080672746E+04 0.  0.
        5    1    3    3  502    0  0.14721015470E+04 -0.67199009585E+03  0.12998233903E+04  0.20756243854E+04  0.46999998093E+01 0. -1.
       -5    1    3    3    0  502 -0.14721015470E+04  0.67199009585E+03 -0.90199611927E+03  0.18526393990E+04  0.46999998093E+01 0.  1.
</event>
<event>
 5   0  0.2632875E-08  0.3848217E+04  0.7818609E-02  0.8035886E-01
       -3   -1    0    0    0  501  0.00000000000E+00  0.00000000000E+00  0.14108002308E+04  0.14108002344E+04  0.10100000352E+00 0. -1.
        3   -1    0    0  501    0  0.00000000000E+00  0.00000000000E+00 -0.26241804061E+04  0.26241804081E+04  0.10100000352E+00 0.  1.
    10030    2    1    2    0    0  0.00000000000E+00  0.00000000000E+00 -0.12133801753E+04  0.40349806425E+04  0.38482174231E+04 0.  0.
        1    1    3    3  502    0  0.52952763035E+03  0.65931343391E+03  0.12055126405E+04  0.14725333416E+04  0.50400001928E-02 0. -1.
       -1    1    3    3    0  502 -0.52952763035E+03 -0.65931343391E+03 -0.24188928159E+04  0.25624473009E+04  0.50400001928E-02 0.  1.
</event>
<event>
 5   0  0.8551754E-08  0.3909718E+04  0.7818609E-02  0.8023011E-01
        2   -1    0    0  501    0  0.00000000000E+00  0.00000000000E+00  0.18520598945E+04  0.18520598945E+04  0.25500000920E-02 0.  1.
       -2   -1    0    0    0  501  0.00000000000E+00  0.00000000000E+00 -0.20633637563E+04  0.20633637563E+04  0.25500000920E-02 0. -1.
    10030    2    1    2    0    0  0.00000000000E+00  0.00000000000E+00 -0.21130386176E+03  0.39154236508E+04  0.39097177703E+04 0.  0.
        1    1    3    3  502    0  0.19145556842E+04 -0.16587409540E+03 -0.46455405038E+03  0.19770807138E+04  0.50400001928E-02 0. -1.
       -1    1    3    3    0  502 -0.19145556842E+04  0.16587409540E+03  0.25325018861E+03  0.19383429370E+04  0.50400001928E-02 0.  1.
</event>
<event>
 5   0  0.2632875E-08  0.3919653E+04  0.7818609E-02  0.8020954E-01
       -1   -1    0    0    0  501  0.00000000000E+00  0.00000000000E+00  0.16656995290E+04  0.16656995290E+04  0.50400001928E-02 0.  1.
        1   -1    0    0  501    0  0.00000000000E+00  0.00000000000E+00 -0.23058902810E+04  0.23058902810E+04  0.50400001928E-02 0. -1.
    10030    2    1    2    0    0  0.00000000000E+00  0.00000000000E+00 -0.64019075199E+03  0.39715898100E+04  0.39196532270E+04 0.  0.
        4    1    3    3  502    0  0.11042603422E+04  0.12114540278E+03  0.13158729767E+04  0.17220889685E+04  0.12699999809E+01 0.  1.
       -4    1    3    3    0  502 -0.11042603422E+04 -0.12114540278E+03 -0.19560637287E+04  0.22495008414E+04  0.12699999809E+01 0. -1.
</event>
<event>
 5   0  0.8476262E-08  0.3916135E+04  0.7818609E-02  0.8021682E-01
        2   -1    0    0  501    0  0.00000000000E+00  0.00000000000E+00  0.18280191496E+04  0.18280191496E+04  0.25500000920E-02 0.  1.
       -2   -1    0    0    0  501  0.00000000000E+00  0.00000000000E+00 -0.20973676536E+04  0.20973676536E+04  0.25500000920E-02 0. -1.
    10030    2    1    2    0    0  0.00000000000E+00  0.00000000000E+00 -0.26934850400E+03  0.39253868031E+04  0.39161349488E+04 0.  0.
        2    1    3    3  502    0  0.12182980231E+04  0.11559553872E+04  0.87445406256E+03  0.18934499829E+04  0.25500000920E-02 0.  1.
       -2    1    3    3    0  502 -0.12182980231E+04 -0.11559553872E+04 -0.11438025666E+04  0.20319368202E+04  0.25500000920E-02 0. -1.
</event>
<event>
 5   0  0.2632875E-08  0.3903964E+04  0.7818609E-02  0.8024205E-01
        1   -1    0    0  501    0  0.00000000000E+00  0.00000000000E+00  0.34477301993E+04  0.34477301993E+04  0.50400001928E-02 0. -1.
       -1   -1    0    0    0  501  0.00000000000E+00  0.00000000000E+00 -0.11051425972E+04  0.11051425972E+04  0.50400001928E-02 0.  1.
    10030    2    1    2    0    0  0.00000000000E+00  0.00000000000E+00  0.23425876021E+04  0.45528727965E+04  0.39039638866E+04 0.  0.
        1    1    3    3  502    0 -0.83668110428E+02 -0.15031956528E+04 -0.27765210444E+03  0.15309109101E+04  0.50400001928E-02 0.  1.
       -1    1    3    3    0  502  0.83668110428E+02  0.15031956528E+04  0.26202397065E+04  0.30219618864E+04  0.50400001928E-02 0. -1.
</event>
<event>
 5   0  0.8342802E-08  0.3910448E+04  0.7818609E-02  0.8022860E-01
        2   -1    0    0  501    0  0.00000000000E+00  0.00000000000E+00  0.25205172105E+04  0.25205172105E+04  0.25500000920E-02 0. -1.
       -2   -1    0    0    0  501  0.00000000000E+00  0.00000000000E+00 -0.15167129722E+04  0.15167129722E+04  0.25500000920E-02 0.  1.
    10030    2    1    2    0    0  0.00000000000E+00  0.00000000000E+00  0.10038042383E+04  0.40372301827E+04  0.39104481328E+04 0.  0.
        4    1    3    3  502    0 -0.11041647775E+04  0.72677725964E+03 -0.98547078995E+03  0.16487993606E+04  0.12699999809E+01 0.  1.
       -4    1    3    3    0  502  0.11041647775E+04 -0.72677725964E+03  0.19892750283E+04  0.23884308221E+04  0.12699999809E+01 0. -1.
</event>
<event>
 5   0  0.2632875E-08  0.3852177E+04  0.7818609E-02  0.8035050E-01
       -1   -1    0    0    0  501  0.00000000000E+00  0.00000000000E+00  0.23229705767E+04  0.23229705767E+04  0.50400001928E-02 0.  1.
        1   -1    0    0  501    0  0.00000000000E+00  0.00000000000E+00 -0.15970143045E+04  0.15970143045E+04  0.50400001928E-02 0. -1.
    10030    2    1    2    0    0  0.00000000000E+00  0.00000000000E+00  0.72595627218E+03  0.39199848812E+04  0.38521771713E+04 0.  0.
        4    1    3    3  502    0 -0.62411406187E+03  0.14459488333E+04 -0.76538156936E+03  0.17510273985E+04  0.12699999809E+01 0. -1.
       -4    1    3    3    0  502  0.62411406187E+03 -0.14459488333E+04  0.14913378415E+04  0.21689574826E+04  0.12699999809E+01 0.  1.
</event>
<event>
 5   0  0.2632875E-08  0.3838244E+04  0.7818609E-02  0.8037997E-01
       -4   -1    0    0    0  501  0.00000000000E+00  0.00000000000E+00  0.18245213678E+04  0.18245218098E+04  0.12699999809E+01 0. -1.
        4   -1    0    0  501    0  0.00000000000E+00  0.00000000000E+00 -0.20186268913E+04  0.20186272908E+04  0.12699999809E+01 0.  1.
    10030    2    1    2    0    0  0.00000000000E+00  0.00000000000E+00 -0.19410552354E+03  0.38431491006E+04  0.38382441370E+04 0.  0.
        4    1    3    3  502    0  0.37901030006E+03 -0.57275658317E+02 -0.19799075250E+04  0.20166716959E+04  0.12699999809E+01 0.  1.
       -4    1    3    3    0  502 -0.37901030006E+03  0.57275658317E+02  0.17858020014E+04  0.18264774047E+04  0.12699999809E+01 0. -1.
</event>
<event>
 5   0  0.2632875E-08  0.3893961E+04  0.7818609E-02  0.8026286E-01
       -1   -1    0    0    0  501  0.00000000000E+00  0.00000000000E+00  0.22718144682E+04  0.22718144682E+04  0.50400001928E-02 0. -1.
        1   -1    0    0  501    0  0.00000000000E+00  0.00000000000E+00 -0.16685924553E+04  0.16685924553E+04  0.50400001928E-02 0.  1.
    10030    2    1    2    0    0  0.00000000000E+00  0.00000000000E+00  0.60322201295E+03  0.39404069235E+04  0.38939606990E+04 0.  0.
        4    1    3    3  502    0 -0.45463597738E+03 -0.11078742387E+04 -0.12518387345E+04  0.17323917083E+04  0.12699999809E+01 0.  1.
       -4    1    3    3    0  502  0.45463597738E+03  0.11078742387E+04  0.18550607475E+04  0.22080152152E+04  0.12699999809E+01 0. -1.
</event>
<event>
 5   0  0.2632875E-08  0.3897925E+04  0.7818609E-02  0.8025461E-01
        1   -1    0    0  501    0  0.00000000000E+00  0.00000000000E+00  0.22528270945E+04  0.22528270945E+04  0.50400001928E-02 0. -1.
       -1   -1    0    0    0  501  0.00000000000E+00  0.00000000000E+00 -0.16860840129E+04  0.16860840130E+04  0.50400001928E-02 0.  1.
    10030    2    1    2    0    0  0.00000000000E+00  0.00000000000E+00  0.56674308158E+03  0.39389111075E+04  0.38979254729E+04 0.  0.
        5    1    3    3  502    0 -0.14146058991E+04  0.61498819569E+03 -0.92041972498E+03  0.17962502305E+04  0.46999998093E+01 0.  1.
       -5    1    3    3    0  502  0.14146058991E+04 -0.61498819569E+03  0.14871628066E+04  0.21426608770E+04  0.46999998093E+01 0. -1.
</event>
<event>
 5   0  0.8551754E-08  0.3917057E+04  0.7818609E-02  0.8021491E-01
       -2   -1    0    0    0  501  0.00000000000E+00  0.00000000000E+00  0.20815852336E+04  0.20815852336E+04  0.25500000920E-02 0. -1.
        2   -1    0    0  501    0  0.00000000000E+00  0.00000000000E+00 -0.18427462885E+04  0.18427462885E+04  0.25500000920E-02 0.  1.
    10030    2    1    2    0    0  0.00000000000E+00  0.00000000000E+00  0.23883894510E+03  0.39243315222E+04  0.39170567847E+04 0.  0.
        1    1    3    3  502    0 -0.64320406328E+02 -0.55745245887E+03  0.19993219710E+04  0.20765786049E+04  0.50400001928E-02 0. -1.
       -1    1    3    3    0  502  0.64320406328E+02  0.55745245887E+03 -0.17604830259E+04  0.18477529172E+04  0.50400001928E-02 0.  1.
</event>
<event>
 5   0  0.2632875E-08  0.3771272E+04  0.7818609E-02  0.8052348E-01
        1   -1    0    0  501    0  0.00000000000E+00  0.00000000000E+00  0.21473972433E+04  0.21473972434E+04  0.50400001928E-02 0. -1.
       -1   -1    0    0    0  501  0.00000000000E+00  0.00000000000E+00 -0.16557824970E+04  0.16557824970E+04  0.50400001928E-02 0.  1.
    10030    2    1    2    0    0  0.00000000000E+00  0.00000000000E+00  0.49161474631E+03  0.38031797404E+04  0.37712718119E+04 0.  0.
        5    1    3    3  502    0  0.16975405664E+03  0.15508863202E+04  0.13137934684E+04  0.20396421709E+04  0.46999998093E+01 0. -1.
       -5    1    3    3    0  502 -0.16975405664E+03 -0.15508863202E+04 -0.82217872211E+03  0.17635375695E+04  0.46999998093E+01 0.  1.
</event>
<event>
 5   0  0.8551754E-08  0.3940182E+04  0.7818609E-02  0.8016724E-01
        2   -1    0    0  501    0  0.00000000000E+00  0.00000000000E+00  0.32032510899E+04  0.32032510899E+04  0.25500000920E-02 0.  1.
       -2   -1    0    0    0  501  0.00000000000E+00  0.00000000000E+00 -0.12116625273E+04  0.12116625273E+04  0.25500000920E-02 0. -1.
    10030    2    1    2    0    0  0.00000000000E+00  0.00000000000E+00  0.19915885626E+04  0.44149136172E+04  0.39401823872E+04 0.  0.
        1    1    3    3  502    0  0.14960787130E+04 -0.32650933716E+03 -0.39306407594E+03  0.15809361880E+04  0.50400001928E-02 0. -1.
       -1    1    3    3    0  502 -0.14960787130E+04  0.32650933716E+03  0.23846526385E+04  0.28339774292E+04  0.50400001928E-02 0.  1.
</event>
<event>
 5   0  0.2632875E-08  0.3882229E+04  0.7818609E-02  0.8028735E-01
        1   -1    0    0  501    0  0.00000000000E+00  0.00000000000E+00  0.20430714970E+04  0.20430714970E+04  0.50400001928E-02 0. -1.
       -1   -1    0    0    0  501  0.00000000000E+00  0.00000000000E+00 -0.18442454748E+04  0.18442454749E+04  0.50400001928E-02 0.  1.
    10030    2    1    2    0    0  0.00000000000E+00  0.00000000000E+00  0.19882602213E+03  0.38873169718E+04  0.38822289284E+04 0.  0.
        3    1    3    3  502    0  0.86522114872E+02  0.18903480086E+04  0.53244214393E+03  0.19658067853E+04  0.10100000352E+00 0.  1.
       -3    1    3    3    0  502 -0.86522114872E+02 -0.18903480086E+04 -0.33361612180E+03  0.19215101866E+04  0.10100000352E+00 0. -1.
</event>
<event>
 5   0  0.2632875E-08  0.3935693E+04  0.7818609E-02  0.8017646E-01
        1   -1    0    0  501    0  0.00000000000E+00  0.00000000000E+00  0.20031152970E+04  0.20031152970E+04  0.50400001928E-02 0. -1.
       -1   -1    0    0    0  501  0.00000000000E+00  0.00000000000E+00 -0.19331985624E+04  0.19331985624E+04  0.50400001928E-02 0.  1.
    10030    2    1    2    0    0  0.00000000000E+00  0.00000000000E+00  0.69916734587E+02  0.39363138594E+04  0.39356928805E+04 0.  0.
        5    1    3    3  502    0  0.87822971380E+01 -0.14625360846E+04  0.13517178767E+04  0.19915451880E+04  0.46999998093E+01 0. -1.
       -5    1    3    3    0  502 -0.87822971380E+01  0.14625360846E+04 -0.12818011421E+04  0.19447686714E+04  0.46999998093E+01 0.  1.
</event>
<event>
 5   0  0.8342802E-08  0.3896523E+04  0.7818609E-02  0.8025753E-01
       -2   -1    0    0    0  501  0.00000000000E+00  0.00000000000E+00  0.14338115458E+04  0.14338115458E+04  0.25500000920E-02 0. -1.
        2   -1    0    0  501    0  0.00000000000E+00  0.00000000000E+00 -0.26472950114E+04  0.26472950114E+04  0.25500000920E-02 0.  1.
    10030    2    1    2    0    0  0.00000000000E+00  0.00000000000E+00 -0.12134834656E+04  0.40811065572E+04  0.38965226305E+04 0.  0.
        4    1    3    3  502    0  0.84999912892E+03  0.13233844202E+04  0.59745110660E+03  0.16824964429E+04  0.12699999809E+01 0. -1.
       -4    1    3    3    0  502 -0.84999912892E+03 -0.13233844202E+04 -0.18109345722E+04  0.23986101143E+04  0.12699999809E+01 0.  1.
</event>
<event>
 5   0  0.8476262E-08  0.3897474E+04  0.7818609E-02  0.8025555E-01
       -2   -1    0    0    0  501  0.00000000000E+00  0.00000000000E+00  0.15432721892E+04  0.15432721892E+04  0.25500000920E-02 0. -1.
        2   -1    0    0  501    0  0.00000000000E+00  0.00000000000E+00 -0.24607299439E+04  0.24607299439E+04  0.25500000920E-02 0.  1.
    10030    2    1    2    0    0  0.00000000000E+00  0.00000000000E+00 -0.91745775472E+03  0.40040021331E+04  0.38974740988E+04 0.  0.
        2    1    3    3  502    0  0.43338327437E+03  0.12825037147E+04 -0.18988055852E+04  0.23319733041E+04  0.25500000920E-02 0.  1.
       -2    1    3    3    0  502 -0.43338327437E+03 -0.12825037147E+04  0.98134783045E+03  0.16720288290E+04  0.25500000920E-02 0. -1.
</event>
<event>
 5   0  0.2632875E-08  0.3711429E+04  0.7818609E-02  0.8065434E-01
       -1   -1    0    0    0  501  0.00000000000E+00  0.00000000000E+00  0.32880878383E+04  0.32880878383E+04  0.50400001928E-02 0.  1.
        1   -1    0    0  501    0  0.00000000000E+00  0.00000000000E+00 -0.10473186952E+04  0.10473186952E+04  0.50400001928E-02 0. -1.
    10030    2    1    2    0    0  0.00000000000E+00  0.00000000000E+00  0.22407691430E+04  0.43354065335E+04  0.37114287624E+04 0.  0.
        1    1    3    3  502    0 -0.83571302497E+03  0.10589658850E+04  0.26089288863E+04  0.29370622975E+04  0.50400001928E-02 0.  1.
       -1    1    3    3    0  502  0.83571302497E+03 -0.10589658850E+04 -0.36815974325E+03  0.13983442360E+04  0.50400001928E-02 0. -1.
</event>
<event>
 5   0  0.8438211E-08  0.3908042E+04  0.7818609E-02  0.8023359E-01
        2   -1    0    0  501    0  0.00000000000E+00  0.00000000000E+00  0.29948416557E+04  0.29948416557E+04  0.25500000920E-02 0. -1.
       -2   -1    0    0    0  501  0.00000000000E+00  0.00000000000E+00 -0.12749246515E+04  0.12749246515E+04  0.25500000920E-02 0.  1.
    10030    2    1    2    0    0  0.00000000000E+00  0.00000000000E+00  0.17199170041E+04  0.42697663072E+04  0.39080416857E+04 0.  0.
        5    1    3    3  502    0 -0.76545786779E+03  0.12104824959E+04  0.23122739257E+04  0.27198945600E+04  0.46999998093E+01 0. -1.
       -5    1    3    3    0  502  0.76545786779E+03 -0.12104824959E+04 -0.59235692158E+03  0.15498717472E+04  0.46999998093E+01 0.  1.
</event>
<event>
 5   0  0.2632875E-08  0.3879617E+04  0.7818609E-02  0.8029282E-01
       -1   -1    0    0    0  501  0.00000000000E+00  0.00000000000E+00  0.25599792916E+04  0.25599792916E+04  0.50400001928E-02 0.  1.
        1   -1    0    0  501    0  0.00000000000E+00  0.00000000000E+00 -0.14698778720E+04  0.14698778721E+04  0.50400001928E-02 0. -1.
    10030    2    1    2    0    0  0.00000000000E+00  0.00000000000E+00  0.10901014196E+04  0.40298571637E+04  0.38796169469E+04 0.  0.
        1    1    3    3  502    0  0.80878321080E+03  0.11094693805E+04 -0.87834604997E+03  0.16298909079E+04  0.50400001928E-02 0. -1.
       -1    1    3    3    0  502 -0.80878321080E+03 -0.11094693805E+04  0.19684474695E+04  0.23999662557E+04  0.50400001928E-02 0.  1.
</event>
<event>
 5   0  0.8342802E-08  0.3899991E+04  0.7818609E-02  0.8025031E-01
       -2   -1    0    0    0  501  0.00000000000E+00  0.00000000000E+00  0.12590286391E+04  0.12590286391E+04  0.25500000920E-02 0.  1.
        2   -1    0    0  501    0  0.00000000000E+00  0.00000000000E+00 -0.30201709734E+04  0.30201709734E+04  0.25500000920E-02 0. -1.
    10030    2    1    2    0    0  0.00000000000E+00  0.00000000000E+00 -0.17611423342E+04  0.42791996125E+04  0.38999906413E+04 0.  0.
        4    1    3    3  502    0  0.31678795901E+03  0.42078036026E+03  0.11795028161E+04  0.12917581928E+04  0.12699999809E+01 0.  1.
       -4    1    3    3    0  502 -0.31678795901E+03 -0.42078036026E+03 -0.29406451504E+04  0.29874414196E+04  0.12699999809E+01 0. -1.
</event>
<event>
 5   0  0.2632875E-08  0.3903333E+04  0.7818609E-02  0.8024336E-01
        1   -1    0    0  501    0  0.00000000000E+00  0.00000000000E+00  0.27324547243E+04  0.27324547243E+04  0.50400001928E-02 0.  1.
       -1   -1    0    0    0  501  0.00000000000E+00  0.00000000000E+00 -0.13939855378E+04  0.13939855379E+04  0.50400001928E-02 0. -1.
    10030    2    1    2    0    0  0.00000000000E+00  0.00000000000E+00  0.13384691864E+04  0.41264402621E+04  0.39033331236E+04 0.  0.
        4    1    3    3  502    0  0.33251790769E+03  0.16590057671E+04 -0.35905612768E+03  0.17296795108E+04  0.12699999809E+01 0.  1.
       -4    1    3    3    0  502 -0.33251790769E+03 -0.16590057671E+04  0.16975253141E+04  0.23967607513E+04  0.12699999809E+01 0. -1.
</event>
<event>
 5   0  0.2632875E-08  0.3887068E+04  0.7818609E-02  0.8027724E-01
        1   -1    0    0  501    0  0.00000000000E+00  0.00000000000E+00  0.27919164633E+04  0.27919164633E+04  0.50400001928E-02 0.  1.
       -1   -1    0    0    0  501  0.00000000000E+00  0.00000000000E+00 -0.13529503140E+04  0.13529503140E+04  0.50400001928E-02 0. -1.
    10030    2    1    2    0    0  0.00000000000E+00  0.00000000000E+00  0.14389661493E+04  0.41448667773E+04  0.38870679211E+04 0.  0.
        2    1    3    3  502    0 -0.88750702076E+03  0.14259902131E+04 -0.32322925691E+03  0.17104367724E+04  0.25500000920E-02 0. -1.
       -2    1    3    3    0  502  0.88750702076E+03 -0.14259902131E+04  0.17621954062E+04  0.24344300050E+04  0.25500000920E-02 0.  1.
</event>
<event>
 5   0  0.8476262E-08  0.3896923E+04  0.7818609E-02  0.8025669E-01
        2   -1    0    0  501    0  0.00000000000E+00  0.00000000000E+00  0.19735581666E+04  0.19735581666E+04  0.25500000920E-02 0. -1.
       -2   -1    0    0    0  501  0.00000000000E+00  0.00000000000E+00 -0.19236838468E+04  0.19236838468E+04  0.25500000920E-02 0.  1.
    10030    2    1    2    0    0  0.00000000000E+00  0.00000000000E+00  0.49874319781E+02  0.38972420135E+04  0.38969228712E+04 0.  0.
        2    1    3    3  502    0 -0.96455902990E+03  0.16927976760E+04  0.11892303379E+01  0.19483170965E+04  0.25500000920E-02 0. -1.
       -2    1    3    3    0  502  0.96455902990E+03 -0.16927976760E+04  0.48685089444E+02  0.19489249170E+04  0.25500000920E-02 0.  1.
</event>
<event>
 5   0  0.2632875E-08  0.3936574E+04  0.7818609E-02  0.8017465E-01
       -3   -1    0    0    0  501  0.00000000000E+00  0.00000000000E+00  0.12493397438E+04  0.12493397479E+04  0.10100000352E+00 0. -1.
        3   -1    0    0  501    0  0.00000000000E+00  0.00000000000E+00 -0.31009611095E+04  0.31009611111E+04  0.10100000352E+00 0.  1.
    10030    2    1    2    0    0  0.00000000000E+00  0.00000000000E+00 -0.18516213657E+04  0.43503008590E+04  0.39365741301E+04 0.  0.
        3    1    3    3  502    0 -0.26857625906E+03  0.77064811185E+03  0.10535562603E+04  0.13326711984E+04  0.10100000352E+00 0. -1.
       -3    1    3    3    0  502  0.26857625906E+03 -0.77064811185E+03 -0.29051776260E+04  0.30176296605E+04  0.10100000352E+00 0.  1.
</event>
<event>
 5   0  0.2632875E-08  0.3915083E+04  0.7818609E-02  0.8021900E-01
        1   -1    0    0  501    0  0.00000000000E+00  0.00000000000E+00  0.19897616281E+04  0.19897616281E+04  0.50400001928E-02 0.  1.
       -1   -1    0    0    0  501  0.00000000000E+00  0.00000000000E+00 -0.19258430200E+04  0.19258430200E+04  0.50400001928E-02 0. -1.
    10030    2    1    2    0    0  0.00000000000E+00  0.00000000000E+00  0.63918608083E+02  0.39156046481E+04  0.39150829074E+04 0.  0.
        1    1    3    3  502    0  0.86298346375E+03  0.10709476677E+03 -0.17220585486E+04  0.19291696122E+04  0.50400001928E-02 0. -1.
       -1    1    3    3    0  502 -0.86298346375E+03 -0.10709476677E+03  0.17859771566E+04  0.19864350359E+04  0.50400001928E-02 0.  1.
</event>
<event>
 5   0  0.2632875E-08  0.3891978E+04  0.7818609E-02  0.8026700E-01
        1   -1    0    0  501    0  0.00000000000E+00  0.00000000000E+00  0.12515167822E+04  0.12515167822E+04  0.50400001928E-02 0.  1.
       -1   -1    0    0    0  501  0.00000000000E+00  0.00000000000E+00 -0.30258262500E+04  0.30258262500E+04  0.50400001928E-02 0. -1.
    10030    2    1    2    0    0  0.00000000000E+00  0.00000000000E+00 -0.17743094678E+04  0.42773430322E+04  0.38919775600E+04 0.  0.
        5    1    3    3  502    0  0.14727326985E+04 -0.11082078606E+04 -0.15732994849E+04  0.24232951993E+04  0.46999998093E+01 0. -1.
       -5    1    3    3    0  502 -0.14727326985E+04  0.11082078606E+04 -0.20100998284E+03  0.18540478329E+04  0.46999998093E+01 0.  1.
</event>
<event>
 5   0  0.8476262E-08  0.3922501E+04  0.7818609E-02  0.8020366E-01
        2   -1    0    0  501    0  0.00000000000E+00  0.00000000000E+00  0.26131663225E+04  0.26131663225E+04  0.25500000920E-02 0. -1.
       -2   -1    0    0    0  501  0.00000000000E+00  0.00000000000E+00 -0.14719707581E+04  0.14719707581E+04  0.25500000920E-02 0.  1.
    10030    2    1    2    0    0  0.00000000000E+00  0.00000000000E+00  0.11411955644E+04  0.40851370807E+04  0.39225014533E+04 0.  0.
        2    1    3    3  502    0 -0.11476859282E+04  0.81770484756E+03 -0.85002701098E+03  0.16457126501E+04  0.25500000920E-02 0.  1.
       -2    1    3    3    0  502  0.11476859282E+04 -0.81770484756E+03  0.19912225754E+04  0.24394244305E+04  0.25500000920E-02 0. -1.
</event>
<event>
 5   0  0.8476262E-08  0.3897839E+04  0.7818609E-02  0.8025479E-01
        2   -1    0    0  501    0  0.00000000000E+00  0.00000000000E+00  0.11721907431E+04  0.11721907431E+04  0.25500000920E-02 0. -1.
       -2   -1    0    0    0  501  0.00000000000E+00  0.00000000000E+00 -0.32403316988E+04  0.32403316988E+04  0.25500000920E-02 0.  1.
    10030    2    1    2    0    0  0.00000000000E+00  0.00000000000E+00 -0.20681409558E+04  0.44125224419E+04  0.38978387970E+04 0.  0.
        2    1    3    3  502    0 -0.17869425732E+03 -0.17545566345E+04 -0.19729748294E+04  0.26463239217E+04  0.25500000920E-02 0. -1.
       -2    1    3    3    0  502  0.17869425732E+03  0.17545566345E+04 -0.95166126382E+02  0.17661985202E+04  0.25500000920E-02 0.  1.
</event>
<event>
 5   0  0.2632875E-08  0.3852481E+04  0.7818609E-02  0.8034985E-01
       -1   -1    0    0    0  501  0.00000000000E+00  0.00000000000E+00  0.21110724831E+04  0.21110724831E+04  0.50400001928E-02 0.  1.
        1   -1    0    0  501    0  0.00000000000E+00  0.00000000000E+00 -0.17575912891E+04  0.17575912891E+04  0.50400001928E-02 0. -1.
    10030    2    1    2    0    0  0.00000000000E+00  0.00000000000E+00  0.35348119395E+03  0.38686637722E+04  0.38524810743E+04 0.  0.
        1    1    3    3  502    0 -0.17073550763E+04 -0.66250239725E+03  0.77626754544E+03  0.19891108780E+04  0.50400001928E-02 0.  1.
       -1    1    3    3    0  502  0.17073550763E+04  0.66250239725E+03 -0.42278635149E+03  0.18795528942E+04  0.50400001928E-02 0. -1.
</event>
<event>
 5   0  0.8676098E-08  0.3888519E+04  0.7818609E-02  0.8027421E-01
       -2   -1    0    0    0  501  0.00000000000E+00  0.00000000000E+00  0.15905230381E+04  0.15905230381E+04  0.25500000920E-02 0. -1.
        2   -1    0    0  501    0  0.00000000000E+00  0.00000000000E+00 -0.23766676512E+04  0.23766676512E+04  0.25500000920E-02 0.  1.
    10030    2    1    2    0    0  0.00000000000E+00  0.00000000000E+00 -0.78614461314E+03  0.39671906894E+04  0.38885188199E+04 0.  0.
        3    1    3    3  502    0 -0.67757950976E+03  0.40102188254E+03  0.14205923366E+04  0.16241967675E+04  0.10100000352E+00 0. -1.
       -3    1    3    3    0  502  0.67757950976E+03 -0.40102188254E+03 -0.22067369498E+04  0.23429939219E+04  0.10100000352E+00 0.  1.
</event>
<event>
 5   0  0.8676098E-08  0.3886644E+04  0.7818609E-02  0.8027813E-01
       -2   -1    0    0    0  501  0.00000000000E+00  0.00000000000E+00  0.30112698639E+04  0.30112698639E+04  0.25500000920E-02 0. -1.
        2   -1    0    0  501    0  0.00000000000E+00  0.00000000000E+00 -0.12541224766E+04  0.12541224766E+04  0.25500000920E-02 0.  1.
    10030    2    1    2    0    0  0.00000000000E+00  0.00000000000E+00  0.17571473873E+04  0.42653923405E+04  0.38866444239E+04 0.  0.
        3    1    3    3  502    0  0.10146157136E+04 -0.16564030895E+04  0.81472361331E+03  0.21063928450E+04  0.10100000352E+00 0. -1.
       -3    1    3    3    0  502 -0.10146157136E+04  0.16564030895E+04  0.94242377395E+03  0.21589994954E+04  0.10100000352E+00 0.  1.
</event>
<event>
 5   0  0.8342802E-08  0.3896670E+04  0.7818609E-02  0.8025722E-01
       -2   -1    0    0    0  501  0.00000000000E+00  0.00000000000E+00  0.14878328797E+04  0.14878328797E+04  0.25500000920E-02 0. -1.
        2   -1    0    0  501    0  0.00000000000E+00  0.00000000000E+00 -0.25513679509E+04  0.25513679509E+04  0.25500000920E-02 0.  1.
    10030    2    1    2    0    0  0.00000000000E+00  0.00000000000E+00 -0.10635350712E+04  0.40392008307E+04  0.38966699248E+04 0.  0.
        4    1    3    3  502    0  0.44183314830E+03  0.53761171399E+03  0.13546227836E+04  0.15229075430E+04  0.12699999809E+01 0. -1.
       -4    1    3    3    0  502 -0.44183314830E+03 -0.53761171399E+03 -0.24181578547E+04  0.25162932876E+04  0.12699999809E+01 0.  1.
</event>
<event>
 5   0  0.2632875E-08  0.3872067E+04  0.7818609E-02  0.8030864E-01
       -1   -1    0    0    0  501  0.00000000000E+00  0.00000000000E+00  0.14151215119E+04  0.14151215119E+04  0.50400001928E-02 0.  1.
        1   -1    0    0  501    0  0.00000000000E+00  0.00000000000E+00 -0.26486958592E+04  0.26486958592E+04  0.50400001928E-02 0. -1.
    10030    2    1    2    0    0  0.00000000000E+00  0.00000000000E+00 -0.12335743473E+04  0.40638173711E+04  0.38720674007E+04 0.  0.
        4    1    3    3  502    0  0.89054753180E+03 -0.14226036230E+04  0.39606829509E+03  0.17244557639E+04  0.12699999809E+01 0.  1.
       -4    1    3    3    0  502 -0.89054753180E+03  0.14226036230E+04 -0.16296426424E+04  0.23393616072E+04  0.12699999809E+01 0. -1.
</event>
<event>
 5   0  0.2632875E-08  0.3908922E+04  0.7818609E-02  0.8023176E-01
        1   -1    0    0  501    0  0.00000000000E+00  0.00000000000E+00  0.18529069311E+04  0.18529069311E+04  0.50400001928E-02 0.  1.
       -1   -1    0    0    0  501  0.00000000000E+00  0.00000000000E+00 -0.20615807199E+04  0.20615807199E+04  0.50400001928E-02 0. -1.
    10030    2    1    2    0    0  0.00000000000E+00  0.00000000000E+00 -0.20867378877E+03  0.39144876510E+04  0.39089216953E+04 0.  0.
        4    1    3    3  502    0 -0.12927018126E+04  0.44620949703E+03  0.12939803622E+04  0.18827022288E+04  0.12699999809E+01 0.  1.
       -4    1    3    3    0  502  0.12927018126E+04 -0.44620949703E+03 -0.15026541510E+04  0.20317854222E+04  0.12699999809E+01 0. -1.
</event>
<event>
 5   0  0.8438211E-08  0.3881136E+04  0.7818609E-02  0.8028964E-01
        2   -1    0    0  501    0  0.00000000000E+00  0.00000000000E+00  0.17882331515E+04  0.17882331515E+04  0.25500000920E-02 0.  1.
       -2   -1    0    0    0  501  0.00000000000E+00  0.00000000000E+00 -0.21058796171E+04  0.21058796171E+04  0.25500000920E-02 0. -1.
    10030    2    1    2    0    0  0.00000000000E+00  0.00000000000E+00 -0.31764646559E+03  0.38941127685E+04  0.38811357844E+04 0.  0.
        5    1    3    3  502    0  0.69769468056E+03  0.17914487809E+04 -0.42374214671E+03  0.19686660709E+04  0.46999998093E+01 0.  1.
       -5    1    3    3    0  502 -0.69769468056E+03 -0.17914487809E+04  0.10609568112E+03  0.19254466976E+04  0.46999998093E+01 0. -1.
</event>
<event>
 5   0  0.2632875E-08  0.4025894E+04  0.7818609E-02  0.7999343E-01
        1   -1    0    0  501    0  0.00000000000E+00  0.00000000000E+00  0.25061519990E+04  0.25061519990E+04  0.50400001928E-02 0.  1.
       -1   -1    0    0    0  501  0.00000000000E+00  0.00000000000E+00 -0.16168040050E+04  0.16168040051E+04  0.50400001928E-02 0. -1.
    10030    2    1    2    0    0  0.00000000000E+00  0.00000000000E+00  0.88934799397E+03  0.41229560041E+04  0.40258944791E+04 0.  0.
        4    1    3    3  502    0 -0.93763501225E+03 -0.95687088367E+03 -0.10939437056E+04  0.17295883176E+04  0.12699999809E+01 0. -1.
       -4    1    3    3    0  502  0.93763501225E+03  0.95687088367E+03  0.19832916996E+04  0.23933676865E+04  0.12699999809E+01 0.  1.
</event>
<event>
 5   0  0.8676098E-08  0.3919706E+04  0.7818609E-02  0.8020943E-01
        2   -1    0    0  501    0  0.00000000000E+00  0.00000000000E+00  0.25105285085E+04  0.25105285085E+04  0.25500000920E-02 0. -1.
       -2   -1    0    0    0  501  0.00000000000E+00  0.00000000000E+00 -0.15299663360E+04  0.15299663360E+04  0.25500000920E-02 0.  1.
    10030    2    1    2    0    0  0.00000000000E+00  0.00000000000E+00  0.98056217246E+03  0.40404948445E+04  0.39197061643E+04 0.  0.
        3    1    3    3  502    0 -0.37286195101E+03 -0.11590206058E+04  0.20734037699E+04  0.24044454667E+04  0.10100000352E+00 0. -1.
       -3    1    3    3    0  502  0.37286195101E+03  0.11590206058E+04 -0.10928415975E+04  0.16360493778E+04  0.10100000352E+00 0.  1.
</event>
<event>
 5   0  0.8438211E-08  0.3895073E+04  0.7818609E-02  0.8026055E-01
        2   -1    0    0  501    0  0.00000000000E+00  0.00000000000E+00  0.25839313888E+04  0.25839313888E+04  0.25500000920E-02 0. -1.
       -2   -1    0    0    0  501  0.00000000000E+00  0.00000000000E+00 -0.14678787892E+04  0.14678787892E+04  0.25500000920E-02 0.  1.
    10030    2    1    2    0    0  0.00000000000E+00  0.00000000000E+00  0.11160525995E+04  0.40518101780E+04  0.38950728252E+04 0.  0.
        5    1    3    3  502    0  0.55901624483E+03 -0.14663050461E+03  0.24926701435E+04  0.25587938958E+04  0.46999998093E+01 0. -1.
       -5    1    3    3    0  502 -0.55901624483E+03  0.14663050461E+03 -0.13766175439E+04  0.14930162823E+04  0.46999998093E+01 0.  1.
</event>
<event>
 5   0  0.2632875E-08  0.3912780E+04  0.7818609E-02  0.8022376E-01
        1   -1    0    0  501    0  0.00000000000E+00  0.00000000000E+00  0.13915059717E+04  0.13915059717E+04  0.50400001928E-02 0. -1.
       -1   -1    0    0    0  501  0.00000000000E+00  0.00000000000E+00 -0.27505898023E+04  0.27505898023E+04  0.50400001928E-02 0.  1.
    10030    2    1    2    0    0  0.00000000000E+00  0.00000000000E+00 -0.13590838305E+04  0.41420957740E+04  0.39127801552E+04 0.  0.
        4    1    3    3  502    0 -0.16885748786E+04  0.60183594941E+03  0.14994181678E+03  0.17988818171E+04  0.12699999809E+01 0. -1.
       -4    1    3    3    0  502  0.16885748786E+04 -0.60183594941E+03 -0.15090256473E+04  0.23432139569E+04  0.12699999809E+01 0.  1.
</event>
<event>
 5   0  0.2632875E-08  0.3895783E+04  0.7818609E-02  0.8025907E-01
        1   -1    0    0  501    0  0.00000000000E+00  0.00000000000E+00  0.25568824708E+04  0.25568824708E+04  0.50400001928E-02 0.  1.
       -1   -1    0    0    0  501  0.00000000000E+00  0.00000000000E+00 -0.14839483332E+04  0.14839483332E+04  0.50400001928E-02 0. -1.
    10030    2    1    2    0    0  0.00000000000E+00  0.00000000000E+00  0.10729341376E+04  0.40408308040E+04  0.38957830950E+04 0.  0.
        3    1    3    3  502    0 -0.75880573609E+03 -0.16724913651E+04 -0.13674998974E+03  0.18416606857E+04  0.10100000352E+00 0. -1.
       -3    1    3    3    0  502  0.75880573609E+03  0.16724913651E+04  0.12096841273E+04  0.21991701183E+04  0.10100000352E+00 0.  1.
</event>
<event>
 5   0  0.2632875E-08  0.3895394E+04  0.7818609E-02  0.8025988E-01
        1   -1    0    0  501    0  0.00000000000E+00  0.00000000000E+00  0.16965435734E+04  0.16965435734E+04  0.50400001928E-02 0.  1.
       -1   -1    0    0    0  501  0.00000000000E+00  0.00000000000E+00 -0.22360302425E+04  0.22360302425E+04  0.50400001928E-02 0. -1.
    10030    2    1    2    0    0  0.00000000000E+00  0.00000000000E+00 -0.53948666913E+03  0.39325738159E+04  0.38953935554E+04 0.  0.
        4    1    3    3  502    0  0.17424944432E+04 -0.76812276161E+03 -0.68257386888E+03  0.20229207006E+04  0.12699999809E+01 0. -1.
       -4    1    3    3    0  502 -0.17424944432E+04  0.76812276161E+03  0.14308719975E+03  0.19096531154E+04  0.12699999809E+01 0.  1.
</event>
<event>
 5   0  0.8438211E-08  0.3894541E+04  0.7818609E-02  0.8026166E-01
       -2   -1    0    0    0  501  0.00000000000E+00  0.00000000000E+00  0.16177713065E+04  0.16177713065E+04  0.25500000920E-02 0. -1.
        2   -1    0    0  501    0  0.00000000000E+00  0.00000000000E+00 -0.23438799744E+04  0.23438799744E+04  0.25500000920E-02 0.  1.
    10030    2    1    2    0    0  0.00000000000E+00  0.00000000000E+00 -0.72610866790E+03  0.39616512810E+04  0.38945406757E+04 0.  0.
        5    1    3    3  502    0  0.12687377759E+04 -0.92036176873E+03  0.81231235207E+03  0.17653993250E+04  0.46999998093E+01 0. -1.
       -5    1    3    3    0  502 -0.12687377759E+04  0.92036176873E+03 -0.15384210200E+04  0.21962519560E+04  0.46999998093E+01 0.  1.
</event>
<event>
 5   0  0.2632875E-08  0.3910520E+04  0.7818609E-02  0.8022845E-01
       -1   -1    0    0    0  501  0.00000000000E+00  0.00000000000E+00  0.12429033683E+04  0.12429033683E+04  0.50400001928E-02 0.  1.
        1   -1    0    0  501    0  0.00000000000E+00  0.00000000000E+00 -0.30758963826E+04  0.30758963826E+04  0.50400001928E-02 0. -1.
    10030    2    1    2    0    0  0.00000000000E+00  0.00000000000E+00 -0.18329930143E+04  0.43187997508E+04  0.39105201569E+04 0.  0.
        4    1    3    3  502    0  0.68509288032E+03  0.10884077064E+04  0.71004068548E+03  0.14690619381E+04  0.12699999809E+01 0.  1.
       -4    1    3    3    0  502 -0.68509288032E+03 -0.10884077064E+04 -0.25430336998E+04  0.28497378127E+04  0.12699999809E+01 0. -1.
</event>
<event>
 5   0  0.2632875E-08  0.3877137E+04  0.7818609E-02  0.8029801E-01
        1   -1    0    0  501    0  0.00000000000E+00  0.00000000000E+00  0.21011288771E+04  0.21011288771E+04  0.50400001928E-02 0. -1.
       -1   -1    0    0    0  501  0.00000000000E+00  0.00000000000E+00 -0.17885850721E+04  0.17885850721E+04  0.50400001928E-02 0.  1.
    10030    2    1    2    0    0  0.00000000000E+00  0.00000000000E+00  0.31254380497E+03  0.38897139492E+04  0.38771369562E+04 0.  0.
        2    1    3    3  502    0  0.11081485242E+04 -0.29918119371E+03 -0.14110202182E+04  0.18189229215E+04  0.25500000920E-02 0.  1.
       -2    1    3    3    0  502 -0.11081485242E+04  0.29918119371E+03  0.17235640232E+04  0.20707910277E+04  0.25500000920E-02 0. -1.
</event>
<event>
 5   0  0.2632875E-08  0.3898283E+04  0.7818609E-02  0.8025386E-01
       -3   -1    0    0    0  501  0.00000000000E+00  0.00000000000E+00  0.15754309050E+04  0.15754309082E+04  0.10100000352E+00 0. -1.
        3   -1    0    0  501    0  0.00000000000E+00  0.00000000000E+00 -0.24115006458E+04  0.24115006479E+04  0.10100000352E+00 0.  1.
    10030    2    1    2    0    0  0.00000000000E+00  0.00000000000E+00 -0.83606974084E+03  0.39869315561E+04  0.38982830351E+04 0.  0.
        3    1    3    3  502    0  0.93145803518E+03  0.16818125206E+04 -0.89728479946E+02  0.19246190886E+04  0.10100000352E+00 0. -1.
       -3    1    3    3    0  502 -0.93145803518E+03 -0.16818125206E+04 -0.74634126090E+03  0.20623124675E+04  0.10100000352E+00 0.  1.
</event>
<event>
 5   0  0.8476262E-08  0.3897002E+04  0.7818609E-02  0.8025653E-01
       -2   -1    0    0    0  501  0.00000000000E+00  0.00000000000E+00  0.15933585349E+04  0.15933585349E+04  0.25500000920E-02 0.  1.
        2   -1    0    0  501    0  0.00000000000E+00  0.00000000000E+00 -0.23828004713E+04  0.23828004713E+04  0.25500000920E-02 0. -1.
    10030    2    1    2    0    0  0.00000000000E+00  0.00000000000E+00 -0.78944193644E+03  0.39761590062E+04  0.38970016514E+04 0.  0.
        2    1    3    3  502    0  0.13071296082E+04  0.10067958668E+04 -0.14523227253E+04  0.21980598328E+04  0.25500000920E-02 0. -1.
       -2    1    3    3    0  502 -0.13071296082E+04 -0.10067958668E+04  0.66288078887E+03  0.17780991734E+04  0.25500000920E-02 0.  1.
</event>
<event>
 5   0  0.8342802E-08  0.3896370E+04  0.7818609E-02  0.8025785E-01
        2   -1    0    0  501    0  0.00000000000E+00  0.00000000000E+00  0.14131977285E+04  0.14131977285E+04  0.25500000920E-02 0. -1.
       -2   -1    0    0    0  501  0.00000000000E+00  0.00000000000E+00 -0.26856995011E+04  0.26856995011E+04  0.25500000920E-02 0.  1.
    10030    2    1    2    0    0  0.00000000000E+00  0.00000000000E+00 -0.12725017726E+04  0.40988972295E+04  0.38963698153E+04 0.  0.
        4    1    3    3  502    0  0.80636606187E+03  0.17650869464E+04 -0.45506406754E+03  0.19931992055E+04  0.12699999809E+01 0. -1.
       -4    1    3    3    0  502 -0.80636606187E+03 -0.17650869464E+04 -0.81743770503E+03  0.21056980241E+04  0.12699999809E+01 0.  1.
</event>
<event>
 5   0  0.8676098E-08  0.3892173E+04  0.7818609E-02  0.8026659E-01
        2   -1    0    0  501    0  0.00000000000E+00  0.00000000000E+00  0.24728705422E+04  0.24728705422E+04  0.25500000920E-02 0. -1.
       -2   -1    0    0    0  501  0.00000000000E+00  0.00000000000E+00 -0.15315210486E+04  0.15315210486E+04  0.25500000920E-02 0.  1.
    10030    2    1    2    0    0  0.00000000000E+00  0.00000000000E+00  0.94134949360E+03  0.40043915907E+04  0.38921733187E+04 0.  0.
        3    1    3    3  502    0 -0.16707611545E+04 -0.96463553119E+03  0.20779115101E+03  0.19403973088E+04  0.10100000352E+00 0.  1.
       -3    1    3    3    0  502  0.16707611545E+04  0.96463553119E+03  0.73355834259E+03  0.20639942819E+04  0.10100000352E+00 0. -1.
</event>
<event>
 5   0  0.2632875E-08  0.3829443E+04  0.7818609E-02  0.8039866E-01
        1   -1    0    0  501    0  0.00000000000E+00  0.00000000000E+00  0.17163349104E+04  0.17163349104E+04  0.50400001928E-02 0. -1.
       -1   -1    0    0    0  501  0.00000000000E+00  0.00000000000E+00 -0.21360387215E+04  0.21360387215E+04  0.50400001928E-02 0.  1.
    10030    2    1    2    0    0  0.00000000000E+00  0.00000000000E+00 -0.41970381107E+03  0.38523736318E+04  0.38294426893E+04 0.  0.
        1    1    3    3  502    0 -0.61581338803E+03 -0.15217188740E+04  0.78159685556E+03  0.18181716379E+04  0.50400001928E-02 0. -1.
       -1    1    3    3    0  502  0.61581338803E+03  0.15217188740E+04 -0.12013006666E+04  0.20342019939E+04  0.50400001928E-02 0.  1.
</event>
<event>
 5   0  0.2632875E-08  0.3919059E+04  0.7818609E-02  0.8021077E-01
        1   -1    0    0  501    0  0.00000000000E+00  0.00000000000E+00  0.17674923441E+04  0.17674923441E+04  0.50400001928E-02 0.  1.
       -1   -1    0    0    0  501  0.00000000000E+00  0.00000000000E+00 -0.21724316228E+04  0.21724316228E+04  0.50400001928E-02 0. -1.
    10030    2    1    2    0    0  0.00000000000E+00  0.00000000000E+00 -0.40493927866E+03  0.39399239669E+04  0.39190592042E+04 0.  0.
        3    1    3    3  502    0  0.20180623837E+03 -0.14053271506E+04 -0.15602473741E+04  0.21095122746E+04  0.10100000352E+00 0. -1.
       -3    1    3    3    0  502 -0.20180623837E+03  0.14053271506E+04  0.11553080954E+04  0.18304116924E+04  0.10100000352E+00 0.  1.
</event>
<event>
 5   0  0.2632875E-08  0.3845134E+04  0.7818609E-02  0.8036538E-01
       -3   -1    0    0    0  501  0.00000000000E+00  0.00000000000E+00  0.17452691143E+04  0.17452691173E+04  0.10100000352E+00 0. -1.
        3   -1    0    0  501    0  0.00000000000E+00  0.00000000000E+00 -0.21178758749E+04  0.21178758773E+04  0.10100000352E+00 0.  1.
    10030    2    1    2    0    0  0.00000000000E+00  0.00000000000E+00 -0.37260676057E+03  0.38631449946E+04  0.38451337365E+04 0.  0.
        4    1    3    3  502    0  0.76693254789E+03  0.28949391555E+03  0.15608852839E+04  0.17630532444E+04  0.12699999809E+01 0. -1.
       -4    1    3    3    0  502 -0.76693254789E+03 -0.28949391555E+03 -0.19334920445E+04  0.21000917502E+04  0.12699999809E+01 0.  1.
</event>
<event>
 5   0  0.2632875E-08  0.3879056E+04  0.7818609E-02  0.8029399E-01
        1   -1    0    0  501    0  0.00000000000E+00  0.00000000000E+00  0.28929714665E+04  0.28929714665E+04  0.50400001928E-02 0. -1.
       -1   -1    0    0    0  501  0.00000000000E+00  0.00000000000E+00 -0.13003129473E+04  0.13003129473E+04  0.50400001928E-02 0.  1.
    10030    2    1    2    0    0  0.00000000000E+00  0.00000000000E+00  0.15926585192E+04  0.41932844137E+04  0.38790556861E+04 0.  0.
        5    1    3    3  502    0 -0.16395512662E+04  0.94537929561E+03  0.33785530252E+03  0.19225084297E+04  0.46999998093E+01 0.  1.
       -5    1    3    3    0  502  0.16395512662E+04 -0.94537929561E+03  0.12548032167E+04  0.22707759840E+04  0.46999998093E+01 0. -1.
</event>
<event>
 5   0  0.8476262E-08  0.3912555E+04  0.7818609E-02  0.8022423E-01
        2   -1    0    0  501    0  0.00000000000E+00  0.00000000000E+00  0.24732927359E+04  0.24732927359E+04  0.25500000920E-02 0. -1.
       -2   -1    0    0    0  501  0.00000000000E+00  0.00000000000E+00 -0.15473385156E+04  0.15473385156E+04  0.25500000920E-02 0.  1.
    10030    2    1    2    0    0  0.00000000000E+00  0.00000000000E+00  0.92595422031E+03  0.40206312515E+04  0.39125547207E+04 0.  0.
        2    1    3    3  502    0  0.11927052338E+04 -0.35336067461E+03 -0.10885674237E+04  0.16529938225E+04  0.25500000920E-02 0.  1.
       -2    1    3    3    0  502 -0.11927052338E+04  0.35336067461E+03  0.20145216440E+04  0.23676374290E+04  0.25500000920E-02 0. -1.
</event>
<event>
 5   0  0.8476262E-08  0.3899121E+04  0.7818609E-02  0.8025212E-01
        2   -1    0    0  501    0  0.00000000000E+00  0.00000000000E+00  0.24251537374E+04  0.24251537374E+04  0.25500000920E-02 0. -1.
       -2   -1    0    0    0  501  0.00000000000E+00  0.00000000000E+00 -0.15672352580E+04  0.15672352580E+04  0.25500000920E-02 0.  1.
    10030    2    1    2    0    0  0.00000000000E+00  0.00000000000E+00  0.85791847939E+03  0.39923889955E+04  0.38991211540E+04 0.  0.
        2    1    3    3  502    0 -0.12020323063E+04 -0.15018377386E+04  0.75337909136E+03  0.20659085928E+04  0.25500000920E-02 0. -1.
       -2    1    3    3    0  502  0.12020323063E+04  0.15018377386E+04  0.10453938803E+03  0.19264804027E+04  0.25500000920E-02 0.  1.
</event>
<event>
 5   0  0.2632875E-08  0.3914893E+04  0.7818609E-02  0.8021939E-01
        1   -1    0    0  501    0  0.00000000000E+00  0.00000000000E+00  0.23712885989E+04  0.23712885989E+04  0.50400001928E-02 0. -1.
       -1   -1    0    0    0  501  0.00000000000E+00  0.00000000000E+00 -0.16158288596E+04  0.16158288596E+04  0.50400001928E-02 0.  1.
    10030    2    1    2    0    0  0.00000000000E+00  0.00000000000E+00  0.75545973923E+03  0.39871174585E+04  0.39148928734E+04 0.  0.
        3    1    3    3  502    0 -0.15987324868E+04 -0.10516730481E+04  0.79719570539E+03  0.20730370878E+04  0.10100000352E+00 0. -1.
       -3    1    3    3    0  502  0.15987324868E+04  0.10516730481E+04 -0.41735966163E+02  0.19140803707E+04  0.10100000352E+00 0.  1.
</event>
<event>
 5   0  0.2632875E-08  0.3886753E+04  0.7818609E-02  0.8027790E-01
       -1   -1    0    0    0  501  0.00000000000E+00  0.00000000000E+00  0.26721161355E+04  0.26721161355E+04  0.50400001928E-02 0.  1.
        1   -1    0    0  501    0  0.00000000000E+00  0.00000000000E+00 -0.14133789713E+04  0.14133789713E+04  0.50400001928E-02 0. -1.
    10030    2    1    2    0    0  0.00000000000E+00  0.00000000000E+00  0.12587371642E+04  0.40854951068E+04  0.38867532748E+04 0.  0.
        1    1    3    3  502    0 -0.17696715417E+04  0.32521429944E+03 -0.14248888996E+03  0.18049389989E+04  0.50400001928E-02 0. -1.
       -1    1    3    3    0  502  0.17696715417E+04 -0.32521429944E+03  0.14012260542E+04  0.22805561079E+04  0.50400001928E-02 0.  1.
</event>
<event>
 5   0  0.8551754E-08  0.3906300E+04  0.7818609E-02  0.8023720E-01
       -2   -1    0    0    0  501  0.00000000000E+00  0.00000000000E+00  0.21726134082E+04  0.21726134082E+04  0.25500000920E-02 0. -1.
        2   -1    0    0  501    0  0.00000000000E+00  0.00000000000E+00 -0.17558554807E+04  0.17558554807E+04  0.25500000920E-02 0.  1.
    10030    2    1    2    0    0  0.00000000000E+00  0.00000000000E+00  0.41675792749E+03  0.39284688890E+04  0.39063001218E+04 0.  0.
        1    1    3    3  502    0 -0.12212620105E+04 -0.98219411868E+03 -0.96382976403E+03  0.18398788001E+04  0.50400001928E-02 0.  1.
       -1    1    3    3    0  502  0.12212620105E+04  0.98219411868E+03  0.13805876915E+04  0.20885900888E+04  0.50400001928E-02 0. -1.
</event>
<event>
 5   0  0.8438211E-08  0.3869717E+04  0.7818609E-02  0.8031357E-01
        2   -1    0    0  501    0  0.00000000000E+00  0.00000000000E+00  0.21055682669E+04  0.21055682669E+04  0.25500000920E-02 0.  1.
       -2   -1    0    0    0  501  0.00000000000E+00  0.00000000000E+00 -0.17779888938E+04  0.17779888938E+04  0.25500000920E-02 0. -1.
    10030    2    1    2    0    0  0.00000000000E+00  0.00000000000E+00  0.32757937308E+03  0.38835571607E+04  0.38697167823E+04 0.  0.
        5    1    3    3  502    0  0.10696368881E+04 -0.14648890228E+04  0.83972066951E+03  0.19987935897E+04  0.46999998093E+01 0. -1.
       -5    1    3    3    0  502 -0.10696368881E+04  0.14648890228E+04 -0.51214129643E+03  0.18847635711E+04  0.46999998093E+01 0.  1.
</event>
<event>
 5   0  0.2632875E-08  0.3785686E+04  0.7818609E-02  0.8049234E-01
        1   -1    0    0  501    0  0.00000000000E+00  0.00000000000E+00  0.28768008058E+04  0.28768008058E+04  0.50400001928E-02 0. -1.
       -1   -1    0    0    0  501  0.00000000000E+00  0.00000000000E+00 -0.12454299653E+04  0.12454299653E+04  0.50400001928E-02 0.  1.
    10030    2    1    2    0    0  0.00000000000E+00  0.00000000000E+00  0.16313708405E+04  0.41222307711E+04  0.37856856329E+04 0.  0.
        2    1    3    3  502    0 -0.38533272072E+03 -0.36353579744E+03 -0.11630621011E+04  0.12780270078E+04  0.25500000920E-02 0.  1.
       -2    1    3    3    0  502  0.38533272072E+03  0.36353579744E+03  0.27944329416E+04  0.28442037633E+04  0.25500000920E-02 0. -1.
</event>
<event>
 5   0  0.2632875E-08  0.3906715E+04  0.7818609E-02  0.8023634E-01
        1   -1    0    0  501    0  0.00000000000E+00  0.00000000000E+00  0.21821890071E+04  0.21821890071E+04  0.50400001928E-02 0.  1.
       -1   -1    0    0    0  501  0.00000000000E+00  0.00000000000E+00 -0.17485219986E+04  0.17485219986E+04  0.50400001928E-02 0. -1.
    10030    2    1    2    0    0  0.00000000000E+00  0.00000000000E+00  0.43366700850E+03  0.39307110057E+04  0.39067149802E+04 0.  0.
        2    1    3    3  502    0  0.10898931576E+04 -0.11225795263E+04 -0.95977386705E+03  0.18355429071E+04  0.25500000920E-02 0. -1.
       -2    1    3    3    0  502 -0.10898931576E+04  0.11225795263E+04  0.13934408755E+04  0.20951680986E+04  0.25500000920E-02 0.  1.
</event>
<event>
 5   0  0.2632875E-08  0.3835509E+04  0.7818609E-02  0.8038577E-01
        1   -1    0    0  501    0  0.00000000000E+00  0.00000000000E+00  0.21324790361E+04  0.21324790361E+04  0.50400001928E-02 0. -1.
       -1   -1    0    0    0  501  0.00000000000E+00  0.00000000000E+00 -0.17246514217E+04  0.17246514217E+04  0.50400001928E-02 0.  1.
    10030    2    1    2    0    0  0.00000000000E+00  0.00000000000E+00  0.40782761436E+03  0.38571304578E+04  0.38355093541E+04 0.  0.
        3    1    3    3  502    0 -0.10246374072E+04  0.19625940100E+03  0.18221408831E+04  0.20996659202E+04  0.10100000352E+00 0. -1.
       -3    1    3    3    0  502  0.10246374072E+04 -0.19625940100E+03 -0.14143132687E+04  0.17574645376E+04  0.10100000352E+00 0.  1.
</event>
<event>
 5   0  0.8676098E-08  0.3920883E+04  0.7818609E-02  0.8020700E-01
       -2   -1    0    0    0  501  0.00000000000E+00  0.00000000000E+00  0.18362297974E+04  0.18362297974E+04  0.25500000920E-02 0.  1.
        2   -1    0    0  501    0  0.00000000000E+00  0.00000000000E+00 -0.20930552242E+04  0.20930552242E+04  0.25500000920E-02 0. -1.
    10030    2    1    2    0    0  0.00000000000E+00  0.00000000000E+00 -0.25682542674E+03  0.39292850216E+04  0.39208827426E+04 0.  0.
        3    1    3    3  502    0  0.16915523125E+04 -0.98512659601E+03 -0.20913440573E+02  0.19576161570E+04  0.10100000352E+00 0.  1.
       -3    1    3    3    0  502 -0.16915523125E+04  0.98512659601E+03 -0.23591198617E+03  0.19716688646E+04  0.10100000352E+00 0. -1.
</event>
<event>
 5   0  0.2632875E-08  0.3942773E+04  0.7818609E-02  0.8016192E-01
        1   -1    0    0  501    0  0.00000000000E+00  0.00000000000E+00  0.14738440140E+04  0.14738440140E+04  0.50400001928E-02 0.  1.
       -1   -1    0    0    0  501  0.00000000000E+00  0.00000000000E+00 -0.26368903186E+04  0.26368903186E+04  0.50400001928E-02 0. -1.
    10030    2    1    2    0    0  0.00000000000E+00  0.00000000000E+00 -0.11630463045E+04  0.41107343326E+04  0.39427731417E+04 0.  0.
        5    1    3    3  502    0  0.17484596693E+04  0.87868546462E+03 -0.83075369883E+03  0.21258817369E+04  0.46999998093E+01 0.  1.
       -5    1    3    3    0  502 -0.17484596693E+04 -0.87868546462E+03 -0.33229260572E+03  0.19848525957E+04  0.46999998093E+01 0. -1.
</event>
<event>
 5   0  0.2632875E-08  0.3857367E+04  0.7818609E-02  0.8033955E-01
        1   -1    0    0  501    0  0.00000000000E+00  0.00000000000E+00  0.22210462700E+04  0.22210462700E+04  0.50400001928E-02 0. -1.
       -1   -1    0    0    0  501  0.00000000000E+00  0.00000000000E+00 -0.16748056205E+04  0.16748056206E+04  0.50400001928E-02 0.  1.
    10030    2    1    2    0    0  0.00000000000E+00  0.00000000000E+00  0.54624064941E+03  0.38958518905E+04  0.38573673802E+04 0.  0.
        4    1    3    3  502    0  0.50767703972E+03 -0.59656217804E+03  0.20531445591E+04  0.21975046308E+04  0.12699999809E+01 0. -1.
       -4    1    3    3    0  502 -0.50767703972E+03  0.59656217804E+03 -0.15069039096E+04  0.16983472598E+04  0.12699999809E+01 0.  1.
</event>
<event>
 5   0  0.8676098E-08  0.3740911E+04  0.7818609E-02  0.8058955E-01
       -2   -1    0    0    0  501  0.00000000000E+00  0.00000000000E+00  0.12584208869E+04  0.12584208869E+04  0.25500000920E-02 0.  1.
        2   -1    0    0  501    0  0.00000000000E+00  0.00000000000E+00 -0.27801537515E+04  0.27801537515E+04  0.25500000920E-02 0. -1.
    10030    2    1    2    0    0  0.00000000000E+00  0.00000000000E+00 -0.15217328647E+04  0.40385746384E+04  0.37409108782E+04 0.  0.
        3    1    3    3  502    0  0.12433474567E+04  0.12201039147E+03 -0.22636820082E+04  0.25855474620E+04  0.10100000352E+00 0. -1.
       -3    1    3    3    0  502 -0.12433474567E+04 -0.12201039147E+03  0.74194914350E+03  0.14530271764E+04  0.10100000352E+00 0.  1.
</event>
<event>
 5   0  0.8438211E-08  0.3891641E+04  0.7818609E-02  0.8026770E-01
        2   -1    0    0  501    0  0.00000000000E+00  0.00000000000E+00  0.17983463165E+04  0.17983463165E+04  0.25500000920E-02 0. -1.
       -2   -1    0    0    0  501  0.00000000000E+00  0.00000000000E+00 -0.21053882495E+04  0.21053882495E+04  0.25500000920E-02 0.  1.
    10030    2    1    2    0    0  0.00000000000E+00  0.00000000000E+00 -0.30704193290E+03  0.39037345660E+04  0.38916408896E+04 0.  0.
        5    1    3    3  502    0  0.22123713221E+03  0.17444585833E+04 -0.98924475929E+03  0.20175997872E+04  0.46999998093E+01 0.  1.
       -5    1    3    3    0  502 -0.22123713221E+03 -0.17444585833E+04  0.68220282639E+03  0.18861347788E+04  0.46999998093E+01 0. -1.
</event>
<event>
 5   0  0.8438211E-08  0.3904197E+04  0.7818609E-02  0.8024157E-01
       -2   -1    0    0    0  501  0.00000000000E+00  0.00000000000E+00  0.18659503591E+04  0.18659503591E+04  0.25500000920E-02 0. -1.
        2   -1    0    0  501    0  0.00000000000E+00  0.00000000000E+00 -0.20422240356E+04  0.20422240356E+04  0.25500000920E-02 0.  1.
    10030    2    1    2    0    0  0.00000000000E+00  0.00000000000E+00 -0.17627367654E+03  0.39081743947E+04  0.39041970609E+04 0.  0.
        5    1    3    3  502    0  0.13640544689E+03 -0.38346645112E+03  0.18229999937E+04  0.18678875855E+04  0.46999998093E+01 0. -1.
       -5    1    3    3    0  502 -0.13640544689E+03  0.38346645112E+03 -0.19992736703E+04  0.20402868092E+04  0.46999998093E+01 0.  1.
</event>
<event>
 5   0  0.8438211E-08  0.3900744E+04  0.7818609E-02  0.8024874E-01
       -2   -1    0    0    0  501  0.00000000000E+00  0.00000000000E+00  0.20119458333E+04  0.20119458333E+04  0.25500000920E-02 0.  1.
        2   -1    0    0  501    0  0.00000000000E+00  0.00000000000E+00 -0.18906829901E+04  0.18906829901E+04  0.25500000920E-02 0. -1.
    10030    2    1    2    0    0  0.00000000000E+00  0.00000000000E+00  0.12126284318E+03  0.39026288233E+04  0.39007444233E+04 0.  0.
        5    1    3    3  502    0  0.20462152862E+03  0.10441904690E+04  0.16959625641E+04  0.20021275719E+04  0.46999998093E+01 0.  1.
       -5    1    3    3    0  502 -0.20462152862E+03 -0.10441904690E+04 -0.15746997209E+04  0.19005012514E+04  0.46999998093E+01 0. -1.
</event>
<event>
 5   0  0.8476262E-08  0.3907095E+04  0.7818609E-02  0.8023555E-01
       -2   -1    0    0    0  501  0.00000000000E+00  0.00000000000E+00  0.15035014645E+04  0.15035014645E+04  0.25500000920E-02 0.  1.
        2   -1    0    0  501    0  0.00000000000E+00  0.00000000000E+00 -0.25383064601E+04  0.25383064601E+04  0.25500000920E-02 0. -1.
    10030    2    1    2    0    0  0.00000000000E+00  0.00000000000E+00 -0.10348049957E+04  0.40418079246E+04  0.39070948185E+04 0.  0.
        2    1    3    3  502    0 -0.15253083739E+04  0.95508431274E+03 -0.13036037542E+04  0.22221913572E+04  0.25500000920E-02 0. -1.
       -2    1    3    3    0  502  0.15253083739E+04 -0.95508431274E+03  0.26879875853E+03  0.18196165675E+04  0.25500000920E-02 0.  1.
</event>
<event>
 5   0  0.8342802E-08  0.3911924E+04  0.7818609E-02  0.8022554E-01
       -2   -1    0    0    0  501  0.00000000000E+00  0.00000000000E+00  0.12262190427E+04  0.12262190427E+04  0.25500000920E-02 0.  1.
        2   -1    0    0  501    0  0.00000000000E+00  0.00000000000E+00 -0.31199864182E+04  0.31199864182E+04  0.25500000920E-02 0. -1.
    10030    2    1    2    0    0  0.00000000000E+00  0.00000000000E+00 -0.18937673754E+04  0.43462054609E+04  0.39119237002E+04 0.  0.
        4    1    3    3  502    0 -0.14833766927E+04  0.10411870265E+04 -0.17642979755E+04  0.25292737685E+04  0.12699999809E+01 0. -1.
       -4    1    3    3    0  502  0.14833766927E+04 -0.10411870265E+04 -0.12946939992E+03  0.18169316925E+04  0.12699999809E+01 0.  1.
</event>
<event>
 5   0  0.8438211E-08  0.3886977E+04  0.7818609E-02  0.8027743E-01
        2   -1    0    0  501    0  0.00000000000E+00  0.00000000000E+00  0.19040030879E+04  0.19040030880E+04  0.25500000920E-02 0.  1.
       -2   -1    0    0    0  501  0.00000000000E+00  0.00000000000E+00 -0.19837926980E+04  0.19837926980E+04  0.25500000920E-02 0. -1.
    10030    2    1    2    0    0  0.00000000000E+00  0.00000000000E+00 -0.79789610012E+02  0.38877957859E+04  0.38869769347E+04 0.  0.
        5    1    3    3  502    0  0.17014660511E+04 -0.44958711624E+03 -0.86469573477E+03  0.19608253624E+04  0.46999998093E+01 0. -1.
       -5    1    3    3    0  502 -0.17014660511E+04  0.44958711624E+03  0.78490612476E+03  0.19269704235E+04  0.46999998093E+01 0.  1.
</event>
<event>
 5   0  0.8438211E-08  0.3680550E+04  0.7818609E-02  0.8072286E-01
       -2   -1    0    0    0  501  0.00000000000E+00  0.00000000000E+00  0.20582844535E+04  0.20582844535E+04  0.25500000920E-02 0. -1.
        2   -1    0    0  501    0  0.00000000000E+00  0.00000000000E+00 -0.16453564195E+04  0.16453564195E+04  0.25500000920E-02 0.  1.
    10030    2    1    2    0    0  0.00000000000E+00  0.00000000000E+00  0.41292803399E+03  0.37036408730E+04  0.36805497083E+04 0.  0.
        5    1    3    3  502    0  0.12551500581E+04  0.11335108524E+04 -0.52358118593E+03  0.17704259005E+04  0.46999998093E+01 0.  1.
       -5    1    3    3    0  502 -0.12551500581E+04 -0.11335108524E+04  0.93650921992E+03  0.19332149725E+04  0.46999998093E+01 0. -1.
</event>
<event>
 5   0  0.8551754E-08  0.3855610E+04  0.7818609E-02  0.8034325E-01
       -2   -1    0    0    0  501  0.00000000000E+00  0.00000000000E+00  0.17307578511E+04  0.17307578511E+04  0.25500000920E-02 0.  1.
        2   -1    0    0  501    0  0.00000000000E+00  0.00000000000E+00 -0.21472864024E+04  0.21472864024E+04  0.25500000920E-02 0. -1.
    10030    2    1    2    0    0  0.00000000000E+00  0.00000000000E+00 -0.41652855138E+03  0.38780442535E+04  0.38556103535E+04 0.  0.
        1    1    3    3  502    0 -0.43319935618E+03 -0.54392741376E+03  0.16002281931E+04  0.17447776316E+04  0.50400001928E-02 0.  1.
       -1    1    3    3    0  502  0.43319935618E+03  0.54392741376E+03 -0.20167567445E+04  0.21332666219E+04  0.50400001928E-02 0. -1.
</event>
<event>
 5   0  0.8551754E-08  0.3768156E+04  0.7818609E-02  0.8053023E-01
       -2   -1    0    0    0  501  0.00000000000E+00  0.00000000000E+00  0.14368936044E+04  0.14368936044E+04  0.25500000920E-02 0. -1.
        2   -1    0    0  501    0  0.00000000000E+00  0.00000000000E+00 -0.24704335092E+04  0.24704335092E+04  0.25500000920E-02 0.  1.
    10030    2    1    2    0    0  0.00000000000E+00  0.00000000000E+00 -0.10335399049E+04  0.39073271136E+04  0.37681561058E+04 0.  0.
        1    1    3    3  502    0  0.58317303629E+03 -0.50377253349E+03  0.12659935614E+04  0.14820989351E+04  0.50400001928E-02 0. -1.
       -1    1    3    3    0  502 -0.58317303629E+03  0.50377253349E+03 -0.22995334663E+04  0.24252281786E+04  0.50400001928E-02 0.  1.
</event>
<event>
 5   0  0.2632875E-08  0.3899155E+04  0.7818609E-02  0.8025205E-01
        1   -1    0    0  501    0  0.00000000000E+00  0.00000000000E+00  0.17698217912E+04  0.17698217912E+04  0.50400001928E-02 0.  1.
       -1   -1    0    0    0  501  0.00000000000E+00  0.00000000000E+00 -0.21475905675E+04  0.21475905675E+04  0.50400001928E-02 0. -1.
    10030    2    1    2    0    0  0.00000000000E+00  0.00000000000E+00 -0.37776877628E+03  0.39174123587E+04  0.38991550803E+04 0.  0.
        2    1    3    3  502    0  0.81518295504E+03  0.16183489826E+04  0.53370221458E+03  0.18890248102E+04  0.25500000920E-02 0.  1.
       -2    1    3    3    0  502 -0.81518295504E+03 -0.16183489826E+04 -0.91147099086E+03  0.20283875485E+04  0.25500000920E-02 0. -1.
</event>
<event>
 5   0  0.8676098E-08  0.3901697E+04  0.7818609E-02  0.8024676E-01
       -2   -1    0    0    0  501  0.00000000000E+00  0.00000000000E+00  0.17844315017E+04  0.17844315017E+04  0.25500000920E-02 0.  1.
        2   -1    0    0  501    0  0.00000000000E+00  0.00000000000E+00 -0.21327856196E+04  0.21327856196E+04  0.25500000920E-02 0. -1.
    10030    2    1    2    0    0  0.00000000000E+00  0.00000000000E+00 -0.34835411789E+03  0.39172171213E+04  0.39016969877E+04 0.  0.
        3    1    3    3  502    0  0.94494946852E+03 -0.60720179501E+03 -0.17755724052E+04  0.21010190133E+04  0.10100000352E+00 0. -1.
       -3    1    3    3    0  502 -0.94494946852E+03  0.60720179501E+03  0.14272182873E+04  0.18161981080E+04  0.10100000352E+00 0.  1.
</event>
<event>
 5   0  0.2632875E-08  0.3892591E+04  0.7818609E-02  0.8026572E-01
        1   -1    0    0  501    0  0.00000000000E+00  0.00000000000E+00  0.19366422332E+04  0.19366422332E+04  0.50400001928E-02 0.  1.
       -1   -1    0    0    0  501  0.00000000000E+00  0.00000000000E+00 -0.19559970675E+04  0.19559970675E+04  0.50400001928E-02 0. -1.
    10030    2    1    2    0    0  0.00000000000E+00  0.00000000000E+00 -0.19354834312E+02  0.38926393007E+04  0.38925911827E+04 0.  0.
        4    1    3    3  502    0  0.13844276004E+04  0.34930456466E+03 -0.13323469553E+04  0.19528961779E+04  0.12699999809E+01 0. -1.
       -4    1    3    3    0  502 -0.13844276004E+04 -0.34930456466E+03  0.13129921210E+04  0.19397431228E+04  0.12699999809E+01 0.  1.
</event>
<event>
 5   0  0.2632875E-08  0.3900727E+04  0.7818609E-02  0.8024878E-01
        1   -1    0    0  501    0  0.00000000000E+00  0.00000000000E+00  0.20391623631E+04  0.20391623631E+04  0.50400001928E-02 0. -1.
       -1   -1    0    0    0  501  0.00000000000E+00  0.00000000000E+00 -0.18654313701E+04  0.18654313701E+04  0.50400001928E-02 0.  1.
    10030    2    1    2    0    0  0.00000000000E+00  0.00000000000E+00  0.17373099298E+03  0.39045937333E+04  0.39007268251E+04 0.  0.
        3    1    3    3  502    0  0.16818765383E+04 -0.43614085692E+03  0.97374036560E+03  0.19917574769E+04  0.10100000352E+00 0.  1.
       -3    1    3    3    0  502 -0.16818765383E+04  0.43614085692E+03 -0.80000937262E+03  0.19128362563E+04  0.10100000352E+00 0. -1.
</event>
<event>
 5   0  0.2632875E-08  0.3902167E+04  0.7818609E-02  0.8024579E-01
       -3   -1    0    0    0  501  0.00000000000E+00  0.00000000000E+00  0.29785846730E+04  0.29785846747E+04  0.10100000352E+00 0.  1.
        3   -1    0    0  501    0  0.00000000000E+00  0.00000000000E+00 -0.12780319538E+04  0.12780319578E+04  0.10100000352E+00 0. -1.
    10030    2    1    2    0    0  0.00000000000E+00  0.00000000000E+00  0.17005527191E+04  0.42566166325E+04  0.39021667834E+04 0.  0.
        3    1    3    3  502    0  0.19309449497E+04 -0.27959081974E+03  0.84739733807E+03  0.21271581239E+04  0.10100000352E+00 0. -1.
       -3    1    3    3    0  502 -0.19309449497E+04  0.27959081974E+03  0.85315538108E+03  0.21294585086E+04  0.10100000352E+00 0.  1.
</event>
<event>
 5   0  0.8342802E-08  0.3904655E+04  0.7818609E-02  0.8024062E-01
        2   -1    0    0  501    0  0.00000000000E+00  0.00000000000E+00  0.26194189540E+04  0.26194189540E+04  0.25500000920E-02 0.  1.
       -2   -1    0    0    0  501  0.00000000000E+00  0.00000000000E+00 -0.14551250605E+04  0.14551250605E+04  0.25500000920E-02 0. -1.
    10030    2    1    2    0    0  0.00000000000E+00  0.00000000000E+00  0.11642938935E+04  0.40745440145E+04  0.39046547421E+04 0.  0.
        4    1    3    3  502    0  0.63173288673E+03 -0.76405657783E+03 -0.11729079885E+04  0.15357680999E+04  0.12699999809E+01 0. -1.
       -4    1    3    3    0  502 -0.63173288673E+03  0.76405657783E+03  0.23372018820E+04  0.25387759145E+04  0.12699999809E+01 0.  1.
</event>
<event>
 5   0  0.2632875E-08  0.3900673E+04  0.7818609E-02  0.8024889E-01
        1   -1    0    0  501    0  0.00000000000E+00  0.00000000000E+00  0.15873987189E+04  0.15873987189E+04  0.50400001928E-02 0. -1.
       -1   -1    0    0    0  501  0.00000000000E+00  0.00000000000E+00 -0.23962551762E+04  0.23962551762E+04  0.50400001928E-02 0.  1.
    10030    2    1    2    0    0  0.00000000000E+00  0.00000000000E+00 -0.80885645733E+03  0.39836538951E+04  0.39006729660E+04 0.  0.
        4    1    3    3  502    0  0.58153566289E+03  0.35209724883E+03  0.14624794289E+04  0.16127628135E+04  0.12699999809E+01 0. -1.
       -4    1    3    3    0  502 -0.58153566289E+03 -0.35209724883E+03 -0.22713358862E+04  0.23708910816E+04  0.12699999809E+01 0.  1.
</event>
<event>
 5   0  0.8476262E-08  0.3891742E+04  0.7818609E-02  0.8026749E-01
        2   -1    0    0  501    0  0.00000000000E+00  0.00000000000E+00  0.16745330088E+04  0.16745330088E+04  0.25500000920E-02 0.  1.
       -2   -1    0    0    0  501  0.00000000000E+00  0.00000000000E+00 -0.22611756737E+04  0.22611756737E+04  0.25500000920E-02 0. -1.
    10030    2    1    2    0    0  0.00000000000E+00  0.00000000000E+00 -0.58664266489E+03  0.39357086824E+04  0.38917416688E+04 0.  0.
        2    1    3    3  502    0 -0.11486656698E+04 -0.15588236581E+04 -0.48797781096E+03  0.19968691400E+04  0.25500000920E-02 0. -1.
       -2    1    3    3    0  502  0.11486656698E+04  0.15588236581E+04 -0.98664853928E+02  0.19388395425E+04  0.25500000920E-02 0.  1.
</event>
<event>
 5   0  0.8551754E-08  0.3913031E+04  0.7818609E-02  0.8022324E-01
       -2   -1    0    0    0  501  0.00000000000E+00  0.00000000000E+00  0.22511741736E+04  0.22511741737E+04  0.25500000920E-02 0.  1.
        2   -1    0    0  501    0  0.00000000000E+00  0.00000000000E+00 -0.17004249016E+04  0.17004249016E+04  0.25500000920E-02 0. -1.
    10030    2    1    2    0    0  0.00000000000E+00  0.00000000000E+00  0.55074927202E+03  0.39515990753E+04  0.39130308574E+04 0.  0.
        1    1    3    3  502    0 -0.94705190615E+03 -0.99290788935E+03  0.16838180866E+04  0.21720996152E+04  0.50400001928E-02 0.  1.
       -1    1    3    3    0  502  0.94705190615E+03  0.99290788935E+03 -0.11330688146E+04  0.17794994600E+04  0.50400001928E-02 0. -1.
</event>
<event>
 5   0  0.8438211E-08  0.3905684E+04  0.7818609E-02  0.8023848E-01
        2   -1    0    0  501    0  0.00000000000E+00  0.00000000000E+00  0.22052968388E+04  0.22052968388E+04  0.25500000920E-02 0. -1.
       -2   -1    0    0    0  501  0.00000000000E+00  0.00000000000E+00 -0.17292876958E+04  0.17292876958E+04  0.25500000920E-02 0.  1.
    10030    2    1    2    0    0  0.00000000000E+00  0.00000000000E+00  0.47600914300E+03  0.39345845346E+04  0.39056844158E+04 0.  0.
        5    1    3    3  502    0 -0.43844941955E+03 -0.24170895086E+03 -0.16635295664E+04  0.17372431662E+04  0.46999998093E+01 0.  1.
       -5    1    3    3    0  502  0.43844941955E+03  0.24170895086E+03  0.21395387094E+04  0.21973413684E+04  0.46999998093E+01 0. -1.
</event>
<event>
 5   0  0.2632875E-08  0.3919866E+04  0.7818609E-02  0.8020910E-01
       -1   -1    0    0    0  501  0.00000000000E+00  0.00000000000E+00  0.13125435092E+04  0.13125435092E+04  0.50400001928E-02 0. -1.
        1   -1    0    0  501    0  0.00000000000E+00  0.00000000000E+00 -0.29266367455E+04  0.29266367455E+04  0.50400001928E-02 0.  1.
    10030    2    1    2    0    0  0.00000000000E+00  0.00000000000E+00 -0.16140932362E+04  0.42391802547E+04  0.39198663570E+04 0.  0.
        2    1    3    3  502    0 -0.12194351546E+04 -0.39385443249E+03 -0.24108179967E+04  0.27302356718E+04  0.25500000920E-02 0.  1.
       -2    1    3    3    0  502  0.12194351546E+04  0.39385443249E+03  0.79672476051E+03  0.15089445829E+04  0.25500000920E-02 0. -1.
</event>
<event>
 5   0  0.2632875E-08  0.3903766E+04  0.7818609E-02  0.8024246E-01
       -1   -1    0    0    0  501  0.00000000000E+00  0.00000000000E+00  0.23461217828E+04  0.23461217828E+04  0.50400001928E-02 0. -1.
        1   -1    0    0  501    0  0.00000000000E+00  0.00000000000E+00 -0.16238916680E+04  0.16238916680E+04  0.50400001928E-02 0.  1.
    10030    2    1    2    0    0  0.00000000000E+00  0.00000000000E+00  0.72223011478E+03  0.39700134508E+04  0.39037661894E+04 0.  0.
        4    1    3    3  502    0 -0.20115250720E+03  0.52031237038E+03 -0.15410971728E+04  0.16389537525E+04  0.12699999809E+01 0.  1.
       -4    1    3    3    0  502  0.20115250720E+03 -0.52031237038E+03  0.22633272875E+04  0.23310596984E+04  0.12699999809E+01 0. -1.
</event>
<event>
 5   0  0.8342802E-08  0.3899324E+04  0.7818609E-02  0.8025170E-01
        2   -1    0    0  501    0  0.00000000000E+00  0.00000000000E+00  0.17386652314E+04  0.17386652314E+04  0.25500000920E-02 0.  1.
       -2   -1    0    0    0  501  0.00000000000E+00  0.00000000000E+00 -0.21862648291E+04  0.21862648291E+04  0.25500000920E-02 0. -1.
    10030    2    1    2    0    0  0.00000000000E+00  0.00000000000E+00 -0.44759959764E+03  0.39249300605E+04  0.38993243748E+04 0.  0.
        4    1    3    3  502    0 -0.13818889344E+04  0.54981651924E+03  0.10451394389E+04  0.18177550142E+04  0.12699999809E+01 0.  1.
       -4    1    3    3    0  502  0.13818889344E+04 -0.54981651924E+03 -0.14927390365E+04  0.21071750463E+04  0.12699999809E+01 0. -1.
</event>
<event>
 5   0  0.8676098E-08  0.3889846E+04  0.7818609E-02  0.8027144E-01
        2   -1    0    0  501    0  0.00000000000E+00  0.00000000000E+00  0.21909618697E+04  0.21909618697E+04  0.25500000920E-02 0.  1.
       -2   -1    0    0    0  501  0.00000000000E+00  0.00000000000E+00 -0.17265135124E+04  0.17265135124E+04  0.25500000920E-02 0. -1.
    10030    2    1    2    0    0  0.00000000000E+00  0.00000000000E+00  0.46444835738E+03  0.39174753821E+04  0.38898458958E+04 0.  0.
        3    1    3    3  502    0 -0.13399867292E+04  0.12417013052E+04  0.90430127741E+03  0.20384178611E+04  0.10100000352E+00 0.  1.
       -3    1    3    3    0  502  0.13399867292E+04 -0.12417013052E+04 -0.43985292003E+03  0.18790575210E+04  0.10100000352E+00 0. -1.
</event>
<event>
 5   0  0.2632875E-08  0.3895911E+04  0.7818609E-02  0.8025880E-01
        1   -1    0    0  501    0  0.00000000000E+00  0.00000000000E+00  0.24910414476E+04  0.24910414476E+04  0.50400001928E-02 0.  1.
       -1   -1    0    0    0  501  0.00000000000E+00  0.00000000000E+00 -0.15232704554E+04  0.15232704554E+04  0.50400001928E-02 0. -1.
    10030    2    1    2    0    0  0.00000000000E+00  0.00000000000E+00  0.96777099223E+03  0.40143119030E+04  0.38959105946E+04 0.  0.
        1    1    3    3  502    0 -0.28171191931E+03  0.51776814179E+03  0.23969432836E+04  0.24683562463E+04  0.50400001928E-02 0.  1.
       -1    1    3    3    0  502  0.28171191931E+03 -0.51776814179E+03 -0.14291722913E+04  0.15459556567E+04  0.50400001928E-02 0. -1.
</event>
<event>
 5   0  0.2632875E-08  0.3904164E+04  0.7818609E-02  0.8024164E-01
        1   -1    0    0  501    0  0.00000000000E+00  0.00000000000E+00  0.11919296718E+04  0.11919296718E+04  0.50400001928E-02 0. -1.
       -1   -1    0    0    0  501  0.00000000000E+00  0.00000000000E+00 -0.31970206936E+04  0.31970206936E+04  0.50400001928E-02 0.  1.
    10030    2    1    2    0    0  0.00000000000E+00  0.00000000000E+00 -0.20050910218E+04  0.43889503654E+04  0.39041638419E+04 0.  0.
        3    1    3    3  502    0 -0.63688569582E+03 -0.13300580988E+04  0.43531613946E+03  0.15375883998E+04  0.10100000352E+00 0. -1.
       -3    1    3    3    0  502  0.63688569582E+03  0.13300580988E+04 -0.24404071613E+04  0.28513619656E+04  0.10100000352E+00 0.  1.
</event>
<event>
 5   0  0.2632875E-08  0.3908176E+04  0.7818609E-02  0.8023331E-01
        1   -1    0    0  501    0  0.00000000000E+00  0.00000000000E+00  0.31552738115E+04  0.31552738115E+04  0.50400001928E-02 0. -1.
       -1   -1    0    0    0  501  0.00000000000E+00  0.00000000000E+00 -0.12101834808E+04  0.12101834808E+04  0.50400001928E-02 0.  1.
    10030    2    1    2    0    0  0.00000000000E+00  0.00000000000E+00  0.19450903308E+04  0.43654572923E+04  0.39081761701E+04 0.  0.
        2    1    3    3  502    0  0.14015186131E+04  0.11901993403E+04  0.17114862694E+04  0.25119741524E+04  0.25500000920E-02 0. -1.
       -2    1    3    3    0  502 -0.14015186131E+04 -0.11901993403E+04  0.23360406138E+03  0.18534831399E+04  0.25500000920E-02 0.  1.
</event>
<event>
 5   0  0.2632875E-08  0.3894064E+04  0.7818609E-02  0.8026265E-01
       -1   -1    0    0    0  501  0.00000000000E+00  0.00000000000E+00  0.30379511704E+04  0.30379511704E+04  0.50400001928E-02 0.  1.
        1   -1    0    0  501    0  0.00000000000E+00  0.00000000000E+00 -0.12478588574E+04  0.12478588574E+04  0.50400001928E-02 0. -1.
    10030    2    1    2    0    0  0.00000000000E+00  0.00000000000E+00  0.17900923130E+04  0.42858100278E+04  0.38940643427E+04 0.  0.
        2    1    3    3  502    0 -0.19426974394E+03  0.19285833812E+04  0.10972684280E+04  0.22273689848E+04  0.25500000920E-02 0. -1.
       -2    1    3    3    0  502  0.19426974394E+03 -0.19285833812E+04  0.69282388501E+03  0.20584410429E+04  0.25500000920E-02 0.  1.
</event>
<event>
 5   0  0.8438211E-08  0.3887029E+04  0.7818609E-02  0.8027732E-01
       -2   -1    0    0    0  501  0.00000000000E+00  0.00000000000E+00  0.12799304320E+04  0.12799304320E+04  0.25500000920E-02 0. -1.
        2   -1    0    0  501    0  0.00000000000E+00  0.00000000000E+00 -0.29511357217E+04  0.29511357217E+04  0.25500000920E-02 0.  1.
    10030    2    1    2    0    0  0.00000000000E+00  0.00000000000E+00 -0.16712052897E+04  0.42310661537E+04  0.38870289009E+04 0.  0.
        5    1    3    3  502    0 -0.25772907626E+03 -0.13565839594E+04 -0.23243082178E+04  0.27035486119E+04  0.46999998093E+01 0.  1.
       -5    1    3    3    0  502  0.25772907626E+03  0.13565839594E+04  0.65310292814E+03  0.15275175418E+04  0.46999998093E+01 0. -1.
</event>
<event>
 5   0  0.2632875E-08  0.3866176E+04  0.7818609E-02  0.8032101E-01
       -3   -1    0    0    0  501  0.00000000000E+00  0.00000000000E+00  0.13208918002E+04  0.13208918041E+04  0.10100000352E+00 0.  1.
        3   -1    0    0  501    0  0.00000000000E+00  0.00000000000E+00 -0.28290204068E+04  0.28290204086E+04  0.10100000352E+00 0. -1.
    10030    2    1    2    0    0  0.00000000000E+00  0.00000000000E+00 -0.15081286066E+04  0.41499122127E+04  0.38661763383E+04 0.  0.
        1    1    3    3  502    0 -0.13136970346E+04 -0.46682287049E+03 -0.21914068422E+04  0.25973038788E+04  0.50400001928E-02 0. -1.
       -1    1    3    3    0  502  0.13136970346E+04  0.46682287049E+03  0.68327823560E+03  0.15526083338E+04  0.50400001928E-02 0.  1.
</event>
<event>
 5   0  0.2632875E-08  0.3791157E+04  0.7818609E-02  0.8048055E-01
        1   -1    0    0  501    0  0.00000000000E+00  0.00000000000E+00  0.16265264620E+04  0.16265264620E+04  0.50400001928E-02 0.  1.
       -1   -1    0    0    0  501  0.00000000000E+00  0.00000000000E+00 -0.22091359022E+04  0.22091359022E+04  0.50400001928E-02 0. -1.
    10030    2    1    2    0    0  0.00000000000E+00  0.00000000000E+00 -0.58260944029E+03  0.38356623642E+04  0.37911570809E+04 0.  0.
        3    1    3    3  502    0  0.61414664381E+03  0.60033088996E+03 -0.20010077407E+04  0.21775227361E+04  0.10100000352E+00 0. -1.
       -3    1    3    3    0  502 -0.61414664381E+03 -0.60033088996E+03  0.14183983004E+04  0.16581396281E+04  0.10100000352E+00 0.  1.
</event>
<event>
 5   0  0.2632875E-08  0.3897990E+04  0.7818609E-02  0.8025447E-01
       -1   -1    0    0    0  501  0.00000000000E+00  0.00000000000E+00  0.14858793630E+04  0.14858793630E+04  0.50400001928E-02 0.  1.
        1   -1    0    0  501    0  0.00000000000E+00  0.00000000000E+00 -0.25564537509E+04  0.25564537509E+04  0.50400001928E-02 0. -1.
    10030    2    1    2    0    0  0.00000000000E+00  0.00000000000E+00 -0.10705743879E+04  0.40423331139E+04  0.38979901851E+04 0.  0.
        5    1    3    3  502    0  0.54731571516E+03 -0.89136597946E+03 -0.22407120998E+04  0.24728325066E+04  0.46999998093E+01 0. -1.
       -5    1    3    3    0  502 -0.54731571516E+03  0.89136597946E+03  0.11701377119E+04  0.15695006073E+04  0.46999998093E+01 0.  1.
</event>
<event>
 5   0  0.2632875E-08  0.3899426E+04  0.7818609E-02  0.8025149E-01
       -1   -1    0    0    0  501  0.00000000000E+00  0.00000000000E+00  0.12051071752E+04  0.12051071752E+04  0.50400001928E-02 0.  1.
        1   -1    0    0  501    0  0.00000000000E+00  0.00000000000E+00 -0.31543923154E+04  0.31543923154E+04  0.50400001928E-02 0. -1.
    10030    2    1    2    0    0  0.00000000000E+00  0.00000000000E+00 -0.19492851401E+04  0.43594994906E+04  0.38994260156E+04 0.  0.
        1    1    3    3  502    0  0.53694372866E+03  0.13711579958E+04 -0.24033021978E+04  0.28185535779E+04  0.50400001928E-02 0. -1.
       -1    1    3    3    0  502 -0.53694372866E+03 -0.13711579958E+04  0.45401705772E+03  0.15409459127E+04  0.50400001928E-02 0.  1.
</event>
<event>
 5   0  0.8476262E-08  0.3882000E+04  0.7818609E-02  0.8028783E-01
       -2   -1    0    0    0  501  0.00000000000E+00  0.00000000000E+00  0.31187349158E+04  0.31187349158E+04  0.25500000920E-02 0. -1.
        2   -1    0    0  501    0  0.00000000000E+00  0.00000000000E+00 -0.12080160300E+04  0.12080160300E+04  0.25500000920E-02 0.  1.
    10030    2    1    2    0    0  0.00000000000E+00  0.00000000000E+00  0.19107188858E+04  0.43267509458E+04  0.38820003976E+04 0.  0.
        2    1    3    3  502    0 -0.82776401208E+03  0.95084346201E+03 -0.68959443488E+03  0.14369540819E+04  0.25500000920E-02 0.  1.
       -2    1    3    3    0  502  0.82776401208E+03 -0.95084346201E+03  0.26003133207E+04  0.28897968639E+04  0.25500000920E-02 0. -1.
</event>
<event>
 5   0  0.8551754E-08  0.3905338E+04  0.7818609E-02  0.8023920E-01
        2   -1    0    0  501    0  0.00000000000E+00  0.00000000000E+00  0.16640253493E+04  0.16640253493E+04  0.25500000920E-02 0. -1.
       -2   -1    0    0    0  501  0.00000000000E+00  0.00000000000E+00 -0.22913815661E+04  0.22913815661E+04  0.25500000920E-02 0.  1.
    10030    2    1    2    0    0  0.00000000000E+00  0.00000000000E+00 -0.62735621685E+03  0.39554069154E+04  0.39053384033E+04 0.  0.
        1    1    3    3  502    0 -0.62529688931E+03 -0.42815875894E+03  0.15090051802E+04  0.16886126721E+04  0.50400001928E-02 0. -1.
       -1    1    3    3    0  502  0.62529688931E+03  0.42815875894E+03 -0.21363613970E+04  0.22667942433E+04  0.50400001928E-02 0.  1.
</event>
<event>
 5   0  0.2632875E-08  0.3908000E+04  0.7818609E-02  0.8023367E-01
       -1   -1    0    0    0  501  0.00000000000E+00  0.00000000000E+00  0.15698850222E+04  0.15698850222E+04  0.50400001928E-02 0.  1.
        1   -1    0    0  501    0  0.00000000000E+00  0.00000000000E+00 -0.24320986469E+04  0.24320986469E+04  0.50400001928E-02 0. -1.
    10030    2    1    2    0    0  0.00000000000E+00  0.00000000000E+00 -0.86221362475E+03  0.40019836691E+04  0.39079996102E+04 0.  0.
        2    1    3    3  502    0  0.98812769703E+03 -0.10160325139E+04  0.94638083218E+03  0.17042168566E+04  0.25500000920E-02 0.  1.
       -2    1    3    3    0  502 -0.98812769703E+03  0.10160325139E+04 -0.18085944569E+04  0.22977668125E+04  0.25500000920E-02 0. -1.
</event>
<event>
 5   0  0.2632875E-08  0.3891866E+04  0.7818609E-02  0.8026723E-01
       -1   -1    0    0    0  501  0.00000000000E+00  0.00000000000E+00  0.22984573810E+04  0.22984573810E+04  0.50400001928E-02 0.  1.
        1   -1    0    0  501    0  0.00000000000E+00  0.00000000000E+00 -0.16474770168E+04  0.16474770168E+04  0.50400001928E-02 0. -1.
    10030    2    1    2    0    0  0.00000000000E+00  0.00000000000E+00  0.65098036419E+03  0.39459343978E+04  0.38918662410E+04 0.  0.
        3    1    3    3  502    0  0.12269765397E+04 -0.46033151622E+03  0.17839736060E+04  0.22135804415E+04  0.10100000352E+00 0.  1.
       -3    1    3    3    0  502 -0.12269765397E+04  0.46033151622E+03 -0.11329932418E+04  0.17323539563E+04  0.10100000352E+00 0. -1.
</event>
<event>
 5   0  0.8476262E-08  0.3902929E+04  0.7818609E-02  0.8024420E-01
       -2   -1    0    0    0  501  0.00000000000E+00  0.00000000000E+00  0.13724513579E+04  0.13724513579E+04  0.25500000920E-02 0. -1.
        2   -1    0    0  501    0  0.00000000000E+00  0.00000000000E+00 -0.27747537175E+04  0.27747537175E+04  0.25500000920E-02 0.  1.
    10030    2    1    2    0    0  0.00000000000E+00  0.00000000000E+00 -0.14023023596E+04  0.41472050754E+04  0.39029294165E+04 0.  0.
        2    1    3    3  502    0 -0.16373342070E+04  0.75648741173E+03 -0.14928168648E+04  0.23412899652E+04  0.25500000920E-02 0. -1.
       -2    1    3    3    0  502  0.16373342070E+04 -0.75648741173E+03  0.90514505191E+02  0.18059151102E+04  0.25500000920E-02 0.  1.
</event>
<event>
 5   0  0.8551754E-08  0.3892306E+04  0.7818609E-02  0.8026631E-01
       -2   -1    0    0    0  501  0.00000000000E+00  0.00000000000E+00  0.14984676233E+04  0.14984676233E+04  0.25500000920E-02 0. -1.
        2   -1    0    0  501    0  0.00000000000E+00  0.00000000000E+00 -0.25275892328E+04  0.25275892328E+04  0.25500000920E-02 0.  1.
    10030    2    1    2    0    0  0.00000000000E+00  0.00000000000E+00 -0.10291216095E+04  0.40260568560E+04  0.38923055534E+04 0.  0.
        1    1    3    3  502    0 -0.14589601205E+04 -0.68486662850E+03 -0.16428719680E+04  0.23014419904E+04  0.50400001928E-02 0.  1.
       -1    1    3    3    0  502  0.14589601205E+04  0.68486662850E+03  0.61375035851E+03  0.17246148656E+04  0.50400001928E-02 0. -1.
</event>
<event>
 5   0  0.2632875E-08  0.3890810E+04  0.7818609E-02  0.8026943E-01
        1   -1    0    0  501    0  0.00000000000E+00  0.00000000000E+00  0.20839167258E+04  0.20839167258E+04  0.50400001928E-02 0.  1.
       -1   -1    0    0    0  501  0.00000000000E+00  0.00000000000E+00 -0.18161001763E+04  0.18161001763E+04  0.50400001928E-02 0. -1.
    10030    2    1    2    0    0  0.00000000000E+00  0.00000000000E+00  0.26781654954E+03  0.39000169021E+04  0.38908104724E+04 0.  0.
        1    1    3    3  502    0  0.18986029791E+02 -0.15688452369E+04 -0.10190157870E+04  0.18708364495E+04  0.50400001928E-02 0. -1.
       -1    1    3    3    0  502 -0.18986029791E+02  0.15688452369E+04  0.12868323365E+04  0.20291804526E+04  0.50400001928E-02 0.  1.
</event>
<event>
 5   0  0.8476262E-08  0.3933769E+04  0.7818609E-02  0.8018042E-01
       -2   -1    0    0    0  501  0.00000000000E+00  0.00000000000E+00  0.17599167167E+04  0.17599167167E+04  0.25500000920E-02 0.  1.
        2   -1    0    0  501    0  0.00000000000E+00  0.00000000000E+00 -0.21981923825E+04  0.21981923825E+04  0.25500000920E-02 0. -1.
    10030    2    1    2    0    0  0.00000000000E+00  0.00000000000E+00 -0.43827566579E+03  0.39581090992E+04  0.39337694495E+04 0.  0.
        2    1    3    3  502    0  0.86475352637E+03 -0.11907467262E+04  0.10939112644E+04  0.18336625321E+04  0.25500000920E-02 0.  1.
       -2    1    3    3    0  502 -0.86475352637E+03  0.11907467262E+04 -0.15321869302E+04  0.21244465671E+04  0.25500000920E-02 0. -1.
</event>
<event>
 5   0  0.2632875E-08  0.3909204E+04  0.7818609E-02  0.8023118E-01
       -1   -1    0    0    0  501  0.00000000000E+00  0.00000000000E+00  0.16101133884E+04  0.16101133884E+04  0.50400001928E-02 0. -1.
        1   -1    0    0  501    0  0.00000000000E+00  0.00000000000E+00 -0.23727947616E+04  0.23727947616E+04  0.50400001928E-02 0.  1.
    10030    2    1    2    0    0  0.00000000000E+00  0.00000000000E+00 -0.76268137325E+03  0.39829081500E+04  0.39092038133E+04 0.  0.
        4    1    3    3  502    0 -0.17106246969E+04 -0.31991076745E+03  0.52531763526E+03  0.18178393724E+04  0.12699999809E+01 0. -1.
       -4    1    3    3    0  502  0.17106246969E+04  0.31991076745E+03 -0.12879990085E+04  0.21650687776E+04  0.12699999809E+01 0.  1.
</event>
<event>
 5   0  0.2632875E-08  0.3900191E+04  0.7818609E-02  0.8024989E-01
        1   -1    0    0  501    0  0.00000000000E+00  0.00000000000E+00  0.14468003364E+04  0.14468003364E+04  0.50400001928E-02 0.  1.
       -1   -1    0    0    0  501  0.00000000000E+00  0.00000000000E+00 -0.26284712606E+04  0.26284712606E+04  0.50400001928E-02 0. -1.
    10030    2    1    2    0    0  0.00000000000E+00  0.00000000000E+00 -0.11816709242E+04  0.40752715970E+04  0.39001913307E+04 0.  0.
        3    1    3    3  502    0 -0.60423089213E+03 -0.18497415089E+03 -0.25185269157E+04  0.25965916588E+04  0.10100000352E+00 0. -1.
       -3    1    3    3    0  502  0.60423089213E+03  0.18497415089E+03  0.13368559915E+04  0.14786799382E+04  0.10100000352E+00 0.  1.
</event>
<event>
 5   0  0.8438211E-08  0.3901329E+04  0.7818609E-02  0.8024753E-01
       -2   -1    0    0    0  501  0.00000000000E+00  0.00000000000E+00  0.33503570186E+04  0.33503570186E+04  0.25500000920E-02 0. -1.
        2   -1    0    0  501    0  0.00000000000E+00  0.00000000000E+00 -0.11357270287E+04  0.11357270287E+04  0.25500000920E-02 0.  1.
    10030    2    1    2    0    0  0.00000000000E+00  0.00000000000E+00  0.22146299899E+04  0.44860840474E+04  0.39013285030E+04 0.  0.
        5    1    3    3  502    0 -0.35613560782E+03  0.22061388330E+02  0.33125047542E+04  0.33316706188E+04  0.46999998093E+01 0. -1.
       -5    1    3    3    0  502  0.35613560782E+03 -0.22061388330E+02 -0.10978747643E+04  0.11544134285E+04  0.46999998093E+01 0.  1.
</event>
<event>
 5   0  0.8476262E-08  0.3883245E+04  0.7818609E-02  0.8028523E-01
       -2   -1    0    0    0  501  0.00000000000E+00  0.00000000000E+00  0.33267626939E+04  0.33267626939E+04  0.25500000920E-02 0. -1.
        2   -1    0    0  501    0  0.00000000000E+00  0.00000000000E+00 -0.11332029025E+04  0.11332029025E+04  0.25500000920E-02 0.  1.
    10030    2    1    2    0    0  0.00000000000E+00  0.00000000000E+00  0.21935597914E+04  0.44599655965E+04  0.38832445923E+04 0.  0.
        2    1    3    3  502    0 -0.82679082778E+02 -0.13295792902E+04 -0.52554828163E+03  0.14320677065E+04  0.25500000920E-02 0.  1.
       -2    1    3    3    0  502  0.82679082778E+02  0.13295792902E+04  0.27191080730E+04  0.30278978900E+04  0.25500000920E-02 0. -1.
</event>
<event>
 5   0  0.2632875E-08  0.3898414E+04  0.7818609E-02  0.8025359E-01
       -3   -1    0    0    0  501  0.00000000000E+00  0.00000000000E+00  0.26692336162E+04  0.26692336181E+04  0.10100000352E+00 0.  1.
        3   -1    0    0  501    0  0.00000000000E+00  0.00000000000E+00 -0.14234079367E+04  0.14234079403E+04  0.10100000352E+00 0. -1.
    10030    2    1    2    0    0  0.00000000000E+00  0.00000000000E+00  0.12458256795E+04  0.40926415585E+04  0.38984142035E+04 0.  0.
        5    1    3    3  502    0  0.18541756422E+03  0.10496817912E+04  0.23361423932E+04  0.25678385672E+04  0.46999998093E+01 0.  1.
       -5    1    3    3    0  502 -0.18541756422E+03 -0.10496817912E+04 -0.10903167138E+04  0.15248029913E+04  0.46999998093E+01 0. -1.
</event>
<event>
 5   0  0.2632875E-08  0.3937120E+04  0.7818609E-02  0.8017353E-01
        1   -1    0    0  501    0  0.00000000000E+00  0.00000000000E+00  0.12399632730E+04  0.12399632730E+04  0.50400001928E-02 0. -1.
       -1   -1    0    0    0  501  0.00000000000E+00  0.00000000000E+00 -0.31252773693E+04  0.31252773693E+04  0.50400001928E-02 0.  1.
    10030    2    1    2    0    0  0.00000000000E+00  0.00000000000E+00 -0.18853140963E+04  0.43652406423E+04  0.39371203466E+04 0.  0.
        2    1    3    3  502    0 -0.10346345641E+04 -0.44648677169E+03 -0.27323047244E+04  0.29555554851E+04  0.25500000920E-02 0.  1.
       -2    1    3    3    0  502  0.10346345641E+04  0.44648677169E+03  0.84699062813E+03  0.14096851573E+04  0.25500000920E-02 0. -1.
</event>
<event>
 5   0  0.2632875E-08  0.3923275E+04  0.7818609E-02  0.8020206E-01
       -1   -1    0    0    0  501  0.00000000000E+00  0.00000000000E+00  0.15679698719E+04  0.15679698719E+04  0.50400001928E-02 0. -1.
        1   -1    0    0  501    0  0.00000000000E+00  0.00000000000E+00 -0.24541421021E+04  0.24541421021E+04  0.50400001928E-02 0.  1.
    10030    2    1    2    0    0  0.00000000000E+00  0.00000000000E+00 -0.88617223018E+03  0.40221119739E+04  0.39232745901E+04 0.  0.
        1    1    3    3  502    0  0.17921303084E+04  0.55484400048E+03 -0.10306189347E+04  0.21405042153E+04  0.50400001928E-02 0.  1.
       -1    1    3    3    0  502 -0.17921303084E+04 -0.55484400048E+03  0.14444670449E+03  0.18816077587E+04  0.50400001928E-02 0. -1.
</event>
<event>
 5   0  0.8476262E-08  0.3890024E+04  0.7818609E-02  0.8027107E-01
        2   -1    0    0  501    0  0.00000000000E+00  0.00000000000E+00  0.16539369863E+04  0.16539369863E+04  0.25500000920E-02 0. -1.
       -2   -1    0    0    0  501  0.00000000000E+00  0.00000000000E+00 -0.22873126431E+04  0.22873126431E+04  0.25500000920E-02 0.  1.
    10030    2    1    2    0    0  0.00000000000E+00  0.00000000000E+00 -0.63337565683E+03  0.39412496294E+04  0.38900236398E+04 0.  0.
        2    1    3    3  502    0 -0.41694282125E+03  0.18997949904E+04 -0.31966898229E+03  0.19711038988E+04  0.25500000920E-02 0. -1.
       -2    1    3    3    0  502  0.41694282125E+03 -0.18997949904E+04 -0.31370667454E+03  0.19701457305E+04  0.25500000920E-02 0.  1.
</event>
<event>
 5   0  0.2632875E-08  0.3871390E+04  0.7818609E-02  0.8031006E-01
       -1   -1    0    0    0  501  0.00000000000E+00  0.00000000000E+00  0.14094827275E+04  0.14094827275E+04  0.50400001928E-02 0. -1.
        1   -1    0    0  501    0  0.00000000000E+00  0.00000000000E+00 -0.26583612021E+04  0.26583612021E+04  0.50400001928E-02 0.  1.
    10030    2    1    2    0    0  0.00000000000E+00  0.00000000000E+00 -0.12488784746E+04  0.40678439296E+04  0.38713895169E+04 0.  0.
        1    1    3    3  502    0 -0.18613532507E+04 -0.24024010885E+03 -0.11223671566E+04  0.21867920039E+04  0.50400001928E-02 0.  1.
       -1    1    3    3    0  502  0.18613532507E+04  0.24024010885E+03 -0.12651131805E+03  0.18810519258E+04  0.50400001928E-02 0. -1.
</event>
<event>
 5   0  0.8438211E-08  0.3896732E+04  0.7818609E-02  0.8025709E-01
        2   -1    0    0  501    0  0.00000000000E+00  0.00000000000E+00  0.13889479034E+04  0.13889479034E+04  0.25500000920E-02 0.  1.
       -2   -1    0    0    0  501  0.00000000000E+00  0.00000000000E+00 -0.27330977330E+04  0.27330977330E+04  0.25500000920E-02 0. -1.
    10030    2    1    2    0    0  0.00000000000E+00  0.00000000000E+00 -0.13441498296E+04  0.41220456364E+04  0.38967321520E+04 0.  0.
        5    1    3    3  502    0  0.19731249282E+03 -0.13223932421E+04 -0.21712176606E+04  0.25498753550E+04  0.46999998093E+01 0. -1.
       -5    1    3    3    0  502 -0.19731249282E+03  0.13223932421E+04  0.82706783097E+03  0.15721702814E+04  0.46999998093E+01 0.  1.
</event>
<event>
 5   0  0.2632875E-08  0.3897105E+04  0.7818609E-02  0.8025632E-01
       -1   -1    0    0    0  501  0.00000000000E+00  0.00000000000E+00  0.25968831160E+04  0.25968831160E+04  0.50400001928E-02 0. -1.
        1   -1    0    0  501    0  0.00000000000E+00  0.00000000000E+00 -0.14620819505E+04  0.14620819505E+04  0.50400001928E-02 0.  1.
    10030    2    1    2    0    0  0.00000000000E+00  0.00000000000E+00  0.11348011655E+04  0.40589650665E+04  0.38971045311E+04 0.  0.
        3    1    3    3  502    0  0.10134570658E+04 -0.11069035823E+04  0.18618072815E+04  0.23913713907E+04  0.10100000352E+00 0. -1.
       -3    1    3    3    0  502 -0.10134570658E+04  0.11069035823E+04 -0.72700611592E+03  0.16675936758E+04  0.10100000352E+00 0.  1.
</event>
<event>
 5   0  0.2632875E-08  0.3860692E+04  0.7818609E-02  0.8033255E-01
        1   -1    0    0  501    0  0.00000000000E+00  0.00000000000E+00  0.29635190121E+04  0.29635190121E+04  0.50400001928E-02 0. -1.
       -1   -1    0    0    0  501  0.00000000000E+00  0.00000000000E+00 -0.12573684726E+04  0.12573684726E+04  0.50400001928E-02 0.  1.
    10030    2    1    2    0    0  0.00000000000E+00  0.00000000000E+00  0.17061505395E+04  0.42208874847E+04  0.38606918415E+04 0.  0.
        5    1    3    3  502    0 -0.27179874405E+03 -0.19002485177E+04  0.10755132255E+04  0.22003567380E+04  0.46999998093E+01 0. -1.
       -5    1    3    3    0  502  0.27179874405E+03  0.19002485177E+04  0.63063731405E+03  0.20205307467E+04  0.46999998093E+01 0.  1.
</event>
<event>
 5   0  0.8476262E-08  0.3923872E+04  0.7818609E-02  0.8020082E-01
        2   -1    0    0  501    0  0.00000000000E+00  0.00000000000E+00  0.26660600569E+04  0.26660600569E+04  0.25500000920E-02 0.  1.
       -2   -1    0    0    0  501  0.00000000000E+00  0.00000000000E+00 -0.14437759387E+04  0.14437759387E+04  0.25500000920E-02 0. -1.
    10030    2    1    2    0    0  0.00000000000E+00  0.00000000000E+00  0.12222841182E+04  0.41098359956E+04  0.39238722514E+04 0.  0.
        2    1    3    3  502    0  0.19190003182E+04  0.40820210260E+03  0.61268970628E+03  0.20553782752E+04  0.25500000920E-02 0.  1.
       -2    1    3    3    0  502 -0.19190003182E+04 -0.40820210260E+03  0.60959441189E+03  0.20544577204E+04  0.25500000920E-02 0. -1.
</event>
<event>
 5   0  0.2632875E-08  0.3879329E+04  0.7818609E-02  0.8029342E-01
       -1   -1    0    0    0  501  0.00000000000E+00  0.00000000000E+00  0.14535818243E+04  0.14535818243E+04  0.50400001928E-02 0. -1.
        1   -1    0    0  501    0  0.00000000000E+00  0.00000000000E+00 -0.25882952938E+04  0.25882952938E+04  0.50400001928E-02 0.  1.
    10030    2    1    2    0    0  0.00000000000E+00  0.00000000000E+00 -0.11347134694E+04  0.40418771181E+04  0.38793293209E+04 0.  0.
        1    1    3    3  502    0 -0.11282941699E+04  0.87151062613E+03  0.80293936601E+03  0.16362426870E+04  0.50400001928E-02 0. -1.
       -1    1    3    3    0  502  0.11282941699E+04 -0.87151062613E+03 -0.19376528355E+04  0.24056344311E+04  0.50400001928E-02 0.  1.
</event>
<event>
 5   0  0.8476262E-08  0.3900834E+04  0.7818609E-02  0.8024856E-01
       -2   -1    0    0    0  501  0.00000000000E+00  0.00000000000E+00  0.12535876847E+04  0.12535876847E+04  0.25500000920E-02 0.  1.
        2   -1    0    0  501    0  0.00000000000E+00  0.00000000000E+00 -0.30345919343E+04  0.30345919343E+04  0.25500000920E-02 0. -1.
    10030    2    1    2    0    0  0.00000000000E+00  0.00000000000E+00 -0.17810042496E+04  0.42881796190E+04  0.39008343092E+04 0.  0.
        2    1    3    3  502    0 -0.18240812974E+04 -0.46664841925E+03 -0.14500586095E+04  0.23764897008E+04  0.25500000920E-02 0.  1.
       -2    1    3    3    0  502  0.18240812974E+04  0.46664841925E+03 -0.33094564011E+03  0.19116899183E+04  0.25500000920E-02 0. -1.
</event>
<event>
 5   0  0.2632875E-08  0.3879023E+04  0.7818609E-02  0.8029406E-01
        1   -1    0    0  501    0  0.00000000000E+00  0.00000000000E+00  0.24866038855E+04  0.24866038856E+04  0.50400001928E-02 0. -1.
       -1   -1    0    0    0  501  0.00000000000E+00  0.00000000000E+00 -0.15127881104E+04  0.15127881104E+04  0.50400001928E-02 0.  1.
    10030    2    1    2    0    0  0.00000000000E+00  0.00000000000E+00  0.97381577518E+03  0.39993919959E+04  0.38790229663E+04 0.  0.
        2    1    3    3  502    0  0.16151249405E+04 -0.72151116212E+03 -0.33306813552E+03  0.18000392533E+04  0.25500000920E-02 0. -1.
       -2    1    3    3    0  502 -0.16151249405E+04  0.72151116212E+03  0.13068839107E+04  0.21993527426E+04  0.25500000920E-02 0.  1.
</event>
<event>
 5   0  0.2632875E-08  0.3792672E+04  0.7818609E-02  0.8047729E-01
        1   -1    0    0  501    0  0.00000000000E+00  0.00000000000E+00  0.28257507540E+04  0.28257507540E+04  0.50400001928E-02 0. -1.
       -1   -1    0    0    0  501  0.00000000000E+00  0.00000000000E+00 -0.12726143259E+04  0.12726143259E+04  0.50400001928E-02 0.  1.
    10030    2    1    2    0    0  0.00000000000E+00  0.00000000000E+00  0.15531364281E+04  0.40983650798E+04  0.37926723512E+04 0.  0.
        2    1    3    3  502    0 -0.14673364880E+04  0.90570126427E+03 -0.76161965935E+02  0.17260277501E+04  0.25500000920E-02 0.  1.
       -2    1    3    3    0  502  0.14673364880E+04 -0.90570126427E+03  0.16292983940E+04  0.23723373297E+04  0.25500000920E-02 0. -1.
</event>
<event>
 5   0  0.2632875E-08  0.3892954E+04  0.7818609E-02  0.8026496E-01
        1   -1    0    0  501    0  0.00000000000E+00  0.00000000000E+00  0.22306135512E+04  0.22306135512E+04  0.50400001928E-02 0.  1.
       -1   -1    0    0    0  501  0.00000000000E+00  0.00000000000E+00 -0.16985336938E+04  0.16985336938E+04  0.50400001928E-02 0. -1.
    10030    2    1    2    0    0  0.00000000000E+00  0.00000000000E+00  0.53207985739E+03  0.39291472450E+04  0.38929537755E+04 0.  0.
        4    1    3    3  502    0 -0.18001313667E+04 -0.72725675364E+03  0.12547799026E+03  0.19455389130E+04  0.12699999809E+01 0. -1.
       -4    1    3    3    0  502  0.18001313667E+04  0.72725675364E+03  0.40660186714E+03  0.19836083319E+04  0.12699999809E+01 0.  1.
</event>
<event>
 5   0  0.2632875E-08  0.3900680E+04  0.7818609E-02  0.8024888E-01
       -1   -1    0    0    0  501  0.00000000000E+00  0.00000000000E+00  0.17981869312E+04  0.17981869312E+04  0.50400001928E-02 0. -1.
        1   -1    0    0  501    0  0.00000000000E+00  0.00000000000E+00 -0.21153676998E+04  0.21153676998E+04  0.50400001928E-02 0.  1.
    10030    2    1    2    0    0  0.00000000000E+00  0.00000000000E+00 -0.31718076861E+03  0.39135546309E+04  0.39006802239E+04 0.  0.
        4    1    3    3  502    0 -0.91651150874E+03 -0.17206219009E+04 -0.10102621254E+03  0.19521119281E+04  0.12699999809E+01 0. -1.
       -4    1    3    3    0  502  0.91651150874E+03  0.17206219009E+04 -0.21615455608E+03  0.19614427028E+04  0.12699999809E+01 0.  1.
</event>
<event>
 5   0  0.2632875E-08  0.3901170E+04  0.7818609E-02  0.8024786E-01
        1   -1    0    0  501    0  0.00000000000E+00  0.00000000000E+00  0.14404955230E+04  0.14404955230E+04  0.50400001928E-02 0.  1.
       -1   -1    0    0    0  501  0.00000000000E+00  0.00000000000E+00 -0.26413002289E+04  0.26413002289E+04  0.50400001928E-02 0. -1.
    10030    2    1    2    0    0  0.00000000000E+00  0.00000000000E+00 -0.12008047060E+04  0.40817957519E+04  0.39011696475E+04 0.  0.
        5    1    3    3  502    0 -0.66531904037E+03 -0.18291406813E+04 -0.46659852997E+03  0.20015347451E+04  0.46999998093E+01 0. -1.
       -5    1    3    3    0  502  0.66531904037E+03  0.18291406813E+04 -0.73420617599E+03  0.20802610068E+04  0.46999998093E+01 0.  1.
</event>
<event>
 5   0  0.2632875E-08  0.3909789E+04  0.7818609E-02  0.8022996E-01
       -1   -1    0    0    0  501  0.00000000000E+00  0.00000000000E+00  0.27690585839E+04  0.27690585839E+04  0.50400001928E-02 0. -1.
        1   -1    0    0  501    0  0.00000000000E+00  0.00000000000E+00 -0.13801128803E+04  0.13801128803E+04  0.50400001928E-02 0.  1.
    10030    2    1    2    0    0  0.00000000000E+00  0.00000000000E+00  0.13889457037E+04  0.41491714642E+04  0.39097894664E+04 0.  0.
        3    1    3    3  502    0 -0.13858960748E+03 -0.18794908592E+04  0.12458209688E+04  0.22591509170E+04  0.10100000352E+00 0. -1.
       -3    1    3    3    0  502  0.13858960748E+03  0.18794908592E+04  0.14312473484E+03  0.18900205472E+04  0.10100000352E+00 0.  1.
</event>
<event>
 5   0  0.8438211E-08  0.3912382E+04  0.7818609E-02  0.8022459E-01
       -2   -1    0    0    0  501  0.00000000000E+00  0.00000000000E+00  0.18030309380E+04  0.18030309380E+04  0.25500000920E-02 0. -1.
        2   -1    0    0  501    0  0.00000000000E+00  0.00000000000E+00 -0.21223612156E+04  0.21223612156E+04  0.25500000920E-02 0.  1.
    10030    2    1    2    0    0  0.00000000000E+00  0.00000000000E+00 -0.31933027762E+03  0.39253921537E+04  0.39123818492E+04 0.  0.
        5    1    3    3  502    0  0.28599654319E+03  0.73893676663E+03  0.16348123908E+04  0.18167155008E+04  0.46999998093E+01 0. -1.
       -5    1    3    3    0  502 -0.28599654319E+03 -0.73893676663E+03 -0.19541426684E+04  0.21086766529E+04  0.46999998093E+01 0.  1.
</event>
<event>
 5   0  0.2632875E-08  0.3895495E+04  0.7818609E-02  0.8025967E-01
        1   -1    0    0  501    0  0.00000000000E+00  0.00000000000E+00  0.21844678924E+04  0.21844678924E+04  0.50400001928E-02 0.  1.
       -1   -1    0    0    0  501  0.00000000000E+00  0.00000000000E+00 -0.17366794719E+04  0.17366794719E+04  0.50400001928E-02 0. -1.
    10030    2    1    2    0    0  0.00000000000E+00  0.00000000000E+00  0.44778842051E+03  0.39211473644E+04  0.38954951140E+04 0.  0.
        5    1    3    3  502    0 -0.77673948625E+03  0.17320746210E+04 -0.21520278122E+03  0.19104295458E+04  0.46999998093E+01 0. -1.
       -5    1    3    3    0  502  0.77673948625E+03 -0.17320746210E+04  0.66299120173E+03  0.20107178186E+04  0.46999998093E+01 0.  1.
</event>
<event>
 5   0  0.8551754E-08  0.3901199E+04  0.7818609E-02  0.8024780E-01
        2   -1    0    0  501    0  0.00000000000E+00  0.00000000000E+00  0.13259271349E+04  0.13259271349E+04  0.25500000920E-02 0.  1.
       -2   -1    0    0    0  501  0.00000000000E+00  0.00000000000E+00 -0.28695687222E+04  0.28695687222E+04  0.25500000920E-02 0. -1.
    10030    2    1    2    0    0  0.00000000000E+00  0.00000000000E+00 -0.15436415873E+04  0.41954958572E+04  0.39011993204E+04 0.  0.
        1    1    3    3  502    0 -0.61259799174E+02  0.13391815831E+03  0.13199402158E+04  0.13281298918E+04  0.50400001928E-02 0.  1.
       -1    1    3    3    0  502  0.61259799174E+02 -0.13391815831E+03 -0.28635818031E+04  0.28673659654E+04  0.50400001928E-02 0. -1.
</event>
<event>
 5   0  0.2632875E-08  0.3924573E+04  0.7818609E-02  0.8019938E-01
       -1   -1    0    0    0  501  0.00000000000E+00  0.00000000000E+00  0.18471770145E+04  0.18471770145E+04  0.50400001928E-02 0. -1.
        1   -1    0    0  501    0  0.00000000000E+00  0.00000000000E+00 -0.20845687821E+04  0.20845687821E+04  0.50400001928E-02 0.  1.
    10030    2    1    2    0    0  0.00000000000E+00  0.00000000000E+00 -0.23739176758E+03  0.39317457966E+04  0.39245726083E+04 0.  0.
        3    1    3    3  502    0  0.51384440392E+03 -0.37254750432E+00  0.17785795202E+04  0.18513188083E+04  0.10100000352E+00 0. -1.
       -3    1    3    3    0  502 -0.51384440392E+03  0.37254750432E+00 -0.20159712878E+04  0.20804269883E+04  0.10100000352E+00 0.  1.
</event>
<event>
 5   0  0.2632875E-08  0.3859357E+04  0.7818609E-02  0.8033536E-01
        1   -1    0    0  501    0  0.00000000000E+00  0.00000000000E+00  0.18102017712E+04  0.18102017712E+04  0.50400001928E-02 0.  1.
       -1   -1    0    0    0  501  0.00000000000E+00  0.00000000000E+00 -0.20570406962E+04  0.20570406963E+04  0.50400001928E-02 0. -1.
    10030    2    1    2    0    0  0.00000000000E+00  0.00000000000E+00 -0.24683892508E+03  0.38672424674E+04  0.38593567919E+04 0.  0.
        4    1    3    3  502    0 -0.57968643145E+03  0.16286846226E+04  0.73565785214E+03  0.18787879196E+04  0.12699999809E+01 0.  1.
       -4    1    3    3    0  502  0.57968643145E+03 -0.16286846226E+04 -0.98249677723E+03  0.19884545478E+04  0.12699999809E+01 0. -1.
</event>
<event>
 5   0  0.8551754E-08  0.3947490E+04  0.7818609E-02  0.8015224E-01
       -2   -1    0    0    0  501  0.00000000000E+00  0.00000000000E+00  0.15928279492E+04  0.15928279492E+04  0.25500000920E-02 0.  1.
        2   -1    0    0  501    0  0.00000000000E+00  0.00000000000E+00 -0.24457568240E+04  0.24457568241E+04  0.25500000920E-02 0. -1.
    10030    2    1    2    0    0  0.00000000000E+00  0.00000000000E+00 -0.85292887486E+03  0.40385847732E+04  0.39474902540E+04 0.  0.
        1    1    3    3  502    0 -0.18624975936E+04  0.30315058072E+03 -0.10184999079E+04  0.21443273125E+04  0.50400001928E-02 0. -1.
       -1    1    3    3    0  502  0.18624975936E+04 -0.30315058072E+03  0.16557103305E+03  0.18942574608E+04  0.50400001928E-02 0.  1.
</event>
<event>
 5   0  0.8676098E-08  0.3902940E+04  0.7818609E-02  0.8024418E-01
       -2   -1    0    0    0  501  0.00000000000E+00  0.00000000000E+00  0.20402452686E+04  0.20402452686E+04  0.25500000920E-02 0.  1.
        2   -1    0    0  501    0  0.00000000000E+00  0.00000000000E+00 -0.18665576707E+04  0.18665576707E+04  0.25500000920E-02 0. -1.
    10030    2    1    2    0    0  0.00000000000E+00  0.00000000000E+00  0.17368759786E+03  0.39068029393E+04  0.39029401514E+04 0.  0.
        3    1    3    3  502    0 -0.18601337802E+04  0.47877145524E+03  0.43202659173E+03  0.19687475137E+04  0.10100000352E+00 0. -1.
       -3    1    3    3    0  502  0.18601337802E+04 -0.47877145524E+03 -0.25833899387E+03  0.19380554256E+04  0.10100000352E+00 0.  1.
</event>
<event>
 5   0  0.8551754E-08  0.3893230E+04  0.7818609E-02  0.8026439E-01
        2   -1    0    0  501    0  0.00000000000E+00  0.00000000000E+00  0.23604526957E+04  0.23604526957E+04  0.25500000920E-02 0.  1.
       -2   -1    0    0    0  501  0.00000000000E+00  0.00000000000E+00 -0.16053321506E+04  0.16053321506E+04  0.25500000920E-02 0. -1.
    10030    2    1    2    0    0  0.00000000000E+00  0.00000000000E+00  0.75512054518E+03  0.39657848463E+04  0.38932303309E+04 0.  0.
        1    1    3    3  502    0  0.15034251139E+04 -0.12124193766E+04  0.13000281745E+03  0.19357552920E+04  0.50400001928E-02 0. -1.
       -1    1    3    3    0  502 -0.15034251139E+04  0.12124193766E+04  0.62511772773E+03  0.20300295543E+04  0.50400001928E-02 0.  1.
</event>
<event>
 5   0  0.8676098E-08  0.3897495E+04  0.7818609E-02  0.8025550E-01
        2   -1    0    0  501    0  0.00000000000E+00  0.00000000000E+00  0.27425453562E+04  0.27425453562E+04  0.25500000920E-02 0.  1.
       -2   -1    0    0    0  501  0.00000000000E+00  0.00000000000E+00 -0.13847054088E+04  0.13847054088E+04  0.25500000920E-02 0. -1.
    10030    2    1    2    0    0  0.00000000000E+00  0.00000000000E+00  0.13578399474E+04  0.41272507650E+04  0.38974952924E+04 0.  0.
        3    1    3    3  502    0 -0.15616997168E+04  0.63671896169E+03 -0.35500763077E+03  0.17234696023E+04  0.10100000352E+00 0. -1.
       -3    1    3    3    0  502  0.15616997168E+04 -0.63671896169E+03  0.17128475782E+04  0.24037811627E+04  0.10100000352E+00 0.  1.
</event>
<event>
 5   0  0.8476262E-08  0.3893680E+04  0.7818609E-02  0.8026345E-01
       -2   -1    0    0    0  501  0.00000000000E+00  0.00000000000E+00  0.13661286655E+04  0.13661286655E+04  0.25500000920E-02 0.  1.
        2   -1    0    0  501    0  0.00000000000E+00  0.00000000000E+00 -0.27743996632E+04  0.27743996632E+04  0.25500000920E-02 0. -1.
    10030    2    1    2    0    0  0.00000000000E+00  0.00000000000E+00 -0.14082709977E+04  0.41405283288E+04  0.38936804746E+04 0.  0.
        2    1    3    3  502    0  0.17440601810E+04  0.83972688552E+03 -0.92541345767E+03  0.21455249299E+04  0.25500000920E-02 0. -1.
       -2    1    3    3    0  502 -0.17440601810E+04 -0.83972688552E+03 -0.48285754003E+03  0.19950033988E+04  0.25500000920E-02 0.  1.
</event>
<event>
 5   0  0.8551754E-08  0.3887669E+04  0.7818609E-02  0.8027599E-01
       -2   -1    0    0    0  501  0.00000000000E+00  0.00000000000E+00  0.20213761214E+04  0.20213761215E+04  0.25500000920E-02 0.  1.
        2   -1    0    0  501    0  0.00000000000E+00  0.00000000000E+00 -0.18692672359E+04  0.18692672359E+04  0.25500000920E-02 0. -1.
    10030    2    1    2    0    0  0.00000000000E+00  0.00000000000E+00  0.15210888551E+03  0.38906433574E+04  0.38876687901E+04 0.  0.
        1    1    3    3  502    0 -0.20881539168E+01 -0.84969560545E+03  0.18256784602E+04  0.20137251110E+04  0.50400001928E-02 0.  1.
       -1    1    3    3    0  502  0.20881539168E+01  0.84969560545E+03 -0.16735695747E+04  0.18769182464E+04  0.50400001928E-02 0. -1.
</event>
<event>
 5   0  0.2632875E-08  0.3884154E+04  0.7818609E-02  0.8028333E-01
       -1   -1    0    0    0  501  0.00000000000E+00  0.00000000000E+00  0.15632315363E+04  0.15632315363E+04  0.50400001928E-02 0.  1.
        1   -1    0    0  501    0  0.00000000000E+00  0.00000000000E+00 -0.24127350941E+04  0.24127350941E+04  0.50400001928E-02 0. -1.
    10030    2    1    2    0    0  0.00000000000E+00  0.00000000000E+00 -0.84950355772E+03  0.39759666304E+04  0.38841542646E+04 0.  0.
        5    1    3    3  502    0 -0.14818154034E+04  0.64114766976E+03 -0.15295192390E+04  0.22240275216E+04  0.46999998093E+01 0. -1.
       -5    1    3    3    0  502  0.14818154034E+04 -0.64114766976E+03  0.68001568126E+03  0.17519391088E+04  0.46999998093E+01 0.  1.
</event>
<event>
 5   0  0.2632875E-08  0.3956738E+04  0.7818609E-02  0.8013331E-01
       -1   -1    0    0    0  501  0.00000000000E+00  0.00000000000E+00  0.14051880601E+04  0.14051880601E+04  0.50400001928E-02 0.  1.
        1   -1    0    0  501    0  0.00000000000E+00  0.00000000000E+00 -0.27853530031E+04  0.27853530031E+04  0.50400001928E-02 0. -1.
    10030    2    1    2    0    0  0.00000000000E+00  0.00000000000E+00 -0.13801649430E+04  0.41905410633E+04  0.39567384464E+04 0.  0.
        5    1    3    3  502    0 -0.99890224238E+01  0.94738050904E+02  0.14027516284E+04  0.14059905049E+04  0.46999998093E+01 0.  1.
       -5    1    3    3    0  502  0.99890224238E+01 -0.94738050904E+02 -0.27829165714E+04  0.27845505584E+04  0.46999998093E+01 0. -1.
</event>
<event>
 5   0  0.8476262E-08  0.3883357E+04  0.7818609E-02  0.8028500E-01
        2   -1    0    0  501    0  0.00000000000E+00  0.00000000000E+00  0.23315751621E+04  0.23315751621E+04  0.25500000920E-02 0.  1.
       -2   -1    0    0    0  501  0.00000000000E+00  0.00000000000E+00 -0.16169820706E+04  0.16169820706E+04  0.25500000920E-02 0. -1.
    10030    2    1    2    0    0  0.00000000000E+00  0.00000000000E+00  0.71459309153E+03  0.39485572327E+04  0.38833569155E+04 0.  0.
        2    1    3    3  502    0 -0.43452402188E+03 -0.73738928946E+03  0.21294186540E+04  0.22949897372E+04  0.25500000920E-02 0.  1.
       -2    1    3    3    0  502  0.43452402188E+03  0.73738928946E+03 -0.14148255625E+04  0.16535674955E+04  0.25500000920E-02 0. -1.
</event>
<event>
 5   0  0.2632875E-08  0.3893769E+04  0.7818609E-02  0.8026326E-01
       -1   -1    0    0    0  501  0.00000000000E+00  0.00000000000E+00  0.22363577488E+04  0.22363577488E+04  0.50400001928E-02 0.  1.
        1   -1    0    0  501    0  0.00000000000E+00  0.00000000000E+00 -0.16948808255E+04  0.16948808255E+04  0.50400001928E-02 0. -1.
    10030    2    1    2    0    0  0.00000000000E+00  0.00000000000E+00  0.54147692322E+03  0.39312385743E+04  0.38937693139E+04 0.  0.
        3    1    3    3  502    0 -0.71810487368E+03  0.91375014673E+03  0.18477376953E+04  0.21828303968E+04  0.10100000352E+00 0.  1.
       -3    1    3    3    0  502  0.71810487368E+03 -0.91375014673E+03 -0.13062607721E+04  0.17484081775E+04  0.10100000352E+00 0. -1.
</event>
<event>
 5   0  0.2632875E-08  0.3915910E+04  0.7818609E-02  0.8021728E-01
       -1   -1    0    0    0  501  0.00000000000E+00  0.00000000000E+00  0.13686835024E+04  0.13686835024E+04  0.50400001928E-02 0.  1.
        1   -1    0    0  501    0  0.00000000000E+00  0.00000000000E+00 -0.28009309612E+04  0.28009309612E+04  0.50400001928E-02 0. -1.
    10030    2    1    2    0    0  0.00000000000E+00  0.00000000000E+00 -0.14322474588E+04  0.41696144637E+04  0.39159101103E+04 0.  0.
        5    1    3    3  502    0  0.11728271860E+04 -0.15612529232E+04 -0.86869567597E+03  0.21372151426E+04  0.46999998093E+01 0.  1.
       -5    1    3    3    0  502 -0.11728271860E+04  0.15612529232E+04 -0.56355178283E+03  0.20323993211E+04  0.46999998093E+01 0. -1.
</event>
<event>
 5   0  0.2632875E-08  0.3895165E+04  0.7818609E-02  0.8026036E-01
       -1   -1    0    0    0  501  0.00000000000E+00  0.00000000000E+00  0.14940643661E+04  0.14940643661E+04  0.50400001928E-02 0.  1.
        1   -1    0    0  501    0  0.00000000000E+00  0.00000000000E+00 -0.25387640352E+04  0.25387640352E+04  0.50400001928E-02 0. -1.
    10030    2    1    2    0    0  0.00000000000E+00  0.00000000000E+00 -0.10446996691E+04  0.40328284013E+04  0.38951646327E+04 0.  0.
        2    1    3    3  502    0  0.38971095180E+03  0.47159961104E+03  0.13919965487E+04  0.15205049196E+04  0.25500000920E-02 0.  1.
       -2    1    3    3    0  502 -0.38971095180E+03 -0.47159961104E+03 -0.24366962177E+04  0.25123234817E+04  0.25500000920E-02 0. -1.
</event>
<event>
 5   0  0.8676098E-08  0.3895140E+04  0.7818609E-02  0.8026041E-01
       -2   -1    0    0    0  501  0.00000000000E+00  0.00000000000E+00  0.20040805329E+04  0.20040805329E+04  0.25500000920E-02 0.  1.
        2   -1    0    0  501    0  0.00000000000E+00  0.00000000000E+00 -0.18926529096E+04  0.18926529096E+04  0.25500000920E-02 0. -1.
    10030    2    1    2    0    0  0.00000000000E+00  0.00000000000E+00  0.11142762336E+03  0.38967334425E+04  0.38951399727E+04 0.  0.
        3    1    3    3  502    0 -0.16830937338E+04  0.19039933964E+03 -0.90591426092E+03  0.19208688356E+04  0.10100000352E+00 0. -1.
       -3    1    3    3    0  502  0.16830937338E+04 -0.19039933964E+03  0.10173418843E+04  0.19758646069E+04  0.10100000352E+00 0.  1.
</event>
<event>
 5   0  0.8476262E-08  0.3900162E+04  0.7818609E-02  0.8024995E-01
        2   -1    0    0  501    0  0.00000000000E+00  0.00000000000E+00  0.17417480956E+04  0.17417480956E+04  0.25500000920E-02 0.  1.
       -2   -1    0    0    0  501  0.00000000000E+00  0.00000000000E+00 -0.21833330420E+04  0.21833330420E+04  0.25500000920E-02 0. -1.
    10030    2    1    2    0    0  0.00000000000E+00  0.00000000000E+00 -0.44158494636E+03  0.39250811376E+04  0.39001621341E+04 0.  0.
        2    1    3    3  502    0 -0.62556950337E+03  0.90651373881E+03  0.13987475891E+04  0.17803368165E+04  0.25500000920E-02 0.  1.
       -2    1    3    3    0  502  0.62556950337E+03 -0.90651373881E+03 -0.18403325354E+04  0.21447443212E+04  0.25500000920E-02 0. -1.
</event>
<event>
 5   0  0.2632875E-08  0.3908958E+04  0.7818609E-02  0.8023169E-01
       -1   -1    0    0    0  501  0.00000000000E+00  0.00000000000E+00  0.18721412408E+04  0.18721412408E+04  0.50400001928E-02 0. -1.
        1   -1    0    0  501    0  0.00000000000E+00  0.00000000000E+00 -0.20404383946E+04  0.20404383946E+04  0.50400001928E-02 0.  1.
    10030    2    1    2    0    0  0.00000000000E+00  0.00000000000E+00 -0.16829715373E+03  0.39125796354E+04  0.39089583614E+04 0.  0.
        3    1    3    3  502    0  0.11518971374E+04 -0.82128351304E+03  0.12656611648E+04  0.18982286001E+04  0.10100000352E+00 0. -1.
       -3    1    3    3    0  502 -0.11518971374E+04  0.82128351304E+03 -0.14339583185E+04  0.20143510353E+04  0.10100000352E+00 0.  1.
</event>
<event>
 5   0  0.8676098E-08  0.3935627E+04  0.7818609E-02  0.8017660E-01
       -2   -1    0    0    0  501  0.00000000000E+00  0.00000000000E+00  0.21849646592E+04  0.21849646592E+04  0.25500000920E-02 0.  1.
        2   -1    0    0  501    0  0.00000000000E+00  0.00000000000E+00 -0.17722433041E+04  0.17722433041E+04  0.25500000920E-02 0. -1.
    10030    2    1    2    0    0  0.00000000000E+00  0.00000000000E+00  0.41272135511E+03  0.39572079633E+04  0.39356265001E+04 0.  0.
        3    1    3    3  502    0  0.10898411459E+04  0.11837283048E+04 -0.93268964564E+03  0.18598054759E+04  0.10100000352E+00 0. -1.
       -3    1    3    3    0  502 -0.10898411459E+04 -0.11837283048E+04  0.13454110007E+04  0.20974024874E+04  0.10100000352E+00 0.  1.
</event>
<event>
 5   0  0.2632875E-08  0.3899427E+04  0.7818609E-02  0.8025148E-01
        1   -1    0    0  501    0  0.00000000000E+00  0.00000000000E+00  0.24749754519E+04  0.24749754519E+04  0.50400001928E-02 0. -1.
       -1   -1    0    0    0  501  0.00000000000E+00  0.00000000000E+00 -0.15359277108E+04  0.15359277108E+04  0.50400001928E-02 0.  1.
    10030    2    1    2    0    0  0.00000000000E+00  0.00000000000E+00  0.93904774107E+03  0.40109031627E+04  0.38994273324E+04 0.  0.
        2    1    3    3  502    0 -0.17708792365E+04 -0.64614809114E+03  0.98161467932E+03  0.21253442085E+04  0.25500000920E-02 0. -1.
       -2    1    3    3    0  502  0.17708792365E+04  0.64614809114E+03 -0.42566938249E+02  0.18855589543E+04  0.25500000920E-02 0.  1.
</event>
<event>
 5   0  0.2632875E-08  0.3902793E+04  0.7818609E-02  0.8024449E-01
       -1   -1    0    0    0  501  0.00000000000E+00  0.00000000000E+00  0.23678726796E+04  0.23678726796E+04  0.50400001928E-02 0. -1.
        1   -1    0    0  501    0  0.00000000000E+00  0.00000000000E+00 -0.16081724299E+04  0.16081724299E+04  0.50400001928E-02 0.  1.
    10030    2    1    2    0    0  0.00000000000E+00  0.00000000000E+00  0.75970024976E+03  0.39760451095E+04  0.39027926211E+04 0.  0.
        5    1    3    3  502    0  0.81148987346E+03  0.92065835544E+02  0.21853821715E+04  0.23330043417E+04  0.46999998093E+01 0. -1.
       -5    1    3    3    0  502 -0.81148987346E+03 -0.92065835544E+02 -0.14256819217E+04  0.16430407678E+04  0.46999998093E+01 0.  1.
</event>
<event>
 5   0  0.2632875E-08  0.3957798E+04  0.7818609E-02  0.8013115E-01
       -1   -1    0    0    0  501  0.00000000000E+00  0.00000000000E+00  0.31251604524E+04  0.31251604524E+04  0.50400001928E-02 0.  1.
        1   -1    0    0  501    0  0.00000000000E+00  0.00000000000E+00 -0.12530685575E+04  0.12530685575E+04  0.50400001928E-02 0. -1.
    10030    2    1    2    0    0  0.00000000000E+00  0.00000000000E+00  0.18720918949E+04  0.43782290099E+04  0.39577975189E+04 0.  0.
        5    1    3    3  502    0  0.18432052504E+04  0.62662780231E+03  0.13286405767E+04  0.23569844866E+04  0.46999998093E+01 0.  1.
       -5    1    3    3    0  502 -0.18432052504E+04 -0.62662780231E+03  0.54345131817E+03  0.20212445233E+04  0.46999998093E+01 0. -1.
</event>
<event>
 5   0  0.2632875E-08  0.3909125E+04  0.7818609E-02  0.8023134E-01
        1   -1    0    0  501    0  0.00000000000E+00  0.00000000000E+00  0.18579680467E+04  0.18579680467E+04  0.50400001928E-02 0.  1.
       -1   -1    0    0    0  501  0.00000000000E+00  0.00000000000E+00 -0.20561788159E+04  0.20561788160E+04  0.50400001928E-02 0. -1.
    10030    2    1    2    0    0  0.00000000000E+00  0.00000000000E+00 -0.19821076925E+03  0.39141468627E+04  0.39091249857E+04 0.  0.
        2    1    3    3  502    0  0.45954873696E+03 -0.92907504801E+03  0.15601139433E+04  0.18730512546E+04  0.25500000920E-02 0.  1.
       -2    1    3    3    0  502 -0.45954873696E+03  0.92907504801E+03 -0.17583247125E+04  0.20410956080E+04  0.25500000920E-02 0. -1.
</event>
<event>
 5   0  0.8342802E-08  0.3935992E+04  0.7818609E-02  0.8017585E-01
       -2   -1    0    0    0  501  0.00000000000E+00  0.00000000000E+00  0.17092204943E+04  0.17092204943E+04  0.25500000920E-02 0. -1.
        2   -1    0    0  501    0  0.00000000000E+00  0.00000000000E+00 -0.22659503248E+04  0.22659503248E+04  0.25500000920E-02 0.  1.
    10030    2    1    2    0    0  0.00000000000E+00  0.00000000000E+00 -0.55672983050E+03  0.39751708191E+04  0.39359922430E+04 0.  0.
        4    1    3    3  502    0  0.24183547739E+03  0.14568050441E+04  0.10354457083E+04  0.18035838662E+04  0.12699999809E+01 0. -1.
       -4    1    3    3    0  502 -0.24183547739E+03 -0.14568050441E+04 -0.15921755388E+04  0.21715869529E+04  0.12699999809E+01 0.  1.
</event>
<event>
 5   0  0.2632875E-08  0.3791918E+04  0.7818609E-02  0.8047892E-01
       -1   -1    0    0    0  501  0.00000000000E+00  0.00000000000E+00  0.17277828465E+04  0.17277828465E+04  0.50400001928E-02 0. -1.
        1   -1    0    0  501    0  0.00000000000E+00  0.00000000000E+00 -0.20805044287E+04  0.20805044287E+04  0.50400001928E-02 0.  1.
    10030    2    1    2    0    0  0.00000000000E+00  0.00000000000E+00 -0.35272158222E+03  0.38082872752E+04  0.37919176488E+04 0.  0.
        4    1    3    3  502    0  0.72541700329E+03 -0.11047760336E+04 -0.15416034253E+04  0.20305916987E+04  0.12699999809E+01 0.  1.
       -4    1    3    3    0  502 -0.72541700329E+03  0.11047760336E+04  0.11888818431E+04  0.17776955765E+04  0.12699999809E+01 0. -1.
</event>
<event>
 5   0  0.2632875E-08  0.3944278E+04  0.7818609E-02  0.8015883E-01
        1   -1    0    0  501    0  0.00000000000E+00  0.00000000000E+00  0.16611829219E+04  0.16611829219E+04  0.50400001928E-02 0.  1.
       -1   -1    0    0    0  501  0.00000000000E+00  0.00000000000E+00 -0.23413023124E+04  0.23413023124E+04  0.50400001928E-02 0. -1.
    10030    2    1    2    0    0  0.00000000000E+00  0.00000000000E+00 -0.68011939048E+03  0.40024852344E+04  0.39442775848E+04 0.  0.
        5    1    3    3  502    0 -0.14865064397E+04  0.16965461253E+03  0.96374583130E+03  0.17796944120E+04  0.46999998093E+01 0.  1.
       -5    1    3    3    0  502  0.14865064397E+04 -0.16965461253E+03 -0.16438652218E+04  0.22227908224E+04  0.46999998093E+01 0. -1.
</event>
<event>
 5   0  0.2632875E-08  0.3886692E+04  0.7818609E-02  0.8027803E-01
       -1   -1    0    0    0  501  0.00000000000E+00  0.00000000000E+00  0.25536404797E+04  0.25536404797E+04  0.50400001928E-02 0. -1.
        1   -1    0    0  501    0  0.00000000000E+00  0.00000000000E+00 -0.14789054372E+04  0.14789054372E+04  0.50400001928E-02 0.  1.
    10030    2    1    2    0    0  0.00000000000E+00  0.00000000000E+00  0.10747350425E+04  0.40325459169E+04  0.38866915442E+04 0.  0.
        2    1    3    3  502    0  0.11886171470E+03  0.19235086708E+04  0.27782183287E+03  0.19471000706E+04  0.25500000920E-02 0.  1.
       -2    1    3    3    0  502 -0.11886171470E+03 -0.19235086708E+04  0.79691320967E+03  0.20854458463E+04  0.25500000920E-02 0. -1.
</event>
<event>
 5   0  0.8551754E-08  0.3896915E+04  0.7818609E-02  0.8025671E-01
       -2   -1    0    0    0  501  0.00000000000E+00  0.00000000000E+00  0.13563295460E+04  0.13563295461E+04  0.25500000920E-02 0. -1.
        2   -1    0    0  501    0  0.00000000000E+00  0.00000000000E+00 -0.27990891527E+04  0.27990891527E+04  0.25500000920E-02 0.  1.
    10030    2    1    2    0    0  0.00000000000E+00  0.00000000000E+00 -0.14427596067E+04  0.41554186988E+04  0.38969153544E+04 0.  0.
        1    1    3    3  502    0  0.61779249736E+03  0.14914914959E+02 -0.26918213827E+04  0.27618458285E+04  0.50400001928E-02 0.  1.
       -1    1    3    3    0  502 -0.61779249736E+03 -0.14914914959E+02  0.12490617760E+04  0.13935728702E+04  0.50400001928E-02 0. -1.
</event>
<event>
 5   0  0.8676098E-08  0.3883849E+04  0.7818609E-02  0.8028397E-01
       -2   -1    0    0    0  501  0.00000000000E+00  0.00000000000E+00  0.14889877796E+04  0.14889877796E+04  0.25500000920E-02 0. -1.
        2   -1    0    0  501    0  0.00000000000E+00  0.00000000000E+00 -0.25326399458E+04  0.25326399458E+04  0.25500000920E-02 0.  1.
    10030    2    1    2    0    0  0.00000000000E+00  0.00000000000E+00 -0.10436521662E+04  0.40216277255E+04  0.38838485705E+04 0.  0.
        3    1    3    3  502    0  0.55566856890E+02  0.14776266994E+04  0.78163965501E+03  0.16725516132E+04  0.10100000352E+00 0. -1.
       -3    1    3    3    0  502 -0.55566856890E+02 -0.14776266994E+04 -0.18252918212E+04  0.23490761123E+04  0.10100000352E+00 0.  1.
</event>
<event>
 5   0  0.8676098E-08  0.3857647E+04  0.7818609E-02  0.8033896E-01
        2   -1    0    0  501    0  0.00000000000E+00  0.00000000000E+00  0.17790147571E+04  0.17790147571E+04  0.25500000920E-02 0. -1.
       -2   -1    0    0    0  501  0.00000000000E+00  0.00000000000E+00 -0.20912473273E+04  0.20912473273E+04  0.25500000920E-02 0.  1.
    10030    2    1    2    0    0  0.00000000000E+00  0.00000000000E+00 -0.31223257023E+03  0.38702620844E+04  0.38576468765E+04 0.  0.
        3    1    3    3  502    0 -0.66207594085E+03  0.67641624292E+03  0.15299974922E+04  0.17991041719E+04  0.10100000352E+00 0. -1.
       -3    1    3    3    0  502  0.66207594085E+03 -0.67641624292E+03 -0.18422300624E+04  0.20711579124E+04  0.10100000352E+00 0.  1.
</event>
<event>
 5   0  0.2632875E-08  0.3906321E+04  0.7818609E-02  0.8023716E-01
        1   -1    0    0  501    0  0.00000000000E+00  0.00000000000E+00  0.12714894724E+04  0.12714894724E+04  0.50400001928E-02 0. -1.
       -1   -1    0    0    0  501  0.00000000000E+00  0.00000000000E+00 -0.30002884666E+04  0.30002884666E+04  0.50400001928E-02 0.  1.
    10030    2    1    2    0    0  0.00000000000E+00  0.00000000000E+00 -0.17287989943E+04  0.42717779390E+04  0.39063206214E+04 0.  0.
        4    1    3    3  502    0 -0.40114076154E+03  0.13006288704E+04 -0.23962688856E+04  0.27558402628E+04  0.12699999809E+01 0.  1.
       -4    1    3    3    0  502  0.40114076154E+03 -0.13006288704E+04  0.66746989137E+03  0.15159376762E+04  0.12699999809E+01 0. -1.
</event>
<event>
 5   0  0.8551754E-08  0.3886959E+04  0.7818609E-02  0.8027747E-01
       -2   -1    0    0    0  501  0.00000000000E+00  0.00000000000E+00  0.20012205082E+04  0.20012205082E+04  0.25500000920E-02 0.  1.
        2   -1    0    0  501    0  0.00000000000E+00  0.00000000000E+00 -0.18874049701E+04  0.18874049701E+04  0.25500000920E-02 0. -1.
    10030    2    1    2    0    0  0.00000000000E+00  0.00000000000E+00  0.11381553805E+03  0.38886254783E+04  0.38869594973E+04 0.  0.
        1    1    3    3  502    0  0.63916710561E+03  0.69029811920E+03  0.17582446279E+04  0.19941088872E+04  0.50400001928E-02 0.  1.
       -1    1    3    3    0  502 -0.63916710561E+03 -0.69029811920E+03 -0.16444290899E+04  0.18945165911E+04  0.50400001928E-02 0. -1.
</event>
<event>
 5   0  0.2632875E-08  0.3890082E+04  0.7818609E-02  0.8027095E-01
        1   -1    0    0  501    0  0.00000000000E+00  0.00000000000E+00  0.34424235548E+04  0.34424235548E+04  0.50400001928E-02 0. -1.
       -1   -1    0    0    0  501  0.00000000000E+00  0.00000000000E+00 -0.10989885682E+04  0.10989885682E+04  0.50400001928E-02 0.  1.
    10030    2    1    2    0    0  0.00000000000E+00  0.00000000000E+00  0.23434349866E+04  0.45414121230E+04  0.38900818159E+04 0.  0.
        2    1    3    3  502    0 -0.16661983858E+04  0.16635607574E+03  0.16434329252E+02  0.16745630750E+04  0.25500000920E-02 0.  1.
       -2    1    3    3    0  502  0.16661983858E+04 -0.16635607574E+03  0.23270006574E+04  0.28668490480E+04  0.25500000920E-02 0. -1.
</event>
<event>
 5   0  0.2632875E-08  0.3898085E+04  0.7818609E-02  0.8025428E-01
       -1   -1    0    0    0  501  0.00000000000E+00  0.00000000000E+00  0.17466883411E+04  0.17466883411E+04  0.50400001928E-02 0. -1.
        1   -1    0    0  501    0  0.00000000000E+00  0.00000000000E+00 -0.21748390906E+04  0.21748390906E+04  0.50400001928E-02 0.  1.
    10030    2    1    2    0    0  0.00000000000E+00  0.00000000000E+00 -0.42815074948E+03  0.39215274317E+04  0.38980847007E+04 0.  0.
        3    1    3    3  502    0  0.12782049153E+04 -0.12131569478E+04 -0.10516739338E+04  0.20522123815E+04  0.10100000352E+00 0.  1.
       -3    1    3    3    0  502 -0.12782049153E+04  0.12131569478E+04  0.62352318433E+03  0.18693150503E+04  0.10100000352E+00 0. -1.
</event>
<event>
 5   0  0.2632875E-08  0.3881304E+04  0.7818609E-02  0.8028929E-01
        3   -1    0    0  501    0  0.00000000000E+00  0.00000000000E+00  0.27819732210E+04  0.27819732228E+04  0.10100000352E+00 0.  1.
       -3   -1    0    0    0  501  0.00000000000E+00  0.00000000000E+00 -0.13537623583E+04  0.13537623621E+04  0.10100000352E+00 0. -1.
    10030    2    1    2    0    0  0.00000000000E+00  0.00000000000E+00  0.14282108627E+04  0.41357355849E+04  0.38813042344E+04 0.  0.
        4    1    3    3  502    0  0.16124918631E+04 -0.10597120835E+04  0.93508715593E+03  0.21441803354E+04  0.12699999809E+01 0.  1.
       -4    1    3    3    0  502 -0.16124918631E+04  0.10597120835E+04  0.49312370674E+03  0.19915552495E+04  0.12699999809E+01 0. -1.
</event>
<event>
 5   0  0.8476262E-08  0.3904504E+04  0.7818609E-02  0.8024093E-01
       -2   -1    0    0    0  501  0.00000000000E+00  0.00000000000E+00  0.14924502917E+04  0.14924502917E+04  0.25500000920E-02 0.  1.
        2   -1    0    0  501    0  0.00000000000E+00  0.00000000000E+00 -0.25537119535E+04  0.25537119535E+04  0.25500000920E-02 0. -1.
    10030    2    1    2    0    0  0.00000000000E+00  0.00000000000E+00 -0.10612616618E+04  0.40461622452E+04  0.39045041427E+04 0.  0.
        2    1    3    3  502    0  0.16330594884E+04 -0.81244329215E+03  0.19056450999E+03  0.18339199077E+04  0.25500000920E-02 0.  1.
       -2    1    3    3    0  502 -0.16330594884E+04  0.81244329215E+03 -0.12518261718E+04  0.22122423375E+04  0.25500000920E-02 0. -1.
</event>
<event>
 5   0  0.8551754E-08  0.3895978E+04  0.7818609E-02  0.8025866E-01
        2   -1    0    0  501    0  0.00000000000E+00  0.00000000000E+00  0.22943922174E+04  0.22943922174E+04  0.25500000920E-02 0.  1.
       -2   -1    0    0    0  501  0.00000000000E+00  0.00000000000E+00 -0.16538853740E+04  0.16538853740E+04  0.25500000920E-02 0. -1.
    10030    2    1    2    0    0  0.00000000000E+00  0.00000000000E+00  0.64050684335E+03  0.39482775914E+04  0.38959783010E+04 0.  0.
        1    1    3    3  502    0 -0.54987535204E+03 -0.16788955186E+04 -0.51150073950E+03  0.18392080012E+04  0.50400001928E-02 0. -1.
       -1    1    3    3    0  502  0.54987535204E+03  0.16788955186E+04  0.11520075829E+04  0.21090695902E+04  0.50400001928E-02 0.  1.
</event>
<event>
 5   0  0.8438211E-08  0.3900748E+04  0.7818609E-02  0.8024874E-01
        2   -1    0    0  501    0  0.00000000000E+00  0.00000000000E+00  0.14876108957E+04  0.14876108957E+04  0.25500000920E-02 0. -1.
       -2   -1    0    0    0  501  0.00000000000E+00  0.00000000000E+00 -0.25570930011E+04  0.25570930011E+04  0.25500000920E-02 0.  1.
    10030    2    1    2    0    0  0.00000000000E+00  0.00000000000E+00 -0.10694821054E+04  0.40447038968E+04  0.39007483435E+04 0.  0.
        5    1    3    3  502    0  0.16717189366E+03  0.69299310640E+03  0.13476767673E+04  0.15246116380E+04  0.46999998093E+01 0. -1.
       -5    1    3    3    0  502 -0.16717189366E+03 -0.69299310640E+03 -0.24171588726E+04  0.25200922588E+04  0.46999998093E+01 0.  1.
</event>
<event>
 5   0  0.2632875E-08  0.3898883E+04  0.7818609E-02  0.8025262E-01
        1   -1    0    0  501    0  0.00000000000E+00  0.00000000000E+00  0.17626240578E+04  0.17626240578E+04  0.50400001928E-02 0. -1.
       -1   -1    0    0    0  501  0.00000000000E+00  0.00000000000E+00 -0.21560588474E+04  0.21560588474E+04  0.50400001928E-02 0.  1.
    10030    2    1    2    0    0  0.00000000000E+00  0.00000000000E+00 -0.39343478955E+03  0.39186829052E+04  0.38988825037E+04 0.  0.
        2    1    3    3  502    0 -0.75237220935E+03 -0.59629406127E+03 -0.19020043625E+04  0.21305518402E+04  0.25500000920E-02 0.  1.
       -2    1    3    3    0  502  0.75237220935E+03  0.59629406127E+03  0.15085695730E+04  0.17881310649E+04  0.25500000920E-02 0. -1.
</event>
<event>
 5   0  0.8342802E-08  0.3883982E+04  0.7818609E-02  0.8028369E-01
        2   -1    0    0  501    0  0.00000000000E+00  0.00000000000E+00  0.22844902808E+04  0.22844902808E+04  0.25500000920E-02 0. -1.
       -2   -1    0    0    0  501  0.00000000000E+00  0.00000000000E+00 -0.16508402760E+04  0.16508402760E+04  0.25500000920E-02 0.  1.
    10030    2    1    2    0    0  0.00000000000E+00  0.00000000000E+00  0.63365000480E+03  0.39353305568E+04  0.38839817536E+04 0.  0.
        4    1    3    3  502    0 -0.17596024199E+04 -0.35381628448E+03  0.10682087814E+04  0.20886498636E+04  0.12699999809E+01 0. -1.
       -4    1    3    3    0  502  0.17596024199E+04  0.35381628448E+03 -0.43455877659E+03  0.18466806932E+04  0.12699999809E+01 0.  1.
</event>
<event>
 5   0  0.8551754E-08  0.3917975E+04  0.7818609E-02  0.8021301E-01
        2   -1    0    0  501    0  0.00000000000E+00  0.00000000000E+00  0.17354823054E+04  0.17354823054E+04  0.25500000920E-02 0.  1.
       -2   -1    0    0    0  501  0.00000000000E+00  0.00000000000E+00 -0.22112771184E+04  0.22112771184E+04  0.25500000920E-02 0. -1.
    10030    2    1    2    0    0  0.00000000000E+00  0.00000000000E+00 -0.47579481298E+03  0.39467594238E+04  0.39179751461E+04 0.  0.
        1    1    3    3  502    0 -0.52827297445E+03  0.17455650581E+04 -0.95838809503E+03  0.20602372311E+04  0.50400001928E-02 0. -1.
       -1    1    3    3    0  502  0.52827297445E+03 -0.17455650581E+04  0.48259328206E+03  0.18865221927E+04  0.50400001928E-02 0.  1.
</event>
<event>
 5   0  0.2632875E-08  0.3917078E+04  0.7818609E-02  0.8021487E-01
       -1   -1    0    0    0  501  0.00000000000E+00  0.00000000000E+00  0.17796321376E+04  0.17796321376E+04  0.50400001928E-02 0.  1.
        1   -1    0    0  501    0  0.00000000000E+00  0.00000000000E+00 -0.21554315376E+04  0.21554315376E+04  0.50400001928E-02 0. -1.
    10030    2    1    2    0    0  0.00000000000E+00  0.00000000000E+00 -0.37579940001E+03  0.39350636752E+04  0.39170781124E+04 0.  0.
        1    1    3    3  502    0 -0.17077322685E+04 -0.88647054579E+02  0.77129716968E+03  0.18759283369E+04  0.50400001928E-02 0.  1.
       -1    1    3    3    0  502  0.17077322685E+04  0.88647054579E+02 -0.11470965697E+04  0.20591353383E+04  0.50400001928E-02 0. -1.
</event>
<event>
 5   0  0.2632875E-08  0.3932501E+04  0.7818609E-02  0.8018303E-01
        1   -1    0    0  501    0  0.00000000000E+00  0.00000000000E+00  0.19683827879E+04  0.19683827880E+04  0.50400001928E-02 0. -1.
       -1   -1    0    0    0  501  0.00000000000E+00  0.00000000000E+00 -0.19641202528E+04  0.19641202528E+04  0.50400001928E-02 0.  1.
    10030    2    1    2    0    0  0.00000000000E+00  0.00000000000E+00  0.42625351868E+01  0.39325030407E+04  0.39325007306E+04 0.  0.
        5    1    3    3  502    0 -0.14210793740E+04  0.12786541131E+04  0.46223530975E+03  0.19667502383E+04  0.46999998093E+01 0. -1.
       -5    1    3    3    0  502  0.14210793740E+04 -0.12786541131E+04 -0.45797277456E+03  0.19657528025E+04  0.46999998093E+01 0.  1.
</event>
<event>
 5   0  0.8438211E-08  0.3904112E+04  0.7818609E-02  0.8024174E-01
        2   -1    0    0  501    0  0.00000000000E+00  0.00000000000E+00  0.22146010782E+04  0.22146010782E+04  0.25500000920E-02 0. -1.
       -2   -1    0    0    0  501  0.00000000000E+00  0.00000000000E+00 -0.17206363002E+04  0.17206363002E+04  0.25500000920E-02 0.  1.
    10030    2    1    2    0    0  0.00000000000E+00  0.00000000000E+00  0.49396477800E+03  0.39352373784E+04  0.39041121939E+04 0.  0.
        5    1    3    3  502    0  0.90429788152E+03  0.14835730064E+04 -0.64991902429E+03  0.18550364826E+04  0.46999998093E+01 0.  1.
       -5    1    3    3    0  502 -0.90429788152E+03 -0.14835730064E+04  0.11438838023E+04  0.20802008958E+04  0.46999998093E+01 0. -1.
</event>
<event>
 5   0  0.8438211E-08  0.3882918E+04  0.7818609E-02  0.8028591E-01
       -2   -1    0    0    0  501  0.00000000000E+00  0.00000000000E+00  0.24425556565E+04  0.24425556565E+04  0.25500000920E-02 0. -1.
        2   -1    0    0  501    0  0.00000000000E+00  0.00000000000E+00 -0.15431636026E+04  0.15431636026E+04  0.25500000920E-02 0.  1.
    10030    2    1    2    0    0  0.00000000000E+00  0.00000000000E+00  0.89939205393E+03  0.39857192591E+04  0.38829179679E+04 0.  0.
        5    1    3    3  502    0 -0.67832356753E+03  0.15108906929E+04 -0.59020364313E+03  0.17582024850E+04  0.46999998093E+01 0.  1.
       -5    1    3    3    0  502  0.67832356753E+03 -0.15108906929E+04  0.14895956971E+04  0.22275167741E+04  0.46999998093E+01 0. -1.
</event>
<event>
 5   0  0.8438211E-08  0.3879043E+04  0.7818609E-02  0.8029402E-01
        2   -1    0    0  501    0  0.00000000000E+00  0.00000000000E+00  0.15025348274E+04  0.15025348274E+04  0.25500000920E-02 0. -1.
       -2   -1    0    0    0  501  0.00000000000E+00  0.00000000000E+00 -0.25035979010E+04  0.25035979010E+04  0.25500000920E-02 0.  1.
    10030    2    1    2    0    0  0.00000000000E+00  0.00000000000E+00 -0.10010630735E+04  0.40061327284E+04  0.38790426861E+04 0.  0.
        5    1    3    3  502    0 -0.12855617496E+04 -0.58593283525E+03 -0.18728771393E+04  0.23459917239E+04  0.46999998093E+01 0.  1.
       -5    1    3    3    0  502  0.12855617496E+04  0.58593283525E+03  0.87181406582E+03  0.16601410045E+04  0.46999998093E+01 0. -1.
</event>
<event>
 5   0  0.8342802E-08  0.3889027E+04  0.7818609E-02  0.8027315E-01
       -2   -1    0    0    0  501  0.00000000000E+00  0.00000000000E+00  0.12070911191E+04  0.12070911191E+04  0.25500000920E-02 0. -1.
        2   -1    0    0  501    0  0.00000000000E+00  0.00000000000E+00 -0.31324338448E+04  0.31324338448E+04  0.25500000920E-02 0.  1.
    10030    2    1    2    0    0  0.00000000000E+00  0.00000000000E+00 -0.19253427257E+04  0.43395249640E+04  0.38890271665E+04 0.  0.
        4    1    3    3  502    0  0.17540466088E+04  0.48488612842E+03 -0.19823067383E+03  0.18305985569E+04  0.12699999809E+01 0.  1.
       -4    1    3    3    0  502 -0.17540466088E+04 -0.48488612842E+03 -0.17271120518E+04  0.25089264071E+04  0.12699999809E+01 0. -1.
</event>
<event>
 5   0  0.8342802E-08  0.3902928E+04  0.7818609E-02  0.8024421E-01
       -2   -1    0    0    0  501  0.00000000000E+00  0.00000000000E+00  0.15353368085E+04  0.15353368085E+04  0.25500000920E-02 0.  1.
        2   -1    0    0  501    0  0.00000000000E+00  0.00000000000E+00 -0.24803751174E+04  0.24803751174E+04  0.25500000920E-02 0. -1.
    10030    2    1    2    0    0  0.00000000000E+00  0.00000000000E+00 -0.94503830893E+03  0.40157119259E+04  0.39029277301E+04 0.  0.
        4    1    3    3  502    0  0.50477100756E+03  0.17867474609E+04 -0.10906709993E+04  0.21533288417E+04  0.12699999809E+01 0. -1.
       -4    1    3    3    0  502 -0.50477100756E+03 -0.17867474609E+04  0.14563269032E+03  0.18623830842E+04  0.12699999809E+01 0.  1.
</event>
<event>
 5   0  0.2632875E-08  0.3896974E+04  0.7818609E-02  0.8025659E-01
       -1   -1    0    0    0  501  0.00000000000E+00  0.00000000000E+00  0.14835100766E+04  0.14835100766E+04  0.50400001928E-02 0. -1.
        1   -1    0    0  501    0  0.00000000000E+00  0.00000000000E+00 -0.25592011614E+04  0.25592011615E+04  0.50400001928E-02 0.  1.
    10030    2    1    2    0    0  0.00000000000E+00  0.00000000000E+00 -0.10756910849E+04  0.40427112380E+04  0.38969735493E+04 0.  0.
        5    1    3    3  502    0  0.67650311506E+02  0.18318203719E+04  0.14749375874E+03  0.18389994394E+04  0.46999998093E+01 0. -1.
       -5    1    3    3    0  502 -0.67650311506E+02 -0.18318203719E+04 -0.12231848436E+04  0.22037117986E+04  0.46999998093E+01 0.  1.
</event>
<event>
 5   0  0.8676098E-08  0.3863981E+04  0.7818609E-02  0.8032562E-01
       -2   -1    0    0    0  501  0.00000000000E+00  0.00000000000E+00  0.15828058245E+04  0.15828058245E+04  0.25500000920E-02 0. -1.
        2   -1    0    0  501    0  0.00000000000E+00  0.00000000000E+00 -0.23582097891E+04  0.23582097891E+04  0.25500000920E-02 0.  1.
    10030    2    1    2    0    0  0.00000000000E+00  0.00000000000E+00 -0.77540396464E+03  0.39410156136E+04  0.38639814645E+04 0.  0.
        3    1    3    3  502    0  0.12740408984E+01  0.18787394971E+04  0.71750199750E+02  0.18801095241E+04  0.10100000352E+00 0. -1.
       -3    1    3    3    0  502 -0.12740408984E+01 -0.18787394971E+04 -0.84715416439E+03  0.20609060895E+04  0.10100000352E+00 0.  1.
</event>
<event>
 5   0  0.8476262E-08  0.3911246E+04  0.7818609E-02  0.8022694E-01
        2   -1    0    0  501    0  0.00000000000E+00  0.00000000000E+00  0.18411844577E+04  0.18411844577E+04  0.25500000920E-02 0.  1.
       -2   -1    0    0    0  501  0.00000000000E+00  0.00000000000E+00 -0.20771746100E+04  0.20771746100E+04  0.25500000920E-02 0. -1.
    10030    2    1    2    0    0  0.00000000000E+00  0.00000000000E+00 -0.23599015232E+03  0.39183590678E+04  0.39112461482E+04 0.  0.
        2    1    3    3  502    0  0.23162282230E+03 -0.18957203124E+04 -0.53954168571E+03  0.19845679291E+04  0.25500000920E-02 0.  1.
       -2    1    3    3    0  502 -0.23162282230E+03  0.18957203124E+04  0.30355153339E+03  0.19337911387E+04  0.25500000920E-02 0. -1.
</event>
<event>
 5   0  0.2632875E-08  0.3901554E+04  0.7818609E-02  0.8024706E-01
        1   -1    0    0  501    0  0.00000000000E+00  0.00000000000E+00  0.16187173734E+04  0.16187173735E+04  0.50400001928E-02 0.  1.
       -1   -1    0    0    0  501  0.00000000000E+00  0.00000000000E+00 -0.23509543769E+04  0.23509543769E+04  0.50400001928E-02 0. -1.
    10030    2    1    2    0    0  0.00000000000E+00  0.00000000000E+00 -0.73223700346E+03  0.39696717504E+04  0.39015538925E+04 0.  0.
        3    1    3    3  502    0  0.13636050316E+04 -0.10536657633E+04 -0.12963569140E+04  0.21564256263E+04  0.10100000352E+00 0. -1.
       -3    1    3    3    0  502 -0.13636050316E+04  0.10536657633E+04  0.56411991057E+03  0.18132461241E+04  0.10100000352E+00 0.  1.
</event>
<event>
 5   0  0.8438211E-08  0.3879274E+04  0.7818609E-02  0.8029354E-01
        2   -1    0    0  501    0  0.00000000000E+00  0.00000000000E+00  0.30757823472E+04  0.30757823472E+04  0.25500000920E-02 0.  1.
       -2   -1    0    0    0  501  0.00000000000E+00  0.00000000000E+00 -0.12231660624E+04  0.12231660625E+04  0.25500000920E-02 0. -1.
    10030    2    1    2    0    0  0.00000000000E+00  0.00000000000E+00  0.18526162847E+04  0.42989484096E+04  0.38792744593E+04 0.  0.
        5    1    3    3  502    0 -0.16918063888E+02 -0.94154813525E+02  0.30731601919E+04  0.30746523388E+04  0.46999998093E+01 0.  1.
       -5    1    3    3    0  502  0.16918063888E+02  0.94154813525E+02 -0.12205439071E+04  0.12242960708E+04  0.46999998093E+01 0. -1.
</event>
<event>
 5   0  0.8476262E-08  0.3917494E+04  0.7818609E-02  0.8021401E-01
        2   -1    0    0  501    0  0.00000000000E+00  0.00000000000E+00  0.15128591650E+04  0.15128591651E+04  0.25500000920E-02 0. -1.
       -2   -1    0    0    0  501  0.00000000000E+00  0.00000000000E+00 -0.25360522126E+04  0.25360522126E+04  0.25500000920E-02 0.  1.
    10030    2    1    2    0    0  0.00000000000E+00  0.00000000000E+00 -0.10231930476E+04  0.40489113777E+04  0.39174940117E+04 0.  0.
        2    1    3    3  502    0 -0.71700279118E+03 -0.66925917453E+03  0.12407716719E+04  0.15816179017E+04  0.25500000920E-02 0. -1.
       -2    1    3    3    0  502  0.71700279118E+03  0.66925917453E+03 -0.22639647195E+04  0.24672934759E+04  0.25500000920E-02 0.  1.
</event>
<event>
 5   0  0.2632875E-08  0.3893941E+04  0.7818609E-02  0.8026291E-01
        1   -1    0    0  501    0  0.00000000000E+00  0.00000000000E+00  0.13251836125E+04  0.13251836125E+04  0.50400001928E-02 0. -1.
       -1   -1    0    0    0  501  0.00000000000E+00  0.00000000000E+00 -0.28605050334E+04  0.28605050335E+04  0.50400001928E-02 0.  1.
    10030    2    1    2    0    0  0.00000000000E+00  0.00000000000E+00 -0.15353214210E+04  0.41856886459E+04  0.38939411366E+04 0.  0.
        1    1    3    3  502    0  0.65897408836E+03  0.49602069468E+03  0.11281127036E+04  0.13974697316E+04  0.50400001928E-02 0. -1.
       -1    1    3    3    0  502 -0.65897408836E+03 -0.49602069468E+03 -0.26634341245E+04  0.27882189144E+04  0.50400001928E-02 0.  1.
</event>
<event>
 5   0  0.8438211E-08  0.3901660E+04  0.7818609E-02  0.8024684E-01
       -2   -1    0    0    0  501  0.00000000000E+00  0.00000000000E+00  0.18770257724E+04  0.18770257724E+04  0.25500000920E-02 0. -1.
        2   -1    0    0  501    0  0.00000000000E+00  0.00000000000E+00 -0.20275362415E+04  0.20275362415E+04  0.25500000920E-02 0.  1.
    10030    2    1    2    0    0  0.00000000000E+00  0.00000000000E+00 -0.15051046908E+03  0.39045620140E+04  0.39016600467E+04 0.  0.
        5    1    3    3  502    0  0.92316628657E+03  0.16430708031E+04 -0.57941365428E+03  0.19717149717E+04  0.46999998093E+01 0.  1.
       -5    1    3    3    0  502 -0.92316628657E+03 -0.16430708031E+04  0.42890318520E+03  0.19328470423E+04  0.46999998093E+01 0. -1.
</event>
<event>
 5   0  0.2632875E-08  0.3842749E+04  0.7818609E-02  0.8037043E-01
        1   -1    0    0  501    0  0.00000000000E+00  0.00000000000E+00  0.17110267220E+04  0.17110267220E+04  0.50400001928E-02 0. -1.
       -1   -1    0    0    0  501  0.00000000000E+00  0.00000000000E+00 -0.21575815013E+04  0.21575815013E+04  0.50400001928E-02 0.  1.
    10030    2    1    2    0    0  0.00000000000E+00  0.00000000000E+00 -0.44655477931E+03  0.38686082233E+04  0.38427488097E+04 0.  0.
        2    1    3    3  502    0  0.11999020082E+04 -0.14648793802E+04  0.10455670386E+03  0.18964621093E+04  0.25500000920E-02 0.  1.
       -2    1    3    3    0  502 -0.11999020082E+04  0.14648793802E+04 -0.55111148318E+03  0.19721461139E+04  0.25500000920E-02 0. -1.
</event>
<event>
 5   0  0.8676098E-08  0.3892548E+04  0.7818609E-02  0.8026581E-01
       -2   -1    0    0    0  501  0.00000000000E+00  0.00000000000E+00  0.13007285813E+04  0.13007285813E+04  0.25500000920E-02 0. -1.
        2   -1    0    0  501    0  0.00000000000E+00  0.00000000000E+00 -0.29122012647E+04  0.29122012647E+04  0.25500000920E-02 0.  1.
    10030    2    1    2    0    0  0.00000000000E+00  0.00000000000E+00 -0.16114726834E+04  0.42129298460E+04  0.38925484812E+04 0.  0.
        3    1    3    3  502    0 -0.36408839970E+03 -0.58698760159E+03 -0.27750784615E+04  0.28597509131E+04  0.10100000352E+00 0.  1.
       -3    1    3    3    0  502  0.36408839970E+03  0.58698760159E+03  0.11636057782E+04  0.13531789329E+04  0.10100000352E+00 0. -1.
</event>
<event>
 5   0  0.2632875E-08  0.4103887E+04  0.7818609E-02  0.7983911E-01
        1   -1    0    0  501    0  0.00000000000E+00  0.00000000000E+00  0.27212399427E+04  0.27212399427E+04  0.50400001928E-02 0.  1.
       -1   -1    0    0    0  501  0.00000000000E+00  0.00000000000E+00 -0.15472622184E+04  0.15472622184E+04  0.50400001928E-02 0. -1.
    10030    2    1    2    0    0  0.00000000000E+00  0.00000000000E+00  0.11739777243E+04  0.42685021612E+04  0.41038868165E+04 0.  0.
        2    1    3    3  502    0  0.49356749259E+03  0.19216378740E+04  0.11316052440E+04  0.22840384009E+04  0.25500000920E-02 0.  1.
       -2    1    3    3    0  502 -0.49356749259E+03 -0.19216378740E+04  0.42372480307E+02  0.19844637603E+04  0.25500000920E-02 0. -1.
</event>
<event>
 5   0  0.2632875E-08  0.3898850E+04  0.7818609E-02  0.8025268E-01
        1   -1    0    0  501    0  0.00000000000E+00  0.00000000000E+00  0.22770505545E+04  0.22770505545E+04  0.50400001928E-02 0. -1.
       -1   -1    0    0    0  501  0.00000000000E+00  0.00000000000E+00 -0.16689388613E+04  0.16689388613E+04  0.50400001928E-02 0.  1.
    10030    2    1    2    0    0  0.00000000000E+00  0.00000000000E+00  0.60811169319E+03  0.39459894158E+04  0.38988501687E+04 0.  0.
        5    1    3    3  502    0 -0.11340209718E+04  0.11237416864E+04  0.14362577691E+04  0.21474769874E+04  0.46999998093E+01 0. -1.
       -5    1    3    3    0  502  0.11340209718E+04 -0.11237416864E+04 -0.82814607591E+03  0.17985124284E+04  0.46999998093E+01 0.  1.
</event>
<event>
 5   0  0.8476262E-08  0.3921796E+04  0.7818609E-02  0.8020511E-01
       -2   -1    0    0    0  501  0.00000000000E+00  0.00000000000E+00  0.15556800853E+04  0.15556800853E+04  0.25500000920E-02 0.  1.
        2   -1    0    0  501    0  0.00000000000E+00  0.00000000000E+00 -0.24716649820E+04  0.24716649820E+04  0.25500000920E-02 0. -1.
    10030    2    1    2    0    0  0.00000000000E+00  0.00000000000E+00 -0.91598489670E+03  0.40273450673E+04  0.39217955021E+04 0.  0.
        2    1    3    3  502    0 -0.17078171125E+03  0.16990224790E+04 -0.14479266022E+04  0.22388245180E+04  0.25500000920E-02 0. -1.
       -2    1    3    3    0  502  0.17078171125E+03 -0.16990224790E+04  0.53194170547E+03  0.17885205493E+04  0.25500000920E-02 0.  1.
</event>
<event>
 5   0  0.8551754E-08  0.3984116E+04  0.7818609E-02  0.8007759E-01
       -2   -1    0    0    0  501  0.00000000000E+00  0.00000000000E+00  0.16537184837E+04  0.16537184837E+04  0.25500000920E-02 0. -1.
        2   -1    0    0  501    0  0.00000000000E+00  0.00000000000E+00 -0.23996194872E+04  0.23996194872E+04  0.25500000920E-02 0.  1.
    10030    2    1    2    0    0  0.00000000000E+00  0.00000000000E+00 -0.74590100352E+03  0.40533379708E+04  0.39841160122E+04 0.  0.
        1    1    3    3  502    0 -0.49120170626E+03 -0.15092502992E+04  0.85178394995E+03  0.18012916142E+04  0.50400001928E-02 0. -1.
       -1    1    3    3    0  502  0.49120170626E+03  0.15092502992E+04 -0.15976849535E+04  0.22520463566E+04  0.50400001928E-02 0.  1.
</event>
<event>
 5   0  0.2632875E-08  0.3917227E+04  0.7818609E-02  0.8021456E-01
        1   -1    0    0  501    0  0.00000000000E+00  0.00000000000E+00  0.19599940019E+04  0.19599940019E+04  0.50400001928E-02 0. -1.
       -1   -1    0    0    0  501  0.00000000000E+00  0.00000000000E+00 -0.19572343287E+04  0.19572343287E+04  0.50400001928E-02 0.  1.
    10030    2    1    2    0    0  0.00000000000E+00  0.00000000000E+00  0.27596731592E+01  0.39172283306E+04  0.39172273585E+04 0.  0.
        4    1    3    3  502    0 -0.12925745507E+04  0.14414878820E+04  0.29723401038E+03  0.19588225935E+04  0.12699999809E+01 0.  1.
       -4    1    3    3    0  502  0.12925745507E+04 -0.14414878820E+04 -0.29447433722E+03  0.19584057371E+04  0.12699999809E+01 0. -1.
</event>
<event>
 5   0  0.2632875E-08  0.3895998E+04  0.7818609E-02  0.8025862E-01
        1   -1    0    0  501    0  0.00000000000E+00  0.00000000000E+00  0.20838709507E+04  0.20838709507E+04  0.50400001928E-02 0.  1.
       -1   -1    0    0    0  501  0.00000000000E+00  0.00000000000E+00 -0.18209859920E+04  0.18209859920E+04  0.50400001928E-02 0. -1.
    10030    2    1    2    0    0  0.00000000000E+00  0.00000000000E+00  0.26288495869E+03  0.39048569426E+04  0.38959978492E+04 0.  0.
        3    1    3    3  502    0  0.11616587587E+02 -0.51245761418E+03  0.20150647592E+04  0.20792387418E+04  0.10100000352E+00 0.  1.
       -3    1    3    3    0  502 -0.11616587587E+02  0.51245761418E+03 -0.17521798005E+04  0.18256182008E+04  0.10100000352E+00 0. -1.
</event>
<event>
 5   0  0.8476262E-08  0.3885490E+04  0.7818609E-02  0.8028054E-01
        2   -1    0    0  501    0  0.00000000000E+00  0.00000000000E+00  0.22580654991E+04  0.22580654991E+04  0.25500000920E-02 0. -1.
       -2   -1    0    0    0  501  0.00000000000E+00  0.00000000000E+00 -0.16714564547E+04  0.16714564547E+04  0.25500000920E-02 0.  1.
    10030    2    1    2    0    0  0.00000000000E+00  0.00000000000E+00  0.58660904439E+03  0.39295219539E+04  0.38854900097E+04 0.  0.
        2    1    3    3  502    0  0.50796735488E+02 -0.15294121552E+04  0.15037711055E+04  0.21454625111E+04  0.25500000920E-02 0. -1.
       -2    1    3    3    0  502 -0.50796735488E+02  0.15294121552E+04 -0.91716206116E+03  0.17840594427E+04  0.25500000920E-02 0.  1.
</event>
<event>
 5   0  0.2632875E-08  0.3681124E+04  0.7818609E-02  0.8072158E-01
        1   -1    0    0  501    0  0.00000000000E+00  0.00000000000E+00  0.22349463403E+04  0.22349463403E+04  0.50400001928E-02 0. -1.
       -1   -1    0    0    0  501  0.00000000000E+00  0.00000000000E+00 -0.15157716816E+04  0.15157716816E+04  0.50400001928E-02 0.  1.
    10030    2    1    2    0    0  0.00000000000E+00  0.00000000000E+00  0.71917465867E+03  0.37507180219E+04  0.36811239439E+04 0.  0.
        3    1    3    3  502    0 -0.16726938010E+04  0.39984379221E+01 -0.42288168392E+03  0.17253259020E+04  0.10100000352E+00 0. -1.
       -3    1    3    3    0  502  0.16726938010E+04 -0.39984379221E+01  0.11420563426E+04  0.20253921199E+04  0.10100000352E+00 0.  1.
</event>
<event>
 5   0  0.2632875E-08  0.3903895E+04  0.7818609E-02  0.8024220E-01
        1   -1    0    0  501    0  0.00000000000E+00  0.00000000000E+00  0.14225553423E+04  0.14225553423E+04  0.50400001928E-02 0. -1.
       -1   -1    0    0    0  501  0.00000000000E+00  0.00000000000E+00 -0.26783482178E+04  0.26783482179E+04  0.50400001928E-02 0.  1.
    10030    2    1    2    0    0  0.00000000000E+00  0.00000000000E+00 -0.12557928756E+04  0.41009035601E+04  0.39038947556E+04 0.  0.
        1    1    3    3  502    0 -0.11154184101E+04  0.16658302306E+03  0.10456723071E+04  0.15379657692E+04  0.50400001928E-02 0. -1.
       -1    1    3    3    0  502  0.11154184101E+04 -0.16658302306E+03 -0.23014651827E+04  0.25629377910E+04  0.50400001928E-02 0.  1.
</event>
<event>
 5   0  0.2632875E-08  0.3867199E+04  0.7818609E-02  0.8031886E-01
        1   -1    0    0  501    0  0.00000000000E+00  0.00000000000E+00  0.24378912542E+04  0.24378912542E+04  0.50400001928E-02 0. -1.
       -1   -1    0    0    0  501  0.00000000000E+00  0.00000000000E+00 -0.15336234868E+04  0.15336234868E+04  0.50400001928E-02 0.  1.
    10030    2    1    2    0    0  0.00000000000E+00  0.00000000000E+00  0.90426776736E+03  0.39715147410E+04  0.38671991341E+04 0.  0.
        2    1    3    3  502    0 -0.10653092726E+04 -0.12448531863E+04  0.15066041259E+04  0.22258479943E+04  0.25500000920E-02 0. -1.
       -2    1    3    3    0  502  0.10653092726E+04  0.12448531863E+04 -0.60233635857E+03  0.17456667467E+04  0.25500000920E-02 0.  1.
</event>
<event>
 5   0  0.8342802E-08  0.3899905E+04  0.7818609E-02  0.8025049E-01
        2   -1    0    0  501    0  0.00000000000E+00  0.00000000000E+00  0.24384139060E+04  0.24384139060E+04  0.25500000920E-02 0.  1.
       -2   -1    0    0    0  501  0.00000000000E+00  0.00000000000E+00 -0.15593397235E+04  0.15593397235E+04  0.25500000920E-02 0. -1.
    10030    2    1    2    0    0  0.00000000000E+00  0.00000000000E+00  0.87907418247E+03  0.39977536295E+04  0.38999054685E+04 0.  0.
        4    1    3    3  502    0 -0.18381214381E+04 -0.60627693691E+03  0.19684415017E+03  0.19455105699E+04  0.12699999809E+01 0. -1.
       -4    1    3    3    0  502  0.18381214381E+04  0.60627693691E+03  0.68223003230E+03  0.20522430595E+04  0.12699999809E+01 0.  1.
</event>
<event>
 5   0  0.2632875E-08  0.3901607E+04  0.7818609E-02  0.8024695E-01
       -1   -1    0    0    0  501  0.00000000000E+00  0.00000000000E+00  0.24135486147E+04  0.24135486147E+04  0.50400001928E-02 0.  1.
        1   -1    0    0  501    0  0.00000000000E+00  0.00000000000E+00 -0.15767795622E+04  0.15767795622E+04  0.50400001928E-02 0. -1.
    10030    2    1    2    0    0  0.00000000000E+00  0.00000000000E+00  0.83676905245E+03  0.39903281769E+04  0.39016069141E+04 0.  0.
        2    1    3    3  502    0  0.97072274793E+03 -0.16878661840E+04  0.54128030514E+03  0.20209352481E+04  0.25500000920E-02 0.  1.
       -2    1    3    3    0  502 -0.97072274793E+03  0.16878661840E+04  0.29548874731E+03  0.19693929288E+04  0.25500000920E-02 0. -1.
</event>
<event>
 5   0  0.8342802E-08  0.3672479E+04  0.7818609E-02  0.8074088E-01
        2   -1    0    0  501    0  0.00000000000E+00  0.00000000000E+00  0.23679428556E+04  0.23679428556E+04  0.25500000920E-02 0. -1.
       -2   -1    0    0    0  501  0.00000000000E+00  0.00000000000E+00 -0.14239263759E+04  0.14239263759E+04  0.25500000920E-02 0.  1.
    10030    2    1    2    0    0  0.00000000000E+00  0.00000000000E+00  0.94401647970E+03  0.37918692315E+04  0.36724794288E+04 0.  0.
        4    1    3    3  502    0  0.14488445758E+04  0.25327084108E+03 -0.66303745422E+03  0.16133558202E+04  0.12699999809E+01 0.  1.
       -4    1    3    3    0  502 -0.14488445758E+04 -0.25327084108E+03  0.16070539339E+04  0.21785134113E+04  0.12699999809E+01 0. -1.
</event>
<event>
 5   0  0.8551754E-08  0.3864622E+04  0.7818609E-02  0.8032428E-01
        2   -1    0    0  501    0  0.00000000000E+00  0.00000000000E+00  0.15059870805E+04  0.15059870805E+04  0.25500000920E-02 0.  1.
       -2   -1    0    0    0  501  0.00000000000E+00  0.00000000000E+00 -0.24793212127E+04  0.24793212127E+04  0.25500000920E-02 0. -1.
    10030    2    1    2    0    0  0.00000000000E+00  0.00000000000E+00 -0.97333413217E+03  0.39853082931E+04  0.38646219555E+04 0.  0.
        1    1    3    3  502    0  0.17668436416E+04  0.66937938961E+03 -0.90430887030E+03  0.20946550442E+04  0.50400001928E-02 0. -1.
       -1    1    3    3    0  502 -0.17668436416E+04 -0.66937938961E+03 -0.69025261876E+02  0.18906532490E+04  0.50400001928E-02 0.  1.
</event>
<event>
 5   0  0.2632875E-08  0.3668268E+04  0.7818609E-02  0.8075031E-01
       -4   -1    0    0    0  501  0.00000000000E+00  0.00000000000E+00  0.16076670167E+04  0.16076675183E+04  0.12699999809E+01 0. -1.
        4   -1    0    0  501    0  0.00000000000E+00  0.00000000000E+00 -0.20925021391E+04  0.20925025245E+04  0.12699999809E+01 0.  1.
    10030    2    1    2    0    0  0.00000000000E+00  0.00000000000E+00 -0.48483512244E+03  0.37001700428E+04  0.36682684266E+04 0.  0.
        2    1    3    3  502    0 -0.87247018610E+03 -0.14257079023E+04  0.51926600696E+03  0.17502812444E+04  0.25500000920E-02 0. -1.
       -2    1    3    3    0  502  0.87247018610E+03  0.14257079023E+04 -0.10041011294E+04  0.19498887985E+04  0.25500000920E-02 0.  1.
</event>
<event>
 5   0  0.8676098E-08  0.3901108E+04  0.7818609E-02  0.8024799E-01
        2   -1    0    0  501    0  0.00000000000E+00  0.00000000000E+00  0.14050429950E+04  0.14050429951E+04  0.25500000920E-02 0. -1.
       -2   -1    0    0    0  501  0.00000000000E+00  0.00000000000E+00 -0.27078614258E+04  0.27078614258E+04  0.25500000920E-02 0.  1.
    10030    2    1    2    0    0  0.00000000000E+00  0.00000000000E+00 -0.13028184308E+04  0.41129044209E+04  0.39011084209E+04 0.  0.
        3    1    3    3  502    0 -0.15927669194E+04 -0.75910680494E+03 -0.15281283672E+04  0.23341649294E+04  0.10100000352E+00 0. -1.
       -3    1    3    3    0  502  0.15927669194E+04  0.75910680494E+03  0.22530993638E+03  0.17787394915E+04  0.10100000352E+00 0.  1.
</event>
<event>
 5   0  0.8342802E-08  0.3933677E+04  0.7818609E-02  0.8018061E-01
       -2   -1    0    0    0  501  0.00000000000E+00  0.00000000000E+00  0.32477700557E+04  0.32477700557E+04  0.25500000920E-02 0. -1.
        2   -1    0    0  501    0  0.00000000000E+00  0.00000000000E+00 -0.11911107331E+04  0.11911107331E+04  0.25500000920E-02 0.  1.
    10030    2    1    2    0    0  0.00000000000E+00  0.00000000000E+00  0.20566593226E+04  0.44388807888E+04  0.39336770442E+04 0.  0.
        4    1    3    3  502    0  0.12829983993E+04  0.14757524491E+04  0.12664310849E+04  0.23297595347E+04  0.12699999809E+01 0. -1.
       -4    1    3    3    0  502 -0.12829983993E+04 -0.14757524491E+04  0.79022823767E+03  0.21091212541E+04  0.12699999809E+01 0.  1.
</event>
<event>
 5   0  0.2632875E-08  0.3926603E+04  0.7818609E-02  0.8019519E-01
       -1   -1    0    0    0  501  0.00000000000E+00  0.00000000000E+00  0.16682608596E+04  0.16682608596E+04  0.50400001928E-02 0.  1.
        1   -1    0    0  501    0  0.00000000000E+00  0.00000000000E+00 -0.23105213833E+04  0.23105213833E+04  0.50400001928E-02 0. -1.
    10030    2    1    2    0    0  0.00000000000E+00  0.00000000000E+00 -0.64226052372E+03  0.39787822430E+04  0.39266028010E+04 0.  0.
        3    1    3    3  502    0  0.52386809150E+03 -0.10035459834E+04  0.13042461065E+04  0.17270206237E+04  0.10100000352E+00 0.  1.
       -3    1    3    3    0  502 -0.52386809150E+03  0.10035459834E+04 -0.19465066303E+04  0.22517616193E+04  0.10100000352E+00 0. -1.
</event>
<event>
 5   0  0.2632875E-08  0.3891791E+04  0.7818609E-02  0.8026739E-01
       -1   -1    0    0    0  501  0.00000000000E+00  0.00000000000E+00  0.31216565562E+04  0.31216565562E+04  0.50400001928E-02 0.  1.
        1   -1    0    0  501    0  0.00000000000E+00  0.00000000000E+00 -0.12129804544E+04  0.12129804544E+04  0.50400001928E-02 0. -1.
    10030    2    1    2    0    0  0.00000000000E+00  0.00000000000E+00  0.19086761018E+04  0.43346370106E+04  0.38917905329E+04 0.  0.
        2    1    3    3  502    0 -0.43480373297E+02 -0.10728515211E+04 -0.85316400235E+03  0.13714188799E+04  0.25500000920E-02 0. -1.
       -2    1    3    3    0  502  0.43480373297E+02  0.10728515211E+04  0.27618401042E+04  0.29632181307E+04  0.25500000920E-02 0.  1.
</event>
<event>
 5   0  0.2632875E-08  0.3850847E+04  0.7818609E-02  0.8035330E-01
       -1   -1    0    0    0  501  0.00000000000E+00  0.00000000000E+00  0.13888151844E+04  0.13888151844E+04  0.50400001928E-02 0.  1.
        1   -1    0    0  501    0  0.00000000000E+00  0.00000000000E+00 -0.26693659396E+04  0.26693659396E+04  0.50400001928E-02 0. -1.
    10030    2    1    2    0    0  0.00000000000E+00  0.00000000000E+00 -0.12805507552E+04  0.40581811240E+04  0.38508471534E+04 0.  0.
        5    1    3    3  502    0  0.65144274810E+03 -0.34777160760E+03  0.12336399952E+04  0.14377803980E+04  0.46999998093E+01 0.  1.
       -5    1    3    3    0  502 -0.65144274810E+03  0.34777160760E+03 -0.25141907504E+04  0.26204007260E+04  0.46999998093E+01 0. -1.
</event>
<event>
 5   0  0.8342802E-08  0.3913990E+04  0.7818609E-02  0.8022126E-01
        2   -1    0    0  501    0  0.00000000000E+00  0.00000000000E+00  0.21471981092E+04  0.21471981092E+04  0.25500000920E-02 0.  1.
       -2   -1    0    0    0  501  0.00000000000E+00  0.00000000000E+00 -0.17836402586E+04  0.17836402586E+04  0.25500000920E-02 0. -1.
    10030    2    1    2    0    0  0.00000000000E+00  0.00000000000E+00  0.36355785060E+03  0.39308383678E+04  0.39139897755E+04 0.  0.
        4    1    3    3  502    0  0.12197047371E+04 -0.14548956097E+04  0.65861376636E+03  0.20095209845E+04  0.12699999809E+01 0.  1.
       -4    1    3    3    0  502 -0.12197047371E+04  0.14548956097E+04 -0.29505591576E+03  0.19213173833E+04  0.12699999809E+01 0. -1.
</event>
<event>
 5   0  0.2632875E-08  0.3909189E+04  0.7818609E-02  0.8023121E-01
       -1   -1    0    0    0  501  0.00000000000E+00  0.00000000000E+00  0.20430517709E+04  0.20430517709E+04  0.50400001928E-02 0. -1.
        1   -1    0    0  501    0  0.00000000000E+00  0.00000000000E+00 -0.18699671737E+04  0.18699671737E+04  0.50400001928E-02 0.  1.
    10030    2    1    2    0    0  0.00000000000E+00  0.00000000000E+00  0.17308459718E+03  0.39130189447E+04  0.39091890442E+04 0.  0.
        1    1    3    3  502    0  0.13937471066E+04 -0.11797245726E+04  0.78447620964E+03  0.19873811884E+04  0.50400001928E-02 0. -1.
       -1    1    3    3    0  502 -0.13937471066E+04  0.11797245726E+04 -0.61139161246E+03  0.19256377563E+04  0.50400001928E-02 0.  1.
</event>
<event>
 5   0  0.2632875E-08  0.3898898E+04  0.7818609E-02  0.8025258E-01
       -1   -1    0    0    0  501  0.00000000000E+00  0.00000000000E+00  0.24043722946E+04  0.24043722946E+04  0.50400001928E-02 0.  1.
        1   -1    0    0  501    0  0.00000000000E+00  0.00000000000E+00 -0.15806005415E+04  0.15806005415E+04  0.50400001928E-02 0. -1.
    10030    2    1    2    0    0  0.00000000000E+00  0.00000000000E+00  0.82377175307E+03  0.39849728361E+04  0.38988983833E+04 0.  0.
        5    1    3    3  502    0  0.96210955041E+03 -0.22789856097E+03 -0.13053054925E+04  0.16375094075E+04  0.46999998093E+01 0. -1.
       -5    1    3    3    0  502 -0.96210955041E+03  0.22789856097E+03  0.21290772455E+04  0.23474634286E+04  0.46999998093E+01 0.  1.
</event>
<event>
 5   0  0.2632875E-08  0.3890194E+04  0.7818609E-02  0.8027072E-01
        1   -1    0    0  501    0  0.00000000000E+00  0.00000000000E+00  0.13158428199E+04  0.13158428199E+04  0.50400001928E-02 0.  1.
       -1   -1    0    0    0  501  0.00000000000E+00  0.00000000000E+00 -0.28752693974E+04  0.28752693974E+04  0.50400001928E-02 0. -1.
    10030    2    1    2    0    0  0.00000000000E+00  0.00000000000E+00 -0.15594265775E+04  0.41911122174E+04  0.38901941299E+04 0.  0.
        1    1    3    3  502    0  0.16601547966E+04  0.97498621086E+02 -0.18666031543E+04  0.24999654529E+04  0.50400001928E-02 0. -1.
       -1    1    3    3    0  502 -0.16601547966E+04 -0.97498621086E+02  0.30717657680E+03  0.16911467645E+04  0.50400001928E-02 0.  1.
</event>
<event>
 5   0  0.2632875E-08  0.3900261E+04  0.7818609E-02  0.8024975E-01
        1   -1    0    0  501    0  0.00000000000E+00  0.00000000000E+00  0.35518700686E+04  0.35518700686E+04  0.50400001928E-02 0.  1.
       -1   -1    0    0    0  501  0.00000000000E+00  0.00000000000E+00 -0.10707063120E+04  0.10707063120E+04  0.50400001928E-02 0. -1.
    10030    2    1    2    0    0  0.00000000000E+00  0.00000000000E+00  0.24811637567E+04  0.46225763806E+04  0.39002613767E+04 0.  0.
        2    1    3    3  502    0 -0.17097483966E+04  0.36551555240E+03  0.21679669487E+03  0.17617724046E+04  0.25500000920E-02 0.  1.
       -2    1    3    3    0  502  0.17097483966E+04 -0.36551555240E+03  0.22643670618E+04  0.28608039760E+04  0.25500000920E-02 0. -1.
</event>
<event>
 5   0  0.8438211E-08  0.3902052E+04  0.7818609E-02  0.8024602E-01
        2   -1    0    0  501    0  0.00000000000E+00  0.00000000000E+00  0.22905697427E+04  0.22905697427E+04  0.25500000920E-02 0.  1.
       -2   -1    0    0    0  501  0.00000000000E+00  0.00000000000E+00 -0.16618149886E+04  0.16618149886E+04  0.25500000920E-02 0. -1.
    10030    2    1    2    0    0  0.00000000000E+00  0.00000000000E+00  0.62875475407E+03  0.39523847313E+04  0.39020523476E+04 0.  0.
        5    1    3    3  502    0 -0.18295180630E+04 -0.15968122320E+03 -0.35278911067E+03  0.18700579356E+04  0.46999998093E+01 0. -1.
       -5    1    3    3    0  502  0.18295180630E+04  0.15968122320E+03  0.98154386474E+03  0.20823267957E+04  0.46999998093E+01 0.  1.
</event>
<event>
 5   0  0.8342802E-08  0.3904962E+04  0.7818609E-02  0.8023998E-01
        2   -1    0    0  501    0  0.00000000000E+00  0.00000000000E+00  0.23806616710E+04  0.23806616710E+04  0.25500000920E-02 0. -1.
       -2   -1    0    0    0  501  0.00000000000E+00  0.00000000000E+00 -0.16013121172E+04  0.16013121172E+04  0.25500000920E-02 0.  1.
    10030    2    1    2    0    0  0.00000000000E+00  0.00000000000E+00  0.77934955382E+03  0.39819737882E+04  0.39049621666E+04 0.  0.
        4    1    3    3  502    0  0.68287969800E+03 -0.15359406518E+04 -0.62326461684E+03  0.17927349953E+04  0.12699999809E+01 0.  1.
       -4    1    3    3    0  502 -0.68287969800E+03  0.15359406518E+04  0.14026141707E+04  0.21892387929E+04  0.12699999809E+01 0. -1.
</event>
<event>
 5   0  0.2632875E-08  0.3925957E+04  0.7818609E-02  0.8019652E-01
       -1   -1    0    0    0  501  0.00000000000E+00  0.00000000000E+00  0.27064222084E+04  0.27064222084E+04  0.50400001928E-02 0.  1.
        1   -1    0    0  501    0  0.00000000000E+00  0.00000000000E+00 -0.14237559901E+04  0.14237559901E+04  0.50400001928E-02 0. -1.
    10030    2    1    2    0    0  0.00000000000E+00  0.00000000000E+00  0.12826662183E+04  0.41301781985E+04  0.39259571220E+04 0.  0.
        5    1    3    3  502    0 -0.13177769975E+04 -0.13938887746E+04  0.10799131724E+04  0.22012943195E+04  0.46999998093E+01 0.  1.
       -5    1    3    3    0  502  0.13177769975E+04  0.13938887746E+04  0.20275304597E+03  0.19288838790E+04  0.46999998093E+01 0. -1.
</event>
<event>
 5   0  0.2632875E-08  0.3909064E+04  0.7818609E-02  0.8023147E-01
        1   -1    0    0  501    0  0.00000000000E+00  0.00000000000E+00  0.15978024818E+04  0.15978024818E+04  0.50400001928E-02 0.  1.
       -1   -1    0    0    0  501  0.00000000000E+00  0.00000000000E+00 -0.23909056342E+04  0.23909056342E+04  0.50400001928E-02 0. -1.
    10030    2    1    2    0    0  0.00000000000E+00  0.00000000000E+00 -0.79310315245E+03  0.39887081160E+04  0.39090638041E+04 0.  0.
        2    1    3    3  502    0 -0.39869460696E+03 -0.78779970107E+03 -0.21758131528E+04  0.23481372691E+04  0.25500000920E-02 0. -1.
       -2    1    3    3    0  502  0.39869460696E+03  0.78779970107E+03  0.13827100004E+04  0.16405708469E+04  0.25500000920E-02 0.  1.
</event>
<event>
 5   0  0.8342802E-08  0.3882958E+04  0.7818609E-02  0.8028583E-01
        2   -1    0    0  501    0  0.00000000000E+00  0.00000000000E+00  0.12356770374E+04  0.12356770374E+04  0.25500000920E-02 0.  1.
       -2   -1    0    0    0  501  0.00000000000E+00  0.00000000000E+00 -0.30504247677E+04  0.30504247677E+04  0.25500000920E-02 0. -1.
    10030    2    1    2    0    0  0.00000000000E+00  0.00000000000E+00 -0.18147477302E+04  0.42861018051E+04  0.38829575531E+04 0.  0.
        4    1    3    3  502    0  0.85353477935E+03 -0.16368766144E+04 -0.24374557896E+03  0.18620687932E+04  0.12699999809E+01 0.  1.
       -4    1    3    3    0  502 -0.85353477935E+03  0.16368766144E+04 -0.15710021513E+04  0.24240330119E+04  0.12699999809E+01 0. -1.
</event>
<event>
 5   0  0.2632875E-08  0.3914742E+04  0.7818609E-02  0.8021970E-01
        1   -1    0    0  501    0  0.00000000000E+00  0.00000000000E+00  0.26896574165E+04  0.26896574165E+04  0.50400001928E-02 0. -1.
       -1   -1    0    0    0  501  0.00000000000E+00  0.00000000000E+00 -0.14244571318E+04  0.14244571318E+04  0.50400001928E-02 0.  1.
    10030    2    1    2    0    0  0.00000000000E+00  0.00000000000E+00  0.12652002847E+04  0.41141145483E+04  0.39147422337E+04 0.  0.
        1    1    3    3  502    0 -0.14079168411E+03 -0.12772066910E+03 -0.14147335974E+04  0.14274473788E+04  0.50400001928E-02 0.  1.
       -1    1    3    3    0  502  0.14079168411E+03  0.12772066910E+03  0.26799338821E+04  0.26866671695E+04  0.50400001928E-02 0. -1.
</event>
<event>
 5   0  0.8551754E-08  0.3907127E+04  0.7818609E-02  0.8023548E-01
       -2   -1    0    0    0  501  0.00000000000E+00  0.00000000000E+00  0.16320787321E+04  0.16320787321E+04  0.25500000920E-02 0.  1.
        2   -1    0    0  501    0  0.00000000000E+00  0.00000000000E+00 -0.23383744785E+04  0.23383744785E+04  0.25500000920E-02 0. -1.
    10030    2    1    2    0    0  0.00000000000E+00  0.00000000000E+00 -0.70629574644E+03  0.39704532106E+04  0.39071274635E+04 0.  0.
        1    1    3    3  502    0 -0.14341823569E+04  0.91386658486E+03  0.62388188893E+03  0.18114247926E+04  0.50400001928E-02 0.  1.
       -1    1    3    3    0  502  0.14341823569E+04 -0.91386658486E+03 -0.13301776354E+04  0.21590284180E+04  0.50400001928E-02 0. -1.
</event>
<event>
 5   0  0.2632875E-08  0.3901614E+04  0.7818609E-02  0.8024694E-01
       -1   -1    0    0    0  501  0.00000000000E+00  0.00000000000E+00  0.26297457667E+04  0.26297457667E+04  0.50400001928E-02 0.  1.
        1   -1    0    0  501    0  0.00000000000E+00  0.00000000000E+00 -0.14471540887E+04  0.14471540888E+04  0.50400001928E-02 0. -1.
    10030    2    1    2    0    0  0.00000000000E+00  0.00000000000E+00  0.11825916780E+04  0.40768998555E+04  0.39016136860E+04 0.  0.
        1    1    3    3  502    0 -0.12586571967E+04 -0.48898953211E+03  0.20624985269E+04  0.24652036173E+04  0.50400001928E-02 0.  1.
       -1    1    3    3    0  502  0.12586571967E+04  0.48898953211E+03 -0.87990684889E+03  0.16116962382E+04  0.50400001928E-02 0. -1.
</event>
<event>
 5   0  0.2632875E-08  0.3905310E+04  0.7818609E-02  0.8023926E-01
       -1   -1    0    0    0  501  0.00000000000E+00  0.00000000000E+00  0.14660215741E+04  0.14660215741E+04  0.50400001928E-02 0.  1.
        1   -1    0    0  501    0  0.00000000000E+00  0.00000000000E+00 -0.26008228877E+04  0.26008228877E+04  0.50400001928E-02 0. -1.
    10030    2    1    2    0    0  0.00000000000E+00  0.00000000000E+00 -0.11348013136E+04  0.40668444617E+04  0.39053104684E+04 0.  0.
        1    1    3    3  502    0 -0.74236978792E+03  0.59504215052E+03  0.12083209690E+04  0.15379296561E+04  0.50400001928E-02 0.  1.
       -1    1    3    3    0  502  0.74236978792E+03 -0.59504215052E+03 -0.23431222826E+04  0.25289148056E+04  0.50400001928E-02 0. -1.
</event>
<event>
 5   0  0.8438211E-08  0.3917636E+04  0.7818609E-02  0.8021371E-01
       -2   -1    0    0    0  501  0.00000000000E+00  0.00000000000E+00  0.13384626642E+04  0.13384626642E+04  0.25500000920E-02 0. -1.
        2   -1    0    0  501    0  0.00000000000E+00  0.00000000000E+00 -0.28666979580E+04  0.28666979580E+04  0.25500000920E-02 0.  1.
    10030    2    1    2    0    0  0.00000000000E+00  0.00000000000E+00 -0.15282352938E+04  0.42051606222E+04  0.39176361169E+04 0.  0.
        5    1    3    3  502    0  0.58092149347E+03  0.18457543930E+04 -0.10908718095E+04  0.22213289841E+04  0.46999998093E+01 0.  1.
       -5    1    3    3    0  502 -0.58092149347E+03 -0.18457543930E+04 -0.43736348435E+03  0.19838316381E+04  0.46999998093E+01 0. -1.
</event>
<event>
 5   0  0.8676098E-08  0.3843218E+04  0.7818609E-02  0.8036944E-01
       -2   -1    0    0    0  501  0.00000000000E+00  0.00000000000E+00  0.19509333051E+04  0.19509333051E+04  0.25500000920E-02 0.  1.
        2   -1    0    0  501    0  0.00000000000E+00  0.00000000000E+00 -0.18927250209E+04  0.18927250209E+04  0.25500000920E-02 0. -1.
    10030    2    1    2    0    0  0.00000000000E+00  0.00000000000E+00  0.58208284225E+02  0.38436583259E+04  0.38432175481E+04 0.  0.
        3    1    3    3  502    0 -0.11600894702E+04  0.65544107507E+03 -0.13556736283E+04  0.19008581163E+04  0.10100000352E+00 0. -1.
       -3    1    3    3    0  502  0.11600894702E+04 -0.65544107507E+03  0.14138819125E+04  0.19428002096E+04  0.10100000352E+00 0.  1.
</event>
<event>
 5   0  0.8342802E-08  0.3903534E+04  0.7818609E-02  0.8024295E-01
       -2   -1    0    0    0  501  0.00000000000E+00  0.00000000000E+00  0.19714766861E+04  0.19714766861E+04  0.25500000920E-02 0. -1.
        2   -1    0    0  501    0  0.00000000000E+00  0.00000000000E+00 -0.19322544802E+04  0.19322544802E+04  0.25500000920E-02 0.  1.
    10030    2    1    2    0    0  0.00000000000E+00  0.00000000000E+00  0.39222205918E+02  0.39037311664E+04  0.39035341215E+04 0.  0.
        4    1    3    3  502    0 -0.12331829057E+04  0.15084706376E+04  0.13437448008E+03  0.19530186525E+04  0.12699999809E+01 0. -1.
       -4    1    3    3    0  502  0.12331829057E+04 -0.15084706376E+04 -0.95152274160E+02  0.19507125138E+04  0.12699999809E+01 0.  1.
</event>
<event>
 5   0  0.8676098E-08  0.3918299E+04  0.7818609E-02  0.8021234E-01
       -2   -1    0    0    0  501  0.00000000000E+00  0.00000000000E+00  0.26993618407E+04  0.26993618407E+04  0.25500000920E-02 0.  1.
        2   -1    0    0  501    0  0.00000000000E+00  0.00000000000E+00 -0.14219162467E+04  0.14219162467E+04  0.25500000920E-02 0. -1.
    10030    2    1    2    0    0  0.00000000000E+00  0.00000000000E+00  0.12774455940E+04  0.41212780874E+04  0.39182988437E+04 0.  0.
        3    1    3    3  502    0  0.16785316832E+04 -0.22869916183E+03  0.16738243252E+04  0.23814826894E+04  0.10100000352E+00 0. -1.
       -3    1    3    3    0  502 -0.16785316832E+04  0.22869916183E+03 -0.39637873115E+03  0.17397953980E+04  0.10100000352E+00 0.  1.
</event>
<event>
 5   0  0.8551754E-08  0.3905144E+04  0.7818609E-02  0.8023960E-01
        2   -1    0    0  501    0  0.00000000000E+00  0.00000000000E+00  0.13064419096E+04  0.13064419096E+04  0.25500000920E-02 0. -1.
       -2   -1    0    0    0  501  0.00000000000E+00  0.00000000000E+00 -0.29182603213E+04  0.29182603213E+04  0.25500000920E-02 0.  1.
    10030    2    1    2    0    0  0.00000000000E+00  0.00000000000E+00 -0.16118184117E+04  0.42247022309E+04  0.39051440880E+04 0.  0.
        1    1    3    3  502    0  0.49709899524E+03  0.15206560470E+02 -0.28485919753E+04  0.28916802888E+04  0.50400001928E-02 0.  1.
       -1    1    3    3    0  502 -0.49709899524E+03 -0.15206560470E+02  0.12367735636E+04  0.13330219422E+04  0.50400001928E-02 0. -1.
</event>
<event>
 5   0  0.2632875E-08  0.3902631E+04  0.7818609E-02  0.8024482E-01
       -1   -1    0    0    0  501  0.00000000000E+00  0.00000000000E+00  0.27893236065E+04  0.27893236065E+04  0.50400001928E-02 0. -1.
        1   -1    0    0  501    0  0.00000000000E+00  0.00000000000E+00 -0.13650738088E+04  0.13650738088E+04  0.50400001928E-02 0.  1.
    10030    2    1    2    0    0  0.00000000000E+00  0.00000000000E+00  0.14242497977E+04  0.41543974153E+04  0.39026312147E+04 0.  0.
        2    1    3    3  502    0 -0.14854994178E+04  0.91845222491E+03 -0.21428770941E+03  0.17595971790E+04  0.25500000920E-02 0.  1.
       -2    1    3    3    0  502  0.14854994178E+04 -0.91845222491E+03  0.16385375071E+04  0.23948002364E+04  0.25500000920E-02 0. -1.
</event>
<event>
 5   0  0.2632875E-08  0.3888442E+04  0.7818609E-02  0.8027437E-01
        1   -1    0    0  501    0  0.00000000000E+00  0.00000000000E+00  0.21288307783E+04  0.21288307783E+04  0.50400001928E-02 0. -1.
       -1   -1    0    0    0  501  0.00000000000E+00  0.00000000000E+00 -0.17756207101E+04  0.17756207101E+04  0.50400001928E-02 0.  1.
    10030    2    1    2    0    0  0.00000000000E+00  0.00000000000E+00  0.35321006824E+03  0.39044514884E+04  0.38884423710E+04 0.  0.
        4    1    3    3  502    0  0.13534010084E+04 -0.13066532986E+04 -0.31628993355E+03  0.19076367755E+04  0.12699999809E+01 0.  1.
       -4    1    3    3    0  502 -0.13534010084E+04  0.13066532986E+04  0.66950000179E+03  0.19968147129E+04  0.12699999809E+01 0. -1.
</event>
<event>
 5   0  0.8438211E-08  0.3897076E+04  0.7818609E-02  0.8025638E-01
       -2   -1    0    0    0  501  0.00000000000E+00  0.00000000000E+00  0.15695824012E+04  0.15695824013E+04  0.25500000920E-02 0. -1.
        2   -1    0    0  501    0  0.00000000000E+00  0.00000000000E+00 -0.24189870938E+04  0.24189870938E+04  0.25500000920E-02 0.  1.
    10030    2    1    2    0    0  0.00000000000E+00  0.00000000000E+00 -0.84940469256E+03  0.39885694951E+04  0.38970756068E+04 0.  0.
        5    1    3    3  502    0  0.15111366327E+04 -0.12295458930E+04 -0.46381547181E+03  0.20026142683E+04  0.46999998093E+01 0.  1.
       -5    1    3    3    0  502 -0.15111366327E+04  0.12295458930E+04 -0.38558922075E+03  0.19859552268E+04  0.46999998093E+01 0. -1.
</event>
<event>
 5   0  0.2632875E-08  0.3908398E+04  0.7818609E-02  0.8023285E-01
        1   -1    0    0  501    0  0.00000000000E+00  0.00000000000E+00  0.15881467048E+04  0.15881467048E+04  0.50400001928E-02 0.  1.
       -1   -1    0    0    0  501  0.00000000000E+00  0.00000000000E+00 -0.24046226716E+04  0.24046226716E+04  0.50400001928E-02 0. -1.
    10030    2    1    2    0    0  0.00000000000E+00  0.00000000000E+00 -0.81647596685E+03  0.39927693764E+04  0.39083979184E+04 0.  0.
        1    1    3    3  502    0 -0.55283745235E+03  0.10849800504E+04 -0.19696573124E+04  0.23156771983E+04  0.50400001928E-02 0. -1.
       -1    1    3    3    0  502  0.55283745235E+03 -0.10849800504E+04  0.11531813455E+04  0.16770921782E+04  0.50400001928E-02 0.  1.
</event>
<event>
 5   0  0.2632875E-08  0.3897344E+04  0.7818609E-02  0.8025582E-01
       -1   -1    0    0    0  501  0.00000000000E+00  0.00000000000E+00  0.17382242313E+04  0.17382242313E+04  0.50400001928E-02 0.  1.
        1   -1    0    0  501    0  0.00000000000E+00  0.00000000000E+00 -0.21845993365E+04  0.21845993365E+04  0.50400001928E-02 0. -1.
    10030    2    1    2    0    0  0.00000000000E+00  0.00000000000E+00 -0.44637510521E+03  0.39228235678E+04  0.38973444818E+04 0.  0.
        4    1    3    3  502    0  0.12016449855E+04 -0.12681502621E+04  0.64568591437E+03  0.18625433341E+04  0.12699999809E+01 0.  1.
       -4    1    3    3    0  502 -0.12016449855E+04  0.12681502621E+04 -0.10920610196E+04  0.20602802338E+04  0.12699999809E+01 0. -1.
</event>
<event>
 5   0  0.2632875E-08  0.3917327E+04  0.7818609E-02  0.8021435E-01
        1   -1    0    0  501    0  0.00000000000E+00  0.00000000000E+00  0.14197855985E+04  0.14197855985E+04  0.50400001928E-02 0. -1.
       -1   -1    0    0    0  501  0.00000000000E+00  0.00000000000E+00 -0.27020715380E+04  0.27020715381E+04  0.50400001928E-02 0.  1.
    10030    2    1    2    0    0  0.00000000000E+00  0.00000000000E+00 -0.12822859395E+04  0.41218571366E+04  0.39173267701E+04 0.  0.
        5    1    3    3  502    0 -0.14793705566E+04  0.94826937073E+02  0.70585685715E+03  0.16418847050E+04  0.46999998093E+01 0. -1.
       -5    1    3    3    0  502  0.14793705566E+04 -0.94826937073E+02 -0.19881427967E+04  0.24799724316E+04  0.46999998093E+01 0.  1.
</event>
<event>
 5   0  0.8342802E-08  0.3906522E+04  0.7818609E-02  0.8023674E-01
       -2   -1    0    0    0  501  0.00000000000E+00  0.00000000000E+00  0.26301559920E+04  0.26301559920E+04  0.25500000920E-02 0. -1.
        2   -1    0    0  501    0  0.00000000000E+00  0.00000000000E+00 -0.14505715037E+04  0.14505715037E+04  0.25500000920E-02 0.  1.
    10030    2    1    2    0    0  0.00000000000E+00  0.00000000000E+00  0.11795844883E+04  0.40807274956E+04  0.39065224086E+04 0.  0.
        4    1    3    3  502    0  0.17230395680E+04  0.56793644710E+03 -0.16622969496E+03  0.18218263049E+04  0.12699999809E+01 0.  1.
       -4    1    3    3    0  502 -0.17230395680E+04 -0.56793644710E+03  0.13458141833E+04  0.22589011908E+04  0.12699999809E+01 0. -1.
</event>
<event>
 5   0  0.2632875E-08  0.3663372E+04  0.7818609E-02  0.8076128E-01
        1   -1    0    0  501    0  0.00000000000E+00  0.00000000000E+00  0.33912134884E+04  0.33912134884E+04  0.50400001928E-02 0.  1.
       -1   -1    0    0    0  501  0.00000000000E+00  0.00000000000E+00 -0.98934310222E+03  0.98934310223E+03  0.50400001928E-02 0. -1.
    10030    2    1    2    0    0  0.00000000000E+00  0.00000000000E+00  0.24018703862E+04  0.43805565907E+04  0.36633720384E+04 0.  0.
        1    1    3    3  502    0 -0.14910549487E+04  0.10234912339E+04  0.85376062314E+03  0.19999215904E+04  0.50400001928E-02 0.  1.
       -1    1    3    3    0  502  0.14910549487E+04 -0.10234912339E+04  0.15481097631E+04  0.23806350003E+04  0.50400001928E-02 0. -1.
</event>
<event>
 5   0  0.8476262E-08  0.3910486E+04  0.7818609E-02  0.8022852E-01
        2   -1    0    0  501    0  0.00000000000E+00  0.00000000000E+00  0.20432819459E+04  0.20432819459E+04  0.25500000920E-02 0.  1.
       -2   -1    0    0    0  501  0.00000000000E+00  0.00000000000E+00 -0.18709973128E+04  0.18709973128E+04  0.25500000920E-02 0. -1.
    10030    2    1    2    0    0  0.00000000000E+00  0.00000000000E+00  0.17228463305E+03  0.39142792587E+04  0.39104859187E+04 0.  0.
        2    1    3    3  502    0  0.13277353782E+02 -0.14850710917E+04 -0.11868470547E+04  0.19011097724E+04  0.25500000920E-02 0.  1.
       -2    1    3    3    0  502 -0.13277353782E+02  0.14850710917E+04  0.13591316878E+04  0.20131694862E+04  0.25500000920E-02 0. -1.
</event>
<event>
 5   0  0.8438211E-08  0.3899556E+04  0.7818609E-02  0.8025121E-01
       -2   -1    0    0    0  501  0.00000000000E+00  0.00000000000E+00  0.23051831460E+04  0.23051831460E+04  0.25500000920E-02 0.  1.
        2   -1    0    0  501    0  0.00000000000E+00  0.00000000000E+00 -0.16491683646E+04  0.16491683646E+04  0.25500000920E-02 0. -1.
    10030    2    1    2    0    0  0.00000000000E+00  0.00000000000E+00  0.65601478146E+03  0.39543515106E+04  0.38995564460E+04 0.  0.
        5    1    3    3  502    0 -0.73663897726E+03 -0.72425403723E+03  0.20048551527E+04  0.22553596535E+04  0.46999998093E+01 0.  1.
       -5    1    3    3    0  502  0.73663897726E+03  0.72425403723E+03 -0.13488403713E+04  0.16989918571E+04  0.46999998093E+01 0. -1.
</event>
<event>
 5   0  0.2632875E-08  0.3877099E+04  0.7818609E-02  0.8029809E-01
        1   -1    0    0  501    0  0.00000000000E+00  0.00000000000E+00  0.30627005831E+04  0.30627005831E+04  0.50400001928E-02 0.  1.
       -1   -1    0    0    0  501  0.00000000000E+00  0.00000000000E+00 -0.12270134262E+04  0.12270134262E+04  0.50400001928E-02 0. -1.
    10030    2    1    2    0    0  0.00000000000E+00  0.00000000000E+00  0.18356871569E+04  0.42897140092E+04  0.38770992950E+04 0.  0.
        3    1    3    3  502    0  0.73480422882E+03  0.30963176518E+03 -0.10371682326E+04  0.13082534302E+04  0.10100000352E+00 0. -1.
       -3    1    3    3    0  502 -0.73480422882E+03 -0.30963176518E+03  0.28728553896E+04  0.29814605790E+04  0.10100000352E+00 0.  1.
</event>
<event>
 5   0  0.2632875E-08  0.3923230E+04  0.7818609E-02  0.8020215E-01
       -1   -1    0    0    0  501  0.00000000000E+00  0.00000000000E+00  0.19813739845E+04  0.19813739845E+04  0.50400001928E-02 0. -1.
        1   -1    0    0  501    0  0.00000000000E+00  0.00000000000E+00 -0.19420526728E+04  0.19420526728E+04  0.50400001928E-02 0.  1.
    10030    2    1    2    0    0  0.00000000000E+00  0.00000000000E+00  0.39321311672E+02  0.39234266573E+04  0.39232296096E+04 0.  0.
        5    1    3    3  502    0 -0.86144204386E+02  0.19299823796E+04  0.35976264238E+03  0.19651218940E+04  0.46999998093E+01 0.  1.
       -5    1    3    3    0  502  0.86144204386E+02 -0.19299823796E+04 -0.32044133070E+03  0.19583047633E+04  0.46999998093E+01 0. -1.
</event>
<event>
 5   0  0.8476262E-08  0.3899337E+04  0.7818609E-02  0.8025167E-01
       -2   -1    0    0    0  501  0.00000000000E+00  0.00000000000E+00  0.17679809168E+04  0.17679809168E+04  0.25500000920E-02 0.  1.
        2   -1    0    0  501    0  0.00000000000E+00  0.00000000000E+00 -0.21500273619E+04  0.21500273619E+04  0.25500000920E-02 0. -1.
    10030    2    1    2    0    0  0.00000000000E+00  0.00000000000E+00 -0.38204644511E+03  0.39180082787E+04  0.38993370444E+04 0.  0.
        2    1    3    3  502    0 -0.19304599934E+02  0.19444714693E+04 -0.33264272234E+03  0.19728135095E+04  0.25500000920E-02 0. -1.
       -2    1    3    3    0  502  0.19304599934E+02 -0.19444714693E+04 -0.49403722774E+02  0.19451947692E+04  0.25500000920E-02 0.  1.
</event>
<event>
 5   0  0.2632875E-08  0.3897652E+04  0.7818609E-02  0.8025518E-01
        1   -1    0    0  501    0  0.00000000000E+00  0.00000000000E+00  0.23062544254E+04  0.23062544254E+04  0.50400001928E-02 0. -1.
       -1   -1    0    0    0  501  0.00000000000E+00  0.00000000000E+00 -0.16467923481E+04  0.16467923481E+04  0.50400001928E-02 0.  1.
    10030    2    1    2    0    0  0.00000000000E+00  0.00000000000E+00  0.65946207732E+03  0.39530467736E+04  0.38976516728E+04 0.  0.
        4    1    3    3  502    0  0.18535373492E+04  0.57726741443E+03  0.15677241476E+03  0.19476697810E+04  0.12699999809E+01 0.  1.
       -4    1    3    3    0  502 -0.18535373492E+04 -0.57726741443E+03  0.50268966256E+03  0.20053769926E+04  0.12699999809E+01 0. -1.
</event>
<event>
 5   0  0.8676098E-08  0.3863813E+04  0.7818609E-02  0.8032598E-01
        2   -1    0    0  501    0  0.00000000000E+00  0.00000000000E+00  0.22277646668E+04  0.22277646668E+04  0.25500000920E-02 0.  1.
       -2   -1    0    0    0  501  0.00000000000E+00  0.00000000000E+00 -0.16753400161E+04  0.16753400161E+04  0.25500000920E-02 0. -1.
    10030    2    1    2    0    0  0.00000000000E+00  0.00000000000E+00  0.55242465062E+03  0.39031046829E+04  0.38638132940E+04 0.  0.
        3    1    3    3  502    0 -0.16750256864E+04 -0.57679400192E+03  0.10546725680E+04  0.20617314585E+04  0.10100000352E+00 0.  1.
       -3    1    3    3    0  502  0.16750256864E+04  0.57679400192E+03 -0.50224791743E+03  0.18413732244E+04  0.10100000352E+00 0. -1.
</event>
<event>
 5   0  0.8438211E-08  0.3915248E+04  0.7818609E-02  0.8021865E-01
        2   -1    0    0  501    0  0.00000000000E+00  0.00000000000E+00  0.17687714306E+04  0.17687714306E+04  0.25500000920E-02 0. -1.
       -2   -1    0    0    0  501  0.00000000000E+00  0.00000000000E+00 -0.21666405340E+04  0.21666405340E+04  0.25500000920E-02 0.  1.
    10030    2    1    2    0    0  0.00000000000E+00  0.00000000000E+00 -0.39786910345E+03  0.39354119646E+04  0.39152480774E+04 0.  0.
        5    1    3    3  502    0  0.50974370858E+03 -0.20705023739E+03 -0.20873227755E+04  0.21586215297E+04  0.46999998093E+01 0.  1.
       -5    1    3    3    0  502 -0.50974370858E+03  0.20705023739E+03  0.16894536721E+04  0.17767904349E+04  0.46999998093E+01 0. -1.
</event>
<event>
 5   0  0.8551754E-08  0.3889865E+04  0.7818609E-02  0.8027140E-01
       -2   -1    0    0    0  501  0.00000000000E+00  0.00000000000E+00  0.16280358566E+04  0.16280358566E+04  0.25500000920E-02 0. -1.
        2   -1    0    0  501    0  0.00000000000E+00  0.00000000000E+00 -0.23235128271E+04  0.23235128271E+04  0.25500000920E-02 0.  1.
    10030    2    1    2    0    0  0.00000000000E+00  0.00000000000E+00 -0.69547697050E+03  0.39515486837E+04  0.38898648798E+04 0.  0.
        1    1    3    3  502    0  0.14973717923E+04  0.96291070498E+03 -0.11433844934E+04  0.21158089256E+04  0.50400001928E-02 0.  1.
       -1    1    3    3    0  502 -0.14973717923E+04 -0.96291070498E+03  0.44790752289E+03  0.18357397580E+04  0.50400001928E-02 0. -1.
</event>
<event>
 5   0  0.2632875E-08  0.3932848E+04  0.7818609E-02  0.8018232E-01
        1   -1    0    0  501    0  0.00000000000E+00  0.00000000000E+00  0.19444992512E+04  0.19444992512E+04  0.50400001928E-02 0.  1.
       -1   -1    0    0    0  501  0.00000000000E+00  0.00000000000E+00 -0.19885955296E+04  0.19885955296E+04  0.50400001928E-02 0. -1.
    10030    2    1    2    0    0  0.00000000000E+00  0.00000000000E+00 -0.44096278400E+02  0.39330947808E+04  0.39328475781E+04 0.  0.
        1    1    3    3  502    0  0.12691744175E+04 -0.98425311442E+03  0.11126000231E+04  0.19538261711E+04  0.50400001928E-02 0.  1.
       -1    1    3    3    0  502 -0.12691744175E+04  0.98425311442E+03 -0.11566963015E+04  0.19792686097E+04  0.50400001928E-02 0. -1.
</event>
<event>
 5   0  0.8551754E-08  0.3865200E+04  0.7818609E-02  0.8032306E-01
        2   -1    0    0  501    0  0.00000000000E+00  0.00000000000E+00  0.22440162708E+04  0.22440162709E+04  0.25500000920E-02 0. -1.
       -2   -1    0    0    0  501  0.00000000000E+00  0.00000000000E+00 -0.16644011973E+04  0.16644011973E+04  0.25500000920E-02 0.  1.
    10030    2    1    2    0    0  0.00000000000E+00  0.00000000000E+00  0.57961507359E+03  0.39084174681E+04  0.38652003145E+04 0.  0.
        1    1    3    3  502    0 -0.69289320617E+03  0.13111712946E+04  0.15428858156E+04  0.21400392050E+04  0.50400001928E-02 0. -1.
       -1    1    3    3    0  502  0.69289320617E+03 -0.13111712946E+04 -0.96327074198E+03  0.17683782631E+04  0.50400001928E-02 0.  1.
</event>
<event>
 5   0  0.2632875E-08  0.3921846E+04  0.7818609E-02  0.8020501E-01
       -1   -1    0    0    0  501  0.00000000000E+00  0.00000000000E+00  0.25811922318E+04  0.25811922318E+04  0.50400001928E-02 0.  1.
        1   -1    0    0  501    0  0.00000000000E+00  0.00000000000E+00 -0.14897064965E+04  0.14897064966E+04  0.50400001928E-02 0. -1.
    10030    2    1    2    0    0  0.00000000000E+00  0.00000000000E+00  0.10914857352E+04  0.40708987283E+04  0.39218459105E+04 0.  0.
        1    1    3    3  502    0  0.16469791653E+04 -0.10122570720E+04  0.88688862092E+03  0.21269170592E+04  0.50400001928E-02 0.  1.
       -1    1    3    3    0  502 -0.16469791653E+04  0.10122570720E+04  0.20459711430E+03  0.19439816691E+04  0.50400001928E-02 0. -1.
</event>
<event>
 5   0  0.8342802E-08  0.3905720E+04  0.7818609E-02  0.8023841E-01
       -2   -1    0    0    0  501  0.00000000000E+00  0.00000000000E+00  0.11032109593E+04  0.11032109593E+04  0.25500000920E-02 0. -1.
        2   -1    0    0  501    0  0.00000000000E+00  0.00000000000E+00 -0.34568753094E+04  0.34568753094E+04  0.25500000920E-02 0.  1.
    10030    2    1    2    0    0  0.00000000000E+00  0.00000000000E+00 -0.23536643501E+04  0.45600862686E+04  0.39057202799E+04 0.  0.
        4    1    3    3  502    0  0.36396742819E+03  0.16987006750E+04 -0.13542484385E+03  0.17425262618E+04  0.12699999809E+01 0. -1.
       -4    1    3    3    0  502 -0.36396742819E+03 -0.16987006750E+04 -0.22182395062E+04  0.28175600068E+04  0.12699999809E+01 0.  1.
</event>
<event>
 5   0  0.2632875E-08  0.3856990E+04  0.7818609E-02  0.8034034E-01
       -1   -1    0    0    0  501  0.00000000000E+00  0.00000000000E+00  0.15141756589E+04  0.15141756589E+04  0.50400001928E-02 0. -1.
        1   -1    0    0  501    0  0.00000000000E+00  0.00000000000E+00 -0.24561833672E+04  0.24561833672E+04  0.50400001928E-02 0.  1.
    10030    2    1    2    0    0  0.00000000000E+00  0.00000000000E+00 -0.94200770830E+03  0.39703590262E+04  0.38569900537E+04 0.  0.
        1    1    3    3  502    0  0.17135750103E+04 -0.27159260754E+03 -0.13377694931E+04  0.21908283997E+04  0.50400001928E-02 0. -1.
       -1    1    3    3    0  502 -0.17135750103E+04  0.27159260754E+03  0.39576178475E+03  0.17795306265E+04  0.50400001928E-02 0.  1.
</event>
<event>
 5   0  0.8438211E-08  0.3906465E+04  0.7818609E-02  0.8023686E-01
        2   -1    0    0  501    0  0.00000000000E+00  0.00000000000E+00  0.25440926240E+04  0.25440926240E+04  0.25500000920E-02 0.  1.
       -2   -1    0    0    0  501  0.00000000000E+00  0.00000000000E+00 -0.14995986818E+04  0.14995986818E+04  0.25500000920E-02 0. -1.
    10030    2    1    2    0    0  0.00000000000E+00  0.00000000000E+00  0.10444939422E+04  0.40436913058E+04  0.39064653821E+04 0.  0.
        5    1    3    3  502    0 -0.11011479438E+04  0.11064534347E+04 -0.69301692634E+03  0.17079404403E+04  0.46999998093E+01 0. -1.
       -5    1    3    3    0  502  0.11011479438E+04 -0.11064534347E+04  0.17375108685E+04  0.23357508655E+04  0.46999998093E+01 0.  1.
</event>
<event>
 5   0  0.8438211E-08  0.3898685E+04  0.7818609E-02  0.8025303E-01
       -2   -1    0    0    0  501  0.00000000000E+00  0.00000000000E+00  0.17583259998E+04  0.17583259998E+04  0.25500000920E-02 0.  1.
        2   -1    0    0  501    0  0.00000000000E+00  0.00000000000E+00 -0.21611106704E+04  0.21611106704E+04  0.25500000920E-02 0. -1.
    10030    2    1    2    0    0  0.00000000000E+00  0.00000000000E+00 -0.40278467063E+03  0.39194366702E+04  0.38986854607E+04 0.  0.
        5    1    3    3  502    0  0.70824624966E+03  0.98662673071E+03 -0.17342604259E+04  0.21172449954E+04  0.46999998093E+01 0. -1.
       -5    1    3    3    0  502 -0.70824624966E+03 -0.98662673071E+03  0.13314757553E+04  0.18021916748E+04  0.46999998093E+01 0.  1.
</event>
<event>
 5   0  0.8476262E-08  0.3899132E+04  0.7818609E-02  0.8025210E-01
       -2   -1    0    0    0  501  0.00000000000E+00  0.00000000000E+00  0.13210179373E+04  0.13210179373E+04  0.25500000920E-02 0.  1.
        2   -1    0    0  501    0  0.00000000000E+00  0.00000000000E+00 -0.28771813361E+04  0.28771813361E+04  0.25500000920E-02 0. -1.
    10030    2    1    2    0    0  0.00000000000E+00  0.00000000000E+00 -0.15561633988E+04  0.41981992734E+04  0.38991322901E+04 0.  0.
        2    1    3    3  502    0  0.12155591645E+04  0.25227519647E+03 -0.23965681372E+04  0.26990305099E+04  0.25500000920E-02 0. -1.
       -2    1    3    3    0  502 -0.12155591645E+04 -0.25227519647E+03  0.84040473843E+03  0.14991687635E+04  0.25500000920E-02 0.  1.
</event>
<event>
 5   0  0.8476262E-08  0.3887556E+04  0.7818609E-02  0.8027622E-01
        2   -1    0    0  501    0  0.00000000000E+00  0.00000000000E+00  0.14519972786E+04  0.14519972786E+04  0.25500000920E-02 0.  1.
       -2   -1    0    0    0  501  0.00000000000E+00  0.00000000000E+00 -0.26021214156E+04  0.26021214156E+04  0.25500000920E-02 0. -1.
    10030    2    1    2    0    0  0.00000000000E+00  0.00000000000E+00 -0.11501241370E+04  0.40541186942E+04  0.38875561547E+04 0.  0.
        2    1    3    3  502    0  0.11724959752E+04  0.16438298311E+03 -0.21827032302E+04  0.24831355114E+04  0.25500000920E-02 0. -1.
       -2    1    3    3    0  502 -0.11724959752E+04 -0.16438298311E+03  0.10325790931E+04  0.15709831828E+04  0.25500000920E-02 0.  1.
</event>
<event>
 5   0  0.8551754E-08  0.3888210E+04  0.7818609E-02  0.8027486E-01
        2   -1    0    0  501    0  0.00000000000E+00  0.00000000000E+00  0.22058023222E+04  0.22058023222E+04  0.25500000920E-02 0. -1.
       -2   -1    0    0    0  501  0.00000000000E+00  0.00000000000E+00 -0.17134554765E+04  0.17134554765E+04  0.25500000920E-02 0.  1.
    10030    2    1    2    0    0  0.00000000000E+00  0.00000000000E+00  0.49234684570E+03  0.39192577987E+04  0.38882099064E+04 0.  0.
        1    1    3    3  502    0 -0.83288338361E+03  0.69138662369E+03  0.18739473577E+04  0.21641138819E+04  0.50400001928E-02 0. -1.
       -1    1    3    3    0  502  0.83288338361E+03 -0.69138662369E+03 -0.13816005120E+04  0.17551439169E+04  0.50400001928E-02 0.  1.
</event>
<event>
 5   0  0.2632875E-08  0.3901777E+04  0.7818609E-02  0.8024660E-01
        1   -1    0    0  501    0  0.00000000000E+00  0.00000000000E+00  0.12949490192E+04  0.12949490192E+04  0.50400001928E-02 0. -1.
       -1   -1    0    0    0  501  0.00000000000E+00  0.00000000000E+00 -0.29390854218E+04  0.29390854218E+04  0.50400001928E-02 0.  1.
    10030    2    1    2    0    0  0.00000000000E+00  0.00000000000E+00 -0.16441364026E+04  0.42340344410E+04  0.39017769205E+04 0.  0.
        5    1    3    3  502    0 -0.30467048528E+03 -0.69418462202E+03  0.11285654207E+04  0.13595581609E+04  0.46999998093E+01 0. -1.
       -5    1    3    3    0  502  0.30467048528E+03  0.69418462202E+03 -0.27727018233E+04  0.28744762801E+04  0.46999998093E+01 0.  1.
</event>
<event>
 5   0  0.2632875E-08  0.3905868E+04  0.7818609E-02  0.8023810E-01
        1   -1    0    0  501    0  0.00000000000E+00  0.00000000000E+00  0.22581384501E+04  0.22581384501E+04  0.50400001928E-02 0. -1.
       -1   -1    0    0    0  501  0.00000000000E+00  0.00000000000E+00 -0.16889804190E+04  0.16889804190E+04  0.50400001928E-02 0.  1.
    10030    2    1    2    0    0  0.00000000000E+00  0.00000000000E+00  0.56915803117E+03  0.39471188691E+04  0.39058682137E+04 0.  0.
        3    1    3    3  502    0  0.13745245453E+04 -0.10726099172E+04  0.11737246371E+04  0.21017705141E+04  0.10100000352E+00 0. -1.
       -3    1    3    3    0  502 -0.13745245453E+04  0.10726099172E+04 -0.60456660596E+03  0.18453483550E+04  0.10100000352E+00 0.  1.
</event>
<event>
 5   0  0.8676098E-08  0.3895662E+04  0.7818609E-02  0.8025932E-01
        2   -1    0    0  501    0  0.00000000000E+00  0.00000000000E+00  0.12744811413E+04  0.12744811413E+04  0.25500000920E-02 0. -1.
       -2   -1    0    0    0  501  0.00000000000E+00  0.00000000000E+00 -0.29769334910E+04  0.29769334910E+04  0.25500000920E-02 0.  1.
    10030    2    1    2    0    0  0.00000000000E+00  0.00000000000E+00 -0.17024523497E+04  0.42514146323E+04  0.38956619941E+04 0.  0.
        3    1    3    3  502    0 -0.55667343989E+03  0.18128879016E+04 -0.36611289932E+03  0.19314467447E+04  0.10100000352E+00 0. -1.
       -3    1    3    3    0  502  0.55667343989E+03 -0.18128879016E+04 -0.13363394503E+04  0.23199678875E+04  0.10100000352E+00 0.  1.
</event>
<event>
 5   0  0.2632875E-08  0.3941565E+04  0.7818609E-02  0.8016440E-01
        1   -1    0    0  501    0  0.00000000000E+00  0.00000000000E+00  0.25247836560E+04  0.25247836560E+04  0.50400001928E-02 0. -1.
       -1   -1    0    0    0  501  0.00000000000E+00  0.00000000000E+00 -0.15383433814E+04  0.15383433814E+04  0.50400001928E-02 0.  1.
    10030    2    1    2    0    0  0.00000000000E+00  0.00000000000E+00  0.98644027462E+03  0.40631270374E+04  0.39415652863E+04 0.  0.
        1    1    3    3  502    0  0.66112596805E+03 -0.62663560679E+03  0.22947528594E+04  0.24689371023E+04  0.50400001928E-02 0. -1.
       -1    1    3    3    0  502 -0.66112596805E+03  0.62663560679E+03 -0.13083125848E+04  0.15941899350E+04  0.50400001928E-02 0.  1.
</event>
<event>
 5   0  0.8476262E-08  0.3919882E+04  0.7818609E-02  0.8020907E-01
        2   -1    0    0  501    0  0.00000000000E+00  0.00000000000E+00  0.21259817395E+04  0.21259817395E+04  0.25500000920E-02 0.  1.
       -2   -1    0    0    0  501  0.00000000000E+00  0.00000000000E+00 -0.18068685597E+04  0.18068685597E+04  0.25500000920E-02 0. -1.
    10030    2    1    2    0    0  0.00000000000E+00  0.00000000000E+00  0.31911317980E+03  0.39328502992E+04  0.39198824287E+04 0.  0.
        2    1    3    3  502    0 -0.37351215129E+03  0.14962981231E+04  0.13730827429E+04  0.20648911882E+04  0.25500000920E-02 0.  1.
       -2    1    3    3    0  502  0.37351215129E+03 -0.14962981231E+04 -0.10539695631E+04  0.18679591110E+04  0.25500000920E-02 0. -1.
</event>
<event>
 5   0  0.2632875E-08  0.3895973E+04  0.7818609E-02  0.8025867E-01
       -1   -1    0    0    0  501  0.00000000000E+00  0.00000000000E+00  0.28101164904E+04  0.28101164904E+04  0.50400001928E-02 0. -1.
        1   -1    0    0  501    0  0.00000000000E+00  0.00000000000E+00 -0.13503536295E+04  0.13503536295E+04  0.50400001928E-02 0.  1.
    10030    2    1    2    0    0  0.00000000000E+00  0.00000000000E+00  0.14597628610E+04  0.41604701199E+04  0.38959727936E+04 0.  0.
        4    1    3    3  502    0 -0.43375999676E+03  0.16770768026E+04  0.16813917657E+04  0.24140866222E+04  0.12699999809E+01 0.  1.
       -4    1    3    3    0  502  0.43375999676E+03 -0.16770768026E+04 -0.22162890477E+03  0.17463834977E+04  0.12699999809E+01 0. -1.
</event>
<event>
 5   0  0.2632875E-08  0.3889676E+04  0.7818609E-02  0.8027180E-01
       -1   -1    0    0    0  501  0.00000000000E+00  0.00000000000E+00  0.13555221610E+04  0.13555221610E+04  0.50400001928E-02 0. -1.
        1   -1    0    0  501    0  0.00000000000E+00  0.00000000000E+00 -0.27903605797E+04  0.27903605797E+04  0.50400001928E-02 0.  1.
    10030    2    1    2    0    0  0.00000000000E+00  0.00000000000E+00 -0.14348384187E+04  0.41458827407E+04  0.38896763891E+04 0.  0.
        1    1    3    3  502    0  0.18962022360E+04  0.41625318312E+03 -0.84147259090E+03  0.21158747018E+04  0.50400001928E-02 0.  1.
       -1    1    3    3    0  502 -0.18962022360E+04 -0.41625318312E+03 -0.59336582779E+03  0.20300080389E+04  0.50400001928E-02 0. -1.
</event>
<event>
 5   0  0.2632875E-08  0.3907668E+04  0.7818609E-02  0.8023436E-01
       -1   -1    0    0    0  501  0.00000000000E+00  0.00000000000E+00  0.19117877948E+04  0.19117877948E+04  0.50400001928E-02 0.  1.
        1   -1    0    0  501    0  0.00000000000E+00  0.00000000000E+00 -0.19968046356E+04  0.19968046356E+04  0.50400001928E-02 0. -1.
    10030    2    1    2    0    0  0.00000000000E+00  0.00000000000E+00 -0.85016840804E+02  0.39085924304E+04  0.39076677090E+04 0.  0.
        2    1    3    3  502    0  0.14204945869E+03 -0.52967961784E+03  0.18332295140E+04  0.19134965370E+04  0.25500000920E-02 0.  1.
       -2    1    3    3    0  502 -0.14204945869E+03  0.52967961784E+03 -0.19182463548E+04  0.19950958934E+04  0.25500000920E-02 0. -1.
</event>
<event>
 5   0  0.2632875E-08  0.3905744E+04  0.7818609E-02  0.8023836E-01
        1   -1    0    0  501    0  0.00000000000E+00  0.00000000000E+00  0.12364002013E+04  0.12364002013E+04  0.50400001928E-02 0.  1.
       -1   -1    0    0    0  501  0.00000000000E+00  0.00000000000E+00 -0.30845256789E+04  0.30845256789E+04  0.50400001928E-02 0. -1.
    10030    2    1    2    0    0  0.00000000000E+00  0.00000000000E+00 -0.18481254776E+04  0.43209258803E+04  0.39057435505E+04 0.  0.
        5    1    3    3  502    0 -0.16224851722E+04  0.46181786620E+03  0.16436612217E+03  0.16949254224E+04  0.46999998093E+01 0.  1.
       -5    1    3    3    0  502  0.16224851722E+04 -0.46181786620E+03 -0.20124915998E+04  0.26260004579E+04  0.46999998093E+01 0. -1.
</event>
<event>
 5   0  0.8342802E-08  0.3899687E+04  0.7818609E-02  0.8025094E-01
       -2   -1    0    0    0  501  0.00000000000E+00  0.00000000000E+00  0.27067111935E+04  0.27067111935E+04  0.25500000920E-02 0. -1.
        2   -1    0    0  501    0  0.00000000000E+00  0.00000000000E+00 -0.14046159707E+04  0.14046159707E+04  0.25500000920E-02 0.  1.
    10030    2    1    2    0    0  0.00000000000E+00  0.00000000000E+00  0.13020952228E+04  0.41113271642E+04  0.38996870492E+04 0.  0.
        4    1    3    3  502    0  0.98708578227E+03  0.60959552634E+03 -0.10011478803E+04  0.15323980353E+04  0.12699999809E+01 0.  1.
       -4    1    3    3    0  502 -0.98708578227E+03 -0.60959552634E+03  0.23032431031E+04  0.25789291290E+04  0.12699999809E+01 0. -1.
</event>
<event>
 5   0  0.8342802E-08  0.3896088E+04  0.7818609E-02  0.8025843E-01
        2   -1    0    0  501    0  0.00000000000E+00  0.00000000000E+00  0.28344891045E+04  0.28344891045E+04  0.25500000920E-02 0.  1.
       -2   -1    0    0    0  501  0.00000000000E+00  0.00000000000E+00 -0.13388220012E+04  0.13388220012E+04  0.25500000920E-02 0. -1.
    10030    2    1    2    0    0  0.00000000000E+00  0.00000000000E+00  0.14956671032E+04  0.41733111057E+04  0.38960884874E+04 0.  0.
        4    1    3    3  502    0 -0.28082321754E+03 -0.12222319737E+04  0.23445941807E+04  0.26589163511E+04  0.12699999809E+01 0.  1.
       -4    1    3    3    0  502  0.28082321754E+03  0.12222319737E+04 -0.84892707745E+03  0.15143947546E+04  0.12699999809E+01 0. -1.
</event>
<event>
 5   0  0.2632875E-08  0.3896255E+04  0.7818609E-02  0.8025808E-01
        1   -1    0    0  501    0  0.00000000000E+00  0.00000000000E+00  0.29609164491E+04  0.29609164491E+04  0.50400001928E-02 0. -1.
       -1   -1    0    0    0  501  0.00000000000E+00  0.00000000000E+00 -0.12817658087E+04  0.12817658087E+04  0.50400001928E-02 0.  1.
    10030    2    1    2    0    0  0.00000000000E+00  0.00000000000E+00  0.16791506403E+04  0.42426822578E+04  0.38962553648E+04 0.  0.
        2    1    3    3  502    0  0.18195639457E+04  0.41434598913E+03  0.14484965885E+04  0.23623373845E+04  0.25500000920E-02 0.  1.
       -2    1    3    3    0  502 -0.18195639457E+04 -0.41434598913E+03  0.23065405182E+03  0.18803448734E+04  0.25500000920E-02 0. -1.
</event>
<event>
 5   0  0.8342802E-08  0.3897814E+04  0.7818609E-02  0.8025484E-01
        2   -1    0    0  501    0  0.00000000000E+00  0.00000000000E+00  0.13889223845E+04  0.13889223845E+04  0.25500000920E-02 0. -1.
       -2   -1    0    0    0  501  0.00000000000E+00  0.00000000000E+00 -0.27346653447E+04  0.27346653447E+04  0.25500000920E-02 0.  1.
    10030    2    1    2    0    0  0.00000000000E+00  0.00000000000E+00 -0.13457429602E+04  0.41235877291E+04  0.38978137006E+04 0.  0.
        4    1    3    3  502    0  0.28682561836E+03 -0.77189472440E+03  0.11958372384E+04  0.14519361950E+04  0.12699999809E+01 0. -1.
       -4    1    3    3    0  502 -0.28682561836E+03  0.77189472440E+03 -0.25415801986E+04  0.26716515341E+04  0.12699999809E+01 0.  1.
</event>
<event>
 5   0  0.8551754E-08  0.3896913E+04  0.7818609E-02  0.8025672E-01
       -2   -1    0    0    0  501  0.00000000000E+00  0.00000000000E+00  0.30557798874E+04  0.30557798874E+04  0.25500000920E-02 0.  1.
        2   -1    0    0  501    0  0.00000000000E+00  0.00000000000E+00 -0.12423939201E+04  0.12423939201E+04  0.25500000920E-02 0. -1.
    10030    2    1    2    0    0  0.00000000000E+00  0.00000000000E+00  0.18133859673E+04  0.42981738074E+04  0.38969128053E+04 0.  0.
        1    1    3    3  502    0  0.12043097441E+04  0.14052192179E+04  0.15789426871E+04  0.24327069324E+04  0.50400001928E-02 0.  1.
       -1    1    3    3    0  502 -0.12043097441E+04 -0.14052192179E+04  0.23444328023E+03  0.18654668750E+04  0.50400001928E-02 0. -1.
</event>
<event>
 5   0  0.8342802E-08  0.3896753E+04  0.7818609E-02  0.8025705E-01
       -2   -1    0    0    0  501  0.00000000000E+00  0.00000000000E+00  0.19360213686E+04  0.19360213686E+04  0.25500000920E-02 0. -1.
        2   -1    0    0  501    0  0.00000000000E+00  0.00000000000E+00 -0.19608100323E+04  0.19608100323E+04  0.25500000920E-02 0.  1.
    10030    2    1    2    0    0  0.00000000000E+00  0.00000000000E+00 -0.24788663758E+02  0.38968314009E+04  0.38967525568E+04 0.  0.
        4    1    3    3  502    0  0.10254471541E+04  0.13645421110E+04 -0.95190866867E+03  0.19543921728E+04  0.12699999809E+01 0.  1.
       -4    1    3    3    0  502 -0.10254471541E+04 -0.13645421110E+04  0.92712000492E+03  0.19424392281E+04  0.12699999809E+01 0. -1.
</event>
<event>
 5   0  0.2632875E-08  0.3833214E+04  0.7818609E-02  0.8039065E-01
        1   -1    0    0  501    0  0.00000000000E+00  0.00000000000E+00  0.20576779373E+04  0.20576779373E+04  0.50400001928E-02 0. -1.
       -1   -1    0    0    0  501  0.00000000000E+00  0.00000000000E+00 -0.17852078057E+04  0.17852078057E+04  0.50400001928E-02 0.  1.
    10030    2    1    2    0    0  0.00000000000E+00  0.00000000000E+00  0.27247013166E+03  0.38428857430E+04  0.38332141685E+04 0.  0.
        5    1    3    3  502    0 -0.15054195809E+04 -0.81212893074E+03 -0.73053825931E+03  0.18599864927E+04  0.46999998093E+01 0. -1.
       -5    1    3    3    0  502  0.15054195809E+04  0.81212893074E+03  0.10030083910E+04  0.19828992503E+04  0.46999998093E+01 0.  1.
</event>
<event>
 5   0  0.8438211E-08  0.3889521E+04  0.7818609E-02  0.8027212E-01
        2   -1    0    0  501    0  0.00000000000E+00  0.00000000000E+00  0.26039018331E+04  0.26039018331E+04  0.25500000920E-02 0.  1.
       -2   -1    0    0    0  501  0.00000000000E+00  0.00000000000E+00 -0.14524713842E+04  0.14524713842E+04  0.25500000920E-02 0. -1.
    10030    2    1    2    0    0  0.00000000000E+00  0.00000000000E+00  0.11514304489E+04  0.40563732173E+04  0.38895207416E+04 0.  0.
        5    1    3    3  502    0  0.15000352954E+04  0.78958562864E+03  0.15697668303E+04  0.23103552419E+04  0.46999998093E+01 0.  1.
       -5    1    3    3    0  502 -0.15000352954E+04 -0.78958562864E+03 -0.41833638144E+03  0.17460179754E+04  0.46999998093E+01 0. -1.
</event>
<event>
 5   0  0.2632875E-08  0.3902275E+04  0.7818609E-02  0.8024556E-01
       -1   -1    0    0    0  501  0.00000000000E+00  0.00000000000E+00  0.17734802426E+04  0.17734802426E+04  0.50400001928E-02 0. -1.
        1   -1    0    0  501    0  0.00000000000E+00  0.00000000000E+00 -0.21465915612E+04  0.21465915612E+04  0.50400001928E-02 0.  1.
    10030    2    1    2    0    0  0.00000000000E+00  0.00000000000E+00 -0.37311131862E+03  0.39200718038E+04  0.39022750917E+04 0.  0.
        5    1    3    3  502    0 -0.76319615924E+03 -0.16452306907E+04  0.53621380970E+03  0.18912429096E+04  0.46999998093E+01 0. -1.
       -5    1    3    3    0  502  0.76319615924E+03  0.16452306907E+04 -0.90932512832E+03  0.20288288943E+04  0.46999998093E+01 0.  1.
</event>
<event>
 5   0  0.2632875E-08  0.3922125E+04  0.7818609E-02  0.8020443E-01
       -1   -1    0    0    0  501  0.00000000000E+00  0.00000000000E+00  0.17669475659E+04  0.17669475659E+04  0.50400001928E-02 0. -1.
        1   -1    0    0  501    0  0.00000000000E+00  0.00000000000E+00 -0.21765024128E+04  0.21765024128E+04  0.50400001928E-02 0.  1.
    10030    2    1    2    0    0  0.00000000000E+00  0.00000000000E+00 -0.40955484689E+03  0.39434499788E+04  0.39221247510E+04 0.  0.
        3    1    3    3  502    0 -0.16714253571E+04 -0.10254400719E+04 -0.18065604498E+03  0.19692198156E+04  0.10100000352E+00 0.  1.
       -3    1    3    3    0  502  0.16714253571E+04  0.10254400719E+04 -0.22889880190E+03  0.19742301632E+04  0.10100000352E+00 0. -1.
</event>
<event>
 5   0  0.8438211E-08  0.3877032E+04  0.7818609E-02  0.8029823E-01
       -2   -1    0    0    0  501  0.00000000000E+00  0.00000000000E+00  0.20741482785E+04  0.20741482785E+04  0.25500000920E-02 0. -1.
        2   -1    0    0  501    0  0.00000000000E+00  0.00000000000E+00 -0.18117528016E+04  0.18117528016E+04  0.25500000920E-02 0.  1.
    10030    2    1    2    0    0  0.00000000000E+00  0.00000000000E+00  0.26239547688E+03  0.38859010802E+04  0.38770318310E+04 0.  0.
        5    1    3    3  502    0  0.11002089207E+04  0.54467424159E+03  0.16348604289E+04  0.20444853658E+04  0.46999998093E+01 0. -1.
       -5    1    3    3    0  502 -0.11002089207E+04 -0.54467424159E+03 -0.13724649521E+04  0.18414157144E+04  0.46999998093E+01 0.  1.
</event>
<event>
 5   0  0.2632875E-08  0.3911841E+04  0.7818609E-02  0.8022571E-01
       -1   -1    0    0    0  501  0.00000000000E+00  0.00000000000E+00  0.17543590880E+04  0.17543590880E+04  0.50400001928E-02 0. -1.
        1   -1    0    0  501    0  0.00000000000E+00  0.00000000000E+00 -0.21806392263E+04  0.21806392263E+04  0.50400001928E-02 0.  1.
    10030    2    1    2    0    0  0.00000000000E+00  0.00000000000E+00 -0.42628013826E+03  0.39349983144E+04  0.39118406125E+04 0.  0.
        1    1    3    3  502    0 -0.15175998159E+04 -0.85956257736E+02 -0.14513316761E+04  0.21016330112E+04  0.50400001928E-02 0.  1.
       -1    1    3    3    0  502  0.15175998159E+04  0.85956257736E+02  0.10250515379E+04  0.18333653032E+04  0.50400001928E-02 0. -1.
</event>
<event>
 5   0  0.2632875E-08  0.3917530E+04  0.7818609E-02  0.8021393E-01
       -1   -1    0    0    0  501  0.00000000000E+00  0.00000000000E+00  0.17859953700E+04  0.17859953700E+04  0.50400001928E-02 0. -1.
        1   -1    0    0  501    0  0.00000000000E+00  0.00000000000E+00 -0.21482475700E+04  0.21482475700E+04  0.50400001928E-02 0.  1.
    10030    2    1    2    0    0  0.00000000000E+00  0.00000000000E+00 -0.36225220002E+03  0.39342429400E+04  0.39175299430E+04 0.  0.
        4    1    3    3  502    0 -0.14105111640E+04 -0.13417490248E+04 -0.39867531508E+03  0.19871526890E+04  0.12699999809E+01 0.  1.
       -4    1    3    3    0  502  0.14105111640E+04  0.13417490248E+04  0.36423115059E+02  0.19470902510E+04  0.12699999809E+01 0. -1.
</event>
<event>
 5   0  0.2632875E-08  0.3895595E+04  0.7818609E-02  0.8025946E-01
        1   -1    0    0  501    0  0.00000000000E+00  0.00000000000E+00  0.22499967319E+04  0.22499967319E+04  0.50400001928E-02 0.  1.
       -1   -1    0    0    0  501  0.00000000000E+00  0.00000000000E+00 -0.16861865319E+04  0.16861865319E+04  0.50400001928E-02 0. -1.
    10030    2    1    2    0    0  0.00000000000E+00  0.00000000000E+00  0.56381020000E+03  0.39361832638E+04  0.38955945303E+04 0.  0.
        5    1    3    3  502    0 -0.14429054288E+04  0.45819876441E+03 -0.95641288197E+03  0.17907176983E+04  0.46999998093E+01 0. -1.
       -5    1    3    3    0  502  0.14429054288E+04 -0.45819876441E+03  0.15202230820E+04  0.21454655656E+04  0.46999998093E+01 0.  1.
</event>
<event>
 5   0  0.2632875E-08  0.3904056E+04  0.7818609E-02  0.8024186E-01
        1   -1    0    0  501    0  0.00000000000E+00  0.00000000000E+00  0.22315675057E+04  0.22315675057E+04  0.50400001928E-02 0. -1.
       -1   -1    0    0    0  501  0.00000000000E+00  0.00000000000E+00 -0.17075055886E+04  0.17075055886E+04  0.50400001928E-02 0.  1.
    10030    2    1    2    0    0  0.00000000000E+00  0.00000000000E+00  0.52406191714E+03  0.39390730943E+04  0.39040563455E+04 0.  0.
        1    1    3    3  502    0 -0.18588155576E+04 -0.33951905054E+03 -0.23220494274E+03  0.19037824451E+04  0.50400001928E-02 0.  1.
       -1    1    3    3    0  502  0.18588155576E+04  0.33951905054E+03  0.75626685989E+03  0.20352906491E+04  0.50400001928E-02 0. -1.
</event>
<event>
 5   0  0.2632875E-08  0.3901725E+04  0.7818609E-02  0.8024671E-01
        1   -1    0    0  501    0  0.00000000000E+00  0.00000000000E+00  0.16431772578E+04  0.16431772578E+04  0.50400001928E-02 0.  1.
       -1   -1    0    0    0  501  0.00000000000E+00  0.00000000000E+00 -0.23161614531E+04  0.23161614531E+04  0.50400001928E-02 0. -1.
    10030    2    1    2    0    0  0.00000000000E+00  0.00000000000E+00 -0.67298419526E+03  0.39593387109E+04  0.39017246572E+04 0.  0.
        1    1    3    3  502    0 -0.10023341408E+04  0.43577523835E+03 -0.19763023364E+04  0.22583942776E+04  0.50400001928E-02 0. -1.
       -1    1    3    3    0  502  0.10023341408E+04 -0.43577523835E+03  0.13033181411E+04  0.17009444333E+04  0.50400001928E-02 0.  1.
</event>
<event>
 5   0  0.8342802E-08  0.3902061E+04  0.7818609E-02  0.8024601E-01
       -2   -1    0    0    0  501  0.00000000000E+00  0.00000000000E+00  0.15795631682E+04  0.15795631682E+04  0.25500000920E-02 0.  1.
        2   -1    0    0  501    0  0.00000000000E+00  0.00000000000E+00 -0.24098561511E+04  0.24098561511E+04  0.25500000920E-02 0. -1.
    10030    2    1    2    0    0  0.00000000000E+00  0.00000000000E+00 -0.83029298291E+03  0.39894193193E+04  0.39020610025E+04 0.  0.
        4    1    3    3  502    0  0.99053149152E+03  0.61922553622E+03 -0.20127972031E+04  0.23272187465E+04  0.12699999809E+01 0. -1.
       -4    1    3    3    0  502 -0.99053149152E+03 -0.61922553622E+03  0.11825042202E+04  0.16622005728E+04  0.12699999809E+01 0.  1.
</event>
<event>
 5   0  0.2632875E-08  0.3907980E+04  0.7818609E-02  0.8023372E-01
        1   -1    0    0  501    0  0.00000000000E+00  0.00000000000E+00  0.19354008790E+04  0.19354008790E+04  0.50400001928E-02 0. -1.
       -1   -1    0    0    0  501  0.00000000000E+00  0.00000000000E+00 -0.19727574097E+04  0.19727574098E+04  0.50400001928E-02 0.  1.
    10030    2    1    2    0    0  0.00000000000E+00  0.00000000000E+00 -0.37356530775E+02  0.39081582887E+04  0.39079797465E+04 0.  0.
        4    1    3    3  502    0  0.21885937974E+03 -0.75988941912E+03 -0.18055848640E+04  0.19711594739E+04  0.12699999809E+01 0.  1.
       -4    1    3    3    0  502 -0.21885937974E+03  0.75988941912E+03  0.17682283332E+04  0.19369988149E+04  0.12699999809E+01 0. -1.
</event>
<event>
 5   0  0.2632875E-08  0.3897524E+04  0.7818609E-02  0.8025544E-01
        1   -1    0    0  501    0  0.00000000000E+00  0.00000000000E+00  0.28213707619E+04  0.28213707619E+04  0.50400001928E-02 0. -1.
       -1   -1    0    0    0  501  0.00000000000E+00  0.00000000000E+00 -0.13460381362E+04  0.13460381362E+04  0.50400001928E-02 0.  1.
    10030    2    1    2    0    0  0.00000000000E+00  0.00000000000E+00  0.14753326257E+04  0.41674088981E+04  0.38975236456E+04 0.  0.
        1    1    3    3  502    0 -0.61882717778E+03 -0.96246609906E+03 -0.94902693450E+03  0.14865867584E+04  0.50400001928E-02 0.  1.
       -1    1    3    3    0  502  0.61882717778E+03  0.96246609906E+03  0.24243595602E+04  0.26808221397E+04  0.50400001928E-02 0. -1.
</event>
<event>
 5   0  0.2632875E-08  0.3948155E+04  0.7818609E-02  0.8015088E-01
        1   -1    0    0  501    0  0.00000000000E+00  0.00000000000E+00  0.13324524398E+04  0.13324524398E+04  0.50400001928E-02 0. -1.
       -1   -1    0    0    0  501  0.00000000000E+00  0.00000000000E+00 -0.29246682879E+04  0.29246682879E+04  0.50400001928E-02 0.  1.
    10030    2    1    2    0    0  0.00000000000E+00  0.00000000000E+00 -0.15922158481E+04  0.42571207277E+04  0.39481547061E+04 0.  0.
        3    1    3    3  502    0  0.43262534701E+02 -0.52539949971E+03 -0.28473645765E+04  0.28957557430E+04  0.10100000352E+00 0.  1.
       -3    1    3    3    0  502 -0.43262534701E+02  0.52539949971E+03  0.12551487284E+04  0.13613649848E+04  0.10100000352E+00 0. -1.
</event>
<event>
 5   0  0.2632875E-08  0.3889462E+04  0.7818609E-02  0.8027224E-01
       -1   -1    0    0    0  501  0.00000000000E+00  0.00000000000E+00  0.18488720199E+04  0.18488720199E+04  0.50400001928E-02 0. -1.
        1   -1    0    0  501    0  0.00000000000E+00  0.00000000000E+00 -0.20455604761E+04  0.20455604761E+04  0.50400001928E-02 0.  1.
    10030    2    1    2    0    0  0.00000000000E+00  0.00000000000E+00 -0.19668845624E+03  0.38944324960E+04  0.38894624457E+04 0.  0.
        5    1    3    3  502    0  0.16231711598E+04  0.90408285376E+03 -0.67345350803E+03  0.19762621633E+04  0.46999998093E+01 0.  1.
       -5    1    3    3    0  502 -0.16231711598E+04 -0.90408285376E+03  0.47676505180E+03  0.19181703327E+04  0.46999998093E+01 0. -1.
</event>
<event>
 5   0  0.8342802E-08  0.4095960E+04  0.7818609E-02  0.7985463E-01
       -2   -1    0    0    0  501  0.00000000000E+00  0.00000000000E+00  0.21111878164E+04  0.21111878164E+04  0.25500000920E-02 0.  1.
        2   -1    0    0  501    0  0.00000000000E+00  0.00000000000E+00 -0.19866644095E+04  0.19866644095E+04  0.25500000920E-02 0. -1.
    10030    2    1    2    0    0  0.00000000000E+00  0.00000000000E+00  0.12452340692E+03  0.40978522258E+04  0.40959598125E+04 0.  0.
        4    1    3    3  502    0  0.73487343768E+03 -0.10166741058E+04  0.16818224251E+04  0.20981404837E+04  0.12699999809E+01 0.  1.
       -4    1    3    3    0  502 -0.73487343768E+03  0.10166741058E+04 -0.15572990182E+04  0.19997117422E+04  0.12699999809E+01 0. -1.
</event>
<event>
 5   0  0.2632875E-08  0.3938582E+04  0.7818609E-02  0.8017052E-01
       -1   -1    0    0    0  501  0.00000000000E+00  0.00000000000E+00  0.19077008689E+04  0.19077008689E+04  0.50400001928E-02 0. -1.
        1   -1    0    0  501    0  0.00000000000E+00  0.00000000000E+00 -0.20328700161E+04  0.20328700161E+04  0.50400001928E-02 0.  1.
    10030    2    1    2    0    0  0.00000000000E+00  0.00000000000E+00 -0.12516914720E+03  0.39405708849E+04  0.39385824333E+04 0.  0.
        2    1    3    3  502    0  0.16514800965E+04 -0.33903509567E+03 -0.10808294896E+04  0.20026291946E+04  0.25500000920E-02 0.  1.
       -2    1    3    3    0  502 -0.16514800965E+04  0.33903509567E+03  0.95566034238E+03  0.19379416904E+04  0.25500000920E-02 0. -1.
</event>
<event>
 5   0  0.2632875E-08  0.3907315E+04  0.7818609E-02  0.8023510E-01
       -1   -1    0    0    0  501  0.00000000000E+00  0.00000000000E+00  0.15572397184E+04  0.15572397184E+04  0.50400001928E-02 0.  1.
        1   -1    0    0  501    0  0.00000000000E+00  0.00000000000E+00 -0.24509889800E+04  0.24509889800E+04  0.50400001928E-02 0. -1.
    10030    2    1    2    0    0  0.00000000000E+00  0.00000000000E+00 -0.89374926163E+03  0.40082286984E+04  0.39073148780E+04 0.  0.
        4    1    3    3  502    0 -0.17345900528E+04  0.47599722684E+03 -0.12290632778E+04  0.21785256860E+04  0.12699999809E+01 0. -1.
       -4    1    3    3    0  502  0.17345900528E+04 -0.47599722684E+03  0.33531401615E+03  0.18297030123E+04  0.12699999809E+01 0.  1.
</event>
<event>
 5   0  0.8342802E-08  0.3898179E+04  0.7818609E-02  0.8025408E-01
       -2   -1    0    0    0  501  0.00000000000E+00  0.00000000000E+00  0.20915393937E+04  0.20915393937E+04  0.25500000920E-02 0.  1.
        2   -1    0    0  501    0  0.00000000000E+00  0.00000000000E+00 -0.18163412535E+04  0.18163412535E+04  0.25500000920E-02 0. -1.
    10030    2    1    2    0    0  0.00000000000E+00  0.00000000000E+00  0.27519814025E+03  0.39078806472E+04  0.38981786947E+04 0.  0.
        4    1    3    3  502    0 -0.10183389103E+04  0.92270517735E+03 -0.12480670637E+04  0.18563598759E+04  0.12699999809E+01 0. -1.
       -4    1    3    3    0  502  0.10183389103E+04 -0.92270517735E+03  0.15232652039E+04  0.20515207713E+04  0.12699999809E+01 0.  1.
</event>
<event>
 5   0  0.8438211E-08  0.3901302E+04  0.7818609E-02  0.8024759E-01
       -2   -1    0    0    0  501  0.00000000000E+00  0.00000000000E+00  0.14631085947E+04  0.14631085947E+04  0.25500000920E-02 0. -1.
        2   -1    0    0  501    0  0.00000000000E+00  0.00000000000E+00 -0.26006538089E+04  0.26006538089E+04  0.25500000920E-02 0.  1.
    10030    2    1    2    0    0  0.00000000000E+00  0.00000000000E+00 -0.11375452143E+04  0.40637624036E+04  0.39013018030E+04 0.  0.
        5    1    3    3  502    0  0.85123355850E+03  0.17076476046E+04 -0.99106581862E+03  0.21500912677E+04  0.46999998093E+01 0.  1.
       -5    1    3    3    0  502 -0.85123355850E+03 -0.17076476046E+04 -0.14647939563E+03  0.19136711358E+04  0.46999998093E+01 0. -1.
</event>
<event>
 5   0  0.2632875E-08  0.3893516E+04  0.7818609E-02  0.8026379E-01
        1   -1    0    0  501    0  0.00000000000E+00  0.00000000000E+00  0.18126289820E+04  0.18126289820E+04  0.50400001928E-02 0.  1.
       -1   -1    0    0    0  501  0.00000000000E+00  0.00000000000E+00 -0.20908124931E+04  0.20908124931E+04  0.50400001928E-02 0. -1.
    10030    2    1    2    0    0  0.00000000000E+00  0.00000000000E+00 -0.27818351112E+03  0.39034414751E+04  0.38935163135E+04 0.  0.
        4    1    3    3  502    0  0.51049917009E+03 -0.93825092154E+03 -0.17707975598E+04  0.20680062391E+04  0.12699999809E+01 0. -1.
       -4    1    3    3    0  502 -0.51049917009E+03  0.93825092154E+03  0.14926140486E+04  0.18354352360E+04  0.12699999809E+01 0.  1.
</event>
<event>
 5   0  0.8342802E-08  0.3917833E+04  0.7818609E-02  0.8021330E-01
       -2   -1    0    0    0  501  0.00000000000E+00  0.00000000000E+00  0.19238408666E+04  0.19238408666E+04  0.25500000920E-02 0.  1.
        2   -1    0    0  501    0  0.00000000000E+00  0.00000000000E+00 -0.19946318046E+04  0.19946318046E+04  0.25500000920E-02 0. -1.
    10030    2    1    2    0    0  0.00000000000E+00  0.00000000000E+00 -0.70790937998E+02  0.39184726711E+04  0.39178331661E+04 0.  0.
        4    1    3    3  502    0  0.12880423310E+04 -0.14535015076E+04 -0.29162644966E+03  0.19638653921E+04  0.12699999809E+01 0. -1.
       -4    1    3    3    0  502 -0.12880423310E+04  0.14535015076E+04  0.22083551166E+03  0.19546072790E+04  0.12699999809E+01 0.  1.
</event>
<event>
 5   0  0.8676098E-08  0.3911278E+04  0.7818609E-02  0.8022688E-01
        2   -1    0    0  501    0  0.00000000000E+00  0.00000000000E+00  0.16333854092E+04  0.16333854092E+04  0.25500000920E-02 0.  1.
       -2   -1    0    0    0  501  0.00000000000E+00  0.00000000000E+00 -0.23414707162E+04  0.23414707162E+04  0.25500000920E-02 0. -1.
    10030    2    1    2    0    0  0.00000000000E+00  0.00000000000E+00 -0.70808530700E+03  0.39748561254E+04  0.39112781051E+04 0.  0.
        3    1    3    3  502    0 -0.18011096682E+04 -0.75594683926E+03 -0.45084025517E+03  0.20046716955E+04  0.10100000352E+00 0. -1.
       -3    1    3    3    0  502  0.18011096682E+04  0.75594683926E+03 -0.25724505183E+03  0.19701844299E+04  0.10100000352E+00 0.  1.
</event>
<event>
 5   0  0.2632875E-08  0.3891949E+04  0.7818609E-02  0.8026706E-01
       -1   -1    0    0    0  501  0.00000000000E+00  0.00000000000E+00  0.20956894543E+04  0.20956894543E+04  0.50400001928E-02 0.  1.
        1   -1    0    0  501    0  0.00000000000E+00  0.00000000000E+00 -0.18069547439E+04  0.18069547439E+04  0.50400001928E-02 0. -1.
    10030    2    1    2    0    0  0.00000000000E+00  0.00000000000E+00  0.28873471040E+03  0.39026441981E+04  0.38919486127E+04 0.  0.
        5    1    3    3  502    0  0.12682062778E+03  0.14631654757E+04 -0.11357996894E+04  0.18566097343E+04  0.46999998093E+01 0. -1.
       -5    1    3    3    0  502 -0.12682062778E+03 -0.14631654757E+04  0.14245343998E+04  0.20460344638E+04  0.46999998093E+01 0.  1.
</event>
<event>
 5   0  0.8476262E-08  0.3915461E+04  0.7818609E-02  0.8021821E-01
        2   -1    0    0  501    0  0.00000000000E+00  0.00000000000E+00  0.18232168950E+04  0.18232168950E+04  0.25500000920E-02 0.  1.
       -2   -1    0    0    0  501  0.00000000000E+00  0.00000000000E+00 -0.21021677841E+04  0.21021677842E+04  0.25500000920E-02 0. -1.
    10030    2    1    2    0    0  0.00000000000E+00  0.00000000000E+00 -0.27895088918E+03  0.39253846791E+04  0.39154605451E+04 0.  0.
        2    1    3    3  502    0  0.19185562897E+04  0.27422571621E+03  0.13808335311E+03  0.19429680884E+04  0.25500000920E-02 0. -1.
       -2    1    3    3    0  502 -0.19185562897E+04 -0.27422571621E+03 -0.41703424229E+03  0.19824165907E+04  0.25500000920E-02 0.  1.
</event>
<event>
 5   0  0.8476262E-08  0.3900727E+04  0.7818609E-02  0.8024878E-01
        2   -1    0    0  501    0  0.00000000000E+00  0.00000000000E+00  0.19275160035E+04  0.19275160035E+04  0.25500000920E-02 0.  1.
       -2   -1    0    0    0  501  0.00000000000E+00  0.00000000000E+00 -0.19734821565E+04  0.19734821565E+04  0.25500000920E-02 0. -1.
    10030    2    1    2    0    0  0.00000000000E+00  0.00000000000E+00 -0.45966153028E+02  0.39009981600E+04  0.39007273369E+04 0.  0.
        2    1    3    3  502    0 -0.13852791585E+04 -0.36427597135E+02 -0.13955189350E+04  0.19666719134E+04  0.25500000920E-02 0. -1.
       -2    1    3    3    0  502  0.13852791585E+04  0.36427597135E+02  0.13495527820E+04  0.19343262466E+04  0.25500000920E-02 0.  1.
</event>
<event>
 5   0  0.2632875E-08  0.3876062E+04  0.7818609E-02  0.8030026E-01
        1   -1    0    0  501    0  0.00000000000E+00  0.00000000000E+00  0.17600025489E+04  0.17600025489E+04  0.50400001928E-02 0.  1.
       -1   -1    0    0    0  501  0.00000000000E+00  0.00000000000E+00 -0.21340671130E+04  0.21340671130E+04  0.50400001928E-02 0. -1.
    10030    2    1    2    0    0  0.00000000000E+00  0.00000000000E+00 -0.37406456412E+03  0.38940696620E+04  0.38760616912E+04 0.  0.
        3    1    3    3  502    0 -0.46753737432E+03  0.36713433928E+03  0.16661473148E+04  0.17690182883E+04  0.10100000352E+00 0.  1.
       -3    1    3    3    0  502  0.46753737432E+03 -0.36713433928E+03 -0.20402118789E+04  0.21250513737E+04  0.10100000352E+00 0. -1.
</event>
<event>
 5   0  0.8676098E-08  0.3897086E+04  0.7818609E-02  0.8025636E-01
       -2   -1    0    0    0  501  0.00000000000E+00  0.00000000000E+00  0.25589226557E+04  0.25589226557E+04  0.25500000920E-02 0.  1.
        2   -1    0    0  501    0  0.00000000000E+00  0.00000000000E+00 -0.14837572783E+04  0.14837572783E+04  0.25500000920E-02 0. -1.
    10030    2    1    2    0    0  0.00000000000E+00  0.00000000000E+00  0.10751653774E+04  0.40426799340E+04  0.38970861499E+04 0.  0.
        3    1    3    3  502    0 -0.12419876692E+04  0.11501934211E+04 -0.46353216830E+03  0.17550898432E+04  0.10100000352E+00 0. -1.
       -3    1    3    3    0  502  0.12419876692E+04 -0.11501934211E+04  0.15386975457E+04  0.22875900908E+04  0.10100000352E+00 0.  1.
</event>
<event>
 5   0  0.2632875E-08  0.3916003E+04  0.7818609E-02  0.8021709E-01
       -1   -1    0    0    0  501  0.00000000000E+00  0.00000000000E+00  0.16753945300E+04  0.16753945300E+04  0.50400001928E-02 0. -1.
        1   -1    0    0  501    0  0.00000000000E+00  0.00000000000E+00 -0.22882794203E+04  0.22882794203E+04  0.50400001928E-02 0.  1.
    10030    2    1    2    0    0  0.00000000000E+00  0.00000000000E+00 -0.61288489028E+03  0.39636739503E+04  0.39160034851E+04 0.  0.
        4    1    3    3  502    0  0.26730316459E+03  0.82939792270E+03 -0.20811886719E+04  0.22562579190E+04  0.12699999809E+01 0.  1.
       -4    1    3    3    0  502 -0.26730316459E+03 -0.82939792270E+03  0.14683037816E+04  0.17074160313E+04  0.12699999809E+01 0. -1.
</event>
<event>
 5   0  0.2632875E-08  0.3899751E+04  0.7818609E-02  0.8025081E-01
        1   -1    0    0  501    0  0.00000000000E+00  0.00000000000E+00  0.19009054961E+04  0.19009054961E+04  0.50400001928E-02 0.  1.
       -1   -1    0    0    0  501  0.00000000000E+00  0.00000000000E+00 -0.20001067038E+04  0.20001067038E+04  0.50400001928E-02 0. -1.
    10030    2    1    2    0    0  0.00000000000E+00  0.00000000000E+00 -0.99201207751E+02  0.39010121999E+04  0.38997506720E+04 0.  0.
        3    1    3    3  502    0  0.12752487797E+04  0.12391655272E+04 -0.84999890447E+03  0.19708599143E+04  0.10100000352E+00 0. -1.
       -3    1    3    3    0  502 -0.12752487797E+04 -0.12391655272E+04  0.75079769672E+03  0.19301522856E+04  0.10100000352E+00 0.  1.
</event>
<event>
 5   0  0.8476262E-08  0.3877577E+04  0.7818609E-02  0.8029709E-01
        2   -1    0    0  501    0  0.00000000000E+00  0.00000000000E+00  0.23965184819E+04  0.23965184819E+04  0.25500000920E-02 0.  1.
       -2   -1    0    0    0  501  0.00000000000E+00  0.00000000000E+00 -0.15684840102E+04  0.15684840102E+04  0.25500000920E-02 0. -1.
    10030    2    1    2    0    0  0.00000000000E+00  0.00000000000E+00  0.82803447164E+03  0.39650024921E+04  0.38775770368E+04 0.  0.
        2    1    3    3  502    0  0.56380324834E+03  0.14483969157E+04 -0.77106649826E+03  0.17350133351E+04  0.25500000920E-02 0. -1.
       -2    1    3    3    0  502 -0.56380324834E+03 -0.14483969157E+04  0.15991009699E+04  0.22299891570E+04  0.25500000920E-02 0.  1.
</event>
<event>
 5   0  0.2632875E-08  0.3885814E+04  0.7818609E-02  0.8027986E-01
       -1   -1    0    0    0  501  0.00000000000E+00  0.00000000000E+00  0.18750529835E+04  0.18750529835E+04  0.50400001928E-02 0.  1.
        1   -1    0    0  501    0  0.00000000000E+00  0.00000000000E+00 -0.20132161728E+04  0.20132161728E+04  0.50400001928E-02 0. -1.
    10030    2    1    2    0    0  0.00000000000E+00  0.00000000000E+00 -0.13816318931E+03  0.38882691563E+04  0.38858136812E+04 0.  0.
        5    1    3    3  502    0 -0.89008169749E+03  0.36744326474E+03  0.16194695309E+04  0.18841347172E+04  0.46999998093E+01 0.  1.
       -5    1    3    3    0  502  0.89008169749E+03 -0.36744326474E+03 -0.17576327202E+04  0.20041344391E+04  0.46999998093E+01 0. -1.
</event>
<event>
 5   0  0.8342802E-08  0.3920448E+04  0.7818609E-02  0.8020790E-01
       -2   -1    0    0    0  501  0.00000000000E+00  0.00000000000E+00  0.13746858884E+04  0.13746858884E+04  0.25500000920E-02 0. -1.
        2   -1    0    0  501    0  0.00000000000E+00  0.00000000000E+00 -0.27951685116E+04  0.27951685116E+04  0.25500000920E-02 0.  1.
    10030    2    1    2    0    0  0.00000000000E+00  0.00000000000E+00 -0.14204826232E+04  0.41698544000E+04  0.39204482951E+04 0.  0.
        4    1    3    3  502    0 -0.14033138320E+04  0.58353396049E+03  0.60652973355E+03  0.16363622841E+04  0.12699999809E+01 0. -1.
       -4    1    3    3    0  502  0.14033138320E+04 -0.58353396049E+03 -0.20270123568E+04  0.25334921159E+04  0.12699999809E+01 0.  1.
</event>
<event>
 5   0  0.8676098E-08  0.3833829E+04  0.7818609E-02  0.8038934E-01
        2   -1    0    0  501    0  0.00000000000E+00  0.00000000000E+00  0.22186526223E+04  0.22186526223E+04  0.25500000920E-02 0.  1.
       -2   -1    0    0    0  501  0.00000000000E+00  0.00000000000E+00 -0.16562133298E+04  0.16562133298E+04  0.25500000920E-02 0. -1.
    10030    2    1    2    0    0  0.00000000000E+00  0.00000000000E+00  0.56243929245E+03  0.38748659521E+04  0.38338294418E+04 0.  0.
        3    1    3    3  502    0 -0.44366225698E+03 -0.14719269848E+04  0.14385336521E+04  0.21054178505E+04  0.10100000352E+00 0.  1.
       -3    1    3    3    0  502  0.44366225698E+03  0.14719269848E+04 -0.87609435967E+03  0.17694481015E+04  0.10100000352E+00 0. -1.
</event>
<event>
 5   0  0.8438211E-08  0.3909432E+04  0.7818609E-02  0.8023070E-01
        2   -1    0    0  501    0  0.00000000000E+00  0.00000000000E+00  0.24048205239E+04  0.24048205239E+04  0.25500000920E-02 0. -1.
       -2   -1    0    0    0  501  0.00000000000E+00  0.00000000000E+00 -0.15888567384E+04  0.15888567384E+04  0.25500000920E-02 0.  1.
    10030    2    1    2    0    0  0.00000000000E+00  0.00000000000E+00  0.81596378549E+03  0.39936772622E+04  0.39094323342E+04 0.  0.
        5    1    3    3  502    0  0.11581520234E+04  0.10025785833E+04  0.16484022407E+04  0.22502737528E+04  0.46999998093E+01 0. -1.
       -5    1    3    3    0  502 -0.11581520234E+04 -0.10025785833E+04 -0.83243845524E+03  0.17434035095E+04  0.46999998093E+01 0.  1.
</event>
<event>
 5   0  0.2632875E-08  0.3898451E+04  0.7818609E-02  0.8025351E-01
       -1   -1    0    0    0  501  0.00000000000E+00  0.00000000000E+00  0.30701984151E+04  0.30701984151E+04  0.50400001928E-02 0. -1.
        1   -1    0    0  501    0  0.00000000000E+00  0.00000000000E+00 -0.12375358496E+04  0.12375358496E+04  0.50400001928E-02 0.  1.
    10030    2    1    2    0    0  0.00000000000E+00  0.00000000000E+00  0.18326625654E+04  0.43077342647E+04  0.38984512844E+04 0.  0.
        4    1    3    3  502    0  0.98109351257E+03  0.27350880586E+03 -0.92011677663E+03  0.13725771537E+04  0.12699999809E+01 0.  1.
       -4    1    3    3    0  502 -0.98109351257E+03 -0.27350880586E+03  0.27527793421E+04  0.29351571110E+04  0.12699999809E+01 0. -1.
</event>
<event>
 5   0  0.2632875E-08  0.3903997E+04  0.7818609E-02  0.8024198E-01
       -1   -1    0    0    0  501  0.00000000000E+00  0.00000000000E+00  0.15120727569E+04  0.15120727569E+04  0.50400001928E-02 0.  1.
        1   -1    0    0  501    0  0.00000000000E+00  0.00000000000E+00 -0.25199172364E+04  0.25199172364E+04  0.50400001928E-02 0. -1.
    10030    2    1    2    0    0  0.00000000000E+00  0.00000000000E+00 -0.10078444795E+04  0.40319899932E+04  0.39039970300E+04 0.  0.
        3    1    3    3  502    0 -0.47175386128E+03 -0.12137273252E+04  0.99792361824E+03  0.16405905289E+04  0.10100000352E+00 0.  1.
       -3    1    3    3    0  502  0.47175386128E+03  0.12137273252E+04 -0.20057680977E+04  0.23913994643E+04  0.10100000352E+00 0. -1.
</event>
<event>
 5   0  0.2632875E-08  0.3894186E+04  0.7818609E-02  0.8026239E-01
       -1   -1    0    0    0  501  0.00000000000E+00  0.00000000000E+00  0.17004688645E+04  0.17004688645E+04  0.50400001928E-02 0.  1.
        1   -1    0    0  501    0  0.00000000000E+00  0.00000000000E+00 -0.22294861323E+04  0.22294861323E+04  0.50400001928E-02 0. -1.
    10030    2    1    2    0    0  0.00000000000E+00  0.00000000000E+00 -0.52901726781E+03  0.39299549968E+04  0.38941863087E+04 0.  0.
        5    1    3    3  502    0 -0.18027593929E+04 -0.32444910043E+03 -0.93083149955E+03  0.20546722410E+04  0.46999998093E+01 0. -1.
       -5    1    3    3    0  502  0.18027593929E+04  0.32444910043E+03  0.40181423174E+03  0.18752827558E+04  0.46999998093E+01 0.  1.
</event>
<event>
 5   0  0.8342802E-08  0.3910116E+04  0.7818609E-02  0.8022929E-01
        2   -1    0    0  501    0  0.00000000000E+00  0.00000000000E+00  0.18045914157E+04  0.18045914157E+04  0.25500000920E-02 0.  1.
       -2   -1    0    0    0  501  0.00000000000E+00  0.00000000000E+00 -0.21180701783E+04  0.21180701783E+04  0.25500000920E-02 0. -1.
    10030    2    1    2    0    0  0.00000000000E+00  0.00000000000E+00 -0.31347876257E+03  0.39226615940E+04  0.39101157331E+04 0.  0.
        4    1    3    3  502    0  0.14592660133E+04 -0.10116908749E+04  0.66397715481E+03  0.18957433896E+04  0.12699999809E+01 0.  1.
       -4    1    3    3    0  502 -0.14592660133E+04  0.10116908749E+04 -0.97745591738E+03  0.20269182044E+04  0.12699999809E+01 0. -1.
</event>
<event>
 5   0  0.8551754E-08  0.3903575E+04  0.7818609E-02  0.8024286E-01
       -2   -1    0    0    0  501  0.00000000000E+00  0.00000000000E+00  0.18279143486E+04  0.18279143486E+04  0.25500000920E-02 0.  1.
        2   -1    0    0  501    0  0.00000000000E+00  0.00000000000E+00 -0.20840549501E+04  0.20840549501E+04  0.25500000920E-02 0. -1.
    10030    2    1    2    0    0  0.00000000000E+00  0.00000000000E+00 -0.25614060144E+03  0.39119692987E+04  0.39035747445E+04 0.  0.
        1    1    3    3  502    0 -0.11854465656E+04  0.33669964857E+03  0.13887312890E+04  0.18566703547E+04  0.50400001928E-02 0.  1.
       -1    1    3    3    0  502  0.11854465656E+04 -0.33669964857E+03 -0.16448718904E+04  0.20552989440E+04  0.50400001928E-02 0. -1.
</event>
<event>
 5   0  0.8438211E-08  0.3866269E+04  0.7818609E-02  0.8032081E-01
        2   -1    0    0  501    0  0.00000000000E+00  0.00000000000E+00  0.27556220755E+04  0.27556220755E+04  0.25500000920E-02 0.  1.
       -2   -1    0    0    0  501  0.00000000000E+00  0.00000000000E+00 -0.13561399958E+04  0.13561399958E+04  0.25500000920E-02 0. -1.
    10030    2    1    2    0    0  0.00000000000E+00  0.00000000000E+00  0.13994820797E+04  0.41117620713E+04  0.38662691629E+04 0.  0.
        5    1    3    3  502    0 -0.62427666349E+03 -0.13885894117E+04  0.19666346427E+04  0.24870817869E+04  0.46999998093E+01 0.  1.
       -5    1    3    3    0  502  0.62427666349E+03  0.13885894117E+04 -0.56715256305E+03  0.16246802844E+04  0.46999998093E+01 0. -1.
</event>
<event>
 5   0  0.8342802E-08  0.3907206E+04  0.7818609E-02  0.8023532E-01
       -2   -1    0    0    0  501  0.00000000000E+00  0.00000000000E+00  0.12626070545E+04  0.12626070545E+04  0.25500000920E-02 0. -1.
        2   -1    0    0  501    0  0.00000000000E+00  0.00000000000E+00 -0.30227657952E+04  0.30227657952E+04  0.25500000920E-02 0.  1.
    10030    2    1    2    0    0  0.00000000000E+00  0.00000000000E+00 -0.17601587407E+04  0.42853728498E+04  0.39072063765E+04 0.  0.
        4    1    3    3  502    0  0.11636213134E+04 -0.65080874591E+03  0.68606062143E+03  0.14994156775E+04  0.12699999809E+01 0. -1.
       -4    1    3    3    0  502 -0.11636213134E+04  0.65080874591E+03 -0.24462193621E+04  0.27859571722E+04  0.12699999809E+01 0.  1.
</event>
<event>
 5   0  0.8476262E-08  0.3889933E+04  0.7818609E-02  0.8027126E-01
        2   -1    0    0  501    0  0.00000000000E+00  0.00000000000E+00  0.14059198002E+04  0.14059198002E+04  0.25500000920E-02 0. -1.
       -2   -1    0    0    0  501  0.00000000000E+00  0.00000000000E+00 -0.26906904191E+04  0.26906904191E+04  0.25500000920E-02 0.  1.
    10030    2    1    2    0    0  0.00000000000E+00  0.00000000000E+00 -0.12847706190E+04  0.40966102193E+04  0.38899331287E+04 0.  0.
        2    1    3    3  502    0 -0.28695241985E+03  0.12935547219E+04 -0.21418569071E+04  0.25185663621E+04  0.25500000920E-02 0.  1.
       -2    1    3    3    0  502  0.28695241985E+03 -0.12935547219E+04  0.85708628817E+03  0.15780438572E+04  0.25500000920E-02 0. -1.
</event>
<event>
 5   0  0.8438211E-08  0.3902378E+04  0.7818609E-02  0.8024535E-01
        2   -1    0    0  501    0  0.00000000000E+00  0.00000000000E+00  0.21758523748E+04  0.21758523748E+04  0.25500000920E-02 0.  1.
       -2   -1    0    0    0  501  0.00000000000E+00  0.00000000000E+00 -0.17497223582E+04  0.17497223582E+04  0.25500000920E-02 0. -1.
    10030    2    1    2    0    0  0.00000000000E+00  0.00000000000E+00  0.42613001657E+03  0.39255747330E+04  0.39023775053E+04 0.  0.
        5    1    3    3  502    0 -0.55331954790E+03  0.18630656734E+04  0.38712313474E+03  0.19816817698E+04  0.46999998093E+01 0. -1.
       -5    1    3    3    0  502  0.55331954790E+03 -0.18630656734E+04  0.39006881830E+02  0.19438929632E+04  0.46999998093E+01 0.  1.
</event>
<event>
 5   0  0.8438211E-08  0.3868229E+04  0.7818609E-02  0.8031670E-01
        2   -1    0    0  501    0  0.00000000000E+00  0.00000000000E+00  0.15921124915E+04  0.15921124915E+04  0.25500000920E-02 0.  1.
       -2   -1    0    0    0  501  0.00000000000E+00  0.00000000000E+00 -0.23495819808E+04  0.23495819808E+04  0.25500000920E-02 0. -1.
    10030    2    1    2    0    0  0.00000000000E+00  0.00000000000E+00 -0.75746948924E+03  0.39416944723E+04  0.38682289599E+04 0.  0.
        5    1    3    3  502    0 -0.31638831291E+03  0.18025042472E+04 -0.10164427237E+04  0.20933946179E+04  0.46999998093E+01 0. -1.
       -5    1    3    3    0  502  0.31638831291E+03 -0.18025042472E+04  0.25897323451E+03  0.18482998544E+04  0.46999998093E+01 0.  1.
</event>
<event>
 5   0  0.2632875E-08  0.3897911E+04  0.7818609E-02  0.8025464E-01
        1   -1    0    0  501    0  0.00000000000E+00  0.00000000000E+00  0.13452400778E+04  0.13452400778E+04  0.50400001928E-02 0.  1.
       -1   -1    0    0    0  501  0.00000000000E+00  0.00000000000E+00 -0.28236061816E+04  0.28236061816E+04  0.50400001928E-02 0. -1.
    10030    2    1    2    0    0  0.00000000000E+00  0.00000000000E+00 -0.14783661037E+04  0.41688462594E+04  0.38979113379E+04 0.  0.
        2    1    3    3  502    0  0.61424735271E+03  0.14475442685E+04 -0.19706244650E+04  0.25211197912E+04  0.25500000920E-02 0. -1.
       -2    1    3    3    0  502 -0.61424735271E+03 -0.14475442685E+04  0.49225836129E+03  0.16477264682E+04  0.25500000920E-02 0.  1.
</event>
<event>
 5   0  0.2632875E-08  0.3912857E+04  0.7818609E-02  0.8022361E-01
       -1   -1    0    0    0  501  0.00000000000E+00  0.00000000000E+00  0.15058261649E+04  0.15058261649E+04  0.50400001928E-02 0.  1.
        1   -1    0    0  501    0  0.00000000000E+00  0.00000000000E+00 -0.25418686916E+04  0.25418686916E+04  0.50400001928E-02 0. -1.
    10030    2    1    2    0    0  0.00000000000E+00  0.00000000000E+00 -0.10360425267E+04  0.40476948565E+04  0.39128569530E+04 0.  0.
        2    1    3    3  502    0 -0.26703377405E+03  0.14472637042E+04  0.81548307015E+03  0.16825254541E+04  0.25500000920E-02 0.  1.
       -2    1    3    3    0  502  0.26703377405E+03 -0.14472637042E+04 -0.18515255969E+04  0.23651694024E+04  0.25500000920E-02 0. -1.
</event>
<event>
 5   0  0.2632875E-08  0.3909579E+04  0.7818609E-02  0.8023040E-01
        1   -1    0    0  501    0  0.00000000000E+00  0.00000000000E+00  0.18837434562E+04  0.18837434562E+04  0.50400001928E-02 0. -1.
       -1   -1    0    0    0  501  0.00000000000E+00  0.00000000000E+00 -0.20285152330E+04  0.20285152330E+04  0.50400001928E-02 0.  1.
    10030    2    1    2    0    0  0.00000000000E+00  0.00000000000E+00 -0.14477177680E+03  0.39122586892E+04  0.39095791568E+04 0.  0.
        2    1    3    3  502    0  0.11128115779E+04 -0.87947272934E+03 -0.14184399247E+04  0.20059396076E+04  0.25500000920E-02 0.  1.
       -2    1    3    3    0  502 -0.11128115779E+04  0.87947272934E+03  0.12736681479E+04  0.19063190815E+04  0.25500000920E-02 0. -1.
</event>
<event>
 5   0  0.2632875E-08  0.3907777E+04  0.7818609E-02  0.8023414E-01
       -1   -1    0    0    0  501  0.00000000000E+00  0.00000000000E+00  0.29270763726E+04  0.29270763726E+04  0.50400001928E-02 0.  1.
        1   -1    0    0  501    0  0.00000000000E+00  0.00000000000E+00 -0.13042639829E+04  0.13042639829E+04  0.50400001928E-02 0. -1.
    10030    2    1    2    0    0  0.00000000000E+00  0.00000000000E+00  0.16228123897E+04  0.42313403556E+04  0.39077770090E+04 0.  0.
        5    1    3    3  502    0 -0.10718154278E+03  0.12575426584E+04 -0.80365676027E+03  0.14962578986E+04  0.46999998093E+01 0. -1.
       -5    1    3    3    0  502  0.10718154278E+03 -0.12575426584E+04  0.24264691500E+04  0.27350824570E+04  0.46999998093E+01 0.  1.
</event>
<event>
 5   0  0.8676098E-08  0.3898296E+04  0.7818609E-02  0.8025384E-01
        2   -1    0    0  501    0  0.00000000000E+00  0.00000000000E+00  0.27401847506E+04  0.27401847506E+04  0.25500000920E-02 0.  1.
       -2   -1    0    0    0  501  0.00000000000E+00  0.00000000000E+00 -0.13864681308E+04  0.13864681308E+04  0.25500000920E-02 0. -1.
    10030    2    1    2    0    0  0.00000000000E+00  0.00000000000E+00  0.13537166199E+04  0.41266528814E+04  0.38982964634E+04 0.  0.
        3    1    3    3  502    0 -0.11705470283E+04  0.14078609858E+04 -0.30828083861E+02  0.18311753826E+04  0.10100000352E+00 0. -1.
       -3    1    3    3    0  502  0.11705470283E+04 -0.14078609858E+04  0.13845447037E+04  0.22954774988E+04  0.10100000352E+00 0.  1.
</event>
<event>
 5   0  0.2632875E-08  0.3890553E+04  0.7818609E-02  0.8026997E-01
        1   -1    0    0  501    0  0.00000000000E+00  0.00000000000E+00  0.13941446753E+04  0.13941446753E+04  0.50400001928E-02 0. -1.
       -1   -1    0    0    0  501  0.00000000000E+00  0.00000000000E+00 -0.27142818070E+04  0.27142818071E+04  0.50400001928E-02 0.  1.
    10030    2    1    2    0    0  0.00000000000E+00  0.00000000000E+00 -0.13201371318E+04  0.41084264823E+04  0.38905534457E+04 0.  0.
        3    1    3    3  502    0 -0.80189150854E+03 -0.17716479565E+04 -0.60904018979E+03  0.20378165856E+04  0.10100000352E+00 0.  1.
       -3    1    3    3    0  502  0.80189150854E+03  0.17716479565E+04 -0.71109694200E+03  0.20706098968E+04  0.10100000352E+00 0. -1.
</event>
<event>
 5   0  0.2632875E-08  0.3907859E+04  0.7818609E-02  0.8023397E-01
        1   -1    0    0  501    0  0.00000000000E+00  0.00000000000E+00  0.15043698875E+04  0.15043698875E+04  0.50400001928E-02 0.  1.
       -1   -1    0    0    0  501  0.00000000000E+00  0.00000000000E+00 -0.25378338643E+04  0.25378338643E+04  0.50400001928E-02 0. -1.
    10030    2    1    2    0    0  0.00000000000E+00  0.00000000000E+00 -0.10334639768E+04  0.40422037518E+04  0.39078591812E+04 0.  0.
        2    1    3    3  502    0 -0.13871608539E+04 -0.12912581830E+04 -0.24692022691E+02  0.18953027795E+04  0.25500000920E-02 0.  1.
       -2    1    3    3    0  502  0.13871608539E+04  0.12912581830E+04 -0.10087719541E+04  0.21469009724E+04  0.25500000920E-02 0. -1.
</event>
<event>
 5   0  0.2632875E-08  0.3904848E+04  0.7818609E-02  0.8024022E-01
        1   -1    0    0  501    0  0.00000000000E+00  0.00000000000E+00  0.15353085165E+04  0.15353085165E+04  0.50400001928E-02 0. -1.
       -1   -1    0    0    0  501  0.00000000000E+00  0.00000000000E+00 -0.24828624053E+04  0.24828624053E+04  0.50400001928E-02 0.  1.
    10030    2    1    2    0    0  0.00000000000E+00  0.00000000000E+00 -0.94755388880E+03  0.40181709219E+04  0.39048481642E+04 0.  0.
        5    1    3    3  502    0 -0.98817305930E+03 -0.45537771084E+03  0.11944064019E+04  0.16156991049E+04  0.46999998093E+01 0. -1.
       -5    1    3    3    0  502  0.98817305930E+03  0.45537771084E+03 -0.21419602907E+04  0.24024718170E+04  0.46999998093E+01 0.  1.
</event>
<event>
 5   0  0.8476262E-08  0.3909872E+04  0.7818609E-02  0.8022979E-01
        2   -1    0    0  501    0  0.00000000000E+00  0.00000000000E+00  0.18703484724E+04  0.18703484724E+04  0.25500000920E-02 0. -1.
       -2   -1    0    0    0  501  0.00000000000E+00  0.00000000000E+00 -0.20433487173E+04  0.20433487173E+04  0.25500000920E-02 0.  1.
    10030    2    1    2    0    0  0.00000000000E+00  0.00000000000E+00 -0.17300024489E+03  0.39136971897E+04  0.39098716869E+04 0.  0.
        2    1    3    3  502    0  0.15256897913E+04  0.11157253675E+04 -0.58618963031E+03  0.19789367644E+04  0.25500000920E-02 0.  1.
       -2    1    3    3    0  502 -0.15256897913E+04 -0.11157253675E+04  0.41318938542E+03  0.19347604253E+04  0.25500000920E-02 0. -1.
</event>
<event>
 5   0  0.8342802E-08  0.3880548E+04  0.7818609E-02  0.8029087E-01
       -2   -1    0    0    0  501  0.00000000000E+00  0.00000000000E+00  0.25545547094E+04  0.25545547094E+04  0.25500000920E-02 0.  1.
        2   -1    0    0  501    0  0.00000000000E+00  0.00000000000E+00 -0.14737064748E+04  0.14737064748E+04  0.25500000920E-02 0. -1.
    10030    2    1    2    0    0  0.00000000000E+00  0.00000000000E+00  0.10808482346E+04  0.40282611842E+04  0.38805483198E+04 0.  0.
        4    1    3    3  502    0 -0.10630762207E+04 -0.10293238053E+04  0.18431950691E+04  0.23636853054E+04  0.12699999809E+01 0.  1.
       -4    1    3    3    0  502  0.10630762207E+04  0.10293238053E+04 -0.76234683457E+03  0.16645758788E+04  0.12699999809E+01 0. -1.
</event>
<event>
 5   0  0.2632875E-08  0.3904196E+04  0.7818609E-02  0.8024157E-01
       -1   -1    0    0    0  501  0.00000000000E+00  0.00000000000E+00  0.16642095915E+04  0.16642095915E+04  0.50400001928E-02 0.  1.
        1   -1    0    0  501    0  0.00000000000E+00  0.00000000000E+00 -0.22897872369E+04  0.22897872369E+04  0.50400001928E-02 0. -1.
    10030    2    1    2    0    0  0.00000000000E+00  0.00000000000E+00 -0.62557764543E+03  0.39539968284E+04  0.39041956314E+04 0.  0.
        3    1    3    3  502    0 -0.66045800244E+03 -0.17696979733E+04 -0.81166763133E+03  0.20559280249E+04  0.10100000352E+00 0. -1.
       -3    1    3    3    0  502  0.66045800244E+03  0.17696979733E+04  0.18608998590E+03  0.18980688035E+04  0.10100000352E+00 0.  1.
</event>
<event>
 5   0  0.8476262E-08  0.3930149E+04  0.7818609E-02  0.8018788E-01
        2   -1    0    0  501    0  0.00000000000E+00  0.00000000000E+00  0.20444141870E+04  0.20444141870E+04  0.25500000920E-02 0. -1.
       -2   -1    0    0    0  501  0.00000000000E+00  0.00000000000E+00 -0.18888137689E+04  0.18888137689E+04  0.25500000920E-02 0.  1.
    10030    2    1    2    0    0  0.00000000000E+00  0.00000000000E+00  0.15560041806E+03  0.39332279559E+04  0.39301489365E+04 0.  0.
        2    1    3    3  502    0 -0.95211619215E+03  0.12436139745E+04 -0.11098968809E+04  0.19196281012E+04  0.25500000920E-02 0.  1.
       -2    1    3    3    0  502  0.95211619215E+03 -0.12436139745E+04  0.12654972989E+04  0.20135998546E+04  0.25500000920E-02 0. -1.
</event>
<event>
 5   0  0.2632875E-08  0.3885791E+04  0.7818609E-02  0.8027991E-01
       -1   -1    0    0    0  501  0.00000000000E+00  0.00000000000E+00  0.20643558331E+04  0.20643558331E+04  0.50400001928E-02 0.  1.
        1   -1    0    0  501    0  0.00000000000E+00  0.00000000000E+00 -0.18285818160E+04  0.18285818160E+04  0.50400001928E-02 0. -1.
    10030    2    1    2    0    0  0.00000000000E+00  0.00000000000E+00  0.23577401710E+03  0.38929376492E+04  0.38857913162E+04 0.  0.
        5    1    3    3  502    0 -0.62393588855E+03 -0.11515617608E+04  0.15555980030E+04  0.20335431441E+04  0.46999998093E+01 0.  1.
       -5    1    3    3    0  502  0.62393588855E+03  0.11515617608E+04 -0.13198239859E+04  0.18593945051E+04  0.46999998093E+01 0. -1.
</event>
<event>
 5   0  0.2632875E-08  0.3903434E+04  0.7818609E-02  0.8024315E-01
       -1   -1    0    0    0  501  0.00000000000E+00  0.00000000000E+00  0.17951173593E+04  0.17951173593E+04  0.50400001928E-02 0.  1.
        1   -1    0    0  501    0  0.00000000000E+00  0.00000000000E+00 -0.21219779894E+04  0.21219779894E+04  0.50400001928E-02 0. -1.
    10030    2    1    2    0    0  0.00000000000E+00  0.00000000000E+00 -0.32686063012E+03  0.39170953487E+04  0.39034341418E+04 0.  0.
        1    1    3    3  502    0 -0.16693546273E+04 -0.66234074719E+03  0.60328515411E+03  0.18945693744E+04  0.50400001928E-02 0.  1.
       -1    1    3    3    0  502  0.16693546273E+04  0.66234074719E+03 -0.93014578423E+03  0.20225259744E+04  0.50400001928E-02 0. -1.
</event>
<event>
 5   0  0.2632875E-08  0.3877122E+04  0.7818609E-02  0.8029804E-01
        1   -1    0    0  501    0  0.00000000000E+00  0.00000000000E+00  0.27781261536E+04  0.27781261536E+04  0.50400001928E-02 0. -1.
       -1   -1    0    0    0  501  0.00000000000E+00  0.00000000000E+00 -0.13527169016E+04  0.13527169017E+04  0.50400001928E-02 0.  1.
    10030    2    1    2    0    0  0.00000000000E+00  0.00000000000E+00  0.14254092520E+04  0.41308430553E+04  0.38771217174E+04 0.  0.
        4    1    3    3  502    0  0.35394212022E+03 -0.38530896761E+03  0.27014798192E+04  0.27516781882E+04  0.12699999809E+01 0. -1.
       -4    1    3    3    0  502 -0.35394212022E+03  0.38530896761E+03 -0.12760705673E+04  0.13791648670E+04  0.12699999809E+01 0.  1.
</event>
<event>
 5   0  0.2632875E-08  0.3925340E+04  0.7818609E-02  0.8019779E-01
        3   -1    0    0  501    0  0.00000000000E+00  0.00000000000E+00  0.19241724235E+04  0.19241724261E+04  0.10100000352E+00 0.  1.
       -3   -1    0    0    0  501  0.00000000000E+00  0.00000000000E+00 -0.20019382382E+04  0.20019382407E+04  0.10100000352E+00 0. -1.
    10030    2    1    2    0    0  0.00000000000E+00  0.00000000000E+00 -0.77765814704E+02  0.39261106669E+04  0.39253404243E+04 0.  0.
        4    1    3    3  502    0  0.14689150183E+04  0.12356939767E+04  0.37036948967E+03  0.19549491315E+04  0.12699999809E+01 0. -1.
       -4    1    3    3    0  502 -0.14689150183E+04 -0.12356939767E+04 -0.44813530437E+03  0.19711615354E+04  0.12699999809E+01 0.  1.
</event>
<event>
 5   0  0.2632875E-08  0.3903130E+04  0.7818609E-02  0.8024379E-01
        1   -1    0    0  501    0  0.00000000000E+00  0.00000000000E+00  0.21268785990E+04  0.21268785990E+04  0.50400001928E-02 0. -1.
       -1   -1    0    0    0  501  0.00000000000E+00  0.00000000000E+00 -0.17907021539E+04  0.17907021539E+04  0.50400001928E-02 0.  1.
    10030    2    1    2    0    0  0.00000000000E+00  0.00000000000E+00  0.33617644504E+03  0.39175807529E+04  0.39031300713E+04 0.  0.
        3    1    3    3  502    0  0.11073289589E+04 -0.38521610468E+03  0.17340045029E+04  0.20931651862E+04  0.10100000352E+00 0. -1.
       -3    1    3    3    0  502 -0.11073289589E+04  0.38521610468E+03 -0.13978280578E+04  0.18244155667E+04  0.10100000352E+00 0.  1.
</event>
<event>
 5   0  0.8676098E-08  0.3905605E+04  0.7818609E-02  0.8023865E-01
       -2   -1    0    0    0  501  0.00000000000E+00  0.00000000000E+00  0.23691284352E+04  0.23691284352E+04  0.25500000920E-02 0. -1.
        2   -1    0    0  501    0  0.00000000000E+00  0.00000000000E+00 -0.16096371018E+04  0.16096371018E+04  0.25500000920E-02 0.  1.
    10030    2    1    2    0    0  0.00000000000E+00  0.00000000000E+00  0.75949133340E+03  0.39787655370E+04  0.39056047051E+04 0.  0.
        3    1    3    3  502    0  0.96502216210E+02 -0.19225019886E+04  0.71470639168E+03  0.20533221400E+04  0.10100000352E+00 0.  1.
       -3    1    3    3    0  502 -0.96502216210E+02  0.19225019886E+04  0.44784941729E+02  0.19254433970E+04  0.10100000352E+00 0. -1.
</event>
<event>
 5   0  0.8676098E-08  0.3727597E+04  0.7818609E-02  0.8061873E-01
       -2   -1    0    0    0  501  0.00000000000E+00  0.00000000000E+00  0.18085588861E+04  0.18085588861E+04  0.25500000920E-02 0. -1.
        2   -1    0    0  501    0  0.00000000000E+00  0.00000000000E+00 -0.19207249914E+04  0.19207249914E+04  0.25500000920E-02 0.  1.
    10030    2    1    2    0    0  0.00000000000E+00  0.00000000000E+00 -0.11216610531E+03  0.37292838775E+04  0.37275966793E+04 0.  0.
        3    1    3    3  502    0 -0.15589201437E+04 -0.38537890565E+03  0.89038707407E+03  0.18361748466E+04  0.10100000352E+00 0. -1.
       -3    1    3    3    0  502  0.15589201437E+04  0.38537890565E+03 -0.10025531794E+04  0.18931090309E+04  0.10100000352E+00 0.  1.
</event>
<event>
 5   0  0.2632875E-08  0.3893756E+04  0.7818609E-02  0.8026329E-01
        1   -1    0    0  501    0  0.00000000000E+00  0.00000000000E+00  0.26392860339E+04  0.26392860339E+04  0.50400001928E-02 0.  1.
       -1   -1    0    0    0  501  0.00000000000E+00  0.00000000000E+00 -0.14361212255E+04  0.14361212255E+04  0.50400001928E-02 0. -1.
    10030    2    1    2    0    0  0.00000000000E+00  0.00000000000E+00  0.12031648084E+04  0.40754072595E+04  0.38937563836E+04 0.  0.
        5    1    3    3  502    0  0.18216054829E+04  0.51444138643E+03  0.10782586389E+04  0.21784306870E+04  0.46999998093E+01 0.  1.
       -5    1    3    3    0  502 -0.18216054829E+04 -0.51444138643E+03  0.12490616948E+03  0.18969765725E+04  0.46999998093E+01 0. -1.
</event>
<event>
 5   0  0.2632875E-08  0.3888653E+04  0.7818609E-02  0.8027393E-01
        1   -1    0    0  501    0  0.00000000000E+00  0.00000000000E+00  0.21474028494E+04  0.21474028494E+04  0.50400001928E-02 0. -1.
       -1   -1    0    0    0  501  0.00000000000E+00  0.00000000000E+00 -0.17604544523E+04  0.17604544523E+04  0.50400001928E-02 0.  1.
    10030    2    1    2    0    0  0.00000000000E+00  0.00000000000E+00  0.38694839708E+03  0.39078573017E+04  0.38886526752E+04 0.  0.
        3    1    3    3  502    0 -0.44634513669E+03 -0.28983050265E+03 -0.16858360626E+04  0.17678430195E+04  0.10100000352E+00 0.  1.
       -3    1    3    3    0  502  0.44634513669E+03  0.28983050265E+03  0.20727844597E+04  0.21400142822E+04  0.10100000352E+00 0. -1.
</event>
<event>
 5   0  0.2632875E-08  0.3887686E+04  0.7818609E-02  0.8027595E-01
       -1   -1    0    0    0  501  0.00000000000E+00  0.00000000000E+00  0.37029515454E+04  0.37029515454E+04  0.50400001928E-02 0.  1.
        1   -1    0    0  501    0  0.00000000000E+00  0.00000000000E+00 -0.10204091872E+04  0.10204091872E+04  0.50400001928E-02 0. -1.
    10030    2    1    2    0    0  0.00000000000E+00  0.00000000000E+00  0.26825423582E+04  0.47233607325E+04  0.38876860864E+04 0.  0.
        3    1    3    3  502    0 -0.17121697196E+04 -0.22236697840E+03  0.25624591838E+03  0.17454610287E+04  0.10100000352E+00 0. -1.
       -3    1    3    3    0  502  0.17121697196E+04  0.22236697840E+03  0.24262964398E+04  0.29778997038E+04  0.10100000352E+00 0.  1.
</event>
<event>
 5   0  0.8476262E-08  0.3922268E+04  0.7818609E-02  0.8020414E-01
        2   -1    0    0  501    0  0.00000000000E+00  0.00000000000E+00  0.24565753697E+04  0.24565753697E+04  0.25500000920E-02 0. -1.
       -2   -1    0    0    0  501  0.00000000000E+00  0.00000000000E+00 -0.15656131208E+04  0.15656131208E+04  0.25500000920E-02 0.  1.
    10030    2    1    2    0    0  0.00000000000E+00  0.00000000000E+00  0.89096224894E+03  0.40221884905E+04  0.39222680332E+04 0.  0.
        2    1    3    3  502    0  0.10698374244E+04  0.15725053331E+04  0.93591294417E+03  0.21197306849E+04  0.25500000920E-02 0. -1.
       -2    1    3    3    0  502 -0.10698374244E+04 -0.15725053331E+04 -0.44950695224E+02  0.19024578057E+04  0.25500000920E-02 0.  1.
</event>
<event>
 5   0  0.8476262E-08  0.3886268E+04  0.7818609E-02  0.8027891E-01
       -2   -1    0    0    0  501  0.00000000000E+00  0.00000000000E+00  0.14417263707E+04  0.14417263707E+04  0.25500000920E-02 0.  1.
        2   -1    0    0  501    0  0.00000000000E+00  0.00000000000E+00 -0.26189225725E+04  0.26189225725E+04  0.25500000920E-02 0. -1.
    10030    2    1    2    0    0  0.00000000000E+00  0.00000000000E+00 -0.11771962017E+04  0.40606489432E+04  0.38862679967E+04 0.  0.
        2    1    3    3  502    0 -0.70602723204E+02  0.14546383958E+04 -0.19327150153E+04  0.24199886234E+04  0.25500000920E-02 0. -1.
       -2    1    3    3    0  502  0.70602723204E+02 -0.14546383958E+04  0.75551881354E+03  0.16406603198E+04  0.25500000920E-02 0.  1.
</event>
<event>
 5   0  0.2632875E-08  0.3926713E+04  0.7818609E-02  0.8019496E-01
        1   -1    0    0  501    0  0.00000000000E+00  0.00000000000E+00  0.16551613459E+04  0.16551613459E+04  0.50400001928E-02 0. -1.
       -1   -1    0    0    0  501  0.00000000000E+00  0.00000000000E+00 -0.23289379644E+04  0.23289379644E+04  0.50400001928E-02 0.  1.
    10030    2    1    2    0    0  0.00000000000E+00  0.00000000000E+00 -0.67377661848E+03  0.39840993104E+04  0.39267126688E+04 0.  0.
        1    1    3    3  502    0  0.16209897846E+03  0.12083803033E+03  0.16445708439E+04  0.16569523738E+04  0.50400001928E-02 0. -1.
       -1    1    3    3    0  502 -0.16209897846E+03 -0.12083803033E+03 -0.23183474623E+04  0.23271469366E+04  0.50400001928E-02 0.  1.
</event>
<event>
 5   0  0.8551754E-08  0.3900389E+04  0.7818609E-02  0.8024948E-01
       -2   -1    0    0    0  501  0.00000000000E+00  0.00000000000E+00  0.13457033379E+04  0.13457033379E+04  0.25500000920E-02 0.  1.
        2   -1    0    0  501    0  0.00000000000E+00  0.00000000000E+00 -0.28262243027E+04  0.28262243027E+04  0.25500000920E-02 0. -1.
    10030    2    1    2    0    0  0.00000000000E+00  0.00000000000E+00 -0.14805209648E+04  0.41719276407E+04  0.39003894564E+04 0.  0.
        1    1    3    3  502    0 -0.31262832236E+03 -0.18668434518E+04 -0.23808806963E+03  0.19077544051E+04  0.50400001928E-02 0.  1.
       -1    1    3    3    0  502  0.31262832236E+03  0.18668434518E+04 -0.12424328952E+04  0.22641732355E+04  0.50400001928E-02 0. -1.
</event>
<event>
 5   0  0.8438211E-08  0.3886728E+04  0.7818609E-02  0.8027795E-01
       -2   -1    0    0    0  501  0.00000000000E+00  0.00000000000E+00  0.19497380559E+04  0.19497380559E+04  0.25500000920E-02 0.  1.
        2   -1    0    0  501    0  0.00000000000E+00  0.00000000000E+00 -0.19370103034E+04  0.19370103034E+04  0.25500000920E-02 0. -1.
    10030    2    1    2    0    0  0.00000000000E+00  0.00000000000E+00  0.12727752489E+02  0.38867483593E+04  0.38867275197E+04 0.  0.
        5    1    3    3  502    0  0.33734526363E+03  0.15020657600E+04  0.11923876209E+04  0.19472579960E+04  0.46999998093E+01 0. -1.
       -5    1    3    3    0  502 -0.33734526363E+03 -0.15020657600E+04 -0.11796598684E+04  0.19394903633E+04  0.46999998093E+01 0.  1.
</event>
<event>
 5   0  0.8438211E-08  0.3891019E+04  0.7818609E-02  0.8026900E-01
       -2   -1    0    0    0  501  0.00000000000E+00  0.00000000000E+00  0.15861371213E+04  0.15861371213E+04  0.25500000920E-02 0. -1.
        2   -1    0    0  501    0  0.00000000000E+00  0.00000000000E+00 -0.23863049421E+04  0.23863049421E+04  0.25500000920E-02 0.  1.
    10030    2    1    2    0    0  0.00000000000E+00  0.00000000000E+00 -0.80016782077E+03  0.39724420634E+04  0.38910188133E+04 0.  0.
        5    1    3    3  502    0  0.51665487553E+03  0.62939499158E+03 -0.22039518501E+04  0.23495736131E+04  0.46999998093E+01 0.  1.
       -5    1    3    3    0  502 -0.51665487553E+03 -0.62939499158E+03  0.14037840293E+04  0.16228684503E+04  0.46999998093E+01 0. -1.
</event>
<event>
 5   0  0.8476262E-08  0.3889628E+04  0.7818609E-02  0.8027190E-01
        2   -1    0    0  501    0  0.00000000000E+00  0.00000000000E+00  0.20739077336E+04  0.20739077336E+04  0.25500000920E-02 0. -1.
       -2   -1    0    0    0  501  0.00000000000E+00  0.00000000000E+00 -0.18237555854E+04  0.18237555854E+04  0.25500000920E-02 0.  1.
    10030    2    1    2    0    0  0.00000000000E+00  0.00000000000E+00  0.25015214812E+03  0.38976633190E+04  0.38896276494E+04 0.  0.
        2    1    3    3  502    0  0.57165779102E+02 -0.99577510495E+02  0.20705083400E+04  0.20736895604E+04  0.25500000920E-02 0. -1.
       -2    1    3    3    0  502 -0.57165779102E+02  0.99577510495E+02 -0.18203561919E+04  0.18239737586E+04  0.25500000920E-02 0.  1.
</event>
<event>
 5   0  0.8676098E-08  0.3888410E+04  0.7818609E-02  0.8027444E-01
        2   -1    0    0  501    0  0.00000000000E+00  0.00000000000E+00  0.21503663857E+04  0.21503663857E+04  0.25500000920E-02 0. -1.
       -2   -1    0    0    0  501  0.00000000000E+00  0.00000000000E+00 -0.17578085661E+04  0.17578085661E+04  0.25500000920E-02 0.  1.
    10030    2    1    2    0    0  0.00000000000E+00  0.00000000000E+00  0.39255781956E+03  0.39081749519E+04  0.38884096765E+04 0.  0.
        3    1    3    3  502    0  0.48504157982E+03  0.17456500019E+04 -0.51255284167E+03  0.18828886555E+04  0.10100000352E+00 0.  1.
       -3    1    3    3    0  502 -0.48504157982E+03 -0.17456500019E+04  0.90511066123E+03  0.20252862964E+04  0.10100000352E+00 0. -1.
</event>
<event>
 5   0  0.2632875E-08  0.3892403E+04  0.7818609E-02  0.8026611E-01
       -1   -1    0    0    0  501  0.00000000000E+00  0.00000000000E+00  0.15755110360E+04  0.15755110360E+04  0.50400001928E-02 0. -1.
        1   -1    0    0  501    0  0.00000000000E+00  0.00000000000E+00 -0.24041086412E+04  0.24041086412E+04  0.50400001928E-02 0.  1.
    10030    2    1    2    0    0  0.00000000000E+00  0.00000000000E+00 -0.82859760523E+03  0.39796196772E+04  0.38924027007E+04 0.  0.
        3    1    3    3  502    0 -0.12361641460E+04  0.30423141628E+03 -0.19193711689E+04  0.23031813313E+04  0.10100000352E+00 0.  1.
       -3    1    3    3    0  502  0.12361641460E+04 -0.30423141628E+03  0.10907735637E+04  0.16764383460E+04  0.10100000352E+00 0. -1.
</event>
<event>
 5   0  0.8342802E-08  0.3901704E+04  0.7818609E-02  0.8024675E-01
       -2   -1    0    0    0  501  0.00000000000E+00  0.00000000000E+00  0.17751806281E+04  0.17751806281E+04  0.25500000920E-02 0.  1.
        2   -1    0    0  501    0  0.00000000000E+00  0.00000000000E+00 -0.21439080916E+04  0.21439080916E+04  0.25500000920E-02 0. -1.
    10030    2    1    2    0    0  0.00000000000E+00  0.00000000000E+00 -0.36872746347E+03  0.39190887197E+04  0.39017043008E+04 0.  0.
        4    1    3    3  502    0 -0.19898749749E+03  0.19080580944E+04  0.17153231263E+03  0.19260598804E+04  0.12699999809E+01 0. -1.
       -4    1    3    3    0  502  0.19898749749E+03 -0.19080580944E+04 -0.54025977609E+03  0.19930288393E+04  0.12699999809E+01 0.  1.
</event>
<event>
 5   0  0.2632875E-08  0.3894249E+04  0.7818609E-02  0.8026226E-01
        1   -1    0    0  501    0  0.00000000000E+00  0.00000000000E+00  0.23852985179E+04  0.23852985179E+04  0.50400001928E-02 0.  1.
       -1   -1    0    0    0  501  0.00000000000E+00  0.00000000000E+00 -0.15894417560E+04  0.15894417560E+04  0.50400001928E-02 0. -1.
    10030    2    1    2    0    0  0.00000000000E+00  0.00000000000E+00  0.79585676189E+03  0.39747402740E+04  0.38942486130E+04 0.  0.
        4    1    3    3  502    0 -0.11756128252E+04 -0.61738948840E+03 -0.10556051997E+04  0.16963311133E+04  0.12699999809E+01 0. -1.
       -4    1    3    3    0  502  0.11756128252E+04  0.61738948840E+03  0.18514619616E+04  0.22784091607E+04  0.12699999809E+01 0.  1.
</event>
<event>
 5   0  0.2632875E-08  0.3899492E+04  0.7818609E-02  0.8025135E-01
        1   -1    0    0  501    0  0.00000000000E+00  0.00000000000E+00  0.21155386792E+04  0.21155386792E+04  0.50400001928E-02 0.  1.
       -1   -1    0    0    0  501  0.00000000000E+00  0.00000000000E+00 -0.17969460140E+04  0.17969460140E+04  0.50400001928E-02 0. -1.
    10030    2    1    2    0    0  0.00000000000E+00  0.00000000000E+00  0.31859266518E+03  0.39124846932E+04  0.38994916577E+04 0.  0.
        1    1    3    3  502    0 -0.82256688873E+03 -0.70279399326E+03 -0.14681357036E+04  0.18237209566E+04  0.50400001928E-02 0. -1.
       -1    1    3    3    0  502  0.82256688873E+03  0.70279399326E+03  0.17867283688E+04  0.20887637366E+04  0.50400001928E-02 0.  1.
</event>
<event>
 5   0  0.8438211E-08  0.3898885E+04  0.7818609E-02  0.8025261E-01
       -2   -1    0    0    0  501  0.00000000000E+00  0.00000000000E+00  0.19964769363E+04  0.19964769363E+04  0.25500000920E-02 0. -1.
        2   -1    0    0  501    0  0.00000000000E+00  0.00000000000E+00 -0.19035160102E+04  0.19035160102E+04  0.25500000920E-02 0.  1.
    10030    2    1    2    0    0  0.00000000000E+00  0.00000000000E+00  0.92960926111E+02  0.38999929466E+04  0.38988848726E+04 0.  0.
        5    1    3    3  502    0  0.16720357367E+04  0.36896030450E+03  0.97866189596E+03  0.19722161159E+04  0.46999998093E+01 0. -1.
       -5    1    3    3    0  502 -0.16720357367E+04 -0.36896030450E+03 -0.88570096985E+03  0.19277768307E+04  0.46999998093E+01 0.  1.
</event>
<event>
 5   0  0.2632875E-08  0.3908849E+04  0.7818609E-02  0.8023191E-01
       -1   -1    0    0    0  501  0.00000000000E+00  0.00000000000E+00  0.22096729894E+04  0.22096729894E+04  0.50400001928E-02 0.  1.
        1   -1    0    0  501    0  0.00000000000E+00  0.00000000000E+00 -0.17286604228E+04  0.17286604228E+04  0.50400001928E-02 0. -1.
    10030    2    1    2    0    0  0.00000000000E+00  0.00000000000E+00  0.48101256654E+03  0.39383334122E+04  0.39088485487E+04 0.  0.
        5    1    3    3  502    0  0.88460297282E+03 -0.74537117776E+03  0.18277149876E+04  0.21630221400E+04  0.46999998093E+01 0.  1.
       -5    1    3    3    0  502 -0.88460297282E+03  0.74537117776E+03 -0.13467024211E+04  0.17753112722E+04  0.46999998093E+01 0. -1.
</event>
<event>
 5   0  0.8676098E-08  0.3863937E+04  0.7818609E-02  0.8032572E-01
       -2   -1    0    0    0  501  0.00000000000E+00  0.00000000000E+00  0.18039671898E+04  0.18039671898E+04  0.25500000920E-02 0. -1.
        2   -1    0    0  501    0  0.00000000000E+00  0.00000000000E+00 -0.20690524141E+04  0.20690524141E+04  0.25500000920E-02 0.  1.
    10030    2    1    2    0    0  0.00000000000E+00  0.00000000000E+00 -0.26508522434E+03  0.38730196039E+04  0.38639371987E+04 0.  0.
        3    1    3    3  502    0 -0.51275216981E+03  0.18626752839E+04 -0.13790849047E+03  0.19368770645E+04  0.10100000352E+00 0.  1.
       -3    1    3    3    0  502  0.51275216981E+03 -0.18626752839E+04 -0.12717673386E+03  0.19361425394E+04  0.10100000352E+00 0. -1.
</event>
<event>
 5   0  0.8551754E-08  0.3887554E+04  0.7818609E-02  0.8027623E-01
       -2   -1    0    0    0  501  0.00000000000E+00  0.00000000000E+00  0.18258608938E+04  0.18258608938E+04  0.25500000920E-02 0. -1.
        2   -1    0    0  501    0  0.00000000000E+00  0.00000000000E+00 -0.20693078695E+04  0.20693078695E+04  0.25500000920E-02 0.  1.
    10030    2    1    2    0    0  0.00000000000E+00  0.00000000000E+00 -0.24344697566E+03  0.38951687633E+04  0.38875536349E+04 0.  0.
        1    1    3    3  502    0 -0.17219021636E+04 -0.22085580060E+02 -0.10250623148E+04  0.20040428097E+04  0.50400001928E-02 0.  1.
       -1    1    3    3    0  502  0.17219021636E+04  0.22085580060E+02  0.78161533914E+03  0.18911259536E+04  0.50400001928E-02 0. -1.
</event>
<event>
 5   0  0.2632875E-08  0.3910231E+04  0.7818609E-02  0.8022905E-01
        1   -1    0    0  501    0  0.00000000000E+00  0.00000000000E+00  0.25871646322E+04  0.25871646322E+04  0.50400001928E-02 0. -1.
       -1   -1    0    0    0  501  0.00000000000E+00  0.00000000000E+00 -0.14774772534E+04  0.14774772534E+04  0.50400001928E-02 0.  1.
    10030    2    1    2    0    0  0.00000000000E+00  0.00000000000E+00  0.11096873788E+04  0.40646418856E+04  0.39102311415E+04 0.  0.
        2    1    3    3  502    0 -0.11891234741E+04  0.89123347913E+02  0.21653871838E+04  0.24720152231E+04  0.25500000920E-02 0. -1.
       -2    1    3    3    0  502  0.11891234741E+04 -0.89123347913E+02 -0.10556998049E+04  0.15926266625E+04  0.25500000920E-02 0.  1.
</event>
<event>
 5   0  0.2632875E-08  0.3919314E+04  0.7818609E-02  0.8021024E-01
        1   -1    0    0  501    0  0.00000000000E+00  0.00000000000E+00  0.20415052868E+04  0.20415052868E+04  0.50400001928E-02 0. -1.
       -1   -1    0    0    0  501  0.00000000000E+00  0.00000000000E+00 -0.18810905750E+04  0.18810905750E+04  0.50400001928E-02 0.  1.
    10030    2    1    2    0    0  0.00000000000E+00  0.00000000000E+00  0.16041471186E+03  0.39225958618E+04  0.39193144063E+04 0.  0.
        2    1    3    3  502    0 -0.11909006207E+04  0.12301658759E+03 -0.14725035001E+04  0.18977997594E+04  0.25500000920E-02 0.  1.
       -2    1    3    3    0  502  0.11909006207E+04 -0.12301658759E+03  0.16329182120E+04  0.20247961024E+04  0.25500000920E-02 0. -1.
</event>
<event>
 5   0  0.8676098E-08  0.3933046E+04  0.7818609E-02  0.8018191E-01
        2   -1    0    0  501    0  0.00000000000E+00  0.00000000000E+00  0.17124444737E+04  0.17124444737E+04  0.25500000920E-02 0.  1.
       -2   -1    0    0    0  501  0.00000000000E+00  0.00000000000E+00 -0.22582998210E+04  0.22582998210E+04  0.25500000920E-02 0. -1.
    10030    2    1    2    0    0  0.00000000000E+00  0.00000000000E+00 -0.54585534731E+03  0.39707442946E+04  0.39330461723E+04 0.  0.
        3    1    3    3  502    0 -0.34528685844E+03 -0.78760658277E+02  0.16799830669E+04  0.17169069198E+04  0.10100000352E+00 0.  1.
       -3    1    3    3    0  502  0.34528685844E+03  0.78760658277E+02 -0.22258384142E+04  0.22538373749E+04  0.10100000352E+00 0. -1.
</event>
<event>
 5   0  0.8438211E-08  0.3908554E+04  0.7818609E-02  0.8023252E-01
        2   -1    0    0  501    0  0.00000000000E+00  0.00000000000E+00  0.23928577828E+04  0.23928577828E+04  0.25500000920E-02 0. -1.
       -2   -1    0    0    0  501  0.00000000000E+00  0.00000000000E+00 -0.15960826704E+04  0.15960826704E+04  0.25500000920E-02 0.  1.
    10030    2    1    2    0    0  0.00000000000E+00  0.00000000000E+00  0.79677511239E+03  0.39889404532E+04  0.39085541264E+04 0.  0.
        5    1    3    3  502    0 -0.15429253691E+04  0.70889550182E+03 -0.58899442726E+03  0.17972445723E+04  0.46999998093E+01 0.  1.
       -5    1    3    3    0  502  0.15429253691E+04 -0.70889550182E+03  0.13857695397E+04  0.21916958809E+04  0.46999998093E+01 0. -1.
</event>
<event>
 5   0  0.2632875E-08  0.3903284E+04  0.7818609E-02  0.8024347E-01
       -1   -1    0    0    0  501  0.00000000000E+00  0.00000000000E+00  0.17529357574E+04  0.17529357574E+04  0.50400001928E-02 0.  1.
        1   -1    0    0  501    0  0.00000000000E+00  0.00000000000E+00 -0.21728730239E+04  0.21728730239E+04  0.50400001928E-02 0. -1.
    10030    2    1    2    0    0  0.00000000000E+00  0.00000000000E+00 -0.41993726651E+03  0.39258087813E+04  0.39032841659E+04 0.  0.
        4    1    3    3  502    0 -0.14122183566E+04 -0.99528340470E+03  0.70298945694E+03  0.18652467751E+04  0.12699999809E+01 0.  1.
       -4    1    3    3    0  502  0.14122183566E+04  0.99528340470E+03 -0.11229267234E+04  0.20605620063E+04  0.12699999809E+01 0. -1.
</event>
<event>
 5   0  0.2632875E-08  0.3929213E+04  0.7818609E-02  0.8018981E-01
       -1   -1    0    0    0  501  0.00000000000E+00  0.00000000000E+00  0.17002072991E+04  0.17002072991E+04  0.50400001928E-02 0. -1.
        1   -1    0    0  501    0  0.00000000000E+00  0.00000000000E+00 -0.22701218727E+04  0.22701218727E+04  0.50400001928E-02 0.  1.
    10030    2    1    2    0    0  0.00000000000E+00  0.00000000000E+00 -0.56991457356E+03  0.39703291718E+04  0.39292125307E+04 0.  0.
        4    1    3    3  502    0 -0.75639599394E+02  0.19464405366E+04 -0.26697042608E+02  0.19480930307E+04  0.12699999809E+01 0.  1.
       -4    1    3    3    0  502  0.75639599394E+02 -0.19464405366E+04 -0.54321753096E+03  0.20222361411E+04  0.12699999809E+01 0. -1.
</event>
<event>
 5   0  0.2632875E-08  0.3893789E+04  0.7818609E-02  0.8026322E-01
        1   -1    0    0  501    0  0.00000000000E+00  0.00000000000E+00  0.19313323127E+04  0.19313323128E+04  0.50400001928E-02 0. -1.
       -1   -1    0    0    0  501  0.00000000000E+00  0.00000000000E+00 -0.19625815943E+04  0.19625815943E+04  0.50400001928E-02 0.  1.
    10030    2    1    2    0    0  0.00000000000E+00  0.00000000000E+00 -0.31249281552E+02  0.38939139071E+04  0.38937885148E+04 0.  0.
        1    1    3    3  502    0 -0.10563169563E+04  0.40398331329E+02 -0.16505961605E+04  0.19600778613E+04  0.50400001928E-02 0.  1.
       -1    1    3    3    0  502  0.10563169563E+04 -0.40398331329E+02  0.16193468789E+04  0.19338360457E+04  0.50400001928E-02 0. -1.
</event>
<event>
 5   0  0.2632875E-08  0.3957396E+04  0.7818609E-02  0.8013197E-01
       -1   -1    0    0    0  501  0.00000000000E+00  0.00000000000E+00  0.20581709112E+04  0.20581709112E+04  0.50400001928E-02 0. -1.
        1   -1    0    0  501    0  0.00000000000E+00  0.00000000000E+00 -0.19022935809E+04  0.19022935809E+04  0.50400001928E-02 0.  1.
    10030    2    1    2    0    0  0.00000000000E+00  0.00000000000E+00  0.15587733029E+03  0.39604644920E+04  0.39573957662E+04 0.  0.
        1    1    3    3  502    0 -0.49374915326E+03 -0.11484106991E+04  0.16129500612E+04  0.20406477551E+04  0.50400001928E-02 0. -1.
       -1    1    3    3    0  502  0.49374915326E+03  0.11484106991E+04 -0.14570727310E+04  0.19198167370E+04  0.50400001928E-02 0.  1.
</event>
<event>
 5   0  0.2632875E-08  0.3897802E+04  0.7818609E-02  0.8025487E-01
       -1   -1    0    0    0  501  0.00000000000E+00  0.00000000000E+00  0.18605952139E+04  0.18605952139E+04  0.50400001928E-02 0. -1.
        1   -1    0    0  501    0  0.00000000000E+00  0.00000000000E+00 -0.20413976314E+04  0.20413976315E+04  0.50400001928E-02 0.  1.
    10030    2    1    2    0    0  0.00000000000E+00  0.00000000000E+00 -0.18080241755E+03  0.39019928454E+04  0.38978017716E+04 0.  0.
        2    1    3    3  502    0 -0.14966104296E+04 -0.76614677530E+03 -0.10770526590E+04  0.19967138226E+04  0.25500000920E-02 0.  1.
       -2    1    3    3    0  502  0.14966104296E+04  0.76614677530E+03  0.89625024144E+03  0.19052790227E+04  0.25500000920E-02 0. -1.
</event>
<event>
 5   0  0.2632875E-08  0.3901019E+04  0.7818609E-02  0.8024817E-01
        1   -1    0    0  501    0  0.00000000000E+00  0.00000000000E+00  0.13784912450E+04  0.13784912450E+04  0.50400001928E-02 0.  1.
       -1   -1    0    0    0  501  0.00000000000E+00  0.00000000000E+00 -0.27598927545E+04  0.27598927545E+04  0.50400001928E-02 0. -1.
    10030    2    1    2    0    0  0.00000000000E+00  0.00000000000E+00 -0.13814015095E+04  0.41383839995E+04  0.39010193535E+04 0.  0.
        5    1    3    3  502    0  0.10796997766E+04 -0.11879904357E+04 -0.18659893099E+04  0.24615058557E+04  0.46999998093E+01 0. -1.
       -5    1    3    3    0  502 -0.10796997766E+04  0.11879904357E+04  0.48458780039E+03  0.16768781438E+04  0.46999998093E+01 0.  1.
</event>
<event>
 5   0  0.2632875E-08  0.3722750E+04  0.7818609E-02  0.8062939E-01
       -1   -1    0    0    0  501  0.00000000000E+00  0.00000000000E+00  0.22612391925E+04  0.22612391925E+04  0.50400001928E-02 0. -1.
        1   -1    0    0  501    0  0.00000000000E+00  0.00000000000E+00 -0.15322203960E+04  0.15322203960E+04  0.50400001928E-02 0.  1.
    10030    2    1    2    0    0  0.00000000000E+00  0.00000000000E+00  0.72901879653E+03  0.37934595885E+04  0.37227499573E+04 0.  0.
        2    1    3    3  502    0  0.11335913952E+04 -0.16576769899E+03  0.18594149634E+04  0.21840174879E+04  0.25500000920E-02 0. -1.
       -2    1    3    3    0  502 -0.11335913952E+04  0.16576769899E+03 -0.11303961668E+04  0.16094421007E+04  0.25500000920E-02 0.  1.
</event>
<event>
 5   0  0.8551754E-08  0.3846075E+04  0.7818609E-02  0.8036339E-01
        2   -1    0    0  501    0  0.00000000000E+00  0.00000000000E+00  0.24397677368E+04  0.24397677368E+04  0.25500000920E-02 0.  1.
       -2   -1    0    0    0  501  0.00000000000E+00  0.00000000000E+00 -0.15157484037E+04  0.15157484037E+04  0.25500000920E-02 0. -1.
    10030    2    1    2    0    0  0.00000000000E+00  0.00000000000E+00  0.92401933308E+03  0.39555161405E+04  0.38460754296E+04 0.  0.
        1    1    3    3  502    0 -0.12033150166E+04 -0.98775469041E+03 -0.69902816643E+03  0.17065364734E+04  0.50400001928E-02 0. -1.
       -1    1    3    3    0  502  0.12033150166E+04  0.98775469041E+03  0.16230474995E+04  0.22489796671E+04  0.50400001928E-02 0.  1.
</event>
<event>
 5   0  0.8551754E-08  0.3887583E+04  0.7818609E-02  0.8027617E-01
       -2   -1    0    0    0  501  0.00000000000E+00  0.00000000000E+00  0.23716162331E+04  0.23716162331E+04  0.25500000920E-02 0.  1.
        2   -1    0    0  501    0  0.00000000000E+00  0.00000000000E+00 -0.15931435691E+04  0.15931435691E+04  0.25500000920E-02 0. -1.
    10030    2    1    2    0    0  0.00000000000E+00  0.00000000000E+00  0.77847266400E+03  0.39647598023E+04  0.38875828738E+04 0.  0.
        1    1    3    3  502    0  0.14535636455E+04  0.85132897637E+03  0.13783966453E+04  0.21765995519E+04  0.50400001928E-02 0.  1.
       -1    1    3    3    0  502 -0.14535636455E+04 -0.85132897637E+03 -0.59992398134E+03  0.17881602503E+04  0.50400001928E-02 0. -1.
</event>
<event>
 5   0  0.8476262E-08  0.3883891E+04  0.7818609E-02  0.8028388E-01
        2   -1    0    0  501    0  0.00000000000E+00  0.00000000000E+00  0.19258268250E+04  0.19258268250E+04  0.25500000920E-02 0.  1.
       -2   -1    0    0    0  501  0.00000000000E+00  0.00000000000E+00 -0.19581994233E+04  0.19581994233E+04  0.25500000920E-02 0. -1.
    10030    2    1    2    0    0  0.00000000000E+00  0.00000000000E+00 -0.32372598294E+02  0.38840262482E+04  0.38838913363E+04 0.  0.
        2    1    3    3  502    0 -0.16318699993E+04  0.10226902460E+04 -0.26571038513E+03  0.19440928585E+04  0.25500000920E-02 0. -1.
       -2    1    3    3    0  502  0.16318699993E+04 -0.10226902460E+04  0.23333778683E+03  0.19399333897E+04  0.25500000920E-02 0.  1.
</event>
<event>
 5   0  0.2632875E-08  0.3890035E+04  0.7818609E-02  0.8027105E-01
       -1   -1    0    0    0  501  0.00000000000E+00  0.00000000000E+00  0.16898650433E+04  0.16898650433E+04  0.50400001928E-02 0. -1.
        1   -1    0    0  501    0  0.00000000000E+00  0.00000000000E+00 -0.22386952622E+04  0.22386952622E+04  0.50400001928E-02 0.  1.
    10030    2    1    2    0    0  0.00000000000E+00  0.00000000000E+00 -0.54883021886E+03  0.39285603055E+04  0.38900348925E+04 0.  0.
        4    1    3    3  502    0 -0.90878383701E+03  0.64242600450E+03  0.13365290029E+04  0.17392270185E+04  0.12699999809E+01 0. -1.
       -4    1    3    3    0  502  0.90878383701E+03 -0.64242600450E+03 -0.18853592217E+04  0.21893332870E+04  0.12699999809E+01 0.  1.
</event>
<event>
 5   0  0.2632875E-08  0.3902107E+04  0.7818609E-02  0.8024591E-01
       -1   -1    0    0    0  501  0.00000000000E+00  0.00000000000E+00  0.19225989370E+04  0.19225989370E+04  0.50400001928E-02 0.  1.
        1   -1    0    0  501    0  0.00000000000E+00  0.00000000000E+00 -0.19799296291E+04  0.19799296291E+04  0.50400001928E-02 0. -1.
    10030    2    1    2    0    0  0.00000000000E+00  0.00000000000E+00 -0.57330692099E+02  0.39025285660E+04  0.39021074307E+04 0.  0.
        4    1    3    3  502    0  0.55631987332E+03 -0.18446852065E+04 -0.33570609320E+03  0.19557749120E+04  0.12699999809E+01 0. -1.
       -4    1    3    3    0  502 -0.55631987332E+03  0.18446852065E+04  0.27837540111E+03  0.19467536540E+04  0.12699999809E+01 0.  1.
</event>
<event>
 5   0  0.2632875E-08  0.3895207E+04  0.7818609E-02  0.8026027E-01
        1   -1    0    0  501    0  0.00000000000E+00  0.00000000000E+00  0.18248141141E+04  0.18248141141E+04  0.50400001928E-02 0.  1.
       -1   -1    0    0    0  501  0.00000000000E+00  0.00000000000E+00 -0.20786548566E+04  0.20786548566E+04  0.50400001928E-02 0. -1.
    10030    2    1    2    0    0  0.00000000000E+00  0.00000000000E+00 -0.25384074250E+03  0.39034689707E+04  0.38952066547E+04 0.  0.
        1    1    3    3  502    0 -0.15705002244E+04  0.84497132101E+03 -0.91133945167E+03  0.20027448875E+04  0.50400001928E-02 0. -1.
       -1    1    3    3    0  502  0.15705002244E+04 -0.84497132101E+03  0.65749870917E+03  0.19007240832E+04  0.50400001928E-02 0.  1.
</event>
<event>
 5   0  0.2632875E-08  0.3894818E+04  0.7818609E-02  0.8026108E-01
       -1   -1    0    0    0  501  0.00000000000E+00  0.00000000000E+00  0.37163222273E+04  0.37163222273E+04  0.50400001928E-02 0.  1.
        1   -1    0    0  501    0  0.00000000000E+00  0.00000000000E+00 -0.10204719211E+04  0.10204719212E+04  0.50400001928E-02 0. -1.
    10030    2    1    2    0    0  0.00000000000E+00  0.00000000000E+00  0.26958503061E+04  0.47367941484E+04  0.38948183439E+04 0.  0.
        2    1    3    3  502    0 -0.10239618938E+04  0.15566062344E+04  0.20368465614E+04  0.27604827194E+04  0.25500000920E-02 0. -1.
       -2    1    3    3    0  502  0.10239618938E+04 -0.15566062344E+04  0.65900374473E+03  0.19763114291E+04  0.25500000920E-02 0.  1.
</event>
<event>
 5   0  0.2632875E-08  0.3894862E+04  0.7818609E-02  0.8026099E-01
       -1   -1    0    0    0  501  0.00000000000E+00  0.00000000000E+00  0.18554671886E+04  0.18554671886E+04  0.50400001928E-02 0. -1.
        1   -1    0    0  501    0  0.00000000000E+00  0.00000000000E+00 -0.20439525013E+04  0.20439525013E+04  0.50400001928E-02 0.  1.
    10030    2    1    2    0    0  0.00000000000E+00  0.00000000000E+00 -0.18848531266E+03  0.38994196899E+04  0.38948616413E+04 0.  0.
        2    1    3    3  502    0  0.11138889554E+04 -0.29294601991E+03  0.14779201216E+04  0.18737165905E+04  0.25500000920E-02 0. -1.
       -2    1    3    3    0  502 -0.11138889554E+04  0.29294601991E+03 -0.16664054343E+04  0.20257030994E+04  0.25500000920E-02 0.  1.
</event>
<event>
 5   0  0.8676098E-08  0.3912625E+04  0.7818609E-02  0.8022409E-01
       -2   -1    0    0    0  501  0.00000000000E+00  0.00000000000E+00  0.16239939535E+04  0.16239939535E+04  0.25500000920E-02 0. -1.
        2   -1    0    0  501    0  0.00000000000E+00  0.00000000000E+00 -0.23566338360E+04  0.23566338360E+04  0.25500000920E-02 0.  1.
    10030    2    1    2    0    0  0.00000000000E+00  0.00000000000E+00 -0.73263988252E+03  0.39806277894E+04  0.39126252569E+04 0.  0.
        3    1    3    3  502    0  0.70425976761E+03 -0.18166101733E+04 -0.18688927919E+03  0.19572894408E+04  0.10100000352E+00 0. -1.
       -3    1    3    3    0  502 -0.70425976761E+03  0.18166101733E+04 -0.54575060334E+03  0.20233383487E+04  0.10100000352E+00 0.  1.
</event>
<event>
 5   0  0.8551754E-08  0.3904728E+04  0.7818609E-02  0.8024047E-01
        2   -1    0    0  501    0  0.00000000000E+00  0.00000000000E+00  0.27830670942E+04  0.27830670942E+04  0.25500000920E-02 0.  1.
       -2   -1    0    0    0  501  0.00000000000E+00  0.00000000000E+00 -0.13696133469E+04  0.13696133469E+04  0.25500000920E-02 0. -1.
    10030    2    1    2    0    0  0.00000000000E+00  0.00000000000E+00  0.14134537473E+04  0.41526804410E+04  0.39047283324E+04 0.  0.
        1    1    3    3  502    0 -0.46547858692E+03 -0.26696456788E+03 -0.12896494802E+04  0.13968307619E+04  0.50400001928E-02 0. -1.
       -1    1    3    3    0  502  0.46547858692E+03  0.26696456788E+03  0.27031032276E+04  0.27558496792E+04  0.50400001928E-02 0.  1.
</event>
<event>
 5   0  0.8676098E-08  0.3904464E+04  0.7818609E-02  0.8024101E-01
       -2   -1    0    0    0  501  0.00000000000E+00  0.00000000000E+00  0.16655371975E+04  0.16655371975E+04  0.25500000920E-02 0. -1.
        2   -1    0    0  501    0  0.00000000000E+00  0.00000000000E+00 -0.22882761832E+04  0.22882761832E+04  0.25500000920E-02 0.  1.
    10030    2    1    2    0    0  0.00000000000E+00  0.00000000000E+00 -0.62273898566E+03  0.39538133807E+04  0.39044636514E+04 0.  0.
        3    1    3    3  502    0 -0.14326062719E+04  0.87281899282E+03 -0.13225066372E+04  0.21361642119E+04  0.10100000352E+00 0.  1.
       -3    1    3    3    0  502  0.14326062719E+04 -0.87281899282E+03  0.69976765152E+03  0.18176491688E+04  0.10100000352E+00 0. -1.
</event>
<event>
 5   0  0.2632875E-08  0.3885857E+04  0.7818609E-02  0.8027977E-01
        1   -1    0    0  501    0  0.00000000000E+00  0.00000000000E+00  0.14559724160E+04  0.14559724160E+04  0.50400001928E-02 0.  1.
       -1   -1    0    0    0  501  0.00000000000E+00  0.00000000000E+00 -0.25927494546E+04  0.25927494546E+04  0.50400001928E-02 0. -1.
    10030    2    1    2    0    0  0.00000000000E+00  0.00000000000E+00 -0.11367770386E+04  0.40487218706E+04  0.38858572735E+04 0.  0.
        1    1    3    3  502    0 -0.11277927928E+04  0.82547290896E+03  0.83786466118E+03  0.16295211866E+04  0.50400001928E-02 0.  1.
       -1    1    3    3    0  502  0.11277927928E+04 -0.82547290896E+03 -0.19746416998E+04  0.24192006841E+04  0.50400001928E-02 0. -1.
</event>
<event>
 5   0  0.8476262E-08  0.4052392E+04  0.7818609E-02  0.7994060E-01
       -2   -1    0    0    0  501  0.00000000000E+00  0.00000000000E+00  0.22842294714E+04  0.22842294714E+04  0.25500000920E-02 0.  1.
        2   -1    0    0  501    0  0.00000000000E+00  0.00000000000E+00 -0.17973104809E+04  0.17973104809E+04  0.25500000920E-02 0. -1.
    10030    2    1    2    0    0  0.00000000000E+00  0.00000000000E+00  0.48691899045E+03  0.40815399523E+04  0.40523916740E+04 0.  0.
        2    1    3    3  502    0 -0.19233172072E+03 -0.44414611786E+03  0.22251513866E+04  0.22771815822E+04  0.25500000920E-02 0.  1.
       -2    1    3    3    0  502  0.19233172072E+03  0.44414611786E+03 -0.17382323962E+04  0.18043583702E+04  0.25500000920E-02 0. -1.
</event>
<event>
 5   0  0.8476262E-08  0.3900326E+04  0.7818609E-02  0.8024961E-01
        2   -1    0    0  501    0  0.00000000000E+00  0.00000000000E+00  0.20523152925E+04  0.20523152925E+04  0.25500000920E-02 0.  1.
       -2   -1    0    0    0  501  0.00000000000E+00  0.00000000000E+00 -0.18530950993E+04  0.18530950993E+04  0.25500000920E-02 0. -1.
    10030    2    1    2    0    0  0.00000000000E+00  0.00000000000E+00  0.19922019319E+03  0.39054103918E+04  0.39003258381E+04 0.  0.
        2    1    3    3  502    0  0.86735720039E+02  0.39095372205E+03 -0.18114815530E+04  0.18552178618E+04  0.25500000920E-02 0. -1.
       -2    1    3    3    0  502 -0.86735720039E+02 -0.39095372205E+03  0.20107017462E+04  0.20501925300E+04  0.25500000920E-02 0.  1.
</event>
<event>
 5   0  0.2632875E-08  0.3894919E+04  0.7818609E-02  0.8026087E-01
        1   -1    0    0  501    0  0.00000000000E+00  0.00000000000E+00  0.20174748617E+04  0.20174748617E+04  0.50400001928E-02 0. -1.
       -1   -1    0    0    0  501  0.00000000000E+00  0.00000000000E+00 -0.18798736004E+04  0.18798736004E+04  0.50400001928E-02 0.  1.
    10030    2    1    2    0    0  0.00000000000E+00  0.00000000000E+00  0.13760126126E+03  0.38973484621E+04  0.38949186035E+04 0.  0.
        1    1    3    3  502    0  0.18175164833E+04 -0.17922657878E+03 -0.60771981614E+03  0.19247887439E+04  0.50400001928E-02 0.  1.
       -1    1    3    3    0  502 -0.18175164833E+04  0.17922657878E+03  0.74532107740E+03  0.19725597182E+04  0.50400001928E-02 0. -1.
</event>
<event>
 5   0  0.2632875E-08  0.3901388E+04  0.7818609E-02  0.8024741E-01
        1   -1    0    0  501    0  0.00000000000E+00  0.00000000000E+00  0.16035781886E+04  0.16035781886E+04  0.50400001928E-02 0. -1.
       -1   -1    0    0    0  501  0.00000000000E+00  0.00000000000E+00 -0.23729480314E+04  0.23729480314E+04  0.50400001928E-02 0.  1.
    10030    2    1    2    0    0  0.00000000000E+00  0.00000000000E+00 -0.76936984287E+03  0.39765262200E+04  0.39013883200E+04 0.  0.
        4    1    3    3  502    0 -0.40342476330E+03  0.13901316089E+04  0.94816510997E+03  0.17303861183E+04  0.12699999809E+01 0. -1.
       -4    1    3    3    0  502  0.40342476330E+03 -0.13901316089E+04 -0.17175349528E+04  0.22461401018E+04  0.12699999809E+01 0.  1.
</event>
<event>
 5   0  0.2632875E-08  0.3843987E+04  0.7818609E-02  0.8036781E-01
       -3   -1    0    0    0  501  0.00000000000E+00  0.00000000000E+00  0.13040955055E+04  0.13040955094E+04  0.10100000352E+00 0.  1.
        3   -1    0    0  501    0  0.00000000000E+00  0.00000000000E+00 -0.28326600143E+04  0.28326600161E+04  0.10100000352E+00 0. -1.
    10030    2    1    2    0    0  0.00000000000E+00  0.00000000000E+00 -0.15285645088E+04  0.41367555255E+04  0.38439870994E+04 0.  0.
        4    1    3    3  502    0 -0.17791741791E+02  0.95395166758E+03 -0.25598032814E+04  0.27318372541E+04  0.12699999809E+01 0. -1.
       -4    1    3    3    0  502  0.17791741791E+02 -0.95395166758E+03  0.10312387727E+04  0.14049182714E+04  0.12699999809E+01 0.  1.
</event>
<event>
 5   0  0.8342802E-08  0.3894474E+04  0.7818609E-02  0.8026179E-01
       -2   -1    0    0    0  501  0.00000000000E+00  0.00000000000E+00  0.19380157620E+04  0.19380157620E+04  0.25500000920E-02 0. -1.
        2   -1    0    0  501    0  0.00000000000E+00  0.00000000000E+00 -0.19565026063E+04  0.19565026063E+04  0.25500000920E-02 0.  1.
    10030    2    1    2    0    0  0.00000000000E+00  0.00000000000E+00 -0.18486844312E+02  0.38945183682E+04  0.38944744905E+04 0.  0.
        4    1    3    3  502    0  0.15178225553E+04  0.11926652593E+04 -0.26516728210E+03  0.19484740261E+04  0.12699999809E+01 0.  1.
       -4    1    3    3    0  502 -0.15178225553E+04 -0.11926652593E+04  0.24668043779E+03  0.19460443421E+04  0.12699999809E+01 0. -1.
</event>
<event>
 5   0  0.2632875E-08  0.3922638E+04  0.7818609E-02  0.8020337E-01
        1   -1    0    0  501    0  0.00000000000E+00  0.00000000000E+00  0.25466434300E+04  0.25466434300E+04  0.50400001928E-02 0. -1.
       -1   -1    0    0    0  501  0.00000000000E+00  0.00000000000E+00 -0.15105261271E+04  0.15105261271E+04  0.50400001928E-02 0.  1.
    10030    2    1    2    0    0  0.00000000000E+00  0.00000000000E+00  0.10361173028E+04  0.40571695571E+04  0.39226376011E+04 0.  0.
        5    1    3    3  502    0 -0.26179094011E+03  0.17097192751E+03  0.25206933319E+04  0.25400163109E+04  0.46999998093E+01 0. -1.
       -5    1    3    3    0  502  0.26179094011E+03 -0.17097192751E+03 -0.14845760291E+04  0.15171532462E+04  0.46999998093E+01 0.  1.
</event>
<event>
 5   0  0.8551754E-08  0.3897805E+04  0.7818609E-02  0.8025486E-01
        2   -1    0    0  501    0  0.00000000000E+00  0.00000000000E+00  0.17125745607E+04  0.17125745607E+04  0.25500000920E-02 0.  1.
       -2   -1    0    0    0  501  0.00000000000E+00  0.00000000000E+00 -0.22178421838E+04  0.22178421838E+04  0.25500000920E-02 0. -1.
    10030    2    1    2    0    0  0.00000000000E+00  0.00000000000E+00 -0.50526762309E+03  0.39304167444E+04  0.38978045633E+04 0.  0.
        1    1    3    3  502    0 -0.19289843656E+04  0.66782639559E+02  0.19400117930E+02  0.19302375419E+04  0.50400001928E-02 0.  1.
       -1    1    3    3    0  502  0.19289843656E+04 -0.66782639559E+02 -0.52466774102E+03  0.20001792025E+04  0.50400001928E-02 0. -1.
</event>
<event>
 5   0  0.2632875E-08  0.3862129E+04  0.7818609E-02  0.8032952E-01
        1   -1    0    0  501    0  0.00000000000E+00  0.00000000000E+00  0.14846720576E+04  0.14846720576E+04  0.50400001928E-02 0.  1.
       -1   -1    0    0    0  501  0.00000000000E+00  0.00000000000E+00 -0.25116729960E+04  0.25116729960E+04  0.50400001928E-02 0. -1.
    10030    2    1    2    0    0  0.00000000000E+00  0.00000000000E+00 -0.10270009384E+04  0.39963450535E+04  0.38621293168E+04 0.  0.
        5    1    3    3  502    0 -0.97464329517E+03  0.91762278478E+03  0.92663736745E+03  0.16280786310E+04  0.46999998093E+01 0.  1.
       -5    1    3    3    0  502  0.97464329517E+03 -0.91762278478E+03 -0.19536383059E+04  0.23682664225E+04  0.46999998093E+01 0. -1.
</event>
<event>
 5   0  0.2632875E-08  0.3902414E+04  0.7818609E-02  0.8024527E-01
       -1   -1    0    0    0  501  0.00000000000E+00  0.00000000000E+00  0.13909552259E+04  0.13909552259E+04  0.50400001928E-02 0. -1.
        1   -1    0    0  501    0  0.00000000000E+00  0.00000000000E+00 -0.27371183610E+04  0.27371183610E+04  0.50400001928E-02 0.  1.
    10030    2    1    2    0    0  0.00000000000E+00  0.00000000000E+00 -0.13461631351E+04  0.41280735869E+04  0.39024141698E+04 0.  0.
        3    1    3    3  502    0  0.17366117054E+04  0.41089430187E+03 -0.15077285755E+04  0.23362148468E+04  0.10100000352E+00 0.  1.
       -3    1    3    3    0  502 -0.17366117054E+04 -0.41089430187E+03  0.16156544035E+03  0.17918587401E+04  0.10100000352E+00 0. -1.
</event>
<event>
 5   0  0.2632875E-08  0.3900131E+04  0.7818609E-02  0.8025002E-01
        1   -1    0    0  501    0  0.00000000000E+00  0.00000000000E+00  0.23525159603E+04  0.23525159603E+04  0.50400001928E-02 0.  1.
       -1   -1    0    0    0  501  0.00000000000E+00  0.00000000000E+00 -0.16164635820E+04  0.16164635820E+04  0.50400001928E-02 0. -1.
    10030    2    1    2    0    0  0.00000000000E+00  0.00000000000E+00  0.73605237830E+03  0.39689795422E+04  0.39001314726E+04 0.  0.
        3    1    3    3  502    0 -0.91642136973E+03  0.54971571017E+03  0.20279987298E+04  0.22923338211E+04  0.10100000352E+00 0.  1.
       -3    1    3    3    0  502  0.91642136973E+03 -0.54971571017E+03 -0.12919463515E+04  0.16766457212E+04  0.10100000352E+00 0. -1.
</event>
<event>
 5   0  0.2632875E-08  0.3897875E+04  0.7818609E-02  0.8025471E-01
        3   -1    0    0  501    0  0.00000000000E+00  0.00000000000E+00  0.25647288345E+04  0.25647288365E+04  0.10100000352E+00 0. -1.
       -3   -1    0    0    0  501  0.00000000000E+00  0.00000000000E+00 -0.14809975765E+04  0.14809975799E+04  0.10100000352E+00 0.  1.
    10030    2    1    2    0    0  0.00000000000E+00  0.00000000000E+00  0.10837312581E+04  0.40457264165E+04  0.38978749078E+04 0.  0.
        5    1    3    3  502    0 -0.31926511966E+03 -0.97940351157E+03  0.22590613173E+04  0.24828494881E+04  0.46999998093E+01 0. -1.
       -5    1    3    3    0  502  0.31926511966E+03  0.97940351157E+03 -0.11753300592E+04  0.15628769284E+04  0.46999998093E+01 0.  1.
</event>
<event>
 5   0  0.8342802E-08  0.3947459E+04  0.7818609E-02  0.8015230E-01
       -2   -1    0    0    0  501  0.00000000000E+00  0.00000000000E+00  0.18180862598E+04  0.18180862598E+04  0.25500000920E-02 0.  1.
        2   -1    0    0  501    0  0.00000000000E+00  0.00000000000E+00 -0.21426966677E+04  0.21426966677E+04  0.25500000920E-02 0. -1.
    10030    2    1    2    0    0  0.00000000000E+00  0.00000000000E+00 -0.32461040789E+03  0.39607829276E+04  0.39474586106E+04 0.  0.
        4    1    3    3  502    0  0.12666935065E+03  0.14203795871E+02  0.18139518615E+04  0.18184250991E+04  0.12699999809E+01 0.  1.
       -4    1    3    3    0  502 -0.12666935065E+03 -0.14203795871E+02 -0.21385622694E+04  0.21423578285E+04  0.12699999809E+01 0. -1.
</event>
<event>
 5   0  0.8676098E-08  0.3899121E+04  0.7818609E-02  0.8025212E-01
        2   -1    0    0  501    0  0.00000000000E+00  0.00000000000E+00  0.25410972011E+04  0.25410972011E+04  0.25500000920E-02 0.  1.
       -2   -1    0    0    0  501  0.00000000000E+00  0.00000000000E+00 -0.14957262420E+04  0.14957262420E+04  0.25500000920E-02 0. -1.
    10030    2    1    2    0    0  0.00000000000E+00  0.00000000000E+00  0.10453709591E+04  0.40368234431E+04  0.38991208071E+04 0.  0.
        3    1    3    3  502    0 -0.12141454178E+04 -0.20685443738E+03  0.20872974659E+04  0.24235817657E+04  0.10100000352E+00 0.  1.
       -3    1    3    3    0  502  0.12141454178E+04  0.20685443738E+03 -0.10419265068E+04  0.16132416774E+04  0.10100000352E+00 0. -1.
</event>
<event>
 5   0  0.8476262E-08  0.3901597E+04  0.7818609E-02  0.8024697E-01
        2   -1    0    0  501    0  0.00000000000E+00  0.00000000000E+00  0.17577590440E+04  0.17577590441E+04  0.25500000920E-02 0. -1.
       -2   -1    0    0    0  501  0.00000000000E+00  0.00000000000E+00 -0.21650374483E+04  0.21650374483E+04  0.25500000920E-02 0.  1.
    10030    2    1    2    0    0  0.00000000000E+00  0.00000000000E+00 -0.40727840425E+03  0.39227964924E+04  0.39015966760E+04 0.  0.
        2    1    3    3  502    0  0.15644483666E+04 -0.31027750259E+03  0.92578249026E+03  0.18441377496E+04  0.25500000920E-02 0. -1.
       -2    1    3    3    0  502 -0.15644483666E+04  0.31027750259E+03 -0.13330608945E+04  0.20786587427E+04  0.25500000920E-02 0.  1.
</event>
<event>
 5   0  0.8551754E-08  0.3997367E+04  0.7818609E-02  0.8005078E-01
       -2   -1    0    0    0  501  0.00000000000E+00  0.00000000000E+00  0.16716567944E+04  0.16716567944E+04  0.25500000920E-02 0. -1.
        2   -1    0    0  501    0  0.00000000000E+00  0.00000000000E+00 -0.23896869117E+04  0.23896869118E+04  0.25500000920E-02 0.  1.
    10030    2    1    2    0    0  0.00000000000E+00  0.00000000000E+00 -0.71803011739E+03  0.40613437061E+04  0.39973673148E+04 0.  0.
        1    1    3    3  502    0 -0.13408499736E+04  0.12454348702E+04  0.45743155588E+03  0.18863271975E+04  0.50400001928E-02 0. -1.
       -1    1    3    3    0  502  0.13408499736E+04 -0.12454348702E+04 -0.11754616733E+04  0.21750165086E+04  0.50400001928E-02 0.  1.
</event>
<event>
 5   0  0.8438211E-08  0.3903155E+04  0.7818609E-02  0.8024373E-01
       -2   -1    0    0    0  501  0.00000000000E+00  0.00000000000E+00  0.15720911117E+04  0.15720911117E+04  0.25500000920E-02 0. -1.
        2   -1    0    0  501    0  0.00000000000E+00  0.00000000000E+00 -0.24226683544E+04  0.24226683544E+04  0.25500000920E-02 0.  1.
    10030    2    1    2    0    0  0.00000000000E+00  0.00000000000E+00 -0.85057724269E+03  0.39947594660E+04  0.39031553320E+04 0.  0.
        5    1    3    3  502    0 -0.66914784635E+03 -0.17865351145E+04 -0.43368990781E+01  0.19077493164E+04  0.46999998093E+01 0. -1.
       -5    1    3    3    0  502  0.66914784635E+03  0.17865351145E+04 -0.84624034361E+03  0.20870101496E+04  0.46999998093E+01 0.  1.
</event>
<event>
 5   0  0.8676098E-08  0.3903782E+04  0.7818609E-02  0.8024243E-01
        2   -1    0    0  501    0  0.00000000000E+00  0.00000000000E+00  0.26453320874E+04  0.26453320874E+04  0.25500000920E-02 0. -1.
       -2   -1    0    0    0  501  0.00000000000E+00  0.00000000000E+00 -0.14402270613E+04  0.14402270613E+04  0.25500000920E-02 0.  1.
    10030    2    1    2    0    0  0.00000000000E+00  0.00000000000E+00  0.12051050261E+04  0.40855591487E+04  0.39037821959E+04 0.  0.
        3    1    3    3  502    0  0.12060580450E+04  0.21795007414E+03 -0.98733011791E+03  0.15738167030E+04  0.10100000352E+00 0.  1.
       -3    1    3    3    0  502 -0.12060580450E+04 -0.21795007414E+03  0.21924351440E+04  0.25117424457E+04  0.10100000352E+00 0. -1.
</event>
<event>
 5   0  0.2632875E-08  0.3868402E+04  0.7818609E-02  0.8031633E-01
        1   -1    0    0  501    0  0.00000000000E+00  0.00000000000E+00  0.19763554978E+04  0.19763554978E+04  0.50400001928E-02 0.  1.
       -1   -1    0    0    0  501  0.00000000000E+00  0.00000000000E+00 -0.18929456181E+04  0.18929456181E+04  0.50400001928E-02 0. -1.
    10030    2    1    2    0    0  0.00000000000E+00  0.00000000000E+00  0.83409879751E+02  0.38693011159E+04  0.38684019850E+04 0.  0.
        3    1    3    3  502    0 -0.80628986261E+03  0.95567346417E+03  0.15177573801E+04  0.19664695746E+04  0.10100000352E+00 0.  1.
       -3    1    3    3    0  502  0.80628986261E+03 -0.95567346417E+03 -0.14343475004E+04  0.19028315413E+04  0.10100000352E+00 0. -1.
</event>
<event>
 5   0  0.2632875E-08  0.3876760E+04  0.7818609E-02  0.8029880E-01
        1   -1    0    0  501    0  0.00000000000E+00  0.00000000000E+00  0.23771234154E+04  0.23771234154E+04  0.50400001928E-02 0.  1.
       -1   -1    0    0    0  501  0.00000000000E+00  0.00000000000E+00 -0.15806152749E+04  0.15806152749E+04  0.50400001928E-02 0. -1.
    10030    2    1    2    0    0  0.00000000000E+00  0.00000000000E+00  0.79650814044E+03  0.39577386903E+04  0.38767602870E+04 0.  0.
        3    1    3    3  502    0 -0.11126929308E+04 -0.41402393620E+03 -0.11660105233E+04  0.16640558670E+04  0.10100000352E+00 0. -1.
       -3    1    3    3    0  502  0.11126929308E+04  0.41402393620E+03  0.19625186637E+04  0.22936828232E+04  0.10100000352E+00 0.  1.
</event>
<event>
 5   0  0.2632875E-08  0.3914781E+04  0.7818609E-02  0.8021962E-01
        1   -1    0    0  501    0  0.00000000000E+00  0.00000000000E+00  0.18080027946E+04  0.18080027946E+04  0.50400001928E-02 0. -1.
       -1   -1    0    0    0  501  0.00000000000E+00  0.00000000000E+00 -0.21191211522E+04  0.21191211522E+04  0.50400001928E-02 0.  1.
    10030    2    1    2    0    0  0.00000000000E+00  0.00000000000E+00 -0.31111835767E+03  0.39271239468E+04  0.39147806913E+04 0.  0.
        5    1    3    3  502    0  0.46566681601E+03  0.53901910971E+02  0.17508548542E+04  0.18125302232E+04  0.46999998093E+01 0. -1.
       -5    1    3    3    0  502 -0.46566681601E+03 -0.53901910971E+02 -0.20619732119E+04  0.21145937236E+04  0.46999998093E+01 0.  1.
</event>
<event>
 5   0  0.2632875E-08  0.3891264E+04  0.7818609E-02  0.8026849E-01
        1   -1    0    0  501    0  0.00000000000E+00  0.00000000000E+00  0.19166876960E+04  0.19166876960E+04  0.50400001928E-02 0. -1.
       -1   -1    0    0    0  501  0.00000000000E+00  0.00000000000E+00 -0.19750135417E+04  0.19750135417E+04  0.50400001928E-02 0.  1.
    10030    2    1    2    0    0  0.00000000000E+00  0.00000000000E+00 -0.58325845705E+02  0.38917012377E+04  0.38912641415E+04 0.  0.
        5    1    3    3  502    0  0.17950118071E+03 -0.15113163631E+04 -0.12413899294E+04  0.19640185513E+04  0.46999998093E+01 0.  1.
       -5    1    3    3    0  502 -0.17950118071E+03  0.15113163631E+04  0.11830640837E+04  0.19276826864E+04  0.46999998093E+01 0. -1.
</event>
<event>
 5   0  0.8476262E-08  0.3893758E+04  0.7818609E-02  0.8026329E-01
        2   -1    0    0  501    0  0.00000000000E+00  0.00000000000E+00  0.22245051938E+04  0.22245051938E+04  0.25500000920E-02 0. -1.
       -2   -1    0    0    0  501  0.00000000000E+00  0.00000000000E+00 -0.17039011255E+04  0.17039011255E+04  0.25500000920E-02 0.  1.
    10030    2    1    2    0    0  0.00000000000E+00  0.00000000000E+00  0.52060406834E+03  0.39284063193E+04  0.38937575186E+04 0.  0.
        2    1    3    3  502    0 -0.82733457157E+03  0.17345210698E+04  0.57499278920E+03  0.20059069128E+04  0.25500000920E-02 0. -1.
       -2    1    3    3    0  502  0.82733457157E+03 -0.17345210698E+04 -0.54388720855E+02  0.19224994065E+04  0.25500000920E-02 0.  1.
</event>
<event>
 5   0  0.8676098E-08  0.3890316E+04  0.7818609E-02  0.8027046E-01
       -2   -1    0    0    0  501  0.00000000000E+00  0.00000000000E+00  0.15097274170E+04  0.15097274170E+04  0.25500000920E-02 0.  1.
        2   -1    0    0  501    0  0.00000000000E+00  0.00000000000E+00 -0.25061742258E+04  0.25061742258E+04  0.25500000920E-02 0. -1.
    10030    2    1    2    0    0  0.00000000000E+00  0.00000000000E+00 -0.99644680882E+03  0.40159016427E+04  0.38903161518E+04 0.  0.
        3    1    3    3  502    0 -0.13565964918E+04  0.87412528815E+03  0.62273687814E+03  0.17298122125E+04  0.10100000352E+00 0.  1.
       -3    1    3    3    0  502  0.13565964918E+04 -0.87412528815E+03 -0.16191836870E+04  0.22860894303E+04  0.10100000352E+00 0. -1.
</event>
<event>
 5   0  0.2632875E-08  0.3691392E+04  0.7818609E-02  0.8069872E-01
        1   -1    0    0  501    0  0.00000000000E+00  0.00000000000E+00  0.29190792523E+04  0.29190792523E+04  0.50400001928E-02 0.  1.
       -1   -1    0    0    0  501  0.00000000000E+00  0.00000000000E+00 -0.11670094551E+04  0.11670094551E+04  0.50400001928E-02 0. -1.
    10030    2    1    2    0    0  0.00000000000E+00  0.00000000000E+00  0.17520697972E+04  0.40860887074E+04  0.36913916550E+04 0.  0.
        3    1    3    3  502    0  0.21345215837E+03  0.60921478589E+03 -0.10379793575E+04  0.12223361387E+04  0.10100000352E+00 0. -1.
       -3    1    3    3    0  502 -0.21345215837E+03 -0.60921478589E+03  0.27900491547E+04  0.28637525687E+04  0.10100000352E+00 0.  1.
</event>
<event>
 5   0  0.2632875E-08  0.3900097E+04  0.7818609E-02  0.8025009E-01
        1   -1    0    0  501    0  0.00000000000E+00  0.00000000000E+00  0.12555749723E+04  0.12555749723E+04  0.50400001928E-02 0.  1.
       -1   -1    0    0    0  501  0.00000000000E+00  0.00000000000E+00 -0.30286431815E+04  0.30286431815E+04  0.50400001928E-02 0. -1.
    10030    2    1    2    0    0  0.00000000000E+00  0.00000000000E+00 -0.17730682092E+04  0.42842181538E+04  0.39000967058E+04 0.  0.
        2    1    3    3  502    0 -0.50681482624E+03  0.13467595244E+04 -0.23322349382E+04  0.27404273922E+04  0.25500000920E-02 0. -1.
       -2    1    3    3    0  502  0.50681482624E+03 -0.13467595244E+04  0.55916672906E+03  0.15437907616E+04  0.25500000920E-02 0.  1.
</event>
<event>
 5   0  0.8476262E-08  0.3914422E+04  0.7818609E-02  0.8022036E-01
        2   -1    0    0  501    0  0.00000000000E+00  0.00000000000E+00  0.12408251082E+04  0.12408251082E+04  0.25500000920E-02 0. -1.
       -2   -1    0    0    0  501  0.00000000000E+00  0.00000000000E+00 -0.30872001295E+04  0.30872001295E+04  0.25500000920E-02 0.  1.
    10030    2    1    2    0    0  0.00000000000E+00  0.00000000000E+00 -0.18463750213E+04  0.43280252377E+04  0.39144222740E+04 0.  0.
        2    1    3    3  502    0  0.13500384361E+04 -0.10698077946E+04  0.10429428811E+03  0.17256795168E+04  0.25500000920E-02 0. -1.
       -2    1    3    3    0  502 -0.13500384361E+04  0.10698077946E+04 -0.19506693095E+04  0.26023457209E+04  0.25500000920E-02 0.  1.
</event>
<event>
 5   0  0.2632875E-08  0.3895928E+04  0.7818609E-02  0.8025877E-01
       -1   -1    0    0    0  501  0.00000000000E+00  0.00000000000E+00  0.16663991363E+04  0.16663991363E+04  0.50400001928E-02 0.  1.
        1   -1    0    0  501    0  0.00000000000E+00  0.00000000000E+00 -0.22771040834E+04  0.22771040834E+04  0.50400001928E-02 0. -1.
    10030    2    1    2    0    0  0.00000000000E+00  0.00000000000E+00 -0.61070494715E+03  0.39435032197E+04  0.38959282734E+04 0.  0.
        4    1    3    3  502    0 -0.18922334251E+04 -0.19383337644E+03 -0.73053424344E+03  0.20375967724E+04  0.12699999809E+01 0. -1.
       -4    1    3    3    0  502  0.18922334251E+04  0.19383337644E+03  0.11982929629E+03  0.19059064474E+04  0.12699999809E+01 0.  1.
</event>
<event>
 5   0  0.8551754E-08  0.3891642E+04  0.7818609E-02  0.8026770E-01
        2   -1    0    0  501    0  0.00000000000E+00  0.00000000000E+00  0.20755483313E+04  0.20755483313E+04  0.25500000920E-02 0. -1.
       -2   -1    0    0    0  501  0.00000000000E+00  0.00000000000E+00 -0.18242018807E+04  0.18242018807E+04  0.25500000920E-02 0.  1.
    10030    2    1    2    0    0  0.00000000000E+00  0.00000000000E+00  0.25134645058E+03  0.38997502120E+04  0.38916419000E+04 0.  0.
        1    1    3    3  502    0  0.49528809798E+03  0.27999957349E+03 -0.17389856041E+04  0.18296942347E+04  0.50400001928E-02 0.  1.
       -1    1    3    3    0  502 -0.49528809798E+03 -0.27999957349E+03  0.19903320547E+04  0.20700559773E+04  0.50400001928E-02 0. -1.
</event>
<event>
 5   0  0.2632875E-08  0.3865521E+04  0.7818609E-02  0.8032239E-01
       -1   -1    0    0    0  501  0.00000000000E+00  0.00000000000E+00  0.13607525230E+04  0.13607525230E+04  0.50400001928E-02 0. -1.
        1   -1    0    0  501    0  0.00000000000E+00  0.00000000000E+00 -0.27452181236E+04  0.27452181236E+04  0.50400001928E-02 0.  1.
    10030    2    1    2    0    0  0.00000000000E+00  0.00000000000E+00 -0.13844656006E+04  0.41059706466E+04  0.38655206572E+04 0.  0.
        4    1    3    3  502    0 -0.90463522100E+03  0.13499253144E+04 -0.18036947543E+04  0.24277519678E+04  0.12699999809E+01 0.  1.
       -4    1    3    3    0  502  0.90463522100E+03 -0.13499253144E+04  0.41922915372E+03  0.16782186788E+04  0.12699999809E+01 0. -1.
</event>
<event>
 5   0  0.2632875E-08  0.3897908E+04  0.7818609E-02  0.8025464E-01
        1   -1    0    0  501    0  0.00000000000E+00  0.00000000000E+00  0.16238845009E+04  0.16238845009E+04  0.50400001928E-02 0. -1.
       -1   -1    0    0    0  501  0.00000000000E+00  0.00000000000E+00 -0.23390961956E+04  0.23390961956E+04  0.50400001928E-02 0.  1.
    10030    2    1    2    0    0  0.00000000000E+00  0.00000000000E+00 -0.71521169471E+03  0.39629806965E+04  0.38979081868E+04 0.  0.
        3    1    3    3  502    0  0.13420009303E+04 -0.14101224213E+04 -0.45411314731E+03  0.19989073267E+04  0.10100000352E+00 0. -1.
       -3    1    3    3    0  502 -0.13420009303E+04  0.14101224213E+04 -0.26109854741E+03  0.19640733698E+04  0.10100000352E+00 0.  1.
</event>
<event>
 5   0  0.2632875E-08  0.4006236E+04  0.7818609E-02  0.8003290E-01
       -1   -1    0    0    0  501  0.00000000000E+00  0.00000000000E+00  0.18070325226E+04  0.18070325226E+04  0.50400001928E-02 0.  1.
        1   -1    0    0  501    0  0.00000000000E+00  0.00000000000E+00 -0.22204809267E+04  0.22204809267E+04  0.50400001928E-02 0. -1.
    10030    2    1    2    0    0  0.00000000000E+00  0.00000000000E+00 -0.41344840404E+03  0.40275134493E+04  0.40062357646E+04 0.  0.
        2    1    3    3  502    0  0.18679920835E+04 -0.39054693980E+02  0.51930365150E+03  0.19392256123E+04  0.25500000920E-02 0. -1.
       -2    1    3    3    0  502 -0.18679920835E+04  0.39054693980E+02 -0.93275205554E+03  0.20882878370E+04  0.25500000920E-02 0.  1.
</event>
<event>
 5   0  0.8551754E-08  0.3900889E+04  0.7818609E-02  0.8024844E-01
       -2   -1    0    0    0  501  0.00000000000E+00  0.00000000000E+00  0.18378647062E+04  0.18378647062E+04  0.25500000920E-02 0.  1.
        2   -1    0    0  501    0  0.00000000000E+00  0.00000000000E+00 -0.20699204374E+04  0.20699204374E+04  0.25500000920E-02 0. -1.
    10030    2    1    2    0    0  0.00000000000E+00  0.00000000000E+00 -0.23205573122E+03  0.39077851436E+04  0.39008889841E+04 0.  0.
        1    1    3    3  502    0 -0.15203741529E+04  0.25449399938E+03  0.10810444494E+04  0.18828069104E+04  0.50400001928E-02 0.  1.
       -1    1    3    3    0  502  0.15203741529E+04 -0.25449399938E+03 -0.13131001806E+04  0.20249782331E+04  0.50400001928E-02 0. -1.
</event>
<event>
 5   0  0.8438211E-08  0.3877956E+04  0.7818609E-02  0.8029630E-01
       -2   -1    0    0    0  501  0.00000000000E+00  0.00000000000E+00  0.13137237782E+04  0.13137237782E+04  0.25500000920E-02 0. -1.
        2   -1    0    0  501    0  0.00000000000E+00  0.00000000000E+00 -0.28618164861E+04  0.28618164861E+04  0.25500000920E-02 0.  1.
    10030    2    1    2    0    0  0.00000000000E+00  0.00000000000E+00 -0.15480927079E+04  0.41755402643E+04  0.38779563517E+04 0.  0.
        5    1    3    3  502    0 -0.24883317118E+03  0.28018709927E+03  0.12743573010E+04  0.13283190047E+04  0.46999998093E+01 0. -1.
       -5    1    3    3    0  502  0.24883317118E+03 -0.28018709927E+03 -0.28224500089E+04  0.28472212595E+04  0.46999998093E+01 0.  1.
</event>
<event>
 5   0  0.2632875E-08  0.3905901E+04  0.7818609E-02  0.8023803E-01
        1   -1    0    0  501    0  0.00000000000E+00  0.00000000000E+00  0.11980316276E+04  0.11980316276E+04  0.50400001928E-02 0.  1.
       -1   -1    0    0    0  501  0.00000000000E+00  0.00000000000E+00 -0.31835688572E+04  0.31835688572E+04  0.50400001928E-02 0. -1.
    10030    2    1    2    0    0  0.00000000000E+00  0.00000000000E+00 -0.19855372296E+04  0.43816004849E+04  0.39059012685E+04 0.  0.
        5    1    3    3  502    0  0.41791746610E+03 -0.15334152441E+04 -0.22658774436E+04  0.27677138578E+04  0.46999998093E+01 0. -1.
       -5    1    3    3    0  502 -0.41791746610E+03  0.15334152441E+04  0.28034021403E+03  0.16138866270E+04  0.46999998093E+01 0.  1.
</event>
<event>
 5   0  0.8342802E-08  0.3884669E+04  0.7818609E-02  0.8028225E-01
       -2   -1    0    0    0  501  0.00000000000E+00  0.00000000000E+00  0.15310792958E+04  0.15310792958E+04  0.25500000920E-02 0. -1.
        2   -1    0    0  501    0  0.00000000000E+00  0.00000000000E+00 -0.24640544550E+04  0.24640544550E+04  0.25500000920E-02 0.  1.
    10030    2    1    2    0    0  0.00000000000E+00  0.00000000000E+00 -0.93297515916E+03  0.39951337508E+04  0.38846687167E+04 0.  0.
        4    1    3    3  502    0  0.80624407158E+02 -0.32223365748E+03 -0.24346269741E+04  0.24571823174E+04  0.12699999809E+01 0.  1.
       -4    1    3    3    0  502 -0.80624407158E+02  0.32223365748E+03  0.15016518150E+04  0.15379514333E+04  0.12699999809E+01 0. -1.
</event>
<event>
 5   0  0.2632875E-08  0.3903058E+04  0.7818609E-02  0.8024394E-01
        1   -1    0    0  501    0  0.00000000000E+00  0.00000000000E+00  0.18731523544E+04  0.18731523544E+04  0.50400001928E-02 0. -1.
       -1   -1    0    0    0  501  0.00000000000E+00  0.00000000000E+00 -0.20331847111E+04  0.20331847111E+04  0.50400001928E-02 0.  1.
    10030    2    1    2    0    0  0.00000000000E+00  0.00000000000E+00 -0.16003235662E+03  0.39063370655E+04  0.39030576366E+04 0.  0.
        1    1    3    3  502    0 -0.15477689622E+04 -0.66035368935E+03  0.90915070983E+03  0.19126449667E+04  0.50400001928E-02 0. -1.
       -1    1    3    3    0  502  0.15477689622E+04  0.66035368935E+03 -0.10691830664E+04  0.19936920988E+04  0.50400001928E-02 0.  1.
</event>
<event>
 5   0  0.2632875E-08  0.3920681E+04  0.7818609E-02  0.8020742E-01
        3   -1    0    0  501    0  0.00000000000E+00  0.00000000000E+00  0.20210672023E+04  0.20210672049E+04  0.10100000352E+00 0.  1.
       -3   -1    0    0    0  501  0.00000000000E+00  0.00000000000E+00 -0.19014385498E+04  0.19014385525E+04  0.10100000352E+00 0. -1.
    10030    2    1    2    0    0  0.00000000000E+00  0.00000000000E+00  0.11962865254E+03  0.39225057573E+04  0.39206811145E+04 0.  0.
        4    1    3    3  502    0  0.64757542709E+03 -0.16255786426E+03 -0.17841805839E+04  0.19050146881E+04  0.12699999809E+01 0. -1.
       -4    1    3    3    0  502 -0.64757542709E+03  0.16255786426E+03  0.19038092364E+04  0.20174910693E+04  0.12699999809E+01 0.  1.
</event>
<event>
 5   0  0.2632875E-08  0.3799116E+04  0.7818609E-02  0.8046345E-01
        1   -1    0    0  501    0  0.00000000000E+00  0.00000000000E+00  0.21511468042E+04  0.21511468042E+04  0.50400001928E-02 0. -1.
       -1   -1    0    0    0  501  0.00000000000E+00  0.00000000000E+00 -0.16773939170E+04  0.16773939170E+04  0.50400001928E-02 0.  1.
    10030    2    1    2    0    0  0.00000000000E+00  0.00000000000E+00  0.47375288721E+03  0.38285407213E+04  0.37991159835E+04 0.  0.
        2    1    3    3  502    0  0.85942278285E+03  0.21651897202E+03 -0.14562651508E+04  0.17047569253E+04  0.25500000920E-02 0.  1.
       -2    1    3    3    0  502 -0.85942278285E+03 -0.21651897202E+03  0.19300180380E+04  0.21237837960E+04  0.25500000920E-02 0. -1.
</event>
<event>
 5   0  0.2632875E-08  0.3939199E+04  0.7818609E-02  0.8016926E-01
        1   -1    0    0  501    0  0.00000000000E+00  0.00000000000E+00  0.18284894801E+04  0.18284894801E+04  0.50400001928E-02 0.  1.
       -1   -1    0    0    0  501  0.00000000000E+00  0.00000000000E+00 -0.21215993443E+04  0.21215993443E+04  0.50400001928E-02 0. -1.
    10030    2    1    2    0    0  0.00000000000E+00  0.00000000000E+00 -0.29310986412E+03  0.39500888244E+04  0.39391989450E+04 0.  0.
        2    1    3    3  502    0 -0.12613054081E+04 -0.71599576057E+03 -0.14828231130E+04  0.20742000014E+04  0.25500000920E-02 0.  1.
       -2    1    3    3    0  502  0.12613054081E+04  0.71599576057E+03  0.11897132488E+04  0.18758888230E+04  0.25500000920E-02 0. -1.
</event>
<event>
 5   0  0.2632875E-08  0.3886951E+04  0.7818609E-02  0.8027749E-01
       -3   -1    0    0    0  501  0.00000000000E+00  0.00000000000E+00  0.23271444703E+04  0.23271444725E+04  0.10100000352E+00 0.  1.
        3   -1    0    0  501    0  0.00000000000E+00  0.00000000000E+00 -0.16230604031E+04  0.16230604063E+04  0.10100000352E+00 0. -1.
    10030    2    1    2    0    0  0.00000000000E+00  0.00000000000E+00  0.70408406717E+03  0.39502048787E+04  0.38869505027E+04 0.  0.
        5    1    3    3  502    0  0.12995240050E+04  0.14047245586E+04  0.73166656163E+01  0.19136586291E+04  0.46999998093E+01 0. -1.
       -5    1    3    3    0  502 -0.12995240050E+04 -0.14047245586E+04  0.69676740156E+03  0.20365462497E+04  0.46999998093E+01 0.  1.
</event>
<event>
 5   0  0.2632875E-08  0.3905866E+04  0.7818609E-02  0.8023810E-01
        3   -1    0    0  501    0  0.00000000000E+00  0.00000000000E+00  0.14258964151E+04  0.14258964187E+04  0.10100000352E+00 0. -1.
       -3   -1    0    0    0  501  0.00000000000E+00  0.00000000000E+00 -0.26747716463E+04  0.26747716482E+04  0.10100000352E+00 0.  1.
    10030    2    1    2    0    0  0.00000000000E+00  0.00000000000E+00 -0.12488752311E+04  0.41006680669E+04  0.39058660054E+04 0.  0.
        3    1    3    3  502    0 -0.18240246294E+04  0.63759642824E+03 -0.32683530836E+03  0.19596980336E+04  0.10100000352E+00 0. -1.
       -3    1    3    3    0  502  0.18240246294E+04 -0.63759642824E+03 -0.92203992278E+03  0.21409700333E+04  0.10100000352E+00 0.  1.
</event>
<event>
 5   0  0.2632875E-08  0.3940955E+04  0.7818609E-02  0.8016565E-01
        1   -1    0    0  501    0  0.00000000000E+00  0.00000000000E+00  0.27585461806E+04  0.27585461807E+04  0.50400001928E-02 0. -1.
       -1   -1    0    0    0  501  0.00000000000E+00  0.00000000000E+00 -0.14075461756E+04  0.14075461756E+04  0.50400001928E-02 0.  1.
    10030    2    1    2    0    0  0.00000000000E+00  0.00000000000E+00  0.13510000051E+04  0.41660923562E+04  0.39409547710E+04 0.  0.
        4    1    3    3  502    0 -0.18247187238E+04  0.63085099966E+03  0.25902911655E+03  0.19479910423E+04  0.12699999809E+01 0.  1.
       -4    1    3    3    0  502  0.18247187238E+04 -0.63085099966E+03  0.10919708885E+04  0.22181013140E+04  0.12699999809E+01 0. -1.
</event>
<event>
 5   0  0.2632875E-08  0.3899697E+04  0.7818609E-02  0.8025092E-01
       -1   -1    0    0    0  501  0.00000000000E+00  0.00000000000E+00  0.12596780577E+04  0.12596780577E+04  0.50400001928E-02 0. -1.
        1   -1    0    0  501    0  0.00000000000E+00  0.00000000000E+00 -0.30181596474E+04  0.30181596474E+04  0.50400001928E-02 0.  1.
    10030    2    1    2    0    0  0.00000000000E+00  0.00000000000E+00 -0.17584815897E+04  0.42778377051E+04  0.38996971587E+04 0.  0.
        2    1    3    3  502    0 -0.14495614221E+03 -0.19342382580E+04 -0.66089328232E+03  0.20491632079E+04  0.25500000920E-02 0.  1.
       -2    1    3    3    0  502  0.14495614221E+03  0.19342382580E+04 -0.10975883073E+04  0.22286744972E+04  0.25500000920E-02 0. -1.
</event>
<event>
 5   0  0.2632875E-08  0.3909542E+04  0.7818609E-02  0.8023048E-01
       -1   -1    0    0    0  501  0.00000000000E+00  0.00000000000E+00  0.14993701376E+04  0.14993701376E+04  0.50400001928E-02 0. -1.
        1   -1    0    0  501    0  0.00000000000E+00  0.00000000000E+00 -0.25484903724E+04  0.25484903724E+04  0.50400001928E-02 0.  1.
    10030    2    1    2    0    0  0.00000000000E+00  0.00000000000E+00 -0.10491202349E+04  0.40478605100E+04  0.39095423570E+04 0.  0.
        2    1    3    3  502    0 -0.91039596660E+03 -0.63512614761E+03  0.11413796418E+04  0.15921537382E+04  0.25500000920E-02 0. -1.
       -2    1    3    3    0  502  0.91039596660E+03  0.63512614761E+03 -0.21904998766E+04  0.24557067718E+04  0.25500000920E-02 0.  1.
</event>
<event>
 5   0  0.8551754E-08  0.3912574E+04  0.7818609E-02  0.8022419E-01
        2   -1    0    0  501    0  0.00000000000E+00  0.00000000000E+00  0.15731731708E+04  0.15731731708E+04  0.25500000920E-02 0. -1.
       -2   -1    0    0    0  501  0.00000000000E+00  0.00000000000E+00 -0.24326997175E+04  0.24326997175E+04  0.25500000920E-02 0.  1.
    10030    2    1    2    0    0  0.00000000000E+00  0.00000000000E+00 -0.85952654669E+03  0.40058728883E+04  0.39125735409E+04 0.  0.
        1    1    3    3  502    0  0.81989255439E+03  0.13086208374E+04  0.79985220816E+03  0.17391020245E+04  0.50400001928E-02 0. -1.
       -1    1    3    3    0  502 -0.81989255439E+03 -0.13086208374E+04 -0.16593787548E+04  0.22667708638E+04  0.50400001928E-02 0.  1.
</event>
<event>
 5   0  0.2632875E-08  0.3895498E+04  0.7818609E-02  0.8025966E-01
        3   -1    0    0  501    0  0.00000000000E+00  0.00000000000E+00  0.19986282156E+04  0.19986282182E+04  0.10100000352E+00 0.  1.
       -3   -1    0    0    0  501  0.00000000000E+00  0.00000000000E+00 -0.18981646163E+04  0.18981646190E+04  0.10100000352E+00 0. -1.
    10030    2    1    2    0    0  0.00000000000E+00  0.00000000000E+00  0.10046359936E+03  0.38967928372E+04  0.38954975909E+04 0.  0.
        4    1    3    3  502    0 -0.64464581185E+02 -0.15383221264E+04  0.12435798823E+04  0.19791622429E+04  0.12699999809E+01 0.  1.
       -4    1    3    3    0  502  0.64464581185E+02  0.15383221264E+04 -0.11431162830E+04  0.19176305943E+04  0.12699999809E+01 0. -1.
</event>
<event>
 5   0  0.2632875E-08  0.3916985E+04  0.7818609E-02  0.8021506E-01
       -1   -1    0    0    0  501  0.00000000000E+00  0.00000000000E+00  0.16821043857E+04  0.16821043857E+04  0.50400001928E-02 0.  1.
        1   -1    0    0  501    0  0.00000000000E+00  0.00000000000E+00 -0.22802940778E+04  0.22802940778E+04  0.50400001928E-02 0. -1.
    10030    2    1    2    0    0  0.00000000000E+00  0.00000000000E+00 -0.59818969214E+03  0.39623984636E+04  0.39169848961E+04 0.  0.
        2    1    3    3  502    0 -0.84248894256E+03 -0.15303765909E+04 -0.11947141276E+04  0.21164077998E+04  0.25500000920E-02 0. -1.
       -2    1    3    3    0  502  0.84248894256E+03  0.15303765909E+04  0.59652443551E+03  0.18459906637E+04  0.25500000920E-02 0.  1.
</event>
<event>
 5   0  0.2632875E-08  0.3872459E+04  0.7818609E-02  0.8030782E-01
       -1   -1    0    0    0  501  0.00000000000E+00  0.00000000000E+00  0.23882337853E+04  0.23882337854E+04  0.50400001928E-02 0.  1.
        1   -1    0    0  501    0  0.00000000000E+00  0.00000000000E+00 -0.15697732172E+04  0.15697732172E+04  0.50400001928E-02 0. -1.
    10030    2    1    2    0    0  0.00000000000E+00  0.00000000000E+00  0.81846056818E+03  0.39580070025E+04  0.38724593904E+04 0.  0.
        1    1    3    3  502    0  0.12098890552E+04 -0.11953369488E+04  0.13550505463E+04  0.21745859216E+04  0.50400001928E-02 0.  1.
       -1    1    3    3    0  502 -0.12098890552E+04  0.11953369488E+04 -0.53658997817E+03  0.17834210809E+04  0.50400001928E-02 0. -1.
</event>
<event>
 5   0  0.8438211E-08  0.3890187E+04  0.7818609E-02  0.8027073E-01
        2   -1    0    0  501    0  0.00000000000E+00  0.00000000000E+00  0.22421997709E+04  0.22421997709E+04  0.25500000920E-02 0.  1.
       -2   -1    0    0    0  501  0.00000000000E+00  0.00000000000E+00 -0.16873553753E+04  0.16873553753E+04  0.25500000920E-02 0. -1.
    10030    2    1    2    0    0  0.00000000000E+00  0.00000000000E+00  0.55484439562E+03  0.39295551462E+04  0.38901865435E+04 0.  0.
        5    1    3    3  502    0  0.18675697530E+04 -0.17951272186E+03 -0.24092207358E+03  0.18915885216E+04  0.46999998093E+01 0. -1.
       -5    1    3    3    0  502 -0.18675697530E+04  0.17951272186E+03  0.79576646920E+03  0.20379666246E+04  0.46999998093E+01 0.  1.
</event>
<event>
 5   0  0.8438211E-08  0.3887090E+04  0.7818609E-02  0.8027720E-01
        2   -1    0    0  501    0  0.00000000000E+00  0.00000000000E+00  0.17418980789E+04  0.17418980789E+04  0.25500000920E-02 0. -1.
       -2   -1    0    0    0  501  0.00000000000E+00  0.00000000000E+00 -0.21685349172E+04  0.21685349172E+04  0.25500000920E-02 0.  1.
    10030    2    1    2    0    0  0.00000000000E+00  0.00000000000E+00 -0.42663683835E+03  0.39104329961E+04  0.38870898144E+04 0.  0.
        5    1    3    3  502    0  0.17661479266E+04  0.78904489460E+02  0.59889633944E+03  0.18666020820E+04  0.46999998093E+01 0. -1.
       -5    1    3    3    0  502 -0.17661479266E+04 -0.78904489460E+02 -0.10255331778E+04  0.20438309142E+04  0.46999998093E+01 0.  1.
</event>
<event>
 5   0  0.8342802E-08  0.3892950E+04  0.7818609E-02  0.8026497E-01
       -2   -1    0    0    0  501  0.00000000000E+00  0.00000000000E+00  0.18162409350E+04  0.18162409350E+04  0.25500000920E-02 0. -1.
        2   -1    0    0  501    0  0.00000000000E+00  0.00000000000E+00 -0.20860473837E+04  0.20860473837E+04  0.25500000920E-02 0.  1.
    10030    2    1    2    0    0  0.00000000000E+00  0.00000000000E+00 -0.26980644866E+03  0.39022883187E+04  0.38929498587E+04 0.  0.
        4    1    3    3  502    0  0.17842097541E+04  0.39617101779E+02  0.64399940457E+03  0.18972903856E+04  0.12699999809E+01 0. -1.
       -4    1    3    3    0  502 -0.17842097541E+04 -0.39617101779E+02 -0.91380585323E+03  0.20049979331E+04  0.12699999809E+01 0.  1.
</event>
<event>
 5   0  0.2632875E-08  0.3823574E+04  0.7818609E-02  0.8041115E-01
       -1   -1    0    0    0  501  0.00000000000E+00  0.00000000000E+00  0.20288238923E+04  0.20288238923E+04  0.50400001928E-02 0.  1.
        1   -1    0    0  501    0  0.00000000000E+00  0.00000000000E+00 -0.18015013777E+04  0.18015013777E+04  0.50400001928E-02 0. -1.
    10030    2    1    2    0    0  0.00000000000E+00  0.00000000000E+00  0.22732251457E+03  0.38303252700E+04  0.38235737404E+04 0.  0.
        5    1    3    3  502    0 -0.14894592770E+04  0.26434051090E+03  0.12847173389E+04  0.19846625846E+04  0.46999998093E+01 0.  1.
       -5    1    3    3    0  502  0.14894592770E+04 -0.26434051090E+03 -0.10573948244E+04  0.18456626854E+04  0.46999998093E+01 0. -1.
</event>
<event>
 5   0  0.8476262E-08  0.3911454E+04  0.7818609E-02  0.8022651E-01
       -2   -1    0    0    0  501  0.00000000000E+00  0.00000000000E+00  0.17501186921E+04  0.17501186921E+04  0.25500000920E-02 0.  1.
        2   -1    0    0  501    0  0.00000000000E+00  0.00000000000E+00 -0.21854901304E+04  0.21854901304E+04  0.25500000920E-02 0. -1.
    10030    2    1    2    0    0  0.00000000000E+00  0.00000000000E+00 -0.43537143821E+03  0.39356088225E+04  0.39114535041E+04 0.  0.
        2    1    3    3  502    0  0.86324142052E+03 -0.16742951105E+04  0.31131508634E+03  0.19092844079E+04  0.25500000920E-02 0.  1.
       -2    1    3    3    0  502 -0.86324142052E+03  0.16742951105E+04 -0.74668652455E+03  0.20263244146E+04  0.25500000920E-02 0. -1.
</event>
<event>
 5   0  0.2632875E-08  0.3714751E+04  0.7818609E-02  0.8064701E-01
       -1   -1    0    0    0  501  0.00000000000E+00  0.00000000000E+00  0.24488718746E+04  0.24488718746E+04  0.50400001928E-02 0.  1.
        1   -1    0    0  501    0  0.00000000000E+00  0.00000000000E+00 -0.14087479557E+04  0.14087479557E+04  0.50400001928E-02 0. -1.
    10030    2    1    2    0    0  0.00000000000E+00  0.00000000000E+00  0.10401239189E+04  0.38576198304E+04  0.37147507304E+04 0.  0.
        2    1    3    3  502    0 -0.48760907134E+03 -0.52364987813E+03  0.23000051562E+04  0.24087331774E+04  0.25500000920E-02 0.  1.
       -2    1    3    3    0  502  0.48760907134E+03  0.52364987813E+03 -0.12598812373E+04  0.14488866530E+04  0.25500000920E-02 0. -1.
</event>
<event>
 5   0  0.8476262E-08  0.3909489E+04  0.7818609E-02  0.8023059E-01
       -2   -1    0    0    0  501  0.00000000000E+00  0.00000000000E+00  0.21171233546E+04  0.21171233546E+04  0.25500000920E-02 0.  1.
        2   -1    0    0  501    0  0.00000000000E+00  0.00000000000E+00 -0.18048194104E+04  0.18048194104E+04  0.25500000920E-02 0. -1.
    10030    2    1    2    0    0  0.00000000000E+00  0.00000000000E+00  0.31230394423E+03  0.39219427651E+04  0.39094886237E+04 0.  0.
        2    1    3    3  502    0 -0.16055793052E+04 -0.10566884554E+04 -0.20071984204E+03  0.19325537126E+04  0.25500000920E-02 0.  1.
       -2    1    3    3    0  502  0.16055793052E+04  0.10566884554E+04  0.51302378627E+03  0.19893890525E+04  0.25500000920E-02 0. -1.
</event>
<event>
 5   0  0.2632875E-08  0.3934385E+04  0.7818609E-02  0.8017916E-01
       -1   -1    0    0    0  501  0.00000000000E+00  0.00000000000E+00  0.21473074271E+04  0.21473074271E+04  0.50400001928E-02 0.  1.
        1   -1    0    0  501    0  0.00000000000E+00  0.00000000000E+00 -0.18021854029E+04  0.18021854029E+04  0.50400001928E-02 0. -1.
    10030    2    1    2    0    0  0.00000000000E+00  0.00000000000E+00  0.34512202417E+03  0.39494928300E+04  0.39343848824E+04 0.  0.
        5    1    3    3  502    0  0.34918823186E+03  0.55766549497E+03 -0.16884458939E+04  0.18121244030E+04  0.46999998093E+01 0. -1.
       -5    1    3    3    0  502 -0.34918823186E+03 -0.55766549497E+03  0.20335679180E+04  0.21373684270E+04  0.46999998093E+01 0.  1.
</event>
<event>
 5   0  0.8342802E-08  0.3900219E+04  0.7818609E-02  0.8024984E-01
        2   -1    0    0  501    0  0.00000000000E+00  0.00000000000E+00  0.16384527973E+04  0.16384527973E+04  0.25500000920E-02 0. -1.
       -2   -1    0    0    0  501  0.00000000000E+00  0.00000000000E+00 -0.23210480024E+04  0.23210480024E+04  0.25500000920E-02 0.  1.
    10030    2    1    2    0    0  0.00000000000E+00  0.00000000000E+00 -0.68259520512E+03  0.39595007997E+04  0.39002192719E+04 0.  0.
        4    1    3    3  502    0 -0.26173866692E+03 -0.19310925341E+04 -0.41520855119E+03  0.19924922230E+04  0.12699999809E+01 0. -1.
       -4    1    3    3    0  502  0.26173866692E+03  0.19310925341E+04 -0.26738665393E+03  0.19670085767E+04  0.12699999809E+01 0.  1.
</event>
<event>
 5   0  0.2632875E-08  0.3887296E+04  0.7818609E-02  0.8027677E-01
        1   -1    0    0  501    0  0.00000000000E+00  0.00000000000E+00  0.18900756933E+04  0.18900756933E+04  0.50400001928E-02 0. -1.
       -1   -1    0    0    0  501  0.00000000000E+00  0.00000000000E+00 -0.19987389803E+04  0.19987389803E+04  0.50400001928E-02 0.  1.
    10030    2    1    2    0    0  0.00000000000E+00  0.00000000000E+00 -0.10866328700E+03  0.38888146736E+04  0.38872962140E+04 0.  0.
        1    1    3    3  502    0  0.17049955765E+04  0.41043657747E+03 -0.89269232801E+03  0.19678332481E+04  0.50400001928E-02 0.  1.
       -1    1    3    3    0  502 -0.17049955765E+04 -0.41043657747E+03  0.78402904101E+03  0.19209814255E+04  0.50400001928E-02 0. -1.
</event>
<event>
 5   0  0.2632875E-08  0.3916394E+04  0.7818609E-02  0.8021628E-01
        1   -1    0    0  501    0  0.00000000000E+00  0.00000000000E+00  0.20344316178E+04  0.20344316178E+04  0.50400001928E-02 0.  1.
       -1   -1    0    0    0  501  0.00000000000E+00  0.00000000000E+00 -0.18848192808E+04  0.18848192808E+04  0.50400001928E-02 0. -1.
    10030    2    1    2    0    0  0.00000000000E+00  0.00000000000E+00  0.14961233697E+03  0.39192508986E+04  0.39163942287E+04 0.  0.
        5    1    3    3  502    0 -0.13103408887E+04 -0.14181019047E+04  0.40139922539E+03  0.19720927171E+04  0.46999998093E+01 0. -1.
       -5    1    3    3    0  502  0.13103408887E+04  0.14181019047E+04 -0.25178688842E+03  0.19471581815E+04  0.46999998093E+01 0.  1.
</event>
<event>
 5   0  0.2632875E-08  0.3901568E+04  0.7818609E-02  0.8024703E-01
       -1   -1    0    0    0  501  0.00000000000E+00  0.00000000000E+00  0.18734781765E+04  0.18734781765E+04  0.50400001928E-02 0.  1.
        1   -1    0    0  501    0  0.00000000000E+00  0.00000000000E+00 -0.20312801384E+04  0.20312801384E+04  0.50400001928E-02 0. -1.
    10030    2    1    2    0    0  0.00000000000E+00  0.00000000000E+00 -0.15780196190E+03  0.39047583150E+04  0.39015684076E+04 0.  0.
        1    1    3    3  502    0 -0.32339539413E+03 -0.18179604323E+04 -0.70869625477E+03  0.19778309068E+04  0.50400001928E-02 0.  1.
       -1    1    3    3    0  502  0.32339539413E+03  0.18179604323E+04  0.55089429287E+03  0.19269274082E+04  0.50400001928E-02 0. -1.
</event>
<event>
 5   0  0.8476262E-08  0.3851116E+04  0.7818609E-02  0.8035274E-01
        2   -1    0    0  501    0  0.00000000000E+00  0.00000000000E+00  0.15813571818E+04  0.15813571818E+04  0.25500000920E-02 0. -1.
       -2   -1    0    0    0  501  0.00000000000E+00  0.00000000000E+00 -0.23446779158E+04  0.23446779158E+04  0.25500000920E-02 0.  1.
    10030    2    1    2    0    0  0.00000000000E+00  0.00000000000E+00 -0.76332073397E+03  0.39260350975E+04  0.38511158181E+04 0.  0.
        2    1    3    3  502    0  0.93543182589E+03 -0.10200877539E+04  0.98309928320E+03  0.16976736810E+04  0.25500000920E-02 0. -1.
       -2    1    3    3    0  502 -0.93543182589E+03  0.10200877539E+04 -0.17464200172E+04  0.22283614166E+04  0.25500000920E-02 0.  1.
</event>
<event>
 5   0  0.8676098E-08  0.3840875E+04  0.7818609E-02  0.8037440E-01
        2   -1    0    0  501    0  0.00000000000E+00  0.00000000000E+00  0.21180678002E+04  0.21180678002E+04  0.25500000920E-02 0.  1.
       -2   -1    0    0    0  501  0.00000000000E+00  0.00000000000E+00 -0.17412473179E+04  0.17412473179E+04  0.25500000920E-02 0. -1.
    10030    2    1    2    0    0  0.00000000000E+00  0.00000000000E+00  0.37682048231E+03  0.38593151181E+04  0.38408748359E+04 0.  0.
        3    1    3    3  502    0  0.54850972723E+03  0.37232803697E+03  0.19994477940E+04  0.21064858364E+04  0.10100000352E+00 0.  1.
       -3    1    3    3    0  502 -0.54850972723E+03 -0.37232803697E+03 -0.16226273117E+04  0.17528292817E+04  0.10100000352E+00 0. -1.
</event>
<event>
 5   0  0.2632875E-08  0.3904672E+04  0.7818609E-02  0.8024058E-01
        1   -1    0    0  501    0  0.00000000000E+00  0.00000000000E+00  0.29749903033E+04  0.29749903033E+04  0.50400001928E-02 0. -1.
       -1   -1    0    0    0  501  0.00000000000E+00  0.00000000000E+00 -0.12812198058E+04  0.12812198059E+04  0.50400001928E-02 0.  1.
    10030    2    1    2    0    0  0.00000000000E+00  0.00000000000E+00  0.16937704975E+04  0.42562101092E+04  0.39046723288E+04 0.  0.
        5    1    3    3  502    0  0.13663032139E+04 -0.29736212188E+03 -0.63827245353E+03  0.15370824698E+04  0.46999998093E+01 0.  1.
       -5    1    3    3    0  502 -0.13663032139E+04  0.29736212188E+03  0.23320429510E+04  0.27191276394E+04  0.46999998093E+01 0. -1.
</event>
<event>
 5   0  0.8438211E-08  0.3898946E+04  0.7818609E-02  0.8025248E-01
        2   -1    0    0  501    0  0.00000000000E+00  0.00000000000E+00  0.15045671827E+04  0.15045671827E+04  0.25500000920E-02 0. -1.
       -2   -1    0    0    0  501  0.00000000000E+00  0.00000000000E+00 -0.25259387911E+04  0.25259387911E+04  0.25500000920E-02 0.  1.
    10030    2    1    2    0    0  0.00000000000E+00  0.00000000000E+00 -0.10213716084E+04  0.40305059738E+04  0.38989458116E+04 0.  0.
        5    1    3    3  502    0 -0.62911763674E+03 -0.56710448207E+03 -0.23257875117E+04  0.24752184013E+04  0.46999998093E+01 0.  1.
       -5    1    3    3    0  502  0.62911763674E+03  0.56710448207E+03  0.13044159033E+04  0.15552875725E+04  0.46999998093E+01 0. -1.
</event>
<event>
 5   0  0.8438211E-08  0.3903205E+04  0.7818609E-02  0.8024363E-01
        2   -1    0    0  501    0  0.00000000000E+00  0.00000000000E+00  0.23978275268E+04  0.23978275268E+04  0.25500000920E-02 0. -1.
       -2   -1    0    0    0  501  0.00000000000E+00  0.00000000000E+00 -0.15884181073E+04  0.15884181073E+04  0.25500000920E-02 0.  1.
    10030    2    1    2    0    0  0.00000000000E+00  0.00000000000E+00  0.80940941946E+03  0.39862456341E+04  0.39032051762E+04 0.  0.
        5    1    3    3  502    0 -0.14135891324E+04  0.36484830003E+02 -0.96896330969E+03  0.17141987526E+04  0.46999998093E+01 0.  1.
       -5    1    3    3    0  502  0.14135891324E+04 -0.36484830003E+02  0.17783727292E+04  0.22720468815E+04  0.46999998093E+01 0. -1.
</event>
<event>
 5   0  0.8438211E-08  0.3867840E+04  0.7818609E-02  0.8031751E-01
       -2   -1    0    0    0  501  0.00000000000E+00  0.00000000000E+00  0.23882228791E+04  0.23882228791E+04  0.25500000920E-02 0. -1.
        2   -1    0    0  501    0  0.00000000000E+00  0.00000000000E+00 -0.15660375627E+04  0.15660375627E+04  0.25500000920E-02 0.  1.
    10030    2    1    2    0    0  0.00000000000E+00  0.00000000000E+00  0.82218531638E+03  0.39542604419E+04  0.38678400882E+04 0.  0.
        5    1    3    3  502    0 -0.33968587432E+03  0.15938190733E+04 -0.65350937693E+03  0.17557739967E+04  0.46999998093E+01 0.  1.
       -5    1    3    3    0  502  0.33968587432E+03 -0.15938190733E+04  0.14756946933E+04  0.21984864452E+04  0.46999998093E+01 0. -1.
</event>
<event>
 5   0  0.2632875E-08  0.3907418E+04  0.7818609E-02  0.8023488E-01
       -1   -1    0    0    0  501  0.00000000000E+00  0.00000000000E+00  0.26525505694E+04  0.26525505694E+04  0.50400001928E-02 0.  1.
        1   -1    0    0  501    0  0.00000000000E+00  0.00000000000E+00 -0.14389842552E+04  0.14389842552E+04  0.50400001928E-02 0. -1.
    10030    2    1    2    0    0  0.00000000000E+00  0.00000000000E+00  0.12135663142E+04  0.40915348246E+04  0.39074178202E+04 0.  0.
        1    1    3    3  502    0  0.15448448423E+04  0.11705316118E+04  0.86389035232E+03  0.21220264800E+04  0.50400001928E-02 0.  1.
       -1    1    3    3    0  502 -0.15448448423E+04 -0.11705316118E+04  0.34967596187E+03  0.19695083446E+04  0.50400001928E-02 0. -1.
</event>
<event>
 5   0  0.8342802E-08  0.3884194E+04  0.7818609E-02  0.8028325E-01
       -2   -1    0    0    0  501  0.00000000000E+00  0.00000000000E+00  0.11873854409E+04  0.11873854409E+04  0.25500000920E-02 0. -1.
        2   -1    0    0  501    0  0.00000000000E+00  0.00000000000E+00 -0.31765095574E+04  0.31765095574E+04  0.25500000920E-02 0.  1.
    10030    2    1    2    0    0  0.00000000000E+00  0.00000000000E+00 -0.19891241165E+04  0.43638949984E+04  0.38841942287E+04 0.  0.
        4    1    3    3  502    0 -0.18707786775E+04  0.43932863691E+03 -0.13101779409E+04  0.23258096141E+04  0.12699999809E+01 0. -1.
       -4    1    3    3    0  502  0.18707786775E+04 -0.43932863691E+03 -0.67894617564E+03  0.20380853843E+04  0.12699999809E+01 0.  1.
</event>
<event>
 5   0  0.2632875E-08  0.3784750E+04  0.7818609E-02  0.8049436E-01
       -1   -1    0    0    0  501  0.00000000000E+00  0.00000000000E+00  0.18335087176E+04  0.18335087176E+04  0.50400001928E-02 0.  1.
        1   -1    0    0  501    0  0.00000000000E+00  0.00000000000E+00 -0.19531307615E+04  0.19531307615E+04  0.50400001928E-02 0. -1.
    10030    2    1    2    0    0  0.00000000000E+00  0.00000000000E+00 -0.11962204392E+03  0.37866394791E+04  0.37847495441E+04 0.  0.
        1    1    3    3  502    0  0.54598839917E+02 -0.15807080842E+04  0.97967997738E+03  0.18604816416E+04  0.50400001928E-02 0.  1.
       -1    1    3    3    0  502 -0.54598839917E+02  0.15807080842E+04 -0.10993020213E+04  0.19261578375E+04  0.50400001928E-02 0. -1.
</event>
<event>
 5   0  0.2632875E-08  0.3908534E+04  0.7818609E-02  0.8023257E-01
       -1   -1    0    0    0  501  0.00000000000E+00  0.00000000000E+00  0.18592957455E+04  0.18592957455E+04  0.50400001928E-02 0.  1.
        1   -1    0    0  501    0  0.00000000000E+00  0.00000000000E+00 -0.20540898103E+04  0.20540898103E+04  0.50400001928E-02 0. -1.
    10030    2    1    2    0    0  0.00000000000E+00  0.00000000000E+00 -0.19479406476E+03  0.39133855558E+04  0.39085344800E+04 0.  0.
        3    1    3    3  502    0 -0.39054925121E+02 -0.84937640280E+01  0.18588864895E+04  0.18593161168E+04  0.10100000352E+00 0.  1.
       -3    1    3    3    0  502  0.39054925121E+02  0.84937640280E+01 -0.20536805543E+04  0.20540694390E+04  0.10100000352E+00 0. -1.
</event>
<event>
 5   0  0.2632875E-08  0.3895824E+04  0.7818609E-02  0.8025898E-01
        1   -1    0    0  501    0  0.00000000000E+00  0.00000000000E+00  0.11488224552E+04  0.11488224552E+04  0.50400001928E-02 0.  1.
       -1   -1    0    0    0  501  0.00000000000E+00  0.00000000000E+00 -0.33028259950E+04  0.33028259950E+04  0.50400001928E-02 0. -1.
    10030    2    1    2    0    0  0.00000000000E+00  0.00000000000E+00 -0.21540035398E+04  0.44516484502E+04  0.38958237480E+04 0.  0.
        4    1    3    3  502    0  0.11977979734E+04  0.13187890946E+04 -0.19770576897E+04  0.26613311298E+04  0.12699999809E+01 0. -1.
       -4    1    3    3    0  502 -0.11977979734E+04 -0.13187890946E+04 -0.17694585009E+03  0.17903173204E+04  0.12699999809E+01 0.  1.
</event>
<event>
 5   0  0.8342802E-08  0.3885531E+04  0.7818609E-02  0.8028045E-01
        2   -1    0    0  501    0  0.00000000000E+00  0.00000000000E+00  0.18735308236E+04  0.18735308236E+04  0.25500000920E-02 0.  1.
       -2   -1    0    0    0  501  0.00000000000E+00  0.00000000000E+00 -0.20145589167E+04  0.20145589167E+04  0.25500000920E-02 0. -1.
    10030    2    1    2    0    0  0.00000000000E+00  0.00000000000E+00 -0.14102809310E+03  0.38880897403E+04  0.38855312257E+04 0.  0.
        4    1    3    3  502    0 -0.45551505228E+03  0.18397545667E+04 -0.49758048136E+03  0.19595353472E+04  0.12699999809E+01 0. -1.
       -4    1    3    3    0  502  0.45551505228E+03 -0.18397545667E+04  0.35655238827E+03  0.19285543931E+04  0.12699999809E+01 0.  1.
</event>
<event>
 5   0  0.2632875E-08  0.3906035E+04  0.7818609E-02  0.8023775E-01
        1   -1    0    0  501    0  0.00000000000E+00  0.00000000000E+00  0.22266188720E+04  0.22266188720E+04  0.50400001928E-02 0.  1.
       -1   -1    0    0    0  501  0.00000000000E+00  0.00000000000E+00 -0.17130353491E+04  0.17130353491E+04  0.50400001928E-02 0. -1.
    10030    2    1    2    0    0  0.00000000000E+00  0.00000000000E+00  0.51358352289E+03  0.39396542211E+04  0.39060347345E+04 0.  0.
        4    1    3    3  502    0 -0.58320169998E+03  0.15517717959E+04  0.12982269290E+04  0.21055912950E+04  0.12699999809E+01 0.  1.
       -4    1    3    3    0  502  0.58320169998E+03 -0.15517717959E+04 -0.78464340607E+03  0.18340629261E+04  0.12699999809E+01 0. -1.
</event>
<event>
 5   0  0.2632875E-08  0.3900460E+04  0.7818609E-02  0.8024933E-01
        1   -1    0    0  501    0  0.00000000000E+00  0.00000000000E+00  0.17654274122E+04  0.17654274122E+04  0.50400001928E-02 0. -1.
       -1   -1    0    0    0  501  0.00000000000E+00  0.00000000000E+00 -0.21543777618E+04  0.21543777618E+04  0.50400001928E-02 0.  1.
    10030    2    1    2    0    0  0.00000000000E+00  0.00000000000E+00 -0.38895034962E+03  0.39198051740E+04  0.39004602585E+04 0.  0.
        3    1    3    3  502    0  0.64412075584E+03  0.13746518394E+03  0.16502785676E+04  0.17768532820E+04  0.10100000352E+00 0. -1.
       -3    1    3    3    0  502 -0.64412075584E+03 -0.13746518394E+03 -0.20392289172E+04  0.21429518921E+04  0.10100000352E+00 0.  1.
</event>
<event>
 5   0  0.8551754E-08  0.3882123E+04  0.7818609E-02  0.8028758E-01
        2   -1    0    0  501    0  0.00000000000E+00  0.00000000000E+00  0.23045299305E+04  0.23045299305E+04  0.25500000920E-02 0. -1.
       -2   -1    0    0    0  501  0.00000000000E+00  0.00000000000E+00 -0.16349186211E+04  0.16349186211E+04  0.25500000920E-02 0.  1.
    10030    2    1    2    0    0  0.00000000000E+00  0.00000000000E+00  0.66961130943E+03  0.39394485517E+04  0.38821225619E+04 0.  0.
        1    1    3    3  502    0 -0.18028780660E+03  0.11819917922E+04 -0.12168620343E+04  0.17059781653E+04  0.50400001928E-02 0.  1.
       -1    1    3    3    0  502  0.18028780660E+03 -0.11819917922E+04  0.18864733437E+04  0.22334703863E+04  0.50400001928E-02 0. -1.
</event>
<event>
 5   0  0.8438211E-08  0.3903016E+04  0.7818609E-02  0.8024402E-01
        2   -1    0    0  501    0  0.00000000000E+00  0.00000000000E+00  0.17557688272E+04  0.17557688272E+04  0.25500000920E-02 0. -1.
       -2   -1    0    0    0  501  0.00000000000E+00  0.00000000000E+00 -0.21690690014E+04  0.21690690014E+04  0.25500000920E-02 0.  1.
    10030    2    1    2    0    0  0.00000000000E+00  0.00000000000E+00 -0.41330017417E+03  0.39248378286E+04  0.39030161346E+04 0.  0.
        5    1    3    3  502    0 -0.10159925964E+04 -0.44619935497E+03 -0.18209374235E+04  0.21324094378E+04  0.46999998093E+01 0.  1.
       -5    1    3    3    0  502  0.10159925964E+04  0.44619935497E+03  0.14076372493E+04  0.17924283908E+04  0.46999998093E+01 0. -1.
</event>
<event>
 5   0  0.2632875E-08  0.3892191E+04  0.7818609E-02  0.8026655E-01
       -1   -1    0    0    0  501  0.00000000000E+00  0.00000000000E+00  0.27307282469E+04  0.27307282469E+04  0.50400001928E-02 0.  1.
        1   -1    0    0  501    0  0.00000000000E+00  0.00000000000E+00 -0.13869150866E+04  0.13869150866E+04  0.50400001928E-02 0. -1.
    10030    2    1    2    0    0  0.00000000000E+00  0.00000000000E+00  0.13438131603E+04  0.41176433335E+04  0.38921912610E+04 0.  0.
        4    1    3    3  502    0  0.16320594821E+04  0.10453225811E+04  0.48573254397E+03  0.19980628541E+04  0.12699999809E+01 0.  1.
       -4    1    3    3    0  502 -0.16320594821E+04 -0.10453225811E+04  0.85808061632E+03  0.21195804794E+04  0.12699999809E+01 0. -1.
</event>
<event>
 5   0  0.8342802E-08  0.3894502E+04  0.7818609E-02  0.8026174E-01
       -2   -1    0    0    0  501  0.00000000000E+00  0.00000000000E+00  0.16341247556E+04  0.16341247556E+04  0.25500000920E-02 0.  1.
        2   -1    0    0  501    0  0.00000000000E+00  0.00000000000E+00 -0.23203781502E+04  0.23203781502E+04  0.25500000920E-02 0. -1.
    10030    2    1    2    0    0  0.00000000000E+00  0.00000000000E+00 -0.68625339458E+03  0.39545029059E+04  0.38945024728E+04 0.  0.
        4    1    3    3  502    0 -0.14103922303E+04 -0.13278187054E+04 -0.54487599181E+03  0.20122624623E+04  0.12699999809E+01 0. -1.
       -4    1    3    3    0  502  0.14103922303E+04  0.13278187054E+04 -0.14137740277E+03  0.19422404436E+04  0.12699999809E+01 0.  1.
</event>
<event>
 5   0  0.8476262E-08  0.3785203E+04  0.7818609E-02  0.8049338E-01
       -2   -1    0    0    0  501  0.00000000000E+00  0.00000000000E+00  0.19698360324E+04  0.19698360324E+04  0.25500000920E-02 0. -1.
        2   -1    0    0  501    0  0.00000000000E+00  0.00000000000E+00 -0.18183949648E+04  0.18183949648E+04  0.25500000920E-02 0.  1.
    10030    2    1    2    0    0  0.00000000000E+00  0.00000000000E+00  0.15144106762E+03  0.37882309972E+04  0.37852027279E+04 0.  0.
        2    1    3    3  502    0  0.41696510788E+03  0.61711654029E+03  0.18170111189E+04  0.19637265929E+04  0.25500000920E-02 0. -1.
       -2    1    3    3    0  502 -0.41696510788E+03 -0.61711654029E+03 -0.16655700513E+04  0.18245044043E+04  0.25500000920E-02 0.  1.
</event>
<event>
 5   0  0.2632875E-08  0.3904489E+04  0.7818609E-02  0.8024096E-01
        1   -1    0    0  501    0  0.00000000000E+00  0.00000000000E+00  0.20709328773E+04  0.20709328773E+04  0.50400001928E-02 0.  1.
       -1   -1    0    0    0  501  0.00000000000E+00  0.00000000000E+00 -0.18403586746E+04  0.18403586746E+04  0.50400001928E-02 0. -1.
    10030    2    1    2    0    0  0.00000000000E+00  0.00000000000E+00  0.23057420267E+03  0.39112915519E+04  0.39044893573E+04 0.  0.
        3    1    3    3  502    0  0.19165506517E+04  0.33364956986E+03  0.27919011457E+03  0.19653080080E+04  0.10100000352E+00 0. -1.
       -3    1    3    3    0  502 -0.19165506517E+04 -0.33364956986E+03 -0.48615911898E+02  0.19459835439E+04  0.10100000352E+00 0.  1.
</event>
<event>
 5   0  0.8476262E-08  0.3901178E+04  0.7818609E-02  0.8024784E-01
       -2   -1    0    0    0  501  0.00000000000E+00  0.00000000000E+00  0.22893818680E+04  0.22893818681E+04  0.25500000920E-02 0. -1.
        2   -1    0    0  501    0  0.00000000000E+00  0.00000000000E+00 -0.16619319557E+04  0.16619319557E+04  0.25500000920E-02 0.  1.
    10030    2    1    2    0    0  0.00000000000E+00  0.00000000000E+00  0.62744991235E+03  0.39513138237E+04  0.39011777121E+04 0.  0.
        2    1    3    3  502    0 -0.13466545129E+04 -0.14062016910E+04  0.19424576567E+03  0.19566841826E+04  0.25500000920E-02 0. -1.
       -2    1    3    3    0  502  0.13466545129E+04  0.14062016910E+04  0.43320414668E+03  0.19946296412E+04  0.25500000920E-02 0.  1.
</event>
<event>
 5   0  0.2632875E-08  0.3891668E+04  0.7818609E-02  0.8026764E-01
       -1   -1    0    0    0  501  0.00000000000E+00  0.00000000000E+00  0.17721535636E+04  0.17721535636E+04  0.50400001928E-02 0.  1.
        1   -1    0    0  501    0  0.00000000000E+00  0.00000000000E+00 -0.21365361465E+04  0.21365361465E+04  0.50400001928E-02 0. -1.
    10030    2    1    2    0    0  0.00000000000E+00  0.00000000000E+00 -0.36438258291E+03  0.39086897102E+04  0.38916680978E+04 0.  0.
        4    1    3    3  502    0  0.14943411263E+04 -0.50686618613E+03  0.96134019832E+03  0.18477405992E+04  0.12699999809E+01 0.  1.
       -4    1    3    3    0  502 -0.14943411263E+04  0.50686618613E+03 -0.13257227812E+04  0.20609491109E+04  0.12699999809E+01 0. -1.
</event>
<event>
 5   0  0.2632875E-08  0.3907132E+04  0.7818609E-02  0.8023548E-01
       -1   -1    0    0    0  501  0.00000000000E+00  0.00000000000E+00  0.22391933565E+04  0.22391933565E+04  0.50400001928E-02 0.  1.
        1   -1    0    0  501    0  0.00000000000E+00  0.00000000000E+00 -0.17043725350E+04  0.17043725350E+04  0.50400001928E-02 0. -1.
    10030    2    1    2    0    0  0.00000000000E+00  0.00000000000E+00  0.53482082150E+03  0.39435658915E+04  0.39071317650E+04 0.  0.
        1    1    3    3  502    0  0.37932116668E+03 -0.16337083434E+04 -0.74369559736E+03  0.18346581808E+04  0.50400001928E-02 0. -1.
       -1    1    3    3    0  502 -0.37932116668E+03  0.16337083434E+04  0.12785164189E+04  0.21089077107E+04  0.50400001928E-02 0.  1.
</event>
<event>
 5   0  0.8551754E-08  0.3881751E+04  0.7818609E-02  0.8028835E-01
        2   -1    0    0  501    0  0.00000000000E+00  0.00000000000E+00  0.29137985339E+04  0.29137985339E+04  0.25500000920E-02 0. -1.
       -2   -1    0    0    0  501  0.00000000000E+00  0.00000000000E+00 -0.12928133692E+04  0.12928133692E+04  0.25500000920E-02 0.  1.
    10030    2    1    2    0    0  0.00000000000E+00  0.00000000000E+00  0.16209851647E+04  0.42066119031E+04  0.38817509966E+04 0.  0.
        1    1    3    3  502    0  0.71869657144E+03 -0.42428819295E+03  0.27094094949E+04  0.28350388081E+04  0.50400001928E-02 0. -1.
       -1    1    3    3    0  502 -0.71869657144E+03  0.42428819295E+03 -0.10884243302E+04  0.13715730950E+04  0.50400001928E-02 0.  1.
</event>
<event>
 5   0  0.8476262E-08  0.3903881E+04  0.7818609E-02  0.8024223E-01
       -2   -1    0    0    0  501  0.00000000000E+00  0.00000000000E+00  0.24826896938E+04  0.24826896938E+04  0.25500000920E-02 0.  1.
        2   -1    0    0  501    0  0.00000000000E+00  0.00000000000E+00 -0.15346545273E+04  0.15346545273E+04  0.25500000920E-02 0. -1.
    10030    2    1    2    0    0  0.00000000000E+00  0.00000000000E+00  0.94803516651E+03  0.40173442210E+04  0.39038806223E+04 0.  0.
        2    1    3    3  502    0  0.13296308741E+04  0.45462223006E+03  0.18681894696E+04  0.23376765233E+04  0.25500000920E-02 0.  1.
       -2    1    3    3    0  502 -0.13296308741E+04 -0.45462223006E+03 -0.92015430304E+03  0.16796676977E+04  0.25500000920E-02 0. -1.
</event>
<event>
 5   0  0.2632875E-08  0.3900492E+04  0.7818609E-02  0.8024927E-01
        1   -1    0    0  501    0  0.00000000000E+00  0.00000000000E+00  0.17795965410E+04  0.17795965410E+04  0.50400001928E-02 0. -1.
       -1   -1    0    0    0  501  0.00000000000E+00  0.00000000000E+00 -0.21372595667E+04  0.21372595667E+04  0.50400001928E-02 0.  1.
    10030    2    1    2    0    0  0.00000000000E+00  0.00000000000E+00 -0.35766302573E+03  0.39168561077E+04  0.39004921393E+04 0.  0.
        1    1    3    3  502    0 -0.44414761593E+03  0.14213398122E+04 -0.14434742462E+04  0.20739073909E+04  0.50400001928E-02 0.  1.
       -1    1    3    3    0  502  0.44414761593E+03 -0.14213398122E+04  0.10858112205E+04  0.18429487169E+04  0.50400001928E-02 0. -1.
</event>
<event>
 5   0  0.2632875E-08  0.3900169E+04  0.7818609E-02  0.8024994E-01
        1   -1    0    0  501    0  0.00000000000E+00  0.00000000000E+00  0.21390453679E+04  0.21390453679E+04  0.50400001928E-02 0. -1.
       -1   -1    0    0    0  501  0.00000000000E+00  0.00000000000E+00 -0.17778161054E+04  0.17778161054E+04  0.50400001928E-02 0.  1.
    10030    2    1    2    0    0  0.00000000000E+00  0.00000000000E+00  0.36122926249E+03  0.39168614733E+04  0.39001688708E+04 0.  0.
        2    1    3    3  502    0  0.16363419252E+04  0.85158817044E+03 -0.45455731612E+03  0.18998525368E+04  0.25500000920E-02 0. -1.
       -2    1    3    3    0  502 -0.16363419252E+04 -0.85158817044E+03  0.81578657861E+03  0.20170089365E+04  0.25500000920E-02 0.  1.
</event>
<event>
 5   0  0.8551754E-08  0.3848368E+04  0.7818609E-02  0.8035854E-01
       -2   -1    0    0    0  501  0.00000000000E+00  0.00000000000E+00  0.18581526541E+04  0.18581526541E+04  0.25500000920E-02 0. -1.
        2   -1    0    0  501    0  0.00000000000E+00  0.00000000000E+00 -0.19925617188E+04  0.19925617188E+04  0.25500000920E-02 0.  1.
    10030    2    1    2    0    0  0.00000000000E+00  0.00000000000E+00 -0.13440906474E+03  0.38507143729E+04  0.38483678859E+04 0.  0.
        1    1    3    3  502    0  0.49797148800E+03  0.69734318312E+03  0.16566984497E+04  0.18651844068E+04  0.50400001928E-02 0. -1.
       -1    1    3    3    0  502 -0.49797148800E+03 -0.69734318312E+03 -0.17911075145E+04  0.19855299661E+04  0.50400001928E-02 0.  1.
</event>
<event>
 5   0  0.2632875E-08  0.3909793E+04  0.7818609E-02  0.8022996E-01
        1   -1    0    0  501    0  0.00000000000E+00  0.00000000000E+00  0.22930815537E+04  0.22930815537E+04  0.50400001928E-02 0. -1.
       -1   -1    0    0    0  501  0.00000000000E+00  0.00000000000E+00 -0.16665868636E+04  0.16665868636E+04  0.50400001928E-02 0.  1.
    10030    2    1    2    0    0  0.00000000000E+00  0.00000000000E+00  0.62649469013E+03  0.39596684173E+04  0.39097926260E+04 0.  0.
        2    1    3    3  502    0  0.73602211103E+03  0.16975056590E+04  0.95246093889E+03  0.20809699302E+04  0.25500000920E-02 0. -1.
       -2    1    3    3    0  502 -0.73602211103E+03 -0.16975056590E+04 -0.32596624877E+03  0.18786984871E+04  0.25500000920E-02 0.  1.
</event>
<event>
 5   0  0.2632875E-08  0.3890720E+04  0.7818609E-02  0.8026962E-01
        1   -1    0    0  501    0  0.00000000000E+00  0.00000000000E+00  0.22088544195E+04  0.22088544195E+04  0.50400001928E-02 0. -1.
       -1   -1    0    0    0  501  0.00000000000E+00  0.00000000000E+00 -0.17132980294E+04  0.17132980294E+04  0.50400001928E-02 0.  1.
    10030    2    1    2    0    0  0.00000000000E+00  0.00000000000E+00  0.49555639015E+03  0.39221524489E+04  0.38907202028E+04 0.  0.
        3    1    3    3  502    0 -0.56415271702E+03  0.15795237667E+04 -0.74571005482E+03  0.18355509020E+04  0.10100000352E+00 0.  1.
       -3    1    3    3    0  502  0.56415271702E+03 -0.15795237667E+04  0.12412664450E+04  0.20866015469E+04  0.10100000352E+00 0. -1.
</event>
<event>
 5   0  0.8342802E-08  0.3964275E+04  0.7818609E-02  0.8011792E-01
        2   -1    0    0  501    0  0.00000000000E+00  0.00000000000E+00  0.15185927300E+04  0.15185927300E+04  0.25500000920E-02 0.  1.
       -2   -1    0    0    0  501  0.00000000000E+00  0.00000000000E+00 -0.25871772038E+04  0.25871772038E+04  0.25500000920E-02 0. -1.
    10030    2    1    2    0    0  0.00000000000E+00  0.00000000000E+00 -0.10685844738E+04  0.41057699338E+04  0.39642747095E+04 0.  0.
        4    1    3    3  502    0 -0.55121239252E+03  0.17837409838E+03 -0.24975279134E+04  0.25638447128E+04  0.12699999809E+01 0. -1.
       -4    1    3    3    0  502  0.55121239252E+03 -0.17837409838E+03  0.14289434396E+04  0.15419252210E+04  0.12699999809E+01 0.  1.
</event>
<event>
 5   0  0.8342802E-08  0.3896784E+04  0.7818609E-02  0.8025698E-01
        2   -1    0    0  501    0  0.00000000000E+00  0.00000000000E+00  0.20519470529E+04  0.20519470529E+04  0.25500000920E-02 0. -1.
       -2   -1    0    0    0  501  0.00000000000E+00  0.00000000000E+00 -0.18500626818E+04  0.18500626818E+04  0.25500000920E-02 0.  1.
    10030    2    1    2    0    0  0.00000000000E+00  0.00000000000E+00  0.20188437109E+03  0.39020097346E+04  0.38967836314E+04 0.  0.
        4    1    3    3  502    0  0.16402583086E+03 -0.89053351048E+03 -0.16265598141E+04  0.18616263987E+04  0.12699999809E+01 0.  1.
       -4    1    3    3    0  502 -0.16402583086E+03  0.89053351048E+03  0.18284441852E+04  0.20403833360E+04  0.12699999809E+01 0. -1.
</event>
<event>
 5   0  0.8342802E-08  0.3916937E+04  0.7818609E-02  0.8021516E-01
        2   -1    0    0  501    0  0.00000000000E+00  0.00000000000E+00  0.14830997375E+04  0.14830997375E+04  0.25500000920E-02 0.  1.
       -2   -1    0    0    0  501  0.00000000000E+00  0.00000000000E+00 -0.25862048999E+04  0.25862048999E+04  0.25500000920E-02 0. -1.
    10030    2    1    2    0    0  0.00000000000E+00  0.00000000000E+00 -0.11031051625E+04  0.40693046374E+04  0.39169374813E+04 0.  0.
        4    1    3    3  502    0 -0.75376752431E+03 -0.13301109156E+04  0.72008665416E+03  0.16899369606E+04  0.12699999809E+01 0.  1.
       -4    1    3    3    0  502  0.75376752431E+03  0.13301109156E+04 -0.18231918166E+04  0.23793676768E+04  0.12699999809E+01 0. -1.
</event>
<event>
 5   0  0.8676098E-08  0.3902908E+04  0.7818609E-02  0.8024425E-01
       -2   -1    0    0    0  501  0.00000000000E+00  0.00000000000E+00  0.14520391227E+04  0.14520391227E+04  0.25500000920E-02 0.  1.
        2   -1    0    0  501    0  0.00000000000E+00  0.00000000000E+00 -0.26226375394E+04  0.26226375394E+04  0.25500000920E-02 0. -1.
    10030    2    1    2    0    0  0.00000000000E+00  0.00000000000E+00 -0.11705984167E+04  0.40746766620E+04  0.39029077938E+04 0.  0.
        3    1    3    3  502    0 -0.19276510141E+04  0.23841307571E+03 -0.38861174826E+03  0.19808327360E+04  0.10100000352E+00 0. -1.
       -3    1    3    3    0  502  0.19276510141E+04 -0.23841307571E+03 -0.78198666847E+03  0.20938439261E+04  0.10100000352E+00 0.  1.
</event>
<event>
 5   0  0.2632875E-08  0.3926627E+04  0.7818609E-02  0.8019514E-01
       -1   -1    0    0    0  501  0.00000000000E+00  0.00000000000E+00  0.32288458062E+04  0.32288458062E+04  0.50400001928E-02 0. -1.
        1   -1    0    0  501    0  0.00000000000E+00  0.00000000000E+00 -0.11938010111E+04  0.11938010111E+04  0.50400001928E-02 0.  1.
    10030    2    1    2    0    0  0.00000000000E+00  0.00000000000E+00  0.20350447952E+04  0.44226468173E+04  0.39266267396E+04 0.  0.
        1    1    3    3  502    0 -0.14955453234E+04 -0.25855410730E+03 -0.38523189648E+03  0.15658574823E+04  0.50400001928E-02 0.  1.
       -1    1    3    3    0  502  0.14955453234E+04  0.25855410730E+03  0.24202766916E+04  0.28567893350E+04  0.50400001928E-02 0. -1.
</event>
<event>
 5   0  0.8476262E-08  0.3889201E+04  0.7818609E-02  0.8027279E-01
       -2   -1    0    0    0  501  0.00000000000E+00  0.00000000000E+00  0.17298329781E+04  0.17298329781E+04  0.25500000920E-02 0.  1.
        2   -1    0    0  501    0  0.00000000000E+00  0.00000000000E+00 -0.21860326672E+04  0.21860326672E+04  0.25500000920E-02 0. -1.
    10030    2    1    2    0    0  0.00000000000E+00  0.00000000000E+00 -0.45619968912E+03  0.39158656453E+04  0.38892011514E+04 0.  0.
        2    1    3    3  502    0  0.91785913115E+02  0.17833791215E+03 -0.21755901163E+04  0.21848161065E+04  0.25500000920E-02 0. -1.
       -2    1    3    3    0  502 -0.91785913115E+02 -0.17833791215E+03  0.17193904272E+04  0.17310495389E+04  0.25500000920E-02 0.  1.
</event>
<event>
 5   0  0.8551754E-08  0.3897682E+04  0.7818609E-02  0.8025511E-01
        2   -1    0    0  501    0  0.00000000000E+00  0.00000000000E+00  0.17229020103E+04  0.17229020103E+04  0.25500000920E-02 0. -1.
       -2   -1    0    0    0  501  0.00000000000E+00  0.00000000000E+00 -0.22044094518E+04  0.22044094518E+04  0.25500000920E-02 0.  1.
    10030    2    1    2    0    0  0.00000000000E+00  0.00000000000E+00 -0.48150744157E+03  0.39273114621E+04  0.38976821194E+04 0.  0.
        1    1    3    3  502    0  0.58733022686E+03  0.58605265837E+03  0.15360476683E+04  0.17458112593E+04  0.50400001928E-02 0. -1.
       -1    1    3    3    0  502 -0.58733022686E+03 -0.58605265837E+03 -0.20175551098E+04  0.21815002028E+04  0.50400001928E-02 0.  1.
</event>
<event>
 5   0  0.2632875E-08  0.3690365E+04  0.7818609E-02  0.8070100E-01
       -1   -1    0    0    0  501  0.00000000000E+00  0.00000000000E+00  0.16485864558E+04  0.16485864558E+04  0.50400001928E-02 0. -1.
        1   -1    0    0  501    0  0.00000000000E+00  0.00000000000E+00 -0.20652232804E+04  0.20652232805E+04  0.50400001928E-02 0.  1.
    10030    2    1    2    0    0  0.00000000000E+00  0.00000000000E+00 -0.41663682469E+03  0.37138097362E+04  0.36903653631E+04 0.  0.
        2    1    3    3  502    0 -0.15423891353E+03 -0.13000825971E+04  0.11002091775E+04  0.17101066154E+04  0.25500000920E-02 0. -1.
       -2    1    3    3    0  502  0.15423891353E+03  0.13000825971E+04 -0.15168460022E+04  0.20037031208E+04  0.25500000920E-02 0.  1.
</event>
<event>
 5   0  0.2632875E-08  0.3905590E+04  0.7818609E-02  0.8023868E-01
       -1   -1    0    0    0  501  0.00000000000E+00  0.00000000000E+00  0.19984119993E+04  0.19984119993E+04  0.50400001928E-02 0. -1.
        1   -1    0    0  501    0  0.00000000000E+00  0.00000000000E+00 -0.19082196527E+04  0.19082196527E+04  0.50400001928E-02 0.  1.
    10030    2    1    2    0    0  0.00000000000E+00  0.00000000000E+00  0.90192346614E+02  0.39066316520E+04  0.39055903786E+04 0.  0.
        2    1    3    3  502    0 -0.11164981153E+04  0.13910900074E+04 -0.74991734075E+03  0.19349613609E+04  0.25500000920E-02 0. -1.
       -2    1    3    3    0  502  0.11164981153E+04 -0.13910900074E+04  0.84010968736E+03  0.19716702911E+04  0.25500000920E-02 0.  1.
</event>
<event>
 5   0  0.8551754E-08  0.3949316E+04  0.7818609E-02  0.8014850E-01
        2   -1    0    0  501    0  0.00000000000E+00  0.00000000000E+00  0.13044355125E+04  0.13044355125E+04  0.25500000920E-02 0.  1.
       -2   -1    0    0    0  501  0.00000000000E+00  0.00000000000E+00 -0.29892422384E+04  0.29892422384E+04  0.25500000920E-02 0. -1.
    10030    2    1    2    0    0  0.00000000000E+00  0.00000000000E+00 -0.16848067259E+04  0.42936777509E+04  0.39493157540E+04 0.  0.
        1    1    3    3  502    0 -0.13351460941E+04 -0.13222229162E+04 -0.15022738047E+04  0.24057670538E+04  0.50400001928E-02 0. -1.
       -1    1    3    3    0  502  0.13351460941E+04  0.13222229162E+04 -0.18253292113E+03  0.18879106971E+04  0.50400001928E-02 0.  1.
</event>
<event>
 5   0  0.8342802E-08  0.3903664E+04  0.7818609E-02  0.8024268E-01
        2   -1    0    0  501    0  0.00000000000E+00  0.00000000000E+00  0.21568432518E+04  0.21568432518E+04  0.25500000920E-02 0.  1.
       -2   -1    0    0    0  501  0.00000000000E+00  0.00000000000E+00 -0.17663077094E+04  0.17663077094E+04  0.25500000920E-02 0. -1.
    10030    2    1    2    0    0  0.00000000000E+00  0.00000000000E+00  0.39053554247E+03  0.39231509612E+04  0.39036643624E+04 0.  0.
        4    1    3    3  502    0 -0.17395636390E+04 -0.84142431879E+03  0.47154132123E+03  0.19890775171E+04  0.12699999809E+01 0.  1.
       -4    1    3    3    0  502  0.17395636390E+04  0.84142431879E+03 -0.81005778759E+02  0.19340734442E+04  0.12699999809E+01 0. -1.
</event>
<event>
 5   0  0.8342802E-08  0.3890068E+04  0.7818609E-02  0.8027098E-01
       -2   -1    0    0    0  501  0.00000000000E+00  0.00000000000E+00  0.30849735102E+04  0.30849735102E+04  0.25500000920E-02 0. -1.
        2   -1    0    0  501    0  0.00000000000E+00  0.00000000000E+00 -0.12263178640E+04  0.12263178640E+04  0.25500000920E-02 0.  1.
    10030    2    1    2    0    0  0.00000000000E+00  0.00000000000E+00  0.18586556462E+04  0.43112913742E+04  0.38900684444E+04 0.  0.
        4    1    3    3  502    0 -0.50706484104E+03  0.14560891783E+04 -0.38474374040E+03  0.15891317777E+04  0.12699999809E+01 0.  1.
       -4    1    3    3    0  502  0.50706484104E+03 -0.14560891783E+04  0.22433993866E+04  0.27221595965E+04  0.12699999809E+01 0. -1.
</event>
<event>
 5   0  0.2632875E-08  0.3856399E+04  0.7818609E-02  0.8034159E-01
       -1   -1    0    0    0  501  0.00000000000E+00  0.00000000000E+00  0.28954441350E+04  0.28954441350E+04  0.50400001928E-02 0.  1.
        1   -1    0    0  501    0  0.00000000000E+00  0.00000000000E+00 -0.12840698010E+04  0.12840698010E+04  0.50400001928E-02 0. -1.
    10030    2    1    2    0    0  0.00000000000E+00  0.00000000000E+00  0.16113743340E+04  0.41795139360E+04  0.38563985137E+04 0.  0.
        3    1    3    3  502    0 -0.38091806064E+03 -0.18658292664E+04  0.11335840819E+04  0.22161747000E+04  0.10100000352E+00 0.  1.
       -3    1    3    3    0  502  0.38091806064E+03  0.18658292664E+04  0.47779025210E+03  0.19633392359E+04  0.10100000352E+00 0. -1.
</event>
<event>
 5   0  0.2632875E-08  0.3877861E+04  0.7818609E-02  0.8029650E-01
       -1   -1    0    0    0  501  0.00000000000E+00  0.00000000000E+00  0.34114507070E+04  0.34114507070E+04  0.50400001928E-02 0. -1.
        1   -1    0    0  501    0  0.00000000000E+00  0.00000000000E+00 -0.11020093510E+04  0.11020093510E+04  0.50400001928E-02 0.  1.
    10030    2    1    2    0    0  0.00000000000E+00  0.00000000000E+00  0.23094413560E+04  0.45134600580E+04  0.38778605336E+04 0.  0.
        5    1    3    3  502    0  0.13937201670E+04  0.13173930939E+04  0.14868885988E+04  0.24266932775E+04  0.46999998093E+01 0.  1.
       -5    1    3    3    0  502 -0.13937201670E+04 -0.13173930939E+04  0.82255275724E+03  0.20867667805E+04  0.46999998093E+01 0. -1.
</event>
<event>
 5   0  0.8476262E-08  0.3880608E+04  0.7818609E-02  0.8029075E-01
       -2   -1    0    0    0  501  0.00000000000E+00  0.00000000000E+00  0.23787237108E+04  0.23787237108E+04  0.25500000920E-02 0.  1.
        2   -1    0    0  501    0  0.00000000000E+00  0.00000000000E+00 -0.15826886606E+04  0.15826886606E+04  0.25500000920E-02 0. -1.
    10030    2    1    2    0    0  0.00000000000E+00  0.00000000000E+00  0.79603505022E+03  0.39614123714E+04  0.38806077069E+04 0.  0.
        2    1    3    3  502    0 -0.19001644910E+04  0.18981791999E+03  0.74886450689E+03  0.20512079332E+04  0.25500000920E-02 0.  1.
       -2    1    3    3    0  502  0.19001644910E+04 -0.18981791999E+03  0.47170543330E+02  0.19102044382E+04  0.25500000920E-02 0. -1.
</event>
<event>
 5   0  0.2632875E-08  0.3937681E+04  0.7818609E-02  0.8017238E-01
       -1   -1    0    0    0  501  0.00000000000E+00  0.00000000000E+00  0.13081891417E+04  0.13081891417E+04  0.50400001928E-02 0.  1.
        1   -1    0    0  501    0  0.00000000000E+00  0.00000000000E+00 -0.29631286609E+04  0.29631286609E+04  0.50400001928E-02 0. -1.
    10030    2    1    2    0    0  0.00000000000E+00  0.00000000000E+00 -0.16549395192E+04  0.42713178025E+04  0.39376809112E+04 0.  0.
        2    1    3    3  502    0 -0.13438371055E+04 -0.76303980355E+03  0.49581320193E+03  0.16229475159E+04  0.25500000920E-02 0.  1.
       -2    1    3    3    0  502  0.13438371055E+04  0.76303980355E+03 -0.21507527211E+04  0.26483702867E+04  0.25500000920E-02 0. -1.
</event>
<event>
 5   0  0.2632875E-08  0.3909902E+04  0.7818609E-02  0.8022973E-01
       -1   -1    0    0    0  501  0.00000000000E+00  0.00000000000E+00  0.19908282761E+04  0.19908282761E+04  0.50400001928E-02 0.  1.
        1   -1    0    0  501    0  0.00000000000E+00  0.00000000000E+00 -0.19197199991E+04  0.19197199991E+04  0.50400001928E-02 0. -1.
    10030    2    1    2    0    0  0.00000000000E+00  0.00000000000E+00  0.71108276969E+02  0.39105482753E+04  0.39099017157E+04 0.  0.
        2    1    3    3  502    0 -0.39497180704E+02 -0.26633860321E+03 -0.19010864311E+04  0.19200588266E+04  0.25500000920E-02 0. -1.
       -2    1    3    3    0  502  0.39497180704E+02  0.26633860321E+03  0.19721947081E+04  0.19904894487E+04  0.25500000920E-02 0.  1.
</event>
<event>
 5   0  0.2632875E-08  0.3890372E+04  0.7818609E-02  0.8027035E-01
       -1   -1    0    0    0  501  0.00000000000E+00  0.00000000000E+00  0.21084629522E+04  0.21084629522E+04  0.50400001928E-02 0. -1.
        1   -1    0    0  501    0  0.00000000000E+00  0.00000000000E+00 -0.17945528082E+04  0.17945528082E+04  0.50400001928E-02 0.  1.
    10030    2    1    2    0    0  0.00000000000E+00  0.00000000000E+00  0.31391014400E+03  0.39030157604E+04  0.38903717621E+04 0.  0.
        1    1    3    3  502    0 -0.19347121928E+04 -0.10870901261E+03 -0.13358834648E+02  0.19378099434E+04  0.50400001928E-02 0.  1.
       -1    1    3    3    0  502  0.19347121928E+04  0.10870901261E+03  0.32726897865E+03  0.19652058169E+04  0.50400001928E-02 0. -1.
</event>
<event>
 5   0  0.8476262E-08  0.3923071E+04  0.7818609E-02  0.8020248E-01
       -2   -1    0    0    0  501  0.00000000000E+00  0.00000000000E+00  0.13188362700E+04  0.13188362700E+04  0.25500000920E-02 0.  1.
        2   -1    0    0  501    0  0.00000000000E+00  0.00000000000E+00 -0.29174374343E+04  0.29174374343E+04  0.25500000920E-02 0. -1.
    10030    2    1    2    0    0  0.00000000000E+00  0.00000000000E+00 -0.15986011642E+04  0.42362737043E+04  0.39230714008E+04 0.  0.
        2    1    3    3  502    0 -0.14867707963E+04  0.10856713627E+04 -0.68153051825E+02  0.18422308615E+04  0.25500000920E-02 0.  1.
       -2    1    3    3    0  502  0.14867707963E+04 -0.10856713627E+04 -0.15304481124E+04  0.23940428428E+04  0.25500000920E-02 0. -1.
</event>
<event>
 5   0  0.8342802E-08  0.3903019E+04  0.7818609E-02  0.8024402E-01
        2   -1    0    0  501    0  0.00000000000E+00  0.00000000000E+00  0.21104735788E+04  0.21104735789E+04  0.25500000920E-02 0. -1.
       -2   -1    0    0    0  501  0.00000000000E+00  0.00000000000E+00 -0.18045184509E+04  0.18045184509E+04  0.25500000920E-02 0.  1.
    10030    2    1    2    0    0  0.00000000000E+00  0.00000000000E+00  0.30595512793E+03  0.39149920298E+04  0.39030185822E+04 0.  0.
        4    1    3    3  502    0 -0.14530692178E+03  0.61953224316E+03  0.20034819401E+04  0.21021122233E+04  0.12699999809E+01 0. -1.
       -4    1    3    3    0  502  0.14530692178E+03 -0.61953224316E+03 -0.16975268122E+04  0.18128798065E+04  0.12699999809E+01 0.  1.
</event>
<event>
 5   0  0.2632875E-08  0.3938312E+04  0.7818609E-02  0.8017108E-01
       -1   -1    0    0    0  501  0.00000000000E+00  0.00000000000E+00  0.30793956703E+04  0.30793956703E+04  0.50400001928E-02 0. -1.
        1   -1    0    0  501    0  0.00000000000E+00  0.00000000000E+00 -0.12591999994E+04  0.12591999994E+04  0.50400001928E-02 0.  1.
    10030    2    1    2    0    0  0.00000000000E+00  0.00000000000E+00  0.18201956709E+04  0.43385956697E+04  0.39383118344E+04 0.  0.
        3    1    3    3  502    0  0.17361035787E+04 -0.20327869845E+03 -0.88813776498E+02  0.17502187756E+04  0.10100000352E+00 0.  1.
       -3    1    3    3    0  502 -0.17361035787E+04  0.20327869845E+03  0.19090094474E+04  0.25883768941E+04  0.10100000352E+00 0. -1.
</event>
<event>
 5   0  0.8551754E-08  0.3899517E+04  0.7818609E-02  0.8025130E-01
       -2   -1    0    0    0  501  0.00000000000E+00  0.00000000000E+00  0.18967494769E+04  0.18967494769E+04  0.25500000920E-02 0.  1.
        2   -1    0    0  501    0  0.00000000000E+00  0.00000000000E+00 -0.20042486835E+04  0.20042486836E+04  0.25500000920E-02 0. -1.
    10030    2    1    2    0    0  0.00000000000E+00  0.00000000000E+00 -0.10749920663E+03  0.39009981605E+04  0.38995167096E+04 0.  0.
        1    1    3    3  502    0  0.10808725879E+04  0.15535971257E+04 -0.52255121872E+03  0.19634177743E+04  0.50400001928E-02 0.  1.
       -1    1    3    3    0  502 -0.10808725879E+04 -0.15535971257E+04  0.41505201209E+03  0.19375803862E+04  0.50400001928E-02 0. -1.
</event>
<event>
 5   0  0.2632875E-08  0.3954782E+04  0.7818609E-02  0.8013731E-01
       -1   -1    0    0    0  501  0.00000000000E+00  0.00000000000E+00  0.19868245764E+04  0.19868245764E+04  0.50400001928E-02 0. -1.
        1   -1    0    0  501    0  0.00000000000E+00  0.00000000000E+00 -0.19680024066E+04  0.19680024066E+04  0.50400001928E-02 0.  1.
    10030    2    1    2    0    0  0.00000000000E+00  0.00000000000E+00  0.18822169746E+02  0.39548269830E+04  0.39547821926E+04 0.  0.
        2    1    3    3  502    0  0.14450484986E+04  0.11598704771E+04 -0.68096682376E+03  0.19741277826E+04  0.25500000920E-02 0.  1.
       -2    1    3    3    0  502 -0.14450484986E+04 -0.11598704771E+04  0.69978899350E+03  0.19806992004E+04  0.25500000920E-02 0. -1.
</event>
<event>
 5   0  0.2632875E-08  0.3902045E+04  0.7818609E-02  0.8024604E-01
        1   -1    0    0  501    0  0.00000000000E+00  0.00000000000E+00  0.29036528625E+04  0.29036528625E+04  0.50400001928E-02 0. -1.
       -1   -1    0    0    0  501  0.00000000000E+00  0.00000000000E+00 -0.13109312093E+04  0.13109312093E+04  0.50400001928E-02 0.  1.
    10030    2    1    2    0    0  0.00000000000E+00  0.00000000000E+00  0.15927216531E+04  0.42145840718E+04  0.39020451861E+04 0.  0.
        1    1    3    3  502    0  0.42728121913E+03 -0.25010693223E+03 -0.12419516284E+04  0.13369990894E+04  0.50400001928E-02 0.  1.
       -1    1    3    3    0  502 -0.42728121913E+03  0.25010693223E+03  0.28346732815E+04  0.28775849824E+04  0.50400001928E-02 0. -1.
</event>
<event>
 5   0  0.2632875E-08  0.3902691E+04  0.7818609E-02  0.8024470E-01
        1   -1    0    0  501    0  0.00000000000E+00  0.00000000000E+00  0.22951730977E+04  0.22951730977E+04  0.50400001928E-02 0. -1.
       -1   -1    0    0    0  501  0.00000000000E+00  0.00000000000E+00 -0.16590251527E+04  0.16590251527E+04  0.50400001928E-02 0.  1.
    10030    2    1    2    0    0  0.00000000000E+00  0.00000000000E+00  0.63614794500E+03  0.39541982504E+04  0.39026913272E+04 0.  0.
        3    1    3    3  502    0  0.10496346773E+04 -0.12000041101E+04  0.14580935291E+04  0.21605044712E+04  0.10100000352E+00 0. -1.
       -3    1    3    3    0  502 -0.10496346773E+04  0.12000041101E+04 -0.82194558410E+03  0.17936937792E+04  0.10100000352E+00 0.  1.
</event>
<event>
 5   0  0.2632875E-08  0.3794952E+04  0.7818609E-02  0.8047239E-01
       -1   -1    0    0    0  501  0.00000000000E+00  0.00000000000E+00  0.16999978099E+04  0.16999978099E+04  0.50400001928E-02 0.  1.
        1   -1    0    0  501    0  0.00000000000E+00  0.00000000000E+00 -0.21178943919E+04  0.21178943919E+04  0.50400001928E-02 0. -1.
    10030    2    1    2    0    0  0.00000000000E+00  0.00000000000E+00 -0.41789658204E+03  0.38178922018E+04  0.37949523464E+04 0.  0.
        1    1    3    3  502    0 -0.86612771118E+03 -0.62094148746E+03  0.13704684961E+04  0.17360672342E+04  0.50400001928E-02 0.  1.
       -1    1    3    3    0  502  0.86612771118E+03  0.62094148746E+03 -0.17883650781E+04  0.20818249676E+04  0.50400001928E-02 0. -1.
</event>
<event>
 5   0  0.2632875E-08  0.3778916E+04  0.7818609E-02  0.8050695E-01
        1   -1    0    0  501    0  0.00000000000E+00  0.00000000000E+00  0.12977054119E+04  0.12977054119E+04  0.50400001928E-02 0. -1.
       -1   -1    0    0    0  501  0.00000000000E+00  0.00000000000E+00 -0.27510486253E+04  0.27510486253E+04  0.50400001928E-02 0.  1.
    10030    2    1    2    0    0  0.00000000000E+00  0.00000000000E+00 -0.14533432133E+04  0.40487540372E+04  0.37789155532E+04 0.  0.
        1    1    3    3  502    0  0.17832551744E+04 -0.50436271851E+02 -0.59719786317E+02  0.17849675873E+04  0.50400001928E-02 0.  1.
       -1    1    3    3    0  502 -0.17832551744E+04  0.50436271851E+02 -0.13936234270E+04  0.22637864500E+04  0.50400001928E-02 0. -1.
</event>
<event>
 5   0  0.2632875E-08  0.3890722E+04  0.7818609E-02  0.8026962E-01
       -1   -1    0    0    0  501  0.00000000000E+00  0.00000000000E+00  0.18695818337E+04  0.18695818337E+04  0.50400001928E-02 0. -1.
        1   -1    0    0  501    0  0.00000000000E+00  0.00000000000E+00 -0.20242112026E+04  0.20242112026E+04  0.50400001928E-02 0.  1.
    10030    2    1    2    0    0  0.00000000000E+00  0.00000000000E+00 -0.15462936887E+03  0.38937930363E+04  0.38907215228E+04 0.  0.
        2    1    3    3  502    0  0.17414292162E+04 -0.85983307557E+03 -0.18938459951E+03  0.19513470116E+04  0.25500000920E-02 0. -1.
       -2    1    3    3    0  502 -0.17414292162E+04  0.85983307557E+03  0.34755230634E+02  0.19424460247E+04  0.25500000920E-02 0.  1.
</event>
<event>
 5   0  0.2632875E-08  0.3900761E+04  0.7818609E-02  0.8024871E-01
       -1   -1    0    0    0  501  0.00000000000E+00  0.00000000000E+00  0.15106432728E+04  0.15106432728E+04  0.50400001928E-02 0.  1.
        1   -1    0    0  501    0  0.00000000000E+00  0.00000000000E+00 -0.25181219825E+04  0.25181219825E+04  0.50400001928E-02 0. -1.
    10030    2    1    2    0    0  0.00000000000E+00  0.00000000000E+00 -0.10074787097E+04  0.40287652553E+04  0.39007609683E+04 0.  0.
        1    1    3    3  502    0 -0.12888602047E+04 -0.13787881983E+04  0.40933837705E+01  0.18873882162E+04  0.50400001928E-02 0.  1.
       -1    1    3    3    0  502  0.12888602047E+04  0.13787881983E+04 -0.10115720935E+04  0.21413770391E+04  0.50400001928E-02 0. -1.
</event>
<event>
 5   0  0.8476262E-08  0.3925965E+04  0.7818609E-02  0.8019651E-01
        2   -1    0    0  501    0  0.00000000000E+00  0.00000000000E+00  0.15647969500E+04  0.15647969500E+04  0.25500000920E-02 0. -1.
       -2   -1    0    0    0  501  0.00000000000E+00  0.00000000000E+00 -0.24624924228E+04  0.24624924228E+04  0.25500000920E-02 0.  1.
    10030    2    1    2    0    0  0.00000000000E+00  0.00000000000E+00 -0.89769547282E+03  0.40272893729E+04  0.39259651719E+04 0.  0.
        2    1    3    3  502    0  0.18464536956E+04 -0.64703740341E+03 -0.61185768973E+03  0.20499801179E+04  0.25500000920E-02 0.  1.
       -2    1    3    3    0  502 -0.18464536956E+04  0.64703740341E+03 -0.28583778309E+03  0.19773092549E+04  0.25500000920E-02 0. -1.
</event>
<event>
 5   0  0.2632875E-08  0.3881681E+04  0.7818609E-02  0.8028850E-01
       -1   -1    0    0    0  501  0.00000000000E+00  0.00000000000E+00  0.18775331720E+04  0.18775331720E+04  0.50400001928E-02 0. -1.
        1   -1    0    0  501    0  0.00000000000E+00  0.00000000000E+00 -0.20062827192E+04  0.20062827192E+04  0.50400001928E-02 0.  1.
    10030    2    1    2    0    0  0.00000000000E+00  0.00000000000E+00 -0.12874954727E+03  0.38838158912E+04  0.38816812634E+04 0.  0.
        2    1    3    3  502    0 -0.12870341972E+04  0.26261379608E+03 -0.14939499606E+04  0.19892987497E+04  0.25500000920E-02 0.  1.
       -2    1    3    3    0  502  0.12870341972E+04 -0.26261379608E+03  0.13652004134E+04  0.18945171415E+04  0.25500000920E-02 0. -1.
</event>
<event>
 5   0  0.2632875E-08  0.3887654E+04  0.7818609E-02  0.8027602E-01
        1   -1    0    0  501    0  0.00000000000E+00  0.00000000000E+00  0.12131823122E+04  0.12131823122E+04  0.50400001928E-02 0.  1.
       -1   -1    0    0    0  501  0.00000000000E+00  0.00000000000E+00 -0.31145066471E+04  0.31145066471E+04  0.50400001928E-02 0. -1.
    10030    2    1    2    0    0  0.00000000000E+00  0.00000000000E+00 -0.19013243348E+04  0.43276889593E+04  0.38876544988E+04 0.  0.
        5    1    3    3  502    0 -0.14714167652E+04  0.11987562561E+04 -0.14181458820E+04  0.23692285012E+04  0.46999998093E+01 0. -1.
       -5    1    3    3    0  502  0.14714167652E+04 -0.11987562561E+04 -0.48317845286E+03  0.19584604581E+04  0.46999998093E+01 0.  1.
</event>
<event>
 5   0  0.8551754E-08  0.3915755E+04  0.7818609E-02  0.8021760E-01
       -2   -1    0    0    0  501  0.00000000000E+00  0.00000000000E+00  0.19408399091E+04  0.19408399091E+04  0.25500000920E-02 0. -1.
        2   -1    0    0  501    0  0.00000000000E+00  0.00000000000E+00 -0.19750643820E+04  0.19750643820E+04  0.25500000920E-02 0.  1.
    10030    2    1    2    0    0  0.00000000000E+00  0.00000000000E+00 -0.34224472911E+02  0.39159042911E+04  0.39157547296E+04 0.  0.
        1    1    3    3  502    0 -0.45420671676E+03  0.13699023548E+04 -0.13401697874E+04  0.19695154893E+04  0.50400001928E-02 0.  1.
       -1    1    3    3    0  502  0.45420671676E+03 -0.13699023548E+04  0.13059453145E+04  0.19463888018E+04  0.50400001928E-02 0. -1.
</event>
<event>
 5   0  0.8551754E-08  0.3888105E+04  0.7818609E-02  0.8027508E-01
       -2   -1    0    0    0  501  0.00000000000E+00  0.00000000000E+00  0.29219907021E+04  0.29219907021E+04  0.25500000920E-02 0. -1.
        2   -1    0    0  501    0  0.00000000000E+00  0.00000000000E+00 -0.12934130913E+04  0.12934130913E+04  0.25500000920E-02 0.  1.
    10030    2    1    2    0    0  0.00000000000E+00  0.00000000000E+00  0.16285776108E+04  0.42154037933E+04  0.38881054649E+04 0.  0.
        1    1    3    3  502    0  0.18557860513E+04 -0.35640840762E+03  0.31938471945E+03  0.19165008271E+04  0.50400001928E-02 0. -1.
       -1    1    3    3    0  502 -0.18557860513E+04  0.35640840762E+03  0.13091928913E+04  0.22989029662E+04  0.50400001928E-02 0.  1.
</event>
<event>
 5   0  0.8476262E-08  0.3908997E+04  0.7818609E-02  0.8023161E-01
        2   -1    0    0  501    0  0.00000000000E+00  0.00000000000E+00  0.31113368949E+04  0.31113368949E+04  0.25500000920E-02 0.  1.
       -2   -1    0    0    0  501  0.00000000000E+00  0.00000000000E+00 -0.12277885212E+04  0.12277885212E+04  0.25500000920E-02 0. -1.
    10030    2    1    2    0    0  0.00000000000E+00  0.00000000000E+00  0.18835483738E+04  0.43391254161E+04  0.39089966616E+04 0.  0.
        2    1    3    3  502    0 -0.53901980635E+03 -0.90429614162E+03  0.27697200032E+04  0.29630461959E+04  0.25500000920E-02 0.  1.
       -2    1    3    3    0  502  0.53901980635E+03  0.90429614162E+03 -0.88617162938E+03  0.13760792201E+04  0.25500000920E-02 0. -1.
</event>
<event>
 5   0  0.8438211E-08  0.3945407E+04  0.7818609E-02  0.8015651E-01
       -2   -1    0    0    0  501  0.00000000000E+00  0.00000000000E+00  0.17804084829E+04  0.17804084829E+04  0.25500000920E-02 0.  1.
        2   -1    0    0  501    0  0.00000000000E+00  0.00000000000E+00 -0.21857675980E+04  0.21857675980E+04  0.25500000920E-02 0. -1.
    10030    2    1    2    0    0  0.00000000000E+00  0.00000000000E+00 -0.40535911516E+03  0.39661760809E+04  0.39454070377E+04 0.  0.
        5    1    3    3  502    0 -0.46917403669E+03 -0.22837848543E+03  0.17097693087E+04  0.17876280900E+04  0.46999998093E+01 0.  1.
       -5    1    3    3    0  502  0.46917403669E+03  0.22837848543E+03 -0.21151284239E+04  0.21785479909E+04  0.46999998093E+01 0. -1.
</event>
<event>
 5   0  0.2632875E-08  0.3891152E+04  0.7818609E-02  0.8026872E-01
        1   -1    0    0  501    0  0.00000000000E+00  0.00000000000E+00  0.18545331913E+04  0.18545331913E+04  0.50400001928E-02 0.  1.
       -1   -1    0    0    0  501  0.00000000000E+00  0.00000000000E+00 -0.20410886580E+04  0.20410886580E+04  0.50400001928E-02 0. -1.
    10030    2    1    2    0    0  0.00000000000E+00  0.00000000000E+00 -0.18655546671E+03  0.38956218494E+04  0.38911523552E+04 0.  0.
        4    1    3    3  502    0 -0.21249754532E+03 -0.49548968644E+03 -0.19648098406E+04  0.20374357803E+04  0.12699999809E+01 0. -1.
       -4    1    3    3    0  502  0.21249754532E+03  0.49548968644E+03  0.17782543739E+04  0.18581860691E+04  0.12699999809E+01 0.  1.
</event>
<event>
 5   0  0.8551754E-08  0.3908955E+04  0.7818609E-02  0.8023169E-01
       -2   -1    0    0    0  501  0.00000000000E+00  0.00000000000E+00  0.11197945740E+04  0.11197945740E+04  0.25500000920E-02 0.  1.
        2   -1    0    0  501    0  0.00000000000E+00  0.00000000000E+00 -0.34113239291E+04  0.34113239291E+04  0.25500000920E-02 0. -1.
    10030    2    1    2    0    0  0.00000000000E+00  0.00000000000E+00 -0.22915293551E+04  0.45311185032E+04  0.39089548609E+04 0.  0.
        1    1    3    3  502    0  0.72060087755E+03 -0.52727990306E+03 -0.31610740996E+04  0.32847647076E+04  0.50400001928E-02 0. -1.
       -1    1    3    3    0  502 -0.72060087755E+03  0.52727990306E+03  0.86954474454E+03  0.12463537955E+04  0.50400001928E-02 0.  1.
</event>
<event>
 5   0  0.2632875E-08  0.3904163E+04  0.7818609E-02  0.8024164E-01
        1   -1    0    0  501    0  0.00000000000E+00  0.00000000000E+00  0.28488591222E+04  0.28488591222E+04  0.50400001928E-02 0.  1.
       -1   -1    0    0    0  501  0.00000000000E+00  0.00000000000E+00 -0.13375957096E+04  0.13375957096E+04  0.50400001928E-02 0. -1.
    10030    2    1    2    0    0  0.00000000000E+00  0.00000000000E+00  0.15112634127E+04  0.41864548318E+04  0.39041627728E+04 0.  0.
        1    1    3    3  502    0  0.17169857908E+04  0.50086658196E+03 -0.83041512648E+02  0.17904757556E+04  0.50400001928E-02 0. -1.
       -1    1    3    3    0  502 -0.17169857908E+04 -0.50086658196E+03  0.15943049253E+04  0.23959790762E+04  0.50400001928E-02 0.  1.
</event>
<event>
 5   0  0.2632875E-08  0.3869820E+04  0.7818609E-02  0.8031335E-01
        1   -1    0    0  501    0  0.00000000000E+00  0.00000000000E+00  0.13992022260E+04  0.13992022260E+04  0.50400001928E-02 0. -1.
       -1   -1    0    0    0  501  0.00000000000E+00  0.00000000000E+00 -0.26757227577E+04  0.26757227578E+04  0.50400001928E-02 0.  1.
    10030    2    1    2    0    0  0.00000000000E+00  0.00000000000E+00 -0.12765205317E+04  0.40749249838E+04  0.38698202743E+04 0.  0.
        2    1    3    3  502    0  0.23677595864E+03  0.15768724861E+04 -0.17923838348E+04  0.23990059406E+04  0.25500000920E-02 0.  1.
       -2    1    3    3    0  502 -0.23677595864E+03 -0.15768724861E+04  0.51586330302E+03  0.16759190432E+04  0.25500000920E-02 0. -1.
</event>
<event>
 5   0  0.2632875E-08  0.3900296E+04  0.7818609E-02  0.8024968E-01
       -1   -1    0    0    0  501  0.00000000000E+00  0.00000000000E+00  0.14824033775E+04  0.14824033775E+04  0.50400001928E-02 0. -1.
        1   -1    0    0  501    0  0.00000000000E+00  0.00000000000E+00 -0.25654807241E+04  0.25654807241E+04  0.50400001928E-02 0.  1.
    10030    2    1    2    0    0  0.00000000000E+00  0.00000000000E+00 -0.10830773466E+04  0.40478841017E+04  0.39002960352E+04 0.  0.
        3    1    3    3  502    0  0.17154677403E+04 -0.20142187395E+03 -0.14811578175E+04  0.22753524628E+04  0.10100000352E+00 0.  1.
       -3    1    3    3    0  502 -0.17154677403E+04  0.20142187395E+03  0.39808047089E+03  0.17725316389E+04  0.10100000352E+00 0. -1.
</event>
<event>
 5   0  0.2632875E-08  0.3851746E+04  0.7818609E-02  0.8035141E-01
        1   -1    0    0  501    0  0.00000000000E+00  0.00000000000E+00  0.22781372081E+04  0.22781372081E+04  0.50400001928E-02 0. -1.
       -1   -1    0    0    0  501  0.00000000000E+00  0.00000000000E+00 -0.16280783866E+04  0.16280783866E+04  0.50400001928E-02 0.  1.
    10030    2    1    2    0    0  0.00000000000E+00  0.00000000000E+00  0.65005882151E+03  0.39062155947E+04  0.38517455525E+04 0.  0.
        5    1    3    3  502    0 -0.53519679933E+02 -0.52575592593E+03  0.22031584751E+04  0.22656595080E+04  0.46999998093E+01 0. -1.
       -5    1    3    3    0  502  0.53519679933E+02  0.52575592593E+03 -0.15530996536E+04  0.16405560867E+04  0.46999998093E+01 0.  1.
</event>
<event>
 5   0  0.2632875E-08  0.3882786E+04  0.7818609E-02  0.8028619E-01
        1   -1    0    0  501    0  0.00000000000E+00  0.00000000000E+00  0.16323793093E+04  0.16323793093E+04  0.50400001928E-02 0. -1.
       -1   -1    0    0    0  501  0.00000000000E+00  0.00000000000E+00 -0.23089033034E+04  0.23089033034E+04  0.50400001928E-02 0.  1.
    10030    2    1    2    0    0  0.00000000000E+00  0.00000000000E+00 -0.67652399417E+03  0.39412826127E+04  0.38827855875E+04 0.  0.
        2    1    3    3  502    0  0.90320755938E+03 -0.82123457888E+03 -0.18705728533E+04  0.22336635665E+04  0.25500000920E-02 0.  1.
       -2    1    3    3    0  502 -0.90320755938E+03  0.82123457888E+03  0.11940488591E+04  0.17076190462E+04  0.25500000920E-02 0. -1.
</event>
<event>
 5   0  0.8551754E-08  0.3870393E+04  0.7818609E-02  0.8031215E-01
       -2   -1    0    0    0  501  0.00000000000E+00  0.00000000000E+00  0.30657461274E+04  0.30657461274E+04  0.25500000920E-02 0.  1.
        2   -1    0    0  501    0  0.00000000000E+00  0.00000000000E+00 -0.12215576583E+04  0.12215576583E+04  0.25500000920E-02 0. -1.
    10030    2    1    2    0    0  0.00000000000E+00  0.00000000000E+00  0.18441884691E+04  0.42873037857E+04  0.38703930862E+04 0.  0.
        1    1    3    3  502    0  0.82754539522E+03  0.63544758097E+03 -0.88330270277E+03  0.13670584018E+04  0.50400001928E-02 0. -1.
       -1    1    3    3    0  502 -0.82754539522E+03 -0.63544758097E+03  0.27274911719E+04  0.29202453839E+04  0.50400001928E-02 0.  1.
</event>
<event>
 5   0  0.8676098E-08  0.3896513E+04  0.7818609E-02  0.8025755E-01
        2   -1    0    0  501    0  0.00000000000E+00  0.00000000000E+00  0.18997242340E+04  0.18997242340E+04  0.25500000920E-02 0. -1.
       -2   -1    0    0    0  501  0.00000000000E+00  0.00000000000E+00 -0.19980283064E+04  0.19980283064E+04  0.25500000920E-02 0.  1.
    10030    2    1    2    0    0  0.00000000000E+00  0.00000000000E+00 -0.98304072380E+02  0.38977525404E+04  0.38965126941E+04 0.  0.
        3    1    3    3  502    0 -0.29104312773E+03  0.15303240640E+04 -0.12196119290E+04  0.19783960955E+04  0.10100000352E+00 0.  1.
       -3    1    3    3    0  502  0.29104312773E+03 -0.15303240640E+04  0.11213078566E+04  0.19193564449E+04  0.10100000352E+00 0. -1.
</event>
<event>
 5   0  0.2632875E-08  0.3905728E+04  0.7818609E-02  0.8023839E-01
        1   -1    0    0  501    0  0.00000000000E+00  0.00000000000E+00  0.21849397854E+04  0.21849397854E+04  0.50400001928E-02 0.  1.
       -1   -1    0    0    0  501  0.00000000000E+00  0.00000000000E+00 -0.17454384972E+04  0.17454384972E+04  0.50400001928E-02 0. -1.
    10030    2    1    2    0    0  0.00000000000E+00  0.00000000000E+00  0.43950128823E+03  0.39303782826E+04  0.39057281091E+04 0.  0.
        1    1    3    3  502    0  0.14401486888E+03 -0.19145179209E+03 -0.17305948491E+04  0.17470983380E+04  0.50400001928E-02 0. -1.
       -1    1    3    3    0  502 -0.14401486888E+03  0.19145179209E+03  0.21700961373E+04  0.21832799445E+04  0.50400001928E-02 0.  1.
</event>
<event>
 5   0  0.2632875E-08  0.3825633E+04  0.7818609E-02  0.8040676E-01
       -1   -1    0    0    0  501  0.00000000000E+00  0.00000000000E+00  0.14091402245E+04  0.14091402245E+04  0.50400001928E-02 0. -1.
        1   -1    0    0  501    0  0.00000000000E+00  0.00000000000E+00 -0.25965249424E+04  0.25965249424E+04  0.50400001928E-02 0.  1.
    10030    2    1    2    0    0  0.00000000000E+00  0.00000000000E+00 -0.11873847179E+04  0.40056651669E+04  0.38256334065E+04 0.  0.
        2    1    3    3  502    0 -0.18162189820E+03 -0.18681577887E+04 -0.97964090492E+03  0.21172379035E+04  0.25500000920E-02 0.  1.
       -2    1    3    3    0  502  0.18162189820E+03  0.18681577887E+04 -0.20774381302E+03  0.18884272634E+04  0.25500000920E-02 0. -1.
</event>
<event>
 5   0  0.2632875E-08  0.3902747E+04  0.7818609E-02  0.8024458E-01
       -1   -1    0    0    0  501  0.00000000000E+00  0.00000000000E+00  0.15917953909E+04  0.15917953909E+04  0.50400001928E-02 0. -1.
        1   -1    0    0  501    0  0.00000000000E+00  0.00000000000E+00 -0.23921783812E+04  0.23921783812E+04  0.50400001928E-02 0.  1.
    10030    2    1    2    0    0  0.00000000000E+00  0.00000000000E+00 -0.80038299029E+03  0.39839737721E+04  0.39027469923E+04 0.  0.
        1    1    3    3  502    0  0.16231845293E+04 -0.66215949399E+03  0.47477977954E+03  0.18162045729E+04  0.50400001928E-02 0. -1.
       -1    1    3    3    0  502 -0.16231845293E+04  0.66215949399E+03 -0.12751627698E+04  0.21677691992E+04  0.50400001928E-02 0.  1.
</event>
<event>
 5   0  0.2632875E-08  0.3914262E+04  0.7818609E-02  0.8022069E-01
       -1   -1    0    0    0  501  0.00000000000E+00  0.00000000000E+00  0.18663641639E+04  0.18663641639E+04  0.50400001928E-02 0. -1.
        1   -1    0    0  501    0  0.00000000000E+00  0.00000000000E+00 -0.20523121558E+04  0.20523121558E+04  0.50400001928E-02 0.  1.
    10030    2    1    2    0    0  0.00000000000E+00  0.00000000000E+00 -0.18594799190E+03  0.39186763197E+04  0.39142620560E+04 0.  0.
        4    1    3    3  502    0 -0.54709108232E+03 -0.17945947631E+04 -0.65081080881E+03  0.19858084847E+04  0.12699999809E+01 0.  1.
       -4    1    3    3    0  502  0.54709108232E+03  0.17945947631E+04  0.46486281691E+03  0.19328678350E+04  0.12699999809E+01 0. -1.
</event>
<event>
 5   0  0.2632875E-08  0.3901579E+04  0.7818609E-02  0.8024701E-01
        1   -1    0    0  501    0  0.00000000000E+00  0.00000000000E+00  0.20875667961E+04  0.20875667961E+04  0.50400001928E-02 0.  1.
       -1   -1    0    0    0  501  0.00000000000E+00  0.00000000000E+00 -0.18229735746E+04  0.18229735746E+04  0.50400001928E-02 0. -1.
    10030    2    1    2    0    0  0.00000000000E+00  0.00000000000E+00  0.26459322143E+03  0.39105403707E+04  0.39015787084E+04 0.  0.
        5    1    3    3  502    0 -0.87060168241E+03 -0.36281988046E+03  0.18438404816E+04  0.20710758959E+04  0.46999998093E+01 0.  1.
       -5    1    3    3    0  502  0.87060168241E+03  0.36281988046E+03 -0.15792472602E+04  0.18394644747E+04  0.46999998093E+01 0. -1.
</event>
<event>
 5   0  0.8551754E-08  0.3722070E+04  0.7818609E-02  0.8063088E-01
        2   -1    0    0  501    0  0.00000000000E+00  0.00000000000E+00  0.21274214971E+04  0.21274214971E+04  0.25500000920E-02 0. -1.
       -2   -1    0    0    0  501  0.00000000000E+00  0.00000000000E+00 -0.16280046622E+04  0.16280046622E+04  0.25500000920E-02 0.  1.
    10030    2    1    2    0    0  0.00000000000E+00  0.00000000000E+00  0.49941683488E+03  0.37554261594E+04  0.37220704538E+04 0.  0.
        1    1    3    3  502    0 -0.52702940665E+03  0.13218835260E+04  0.14597542022E+04  0.20386314975E+04  0.50400001928E-02 0. -1.
       -1    1    3    3    0  502  0.52702940665E+03 -0.13218835260E+04 -0.96033736734E+03  0.17167946618E+04  0.50400001928E-02 0.  1.
</event>
<event>
 5   0  0.2632875E-08  0.3927488E+04  0.7818609E-02  0.8019336E-01
        1   -1    0    0  501    0  0.00000000000E+00  0.00000000000E+00  0.29968593845E+04  0.29968593845E+04  0.50400001928E-02 0. -1.
       -1   -1    0    0    0  501  0.00000000000E+00  0.00000000000E+00 -0.12867774366E+04  0.12867774367E+04  0.50400001928E-02 0.  1.
    10030    2    1    2    0    0  0.00000000000E+00  0.00000000000E+00  0.17100819478E+04  0.42836368211E+04  0.39274882746E+04 0.  0.
        5    1    3    3  502    0  0.26757871380E+03  0.16243851372E+04  0.20226522969E+04  0.26079436049E+04  0.46999998093E+01 0. -1.
       -5    1    3    3    0  502 -0.26757871380E+03 -0.16243851372E+04 -0.31257034907E+03  0.16756932163E+04  0.46999998093E+01 0.  1.
</event>
<event>
 5   0  0.8476262E-08  0.3887303E+04  0.7818609E-02  0.8027675E-01
       -2   -1    0    0    0  501  0.00000000000E+00  0.00000000000E+00  0.15933697074E+04  0.15933697074E+04  0.25500000920E-02 0. -1.
        2   -1    0    0  501    0  0.00000000000E+00  0.00000000000E+00 -0.23709378087E+04  0.23709378087E+04  0.25500000920E-02 0.  1.
    10030    2    1    2    0    0  0.00000000000E+00  0.00000000000E+00 -0.77756810123E+03  0.39643075161E+04  0.38873026548E+04 0.  0.
        2    1    3    3  502    0  0.12951448297E+03  0.19073873974E+04 -0.74627020374E+03  0.20522718879E+04  0.25500000920E-02 0.  1.
       -2    1    3    3    0  502 -0.12951448297E+03 -0.19073873974E+04 -0.31297897489E+02  0.19120356282E+04  0.25500000920E-02 0. -1.
</event>
<event>
 5   0  0.2632875E-08  0.3902994E+04  0.7818609E-02  0.8024407E-01
        1   -1    0    0  501    0  0.00000000000E+00  0.00000000000E+00  0.18708892677E+04  0.18708892677E+04  0.50400001928E-02 0.  1.
       -1   -1    0    0    0  501  0.00000000000E+00  0.00000000000E+00 -0.20355781275E+04  0.20355781275E+04  0.50400001928E-02 0. -1.
    10030    2    1    2    0    0  0.00000000000E+00  0.00000000000E+00 -0.16468885987E+03  0.39064673952E+04  0.39029943747E+04 0.  0.
        4    1    3    3  502    0  0.89955563885E+03  0.17799345712E+02  0.16509073646E+04  0.18801632651E+04  0.12699999809E+01 0.  1.
       -4    1    3    3    0  502 -0.89955563885E+03 -0.17799345712E+02 -0.18155962245E+04  0.20263041300E+04  0.12699999809E+01 0. -1.
</event>
<event>
 5   0  0.8676098E-08  0.3893766E+04  0.7818609E-02  0.8026327E-01
       -2   -1    0    0    0  501  0.00000000000E+00  0.00000000000E+00  0.13405476095E+04  0.13405476095E+04  0.25500000920E-02 0. -1.
        2   -1    0    0  501    0  0.00000000000E+00  0.00000000000E+00 -0.28274667835E+04  0.28274667835E+04  0.25500000920E-02 0.  1.
    10030    2    1    2    0    0  0.00000000000E+00  0.00000000000E+00 -0.14869191740E+04  0.41680143930E+04  0.38937662167E+04 0.  0.
        3    1    3    3  502    0  0.14072764081E+03  0.88846695887E+03  0.11047582061E+04  0.14246643500E+04  0.10100000352E+00 0. -1.
       -3    1    3    3    0  502 -0.14072764081E+03 -0.88846695887E+03 -0.25916773801E+04  0.27433500430E+04  0.10100000352E+00 0.  1.
</event>
<event>
 5   0  0.2632875E-08  0.3905433E+04  0.7818609E-02  0.8023900E-01
       -1   -1    0    0    0  501  0.00000000000E+00  0.00000000000E+00  0.18688801559E+04  0.18688801559E+04  0.50400001928E-02 0.  1.
        1   -1    0    0  501    0  0.00000000000E+00  0.00000000000E+00 -0.20403136484E+04  0.20403136484E+04  0.50400001928E-02 0. -1.
    10030    2    1    2    0    0  0.00000000000E+00  0.00000000000E+00 -0.17143349244E+03  0.39091938043E+04  0.39054329795E+04 0.  0.
        1    1    3    3  502    0 -0.99608452108E+02  0.17422868618E+03  0.18585296274E+04  0.18693340672E+04  0.50400001928E-02 0.  1.
       -1    1    3    3    0  502  0.99608452108E+02 -0.17422868618E+03 -0.20299631199E+04  0.20398597371E+04  0.50400001928E-02 0. -1.
</event>
<event>
 5   0  0.8676098E-08  0.3934283E+04  0.7818609E-02  0.8017937E-01
       -2   -1    0    0    0  501  0.00000000000E+00  0.00000000000E+00  0.26590204796E+04  0.26590204796E+04  0.25500000920E-02 0.  1.
        2   -1    0    0  501    0  0.00000000000E+00  0.00000000000E+00 -0.14552896543E+04  0.14552896543E+04  0.25500000920E-02 0. -1.
    10030    2    1    2    0    0  0.00000000000E+00  0.00000000000E+00  0.12037308253E+04  0.41143101339E+04  0.39342826510E+04 0.  0.
        3    1    3    3  502    0 -0.40038460092E+03 -0.24772612594E+03  0.25992285598E+04  0.26415270543E+04  0.10100000352E+00 0.  1.
       -3    1    3    3    0  502  0.40038460092E+03  0.24772612594E+03 -0.13954977346E+04  0.14727830796E+04  0.10100000352E+00 0. -1.
</event>
<event>
 5   0  0.2632875E-08  0.3921454E+04  0.7818609E-02  0.8020582E-01
       -1   -1    0    0    0  501  0.00000000000E+00  0.00000000000E+00  0.23370438313E+04  0.23370438313E+04  0.50400001928E-02 0.  1.
        1   -1    0    0  501    0  0.00000000000E+00  0.00000000000E+00 -0.16450054788E+04  0.16450054788E+04  0.50400001928E-02 0. -1.
    10030    2    1    2    0    0  0.00000000000E+00  0.00000000000E+00  0.69203835254E+03  0.39820493101E+04  0.39214537645E+04 0.  0.
        5    1    3    3  502    0 -0.17127234053E+04 -0.95126862255E+03  0.42529187522E+03  0.20048014177E+04  0.46999998093E+01 0.  1.
       -5    1    3    3    0  502  0.17127234053E+04  0.95126862255E+03  0.26674647732E+03  0.19772478925E+04  0.46999998093E+01 0. -1.
</event>
<event>
 5   0  0.2632875E-08  0.3888082E+04  0.7818609E-02  0.8027512E-01
       -1   -1    0    0    0  501  0.00000000000E+00  0.00000000000E+00  0.11884917631E+04  0.11884917631E+04  0.50400001928E-02 0. -1.
        1   -1    0    0  501    0  0.00000000000E+00  0.00000000000E+00 -0.31799090500E+04  0.31799090500E+04  0.50400001928E-02 0.  1.
    10030    2    1    2    0    0  0.00000000000E+00  0.00000000000E+00 -0.19914172869E+04  0.43684008131E+04  0.38880821562E+04 0.  0.
        5    1    3    3  502    0  0.18171631178E+04  0.44051664597E+03 -0.39786820043E+03  0.19116636491E+04  0.46999998093E+01 0. -1.
       -5    1    3    3    0  502 -0.18171631178E+04 -0.44051664597E+03 -0.15935490864E+04  0.24567371640E+04  0.46999998093E+01 0.  1.
</event>
<event>
 5   0  0.2632875E-08  0.3892606E+04  0.7818609E-02  0.8026569E-01
       -1   -1    0    0    0  501  0.00000000000E+00  0.00000000000E+00  0.12740369652E+04  0.12740369653E+04  0.50400001928E-02 0.  1.
        1   -1    0    0  501    0  0.00000000000E+00  0.00000000000E+00 -0.29733003853E+04  0.29733003853E+04  0.50400001928E-02 0. -1.
    10030    2    1    2    0    0  0.00000000000E+00  0.00000000000E+00 -0.16992634201E+04  0.42473373506E+04  0.38926056054E+04 0.  0.
        3    1    3    3  502    0 -0.35567229907E+02  0.49004402026E+03 -0.29045177849E+04  0.29457820257E+04  0.10100000352E+00 0. -1.
       -3    1    3    3    0  502  0.35567229907E+02 -0.49004402026E+03  0.12052543648E+04  0.13015553249E+04  0.10100000352E+00 0.  1.
</event>
<event>
 5   0  0.8438211E-08  0.3874804E+04  0.7818609E-02  0.8030290E-01
        2   -1    0    0  501    0  0.00000000000E+00  0.00000000000E+00  0.29729748327E+04  0.29729748327E+04  0.25500000920E-02 0.  1.
       -2   -1    0    0    0  501  0.00000000000E+00  0.00000000000E+00 -0.12625491026E+04  0.12625491027E+04  0.25500000920E-02 0. -1.
    10030    2    1    2    0    0  0.00000000000E+00  0.00000000000E+00  0.17104257301E+04  0.42355239354E+04  0.38748041020E+04 0.  0.
        5    1    3    3  502    0 -0.13412569570E+04 -0.92241196700E+03 -0.29315505713E+03  0.16540181495E+04  0.46999998093E+01 0. -1.
       -5    1    3    3    0  502  0.13412569570E+04  0.92241196700E+03  0.20035807872E+04  0.25815057858E+04  0.46999998093E+01 0.  1.
</event>
<event>
 5   0  0.8551754E-08  0.3885816E+04  0.7818609E-02  0.8027986E-01
       -2   -1    0    0    0  501  0.00000000000E+00  0.00000000000E+00  0.17304488014E+04  0.17304488014E+04  0.25500000920E-02 0.  1.
        2   -1    0    0  501    0  0.00000000000E+00  0.00000000000E+00 -0.21814523844E+04  0.21814523844E+04  0.25500000920E-02 0. -1.
    10030    2    1    2    0    0  0.00000000000E+00  0.00000000000E+00 -0.45100358296E+03  0.39119011858E+04  0.38858160862E+04 0.  0.
        1    1    3    3  502    0 -0.23672772188E+03 -0.17436682687E+04  0.60372208160E+03  0.18603492676E+04  0.50400001928E-02 0.  1.
       -1    1    3    3    0  502  0.23672772188E+03  0.17436682687E+04 -0.10547256646E+04  0.20515519182E+04  0.50400001928E-02 0. -1.
</event>
<event>
 5   0  0.8551754E-08  0.3904319E+04  0.7818609E-02  0.8024132E-01
        2   -1    0    0  501    0  0.00000000000E+00  0.00000000000E+00  0.30767965362E+04  0.30767965362E+04  0.25500000920E-02 0.  1.
       -2   -1    0    0    0  501  0.00000000000E+00  0.00000000000E+00 -0.12386019330E+04  0.12386019330E+04  0.25500000920E-02 0. -1.
    10030    2    1    2    0    0  0.00000000000E+00  0.00000000000E+00  0.18381946032E+04  0.43153984692E+04  0.39043187048E+04 0.  0.
        1    1    3    3  502    0  0.25954876870E+03 -0.82675633452E+03  0.28525733920E+04  0.29812860575E+04  0.50400001928E-02 0.  1.
       -1    1    3    3    0  502 -0.25954876870E+03  0.82675633452E+03 -0.10143787888E+04  0.13341124117E+04  0.50400001928E-02 0. -1.
</event>
<event>
 5   0  0.2632875E-08  0.3901507E+04  0.7818609E-02  0.8024716E-01
        1   -1    0    0  501    0  0.00000000000E+00  0.00000000000E+00  0.20052932789E+04  0.20052932789E+04  0.50400001928E-02 0.  1.
       -1   -1    0    0    0  501  0.00000000000E+00  0.00000000000E+00 -0.18976972981E+04  0.18976972981E+04  0.50400001928E-02 0. -1.
    10030    2    1    2    0    0  0.00000000000E+00  0.00000000000E+00  0.10759598078E+03  0.39029905770E+04  0.39015072151E+04 0.  0.
        2    1    3    3  502    0  0.16481854226E+04 -0.10333932586E+04  0.19884560949E+03  0.19554938994E+04  0.25500000920E-02 0. -1.
       -2    1    3    3    0  502 -0.16481854226E+04  0.10333932586E+04 -0.91249628708E+02  0.19474966776E+04  0.25500000920E-02 0.  1.
</event>
<event>
 5   0  0.2632875E-08  0.3920960E+04  0.7818609E-02  0.8020684E-01
       -1   -1    0    0    0  501  0.00000000000E+00  0.00000000000E+00  0.26651430581E+04  0.26651430581E+04  0.50400001928E-02 0. -1.
        1   -1    0    0  501    0  0.00000000000E+00  0.00000000000E+00 -0.14421299149E+04  0.14421299149E+04  0.50400001928E-02 0.  1.
    10030    2    1    2    0    0  0.00000000000E+00  0.00000000000E+00  0.12230131433E+04  0.41072729730E+04  0.39209603576E+04 0.  0.
        2    1    3    3  502    0 -0.30460510173E+03  0.19365969817E+04  0.59365588479E+03  0.20483211289E+04  0.25500000920E-02 0.  1.
       -2    1    3    3    0  502  0.30460510173E+03 -0.19365969817E+04  0.62935725847E+03  0.20589518441E+04  0.25500000920E-02 0. -1.
</event>
<event>
 5   0  0.8476262E-08  0.3734218E+04  0.7818609E-02  0.8060421E-01
        2   -1    0    0  501    0  0.00000000000E+00  0.00000000000E+00  0.17252371304E+04  0.17252371304E+04  0.25500000920E-02 0. -1.
       -2   -1    0    0    0  501  0.00000000000E+00  0.00000000000E+00 -0.20206471391E+04  0.20206471391E+04  0.25500000920E-02 0.  1.
    10030    2    1    2    0    0  0.00000000000E+00  0.00000000000E+00 -0.29541000865E+03  0.37458842695E+04  0.37342177076E+04 0.  0.
        2    1    3    3  502    0  0.60141126830E+03 -0.14664532131E+04  0.84224949476E+03  0.17948717925E+04  0.25500000920E-02 0. -1.
       -2    1    3    3    0  502 -0.60141126830E+03  0.14664532131E+04 -0.11376595034E+04  0.19510124771E+04  0.25500000920E-02 0.  1.
</event>
<event>
 5   0  0.2632875E-08  0.3915468E+04  0.7818609E-02  0.8021820E-01
       -1   -1    0    0    0  501  0.00000000000E+00  0.00000000000E+00  0.20517398361E+04  0.20517398361E+04  0.50400001928E-02 0.  1.
        1   -1    0    0  501    0  0.00000000000E+00  0.00000000000E+00 -0.18680353819E+04  0.18680353819E+04  0.50400001928E-02 0. -1.
    10030    2    1    2    0    0  0.00000000000E+00  0.00000000000E+00  0.18370445421E+03  0.39197752180E+04  0.39154680988E+04 0.  0.
        5    1    3    3  502    0 -0.54689502821E+03  0.16637152821E+04 -0.78412906322E+03  0.19188338098E+04  0.46999998093E+01 0. -1.
       -5    1    3    3    0  502  0.54689502821E+03 -0.16637152821E+04  0.96783351743E+03  0.20009414082E+04  0.46999998093E+01 0.  1.
</event>
<event>
 5   0  0.2632875E-08  0.3890241E+04  0.7818609E-02  0.8027062E-01
       -1   -1    0    0    0  501  0.00000000000E+00  0.00000000000E+00  0.24884098065E+04  0.24884098065E+04  0.50400001928E-02 0.  1.
        1   -1    0    0  501    0  0.00000000000E+00  0.00000000000E+00 -0.15204464785E+04  0.15204464785E+04  0.50400001928E-02 0. -1.
    10030    2    1    2    0    0  0.00000000000E+00  0.00000000000E+00  0.96796332800E+03  0.40088562850E+04  0.38902410862E+04 0.  0.
        4    1    3    3  502    0  0.12345394369E+04 -0.13865574147E+04  0.10820774942E+04  0.21488421072E+04  0.12699999809E+01 0. -1.
       -4    1    3    3    0  502 -0.12345394369E+04  0.13865574147E+04 -0.11411416616E+03  0.18600141777E+04  0.12699999809E+01 0.  1.
</event>
<event>
 5   0  0.2632875E-08  0.3885088E+04  0.7818609E-02  0.8028138E-01
       -1   -1    0    0    0  501  0.00000000000E+00  0.00000000000E+00  0.16365748581E+04  0.16365748581E+04  0.50400001928E-02 0.  1.
        1   -1    0    0  501    0  0.00000000000E+00  0.00000000000E+00 -0.23057157824E+04  0.23057157824E+04  0.50400001928E-02 0. -1.
    10030    2    1    2    0    0  0.00000000000E+00  0.00000000000E+00 -0.66914092424E+03  0.39422906405E+04  0.38850876332E+04 0.  0.
        3    1    3    3  502    0  0.18245597229E+04  0.48894708358E+03 -0.79444191219E+03  0.20492011602E+04  0.10100000352E+00 0. -1.
       -3    1    3    3    0  502 -0.18245597229E+04 -0.48894708358E+03  0.12530098795E+03  0.18930894803E+04  0.10100000352E+00 0.  1.
</event>
<event>
 5   0  0.2632875E-08  0.3920267E+04  0.7818609E-02  0.8020827E-01
        1   -1    0    0  501    0  0.00000000000E+00  0.00000000000E+00  0.14634480026E+04  0.14634480026E+04  0.50400001928E-02 0. -1.
       -1   -1    0    0    0  501  0.00000000000E+00  0.00000000000E+00 -0.26253908395E+04  0.26253908395E+04  0.50400001928E-02 0.  1.
    10030    2    1    2    0    0  0.00000000000E+00  0.00000000000E+00 -0.11619428369E+04  0.40888388421E+04  0.39202668175E+04 0.  0.
        5    1    3    3  502    0  0.71751365642E+03 -0.17264689727E+04  0.33053606412E+02  0.18699293013E+04  0.46999998093E+01 0.  1.
       -5    1    3    3    0  502 -0.71751365642E+03  0.17264689727E+04 -0.11949964433E+04  0.22189095408E+04  0.46999998093E+01 0. -1.
</event>
<event>
 5   0  0.8476262E-08  0.3902090E+04  0.7818609E-02  0.8024595E-01
       -2   -1    0    0    0  501  0.00000000000E+00  0.00000000000E+00  0.25383442874E+04  0.25383442874E+04  0.25500000920E-02 0.  1.
        2   -1    0    0  501    0  0.00000000000E+00  0.00000000000E+00 -0.14996297547E+04  0.14996297547E+04  0.25500000920E-02 0. -1.
    10030    2    1    2    0    0  0.00000000000E+00  0.00000000000E+00  0.10387145327E+04  0.40379740421E+04  0.39020900149E+04 0.  0.
        2    1    3    3  502    0  0.11840633974E+04 -0.89123681263E+02 -0.10826574631E+04  0.16068902707E+04  0.25500000920E-02 0. -1.
       -2    1    3    3    0  502 -0.11840633974E+04  0.89123681263E+02  0.21213719957E+04  0.24310837715E+04  0.25500000920E-02 0.  1.
</event>
<event>
 5   0  0.8476262E-08  0.3887075E+04  0.7818609E-02  0.8027723E-01
       -2   -1    0    0    0  501  0.00000000000E+00  0.00000000000E+00  0.13947501237E+04  0.13947501237E+04  0.25500000920E-02 0.  1.
        2   -1    0    0  501    0  0.00000000000E+00  0.00000000000E+00 -0.27082549027E+04  0.27082549027E+04  0.25500000920E-02 0. -1.
    10030    2    1    2    0    0  0.00000000000E+00  0.00000000000E+00 -0.13135047790E+04  0.41030050263E+04  0.38870754356E+04 0.  0.
        2    1    3    3  502    0  0.58758095490E+03  0.17936429620E+04 -0.16739062782E+03  0.18948419660E+04  0.25500000920E-02 0.  1.
       -2    1    3    3    0  502 -0.58758095490E+03 -0.17936429620E+04 -0.11461141512E+04  0.22081630604E+04  0.25500000920E-02 0. -1.
</event>
<event>
 5   0  0.2632875E-08  0.3894963E+04  0.7818609E-02  0.8026078E-01
       -1   -1    0    0    0  501  0.00000000000E+00  0.00000000000E+00  0.18436687397E+04  0.18436687397E+04  0.50400001928E-02 0.  1.
        1   -1    0    0  501    0  0.00000000000E+00  0.00000000000E+00 -0.20571396389E+04  0.20571396389E+04  0.50400001928E-02 0. -1.
    10030    2    1    2    0    0  0.00000000000E+00  0.00000000000E+00 -0.21347089913E+03  0.39008083786E+04  0.38949629243E+04 0.  0.
        4    1    3    3  502    0 -0.27802272273E+03  0.18675187653E+04  0.37122229190E+03  0.19242480547E+04  0.12699999809E+01 0. -1.
       -4    1    3    3    0  502  0.27802272273E+03 -0.18675187653E+04 -0.58469319103E+03  0.19765603239E+04  0.12699999809E+01 0.  1.
</event>
<event>
 5   0  0.2632875E-08  0.3932762E+04  0.7818609E-02  0.8018250E-01
        1   -1    0    0  501    0  0.00000000000E+00  0.00000000000E+00  0.25686100572E+04  0.25686100572E+04  0.50400001928E-02 0.  1.
       -1   -1    0    0    0  501  0.00000000000E+00  0.00000000000E+00 -0.15053491393E+04  0.15053491393E+04  0.50400001928E-02 0. -1.
    10030    2    1    2    0    0  0.00000000000E+00  0.00000000000E+00  0.10632609179E+04  0.40739591964E+04  0.39327623568E+04 0.  0.
        3    1    3    3  502    0  0.29297752747E+03  0.19112131232E+04  0.90236713757E+03  0.21337380099E+04  0.10100000352E+00 0.  1.
       -3    1    3    3    0  502 -0.29297752747E+03 -0.19112131232E+04  0.16089378034E+03  0.19402211865E+04  0.10100000352E+00 0. -1.
</event>
<event>
 5   0  0.2632875E-08  0.3932940E+04  0.7818609E-02  0.8018213E-01
       -1   -1    0    0    0  501  0.00000000000E+00  0.00000000000E+00  0.23020903830E+04  0.23020903830E+04  0.50400001928E-02 0. -1.
        1   -1    0    0  501    0  0.00000000000E+00  0.00000000000E+00 -0.16797794771E+04  0.16797794772E+04  0.50400001928E-02 0.  1.
    10030    2    1    2    0    0  0.00000000000E+00  0.00000000000E+00  0.62231090585E+03  0.39818698602E+04  0.39329399588E+04 0.  0.
        1    1    3    3  502    0 -0.10772505532E+04 -0.13689717033E+03  0.19710014031E+04  0.22503457780E+04  0.50400001928E-02 0. -1.
       -1    1    3    3    0  502  0.10772505532E+04  0.13689717033E+03 -0.13486904972E+04  0.17315240821E+04  0.50400001928E-02 0.  1.
</event>
<event>
 5   0  0.2632875E-08  0.3909636E+04  0.7818609E-02  0.8023028E-01
        1   -1    0    0  501    0  0.00000000000E+00  0.00000000000E+00  0.22588360732E+04  0.22588360732E+04  0.50400001928E-02 0. -1.
       -1   -1    0    0    0  501  0.00000000000E+00  0.00000000000E+00 -0.16917181448E+04  0.16917181448E+04  0.50400001928E-02 0.  1.
    10030    2    1    2    0    0  0.00000000000E+00  0.00000000000E+00  0.56711792841E+03  0.39505542179E+04  0.39096362854E+04 0.  0.
        5    1    3    3  502    0 -0.91857899834E+03 -0.20275625817E+03 -0.14479664239E+04  0.17267096835E+04  0.46999998093E+01 0.  1.
       -5    1    3    3    0  502  0.91857899834E+03  0.20275625817E+03  0.20150843523E+04  0.22238445344E+04  0.46999998093E+01 0. -1.
</event>
<event>
 5   0  0.8342802E-08  0.3902252E+04  0.7818609E-02  0.8024561E-01
       -2   -1    0    0    0  501  0.00000000000E+00  0.00000000000E+00  0.26855417672E+04  0.26855417672E+04  0.25500000920E-02 0.  1.
        2   -1    0    0  501    0  0.00000000000E+00  0.00000000000E+00 -0.14175513790E+04  0.14175513790E+04  0.25500000920E-02 0. -1.
    10030    2    1    2    0    0  0.00000000000E+00  0.00000000000E+00  0.12679903882E+04  0.41030931462E+04  0.39022523934E+04 0.  0.
        4    1    3    3  502    0 -0.10946761485E+04 -0.10085594468E+04  0.19604225991E+04  0.24614561560E+04  0.12699999809E+01 0.  1.
       -4    1    3    3    0  502  0.10946761485E+04  0.10085594468E+04 -0.69243221093E+03  0.16416369902E+04  0.12699999809E+01 0. -1.
</event>
<event>
 5   0  0.8676098E-08  0.3895122E+04  0.7818609E-02  0.8026045E-01
       -2   -1    0    0    0  501  0.00000000000E+00  0.00000000000E+00  0.17294067732E+04  0.17294067732E+04  0.25500000920E-02 0.  1.
        2   -1    0    0  501    0  0.00000000000E+00  0.00000000000E+00 -0.21932338759E+04  0.21932338759E+04  0.25500000920E-02 0. -1.
    10030    2    1    2    0    0  0.00000000000E+00  0.00000000000E+00 -0.46382710265E+03  0.39226406491E+04  0.38951218314E+04 0.  0.
        3    1    3    3  502    0  0.17436211019E+04 -0.86614493937E+03 -0.18084128550E+03  0.19552813566E+04  0.10100000352E+00 0. -1.
       -3    1    3    3    0  502 -0.17436211019E+04  0.86614493937E+03 -0.28298581715E+03  0.19673592925E+04  0.10100000352E+00 0.  1.
</event>
<event>
 5   0  0.8551754E-08  0.3905333E+04  0.7818609E-02  0.8023921E-01
        2   -1    0    0  501    0  0.00000000000E+00  0.00000000000E+00  0.17304077535E+04  0.17304077535E+04  0.25500000920E-02 0. -1.
       -2   -1    0    0    0  501  0.00000000000E+00  0.00000000000E+00 -0.22034730244E+04  0.22034730244E+04  0.25500000920E-02 0.  1.
    10030    2    1    2    0    0  0.00000000000E+00  0.00000000000E+00 -0.47306527086E+03  0.39338807779E+04  0.39053331771E+04 0.  0.
        1    1    3    3  502    0  0.13044904081E+04 -0.11147335730E+04  0.70225676191E+03  0.18540471200E+04  0.50400001928E-02 0. -1.
       -1    1    3    3    0  502 -0.13044904081E+04  0.11147335730E+04 -0.11753220328E+04  0.20798336579E+04  0.50400001928E-02 0.  1.
</event>
<event>
 5   0  0.8676098E-08  0.3915149E+04  0.7818609E-02  0.8021886E-01
       -2   -1    0    0    0  501  0.00000000000E+00  0.00000000000E+00  0.20038690687E+04  0.20038690687E+04  0.25500000920E-02 0.  1.
        2   -1    0    0  501    0  0.00000000000E+00  0.00000000000E+00 -0.19123493855E+04  0.19123493855E+04  0.25500000920E-02 0. -1.
    10030    2    1    2    0    0  0.00000000000E+00  0.00000000000E+00  0.91519683272E+02  0.39162184542E+04  0.39151489280E+04 0.  0.
        3    1    3    3  502    0  0.16475601855E+04 -0.20086932699E+02 -0.10115245159E+04  0.19334011239E+04  0.10100000352E+00 0. -1.
       -3    1    3    3    0  502 -0.16475601855E+04  0.20086932699E+02  0.11030441992E+04  0.19828173302E+04  0.10100000352E+00 0.  1.
</event>
<event>
 5   0  0.8438211E-08  0.3880721E+04  0.7818609E-02  0.8029051E-01
        2   -1    0    0  501    0  0.00000000000E+00  0.00000000000E+00  0.16441233056E+04  0.16441233056E+04  0.25500000920E-02 0.  1.
       -2   -1    0    0    0  501  0.00000000000E+00  0.00000000000E+00 -0.22899733378E+04  0.22899733378E+04  0.25500000920E-02 0. -1.
    10030    2    1    2    0    0  0.00000000000E+00  0.00000000000E+00 -0.64585003221E+03  0.39340966434E+04  0.38807208268E+04 0.  0.
        5    1    3    3  502    0  0.17725358408E+04 -0.34261272195E+03  0.39798863231E+03  0.18486978730E+04  0.46999998093E+01 0.  1.
       -5    1    3    3    0  502 -0.17725358408E+04  0.34261272195E+03 -0.10438386645E+04  0.20853987704E+04  0.46999998093E+01 0. -1.
</event>
<event>
 5   0  0.2632875E-08  0.3898908E+04  0.7818609E-02  0.8025256E-01
       -1   -1    0    0    0  501  0.00000000000E+00  0.00000000000E+00  0.30598666653E+04  0.30598666653E+04  0.50400001928E-02 0.  1.
        1   -1    0    0  501    0  0.00000000000E+00  0.00000000000E+00 -0.12420051394E+04  0.12420051394E+04  0.50400001928E-02 0. -1.
    10030    2    1    2    0    0  0.00000000000E+00  0.00000000000E+00  0.18178615259E+04  0.43018718047E+04  0.38989076031E+04 0.  0.
        2    1    3    3  502    0 -0.52951855043E+02 -0.57567200168E+03 -0.11452531486E+04  0.12828900681E+04  0.25500000920E-02 0. -1.
       -2    1    3    3    0  502  0.52951855043E+02  0.57567200168E+03  0.29631146744E+04  0.30189817367E+04  0.25500000920E-02 0.  1.
</event>
<event>
 5   0  0.2632875E-08  0.3878733E+04  0.7818609E-02  0.8029467E-01
       -1   -1    0    0    0  501  0.00000000000E+00  0.00000000000E+00  0.16868687750E+04  0.16868687750E+04  0.50400001928E-02 0. -1.
        1   -1    0    0  501    0  0.00000000000E+00  0.00000000000E+00 -0.22296590250E+04  0.22296590250E+04  0.50400001928E-02 0.  1.
    10030    2    1    2    0    0  0.00000000000E+00  0.00000000000E+00 -0.54279025000E+03  0.39165278000E+04  0.38787328798E+04 0.  0.
        3    1    3    3  502    0  0.35619773974E+03  0.99266810293E+03 -0.19147906716E+04  0.21860215275E+04  0.10100000352E+00 0.  1.
       -3    1    3    3    0  502 -0.35619773974E+03 -0.99266810293E+03  0.13720004216E+04  0.17305062726E+04  0.10100000352E+00 0. -1.
</event>
<event>
 5   0  0.8551754E-08  0.3827582E+04  0.7818609E-02  0.8040262E-01
       -2   -1    0    0    0  501  0.00000000000E+00  0.00000000000E+00  0.14325743002E+04  0.14325743002E+04  0.25500000920E-02 0.  1.
        2   -1    0    0  501    0  0.00000000000E+00  0.00000000000E+00 -0.25566528632E+04  0.25566528632E+04  0.25500000920E-02 0. -1.
    10030    2    1    2    0    0  0.00000000000E+00  0.00000000000E+00 -0.11240785629E+04  0.39892271634E+04  0.38275815792E+04 0.  0.
        1    1    3    3  502    0  0.90573492840E+03 -0.13936793107E+04  0.42665224346E+03  0.17160215379E+04  0.50400001928E-02 0.  1.
       -1    1    3    3    0  502 -0.90573492840E+03  0.13936793107E+04 -0.15507308064E+04  0.22732056255E+04  0.50400001928E-02 0. -1.
</event>
<event>
 5   0  0.2632875E-08  0.3892091E+04  0.7818609E-02  0.8026676E-01
        1   -1    0    0  501    0  0.00000000000E+00  0.00000000000E+00  0.19108944669E+04  0.19108944670E+04  0.50400001928E-02 0. -1.
       -1   -1    0    0    0  501  0.00000000000E+00  0.00000000000E+00 -0.19818432349E+04  0.19818432349E+04  0.50400001928E-02 0.  1.
    10030    2    1    2    0    0  0.00000000000E+00  0.00000000000E+00 -0.70948767936E+02  0.38927377018E+04  0.38920910945E+04 0.  0.
        5    1    3    3  502    0  0.41599626579E+03  0.18963977487E+04 -0.16851478002E+03  0.19487936360E+04  0.46999998093E+01 0. -1.
       -5    1    3    3    0  502 -0.41599626579E+03 -0.18963977487E+04  0.97566012084E+02  0.19439440659E+04  0.46999998093E+01 0.  1.
</event>
<event>
 5   0  0.2632875E-08  0.3901125E+04  0.7818609E-02  0.8024795E-01
        1   -1    0    0  501    0  0.00000000000E+00  0.00000000000E+00  0.19745293204E+04  0.19745293204E+04  0.50400001928E-02 0.  1.
       -1   -1    0    0    0  501  0.00000000000E+00  0.00000000000E+00 -0.19268861420E+04  0.19268861420E+04  0.50400001928E-02 0. -1.
    10030    2    1    2    0    0  0.00000000000E+00  0.00000000000E+00  0.47643178427E+02  0.39014154624E+04  0.39011245478E+04 0.  0.
        2    1    3    3  502    0 -0.36031956642E+03  0.60400206880E+03 -0.17956668518E+04  0.19284885614E+04  0.25500000920E-02 0. -1.
       -2    1    3    3    0  502  0.36031956642E+03 -0.60400206880E+03  0.18433100302E+04  0.19729269010E+04  0.25500000920E-02 0.  1.
</event>
<event>
 5   0  0.2632875E-08  0.3946303E+04  0.7818609E-02  0.8015467E-01
        1   -1    0    0  501    0  0.00000000000E+00  0.00000000000E+00  0.27121835650E+04  0.27121835650E+04  0.50400001928E-02 0. -1.
       -1   -1    0    0    0  501  0.00000000000E+00  0.00000000000E+00 -0.14354950395E+04  0.14354950395E+04  0.50400001928E-02 0.  1.
    10030    2    1    2    0    0  0.00000000000E+00  0.00000000000E+00  0.12766885255E+04  0.41476786045E+04  0.39463026005E+04 0.  0.
        4    1    3    3  502    0  0.18947908680E+04 -0.16100464151E+03  0.11916783714E+04  0.22441599502E+04  0.12699999809E+01 0.  1.
       -4    1    3    3    0  502 -0.18947908680E+04  0.16100464151E+03  0.85010154063E+02  0.19035186543E+04  0.12699999809E+01 0. -1.
</event>
<event>
 5   0  0.8342802E-08  0.3896531E+04  0.7818609E-02  0.8025751E-01
       -2   -1    0    0    0  501  0.00000000000E+00  0.00000000000E+00  0.27247399982E+04  0.27247399982E+04  0.25500000920E-02 0. -1.
        2   -1    0    0  501    0  0.00000000000E+00  0.00000000000E+00 -0.13930642934E+04  0.13930642934E+04  0.25500000920E-02 0.  1.
    10030    2    1    2    0    0  0.00000000000E+00  0.00000000000E+00  0.13316757048E+04  0.41178042916E+04  0.38965307648E+04 0.  0.
        4    1    3    3  502    0 -0.15485675883E+04  0.55279424868E+03 -0.43853944370E+03  0.17017524830E+04  0.12699999809E+01 0.  1.
       -4    1    3    3    0  502  0.15485675883E+04 -0.55279424868E+03  0.17702151485E+04  0.24160518086E+04  0.12699999809E+01 0. -1.
</event>
<event>
 5   0  0.2632875E-08  0.3920210E+04  0.7818609E-02  0.8020839E-01
       -1   -1    0    0    0  501  0.00000000000E+00  0.00000000000E+00  0.13747759215E+04  0.13747759215E+04  0.50400001928E-02 0. -1.
        1   -1    0    0  501    0  0.00000000000E+00  0.00000000000E+00 -0.27946452631E+04  0.27946452631E+04  0.50400001928E-02 0.  1.
    10030    2    1    2    0    0  0.00000000000E+00  0.00000000000E+00 -0.14198693416E+04  0.41694211846E+04  0.39202096969E+04 0.  0.
        5    1    3    3  502    0  0.14380439562E+04 -0.13301619007E+04 -0.78275492071E+03  0.21095090561E+04  0.46999998093E+01 0. -1.
       -5    1    3    3    0  502 -0.14380439562E+04  0.13301619007E+04 -0.63711442088E+03  0.20599121285E+04  0.46999998093E+01 0.  1.
</event>
<event>
 5   0  0.2632875E-08  0.3895686E+04  0.7818609E-02  0.8025927E-01
        1   -1    0    0  501    0  0.00000000000E+00  0.00000000000E+00  0.13478707360E+04  0.13478707361E+04  0.50400001928E-02 0. -1.
       -1   -1    0    0    0  501  0.00000000000E+00  0.00000000000E+00 -0.28148783485E+04  0.28148783485E+04  0.50400001928E-02 0.  1.
    10030    2    1    2    0    0  0.00000000000E+00  0.00000000000E+00 -0.14670076124E+04  0.41627490846E+04  0.38956858967E+04 0.  0.
        5    1    3    3  502    0  0.15336448767E+04  0.32381637658E+03  0.50211861953E+03  0.16459249228E+04  0.46999998093E+01 0. -1.
       -5    1    3    3    0  502 -0.15336448767E+04 -0.32381637658E+03 -0.19691262320E+04  0.25168241617E+04  0.46999998093E+01 0.  1.
</event>
<event>
 5   0  0.8438211E-08  0.3869442E+04  0.7818609E-02  0.8031415E-01
       -2   -1    0    0    0  501  0.00000000000E+00  0.00000000000E+00  0.18613536907E+04  0.18613536907E+04  0.25500000920E-02 0. -1.
        2   -1    0    0  501    0  0.00000000000E+00  0.00000000000E+00 -0.20109801557E+04  0.20109801557E+04  0.25500000920E-02 0.  1.
    10030    2    1    2    0    0  0.00000000000E+00  0.00000000000E+00 -0.14962646497E+03  0.38723338464E+04  0.38694419933E+04 0.  0.
        5    1    3    3  502    0 -0.19093783846E+04 -0.27716029487E+03  0.68749897322E+02  0.19306196630E+04  0.46999998093E+01 0.  1.
       -5    1    3    3    0  502  0.19093783846E+04  0.27716029487E+03 -0.21837636229E+03  0.19417141835E+04  0.46999998093E+01 0. -1.
</event>
<event>
 5   0  0.8551754E-08  0.3898327E+04  0.7818609E-02  0.8025377E-01
       -2   -1    0    0    0  501  0.00000000000E+00  0.00000000000E+00  0.18836404675E+04  0.18836404675E+04  0.25500000920E-02 0. -1.
        2   -1    0    0  501    0  0.00000000000E+00  0.00000000000E+00 -0.20169659508E+04  0.20169659508E+04  0.25500000920E-02 0.  1.
    10030    2    1    2    0    0  0.00000000000E+00  0.00000000000E+00 -0.13332548330E+03  0.39006064183E+04  0.38983271728E+04 0.  0.
        1    1    3    3  502    0 -0.36769717518E+03  0.32426644128E+03 -0.19542674502E+04  0.20148228717E+04  0.50400001928E-02 0.  1.
       -1    1    3    3    0  502  0.36769717518E+03 -0.32426644128E+03  0.18209419669E+04  0.18857835465E+04  0.50400001928E-02 0. -1.
</event>
<event>
 5   0  0.2632875E-08  0.3891122E+04  0.7818609E-02  0.8026878E-01
       -1   -1    0    0    0  501  0.00000000000E+00  0.00000000000E+00  0.25675988605E+04  0.25675988605E+04  0.50400001928E-02 0. -1.
        1   -1    0    0  501    0  0.00000000000E+00  0.00000000000E+00 -0.14742204310E+04  0.14742204310E+04  0.50400001928E-02 0.  1.
    10030    2    1    2    0    0  0.00000000000E+00  0.00000000000E+00  0.10933784295E+04  0.40418192916E+04  0.38911215344E+04 0.  0.
        2    1    3    3  502    0  0.45570174623E+03  0.91113932231E+03  0.22684011694E+04  0.24866609764E+04  0.25500000920E-02 0. -1.
       -2    1    3    3    0  502 -0.45570174623E+03 -0.91113932231E+03 -0.11750227398E+04  0.15551583152E+04  0.25500000920E-02 0.  1.
</event>
<event>
 5   0  0.2632875E-08  0.3888864E+04  0.7818609E-02  0.8027349E-01
        1   -1    0    0  501    0  0.00000000000E+00  0.00000000000E+00  0.16605355185E+04  0.16605355185E+04  0.50400001928E-02 0. -1.
       -1   -1    0    0    0  501  0.00000000000E+00  0.00000000000E+00 -0.22768658471E+04  0.22768658471E+04  0.50400001928E-02 0.  1.
    10030    2    1    2    0    0  0.00000000000E+00  0.00000000000E+00 -0.61633032855E+03  0.39374013656E+04  0.38888644152E+04 0.  0.
        2    1    3    3  502    0  0.31907262116E+03 -0.18041706015E+04  0.35109737634E+03  0.18655048283E+04  0.25500000920E-02 0. -1.
       -2    1    3    3    0  502 -0.31907262116E+03  0.18041706015E+04 -0.96742770489E+03  0.20718965373E+04  0.25500000920E-02 0.  1.
</event>
<event>
 5   0  0.8551754E-08  0.3898311E+04  0.7818609E-02  0.8025381E-01
       -2   -1    0    0    0  501  0.00000000000E+00  0.00000000000E+00  0.15474874450E+04  0.15474874450E+04  0.25500000920E-02 0.  1.
        2   -1    0    0  501    0  0.00000000000E+00  0.00000000000E+00 -0.24550805554E+04  0.24550805554E+04  0.25500000920E-02 0. -1.
    10030    2    1    2    0    0  0.00000000000E+00  0.00000000000E+00 -0.90759311043E+03  0.40025680004E+04  0.38983105756E+04 0.  0.
        1    1    3    3  502    0 -0.86737301669E+03 -0.46519370047E+03 -0.21811897060E+04  0.23929750651E+04  0.50400001928E-02 0. -1.
       -1    1    3    3    0  502  0.86737301669E+03  0.46519370047E+03  0.12735965955E+04  0.16095929352E+04  0.50400001928E-02 0.  1.
</event>
<event>
 5   0  0.8551754E-08  0.3898153E+04  0.7818609E-02  0.8025413E-01
        2   -1    0    0  501    0  0.00000000000E+00  0.00000000000E+00  0.28984661448E+04  0.28984661448E+04  0.25500000920E-02 0. -1.
       -2   -1    0    0    0  501  0.00000000000E+00  0.00000000000E+00 -0.13106587490E+04  0.13106587490E+04  0.25500000920E-02 0.  1.
    10030    2    1    2    0    0  0.00000000000E+00  0.00000000000E+00  0.15878073958E+04  0.42091248939E+04  0.38981534149E+04 0.  0.
        1    1    3    3  502    0 -0.12269768545E+04 -0.76071006371E+02 -0.83924911107E+03  0.14884885185E+04  0.50400001928E-02 0.  1.
       -1    1    3    3    0  502  0.12269768545E+04  0.76071006371E+02  0.24270565069E+04  0.27206363753E+04  0.50400001928E-02 0. -1.
</event>
<event>
 5   0  0.8676098E-08  0.3891929E+04  0.7818609E-02  0.8026710E-01
       -2   -1    0    0    0  501  0.00000000000E+00  0.00000000000E+00  0.21471903282E+04  0.21471903283E+04  0.25500000920E-02 0. -1.
        2   -1    0    0  501    0  0.00000000000E+00  0.00000000000E+00 -0.17635970672E+04  0.17635970672E+04  0.25500000920E-02 0.  1.
    10030    2    1    2    0    0  0.00000000000E+00  0.00000000000E+00  0.38359326101E+03  0.39107873955E+04  0.38919293754E+04 0.  0.
        3    1    3    3  502    0  0.37632029466E+03 -0.15793730216E+04  0.12697210809E+04  0.20611229316E+04  0.10100000352E+00 0. -1.
       -3    1    3    3    0  502 -0.37632029466E+03  0.15793730216E+04 -0.88612781993E+03  0.18496644639E+04  0.10100000352E+00 0.  1.
</event>
<event>
 5   0  0.2632875E-08  0.3902002E+04  0.7818609E-02  0.8024613E-01
       -1   -1    0    0    0  501  0.00000000000E+00  0.00000000000E+00  0.28882716496E+04  0.28882716496E+04  0.50400001928E-02 0.  1.
        1   -1    0    0  501    0  0.00000000000E+00  0.00000000000E+00 -0.13178830259E+04  0.13178830259E+04  0.50400001928E-02 0. -1.
    10030    2    1    2    0    0  0.00000000000E+00  0.00000000000E+00  0.15703886238E+04  0.42061546755E+04  0.39020016305E+04 0.  0.
        4    1    3    3  502    0  0.15322471850E+04 -0.10338437190E+04  0.11219876499E+03  0.18518111262E+04  0.12699999809E+01 0. -1.
       -4    1    3    3    0  502 -0.15322471850E+04  0.10338437190E+04  0.14581898588E+04  0.23543435494E+04  0.12699999809E+01 0.  1.
</event>
<event>
 5   0  0.2632875E-08  0.3907288E+04  0.7818609E-02  0.8023515E-01
       -1   -1    0    0    0  501  0.00000000000E+00  0.00000000000E+00  0.22797858940E+04  0.22797858940E+04  0.50400001928E-02 0.  1.
        1   -1    0    0  501    0  0.00000000000E+00  0.00000000000E+00 -0.16741596599E+04  0.16741596599E+04  0.50400001928E-02 0. -1.
    10030    2    1    2    0    0  0.00000000000E+00  0.00000000000E+00  0.60562623406E+03  0.39539455539E+04  0.39072883574E+04 0.  0.
        4    1    3    3  502    0  0.19331568017E+04  0.53899012699E+02  0.22515231141E+02  0.19340395219E+04  0.12699999809E+01 0. -1.
       -4    1    3    3    0  502 -0.19331568017E+04 -0.53899012699E+02  0.58311100292E+03  0.20199060320E+04  0.12699999809E+01 0.  1.
</event>
<event>
 5   0  0.2632875E-08  0.3946597E+04  0.7818609E-02  0.8015407E-01
        1   -1    0    0  501    0  0.00000000000E+00  0.00000000000E+00  0.26955584538E+04  0.26955584538E+04  0.50400001928E-02 0. -1.
       -1   -1    0    0    0  501  0.00000000000E+00  0.00000000000E+00 -0.14445638879E+04  0.14445638879E+04  0.50400001928E-02 0.  1.
    10030    2    1    2    0    0  0.00000000000E+00  0.00000000000E+00  0.12509945659E+04  0.41401223417E+04  0.39465967112E+04 0.  0.
        3    1    3    3  502    0 -0.27498280808E+03  0.12565987621E+04  0.21952879946E+04  0.25443948953E+04  0.10100000352E+00 0. -1.
       -3    1    3    3    0  502  0.27498280808E+03 -0.12565987621E+04 -0.94429342869E+03  0.15957274465E+04  0.10100000352E+00 0.  1.
</event>
<event>
 5   0  0.8438211E-08  0.3899390E+04  0.7818609E-02  0.8025156E-01
        2   -1    0    0  501    0  0.00000000000E+00  0.00000000000E+00  0.29880470287E+04  0.29880470287E+04  0.25500000920E-02 0. -1.
       -2   -1    0    0    0  501  0.00000000000E+00  0.00000000000E+00 -0.12721722519E+04  0.12721722519E+04  0.25500000920E-02 0.  1.
    10030    2    1    2    0    0  0.00000000000E+00  0.00000000000E+00  0.17158747767E+04  0.42602192806E+04  0.38993899612E+04 0.  0.
        5    1    3    3  502    0  0.16284903745E+04 -0.10720541731E+04  0.86090488444E+03  0.21313048491E+04  0.46999998093E+01 0. -1.
       -5    1    3    3    0  502 -0.16284903745E+04  0.10720541731E+04  0.85496989228E+03  0.21289144315E+04  0.46999998093E+01 0.  1.
</event>
<event>
 5   0  0.2632875E-08  0.3924117E+04  0.7818609E-02  0.8020032E-01
        1   -1    0    0  501    0  0.00000000000E+00  0.00000000000E+00  0.27462430578E+04  0.27462430578E+04  0.50400001928E-02 0.  1.
       -1   -1    0    0    0  501  0.00000000000E+00  0.00000000000E+00 -0.14017964827E+04  0.14017964827E+04  0.50400001928E-02 0. -1.
    10030    2    1    2    0    0  0.00000000000E+00  0.00000000000E+00  0.13444465751E+04  0.41480395405E+04  0.39241171537E+04 0.  0.
        3    1    3    3  502    0  0.12174463865E+04 -0.15354092032E+04  0.56642862322E+03  0.20397300117E+04  0.10100000352E+00 0.  1.
       -3    1    3    3    0  502 -0.12174463865E+04  0.15354092032E+04  0.77801795192E+03  0.21083095288E+04  0.10100000352E+00 0. -1.
</event>
<event>
 5   0  0.8438211E-08  0.3904296E+04  0.7818609E-02  0.8024136E-01
       -2   -1    0    0    0  501  0.00000000000E+00  0.00000000000E+00  0.23256379144E+04  0.23256379144E+04  0.25500000920E-02 0. -1.
        2   -1    0    0  501    0  0.00000000000E+00  0.00000000000E+00 -0.16386397599E+04  0.16386397599E+04  0.25500000920E-02 0.  1.
    10030    2    1    2    0    0  0.00000000000E+00  0.00000000000E+00  0.68699815453E+03  0.39642776744E+04  0.39042964815E+04 0.  0.
        5    1    3    3  502    0  0.21875740687E+03 -0.14079554517E+04 -0.10114178540E+04  0.17473355495E+04  0.46999998093E+01 0.  1.
       -5    1    3    3    0  502 -0.21875740687E+03  0.14079554517E+04  0.16984160085E+04  0.22169421249E+04  0.46999998093E+01 0. -1.
</event>
<event>
 5   0  0.8551754E-08  0.3903761E+04  0.7818609E-02  0.8024247E-01
        2   -1    0    0  501    0  0.00000000000E+00  0.00000000000E+00  0.17579774260E+04  0.17579774261E+04  0.25500000920E-02 0. -1.
       -2   -1    0    0    0  501  0.00000000000E+00  0.00000000000E+00 -0.21671709554E+04  0.21671709554E+04  0.25500000920E-02 0.  1.
    10030    2    1    2    0    0  0.00000000000E+00  0.00000000000E+00 -0.40919352931E+03  0.39251483814E+04  0.39037610674E+04 0.  0.
        1    1    3    3  502    0  0.77543967950E+03  0.51437269388E+03  0.15205982211E+04  0.17827240153E+04  0.50400001928E-02 0. -1.
       -1    1    3    3    0  502 -0.77543967950E+03 -0.51437269388E+03 -0.19297917504E+04  0.21424243661E+04  0.50400001928E-02 0.  1.
</event>
<event>
 5   0  0.8342802E-08  0.3906214E+04  0.7818609E-02  0.8023738E-01
        2   -1    0    0  501    0  0.00000000000E+00  0.00000000000E+00  0.29689746465E+04  0.29689746465E+04  0.25500000920E-02 0. -1.
       -2   -1    0    0    0  501  0.00000000000E+00  0.00000000000E+00 -0.12848296813E+04  0.12848296813E+04  0.25500000920E-02 0.  1.
    10030    2    1    2    0    0  0.00000000000E+00  0.00000000000E+00  0.16841449652E+04  0.42538043277E+04  0.39062138952E+04 0.  0.
        4    1    3    3  502    0  0.11858871528E+04  0.15405940471E+04  0.63873033750E+03  0.20463959573E+04  0.12699999809E+01 0.  1.
       -4    1    3    3    0  502 -0.11858871528E+04 -0.15405940471E+04  0.10454146277E+04  0.22074083704E+04  0.12699999809E+01 0. -1.
</event>
<event>
 5   0  0.8438211E-08  0.3899116E+04  0.7818609E-02  0.8025213E-01
       -2   -1    0    0    0  501  0.00000000000E+00  0.00000000000E+00  0.15336292594E+04  0.15336292594E+04  0.25500000920E-02 0. -1.
        2   -1    0    0  501    0  0.00000000000E+00  0.00000000000E+00 -0.24782887726E+04  0.24782887726E+04  0.25500000920E-02 0.  1.
    10030    2    1    2    0    0  0.00000000000E+00  0.00000000000E+00 -0.94465951316E+03  0.40119180320E+04  0.38991158869E+04 0.  0.
        5    1    3    3  502    0  0.42105477070E+03  0.17136007750E+04 -0.13251877294E+04  0.22067757802E+04  0.46999998093E+01 0.  1.
       -5    1    3    3    0  502 -0.42105477070E+03 -0.17136007750E+04  0.38052821626E+03  0.18051422518E+04  0.46999998093E+01 0. -1.
</event>
<event>
 5   0  0.2632875E-08  0.3893363E+04  0.7818609E-02  0.8026411E-01
       -1   -1    0    0    0  501  0.00000000000E+00  0.00000000000E+00  0.19151895089E+04  0.19151895089E+04  0.50400001928E-02 0. -1.
        1   -1    0    0  501    0  0.00000000000E+00  0.00000000000E+00 -0.19786915391E+04  0.19786915391E+04  0.50400001928E-02 0.  1.
    10030    2    1    2    0    0  0.00000000000E+00  0.00000000000E+00 -0.63502030181E+02  0.38938810480E+04  0.38933632130E+04 0.  0.
        4    1    3    3  502    0 -0.18873347636E+04  0.27372060226E+03  0.35895704112E+03  0.19405687950E+04  0.12699999809E+01 0. -1.
       -4    1    3    3    0  502  0.18873347636E+04 -0.27372060226E+03 -0.42245907130E+03  0.19533122530E+04  0.12699999809E+01 0.  1.
</event>
<event>
 5   0  0.8551754E-08  0.3917758E+04  0.7818609E-02  0.8021346E-01
        2   -1    0    0  501    0  0.00000000000E+00  0.00000000000E+00  0.20840560560E+04  0.20840560560E+04  0.25500000920E-02 0. -1.
       -2   -1    0    0    0  501  0.00000000000E+00  0.00000000000E+00 -0.18412205514E+04  0.18412205514E+04  0.25500000920E-02 0.  1.
    10030    2    1    2    0    0  0.00000000000E+00  0.00000000000E+00  0.24283550461E+03  0.39252766075E+04  0.39177579510E+04 0.  0.
        1    1    3    3  502    0 -0.17536026504E+04 -0.33625765554E+03  0.92857873018E+03  0.20125729613E+04  0.50400001928E-02 0. -1.
       -1    1    3    3    0  502  0.17536026504E+04  0.33625765554E+03 -0.68574322557E+03  0.19127036461E+04  0.50400001928E-02 0.  1.
</event>
<event>
 5   0  0.2632875E-08  0.3885232E+04  0.7818609E-02  0.8028108E-01
        1   -1    0    0  501    0  0.00000000000E+00  0.00000000000E+00  0.16389868404E+04  0.16389868404E+04  0.50400001928E-02 0. -1.
       -1   -1    0    0    0  501  0.00000000000E+00  0.00000000000E+00 -0.23024932490E+04  0.23024932490E+04  0.50400001928E-02 0.  1.
    10030    2    1    2    0    0  0.00000000000E+00  0.00000000000E+00 -0.66350640862E+03  0.39414800894E+04  0.38852315942E+04 0.  0.
        1    1    3    3  502    0  0.45516526861E+03 -0.11968167812E+04 -0.18137969798E+04  0.22202264104E+04  0.50400001928E-02 0.  1.
       -1    1    3    3    0  502 -0.45516526861E+03  0.11968167812E+04  0.11502905711E+04  0.17212536790E+04  0.50400001928E-02 0. -1.
</event>
<event>
 5   0  0.2632875E-08  0.3886775E+04  0.7818609E-02  0.8027785E-01
        1   -1    0    0  501    0  0.00000000000E+00  0.00000000000E+00  0.29488875629E+04  0.29488875629E+04  0.50400001928E-02 0. -1.
       -1   -1    0    0    0  501  0.00000000000E+00  0.00000000000E+00 -0.12807390531E+04  0.12807390531E+04  0.50400001928E-02 0.  1.
    10030    2    1    2    0    0  0.00000000000E+00  0.00000000000E+00  0.16681485098E+04  0.42296266160E+04  0.38867752521E+04 0.  0.
        2    1    3    3  502    0 -0.78554089651E+03 -0.17102704871E+04  0.13612170465E+04  0.23227164025E+04  0.25500000920E-02 0. -1.
       -2    1    3    3    0  502  0.78554089651E+03  0.17102704871E+04  0.30693146328E+03  0.19069102135E+04  0.25500000920E-02 0.  1.
</event>
<event>
 5   0  0.2632875E-08  0.3880049E+04  0.7818609E-02  0.8029191E-01
       -1   -1    0    0    0  501  0.00000000000E+00  0.00000000000E+00  0.19385529785E+04  0.19385529785E+04  0.50400001928E-02 0.  1.
        1   -1    0    0  501    0  0.00000000000E+00  0.00000000000E+00 -0.19414972697E+04  0.19414972697E+04  0.50400001928E-02 0. -1.
    10030    2    1    2    0    0  0.00000000000E+00  0.00000000000E+00 -0.29442911579E+01  0.38800502482E+04  0.38800491311E+04 0.  0.
        2    1    3    3  502    0 -0.15927895168E+04  0.21238358532E+03  0.10855470645E+04  0.19392002634E+04  0.25500000920E-02 0.  1.
       -2    1    3    3    0  502  0.15927895168E+04 -0.21238358532E+03 -0.10884913556E+04  0.19408499848E+04  0.25500000920E-02 0. -1.
</event>
<event>
 5   0  0.2632875E-08  0.3897644E+04  0.7818609E-02  0.8025519E-01
        1   -1    0    0  501    0  0.00000000000E+00  0.00000000000E+00  0.23565598063E+04  0.23565598063E+04  0.50400001928E-02 0. -1.
       -1   -1    0    0    0  501  0.00000000000E+00  0.00000000000E+00 -0.16116320640E+04  0.16116320640E+04  0.50400001928E-02 0.  1.
    10030    2    1    2    0    0  0.00000000000E+00  0.00000000000E+00  0.74492774230E+03  0.39681918703E+04  0.38976440805E+04 0.  0.
        1    1    3    3  502    0  0.29316898179E+03  0.65883710803E+03 -0.14708015175E+04  0.16380694401E+04  0.50400001928E-02 0.  1.
       -1    1    3    3    0  502 -0.29316898179E+03 -0.65883710803E+03  0.22157292598E+04  0.23301224302E+04  0.50400001928E-02 0. -1.
</event>
<event>
 5   0  0.2632875E-08  0.3909022E+04  0.7818609E-02  0.8023155E-01
       -1   -1    0    0    0  501  0.00000000000E+00  0.00000000000E+00  0.14442196150E+04  0.14442196150E+04  0.50400001928E-02 0. -1.
        1   -1    0    0  501    0  0.00000000000E+00  0.00000000000E+00 -0.26451060690E+04  0.26451060690E+04  0.50400001928E-02 0.  1.
    10030    2    1    2    0    0  0.00000000000E+00  0.00000000000E+00 -0.12008864540E+04  0.40893256841E+04  0.39090224193E+04 0.  0.
        4    1    3    3  502    0  0.18973072865E+04 -0.25804048788E+03 -0.10106424242E+04  0.21651234503E+04  0.12699999809E+01 0.  1.
       -4    1    3    3    0  502 -0.18973072865E+04  0.25804048788E+03 -0.19024402983E+03  0.19242022338E+04  0.12699999809E+01 0. -1.
</event>
<event>
 5   0  0.8342802E-08  0.3834180E+04  0.7818609E-02  0.8038859E-01
        2   -1    0    0  501    0  0.00000000000E+00  0.00000000000E+00  0.17404045234E+04  0.17404045234E+04  0.25500000920E-02 0. -1.
       -2   -1    0    0    0  501  0.00000000000E+00  0.00000000000E+00 -0.21117129526E+04  0.21117129526E+04  0.25500000920E-02 0.  1.
    10030    2    1    2    0    0  0.00000000000E+00  0.00000000000E+00 -0.37130842913E+03  0.38521174760E+04  0.38341803687E+04 0.  0.
        4    1    3    3  502    0  0.11034543793E+04  0.25068601606E+03 -0.17404008451E+04  0.20759219062E+04  0.12699999809E+01 0.  1.
       -4    1    3    3    0  502 -0.11034543793E+04 -0.25068601606E+03  0.13690924160E+04  0.17761955698E+04  0.12699999809E+01 0. -1.
</event>
<event>
 5   0  0.8342802E-08  0.3687047E+04  0.7818609E-02  0.8070838E-01
        2   -1    0    0  501    0  0.00000000000E+00  0.00000000000E+00  0.27253456887E+04  0.27253456887E+04  0.25500000920E-02 0.  1.
       -2   -1    0    0    0  501  0.00000000000E+00  0.00000000000E+00 -0.12470269331E+04  0.12470269331E+04  0.25500000920E-02 0. -1.
    10030    2    1    2    0    0  0.00000000000E+00  0.00000000000E+00  0.14783187555E+04  0.39723726218E+04  0.36870473151E+04 0.  0.
        4    1    3    3  502    0  0.10231364577E+04  0.15049773962E+04  0.42171848375E+03  0.18680506595E+04  0.12699999809E+01 0. -1.
       -4    1    3    3    0  502 -0.10231364577E+04 -0.15049773962E+04  0.10566002718E+04  0.21043219623E+04  0.12699999809E+01 0.  1.
</event>
<event>
 5   0  0.2632875E-08  0.3899168E+04  0.7818609E-02  0.8025202E-01
        1   -1    0    0  501    0  0.00000000000E+00  0.00000000000E+00  0.24486190737E+04  0.24486190737E+04  0.50400001928E-02 0.  1.
       -1   -1    0    0    0  501  0.00000000000E+00  0.00000000000E+00 -0.15522533568E+04  0.15522533568E+04  0.50400001928E-02 0. -1.
    10030    2    1    2    0    0  0.00000000000E+00  0.00000000000E+00  0.89636571685E+03  0.40008724305E+04  0.38991676941E+04 0.  0.
        5    1    3    3  502    0 -0.12522509462E+04 -0.11331104133E+04  0.14476449803E+04  0.22243582715E+04  0.46999998093E+01 0.  1.
       -5    1    3    3    0  502  0.12522509462E+04  0.11331104133E+04 -0.55127926345E+03  0.17765141590E+04  0.46999998093E+01 0. -1.
</event>
<event>
 5   0  0.8476262E-08  0.3905648E+04  0.7818609E-02  0.8023856E-01
        2   -1    0    0  501    0  0.00000000000E+00  0.00000000000E+00  0.16746119077E+04  0.16746119077E+04  0.25500000920E-02 0.  1.
       -2   -1    0    0    0  501  0.00000000000E+00  0.00000000000E+00 -0.22772567244E+04  0.22772567244E+04  0.25500000920E-02 0. -1.
    10030    2    1    2    0    0  0.00000000000E+00  0.00000000000E+00 -0.60264481676E+03  0.39518686321E+04  0.39056478221E+04 0.  0.
        2    1    3    3  502    0 -0.39849444382E+03 -0.22144223338E+03 -0.22226588330E+04  0.22689307553E+04  0.25500000920E-02 0. -1.
       -2    1    3    3    0  502  0.39849444382E+03  0.22144223338E+03  0.16200140162E+04  0.16829378768E+04  0.25500000920E-02 0.  1.
</event>
<event>
 5   0  0.2632875E-08  0.3907282E+04  0.7818609E-02  0.8023516E-01
        3   -1    0    0  501    0  0.00000000000E+00  0.00000000000E+00  0.18117706202E+04  0.18117706230E+04  0.10100000352E+00 0.  1.
       -3   -1    0    0    0  501  0.00000000000E+00  0.00000000000E+00 -0.21066202495E+04  0.21066202520E+04  0.10100000352E+00 0. -1.
    10030    2    1    2    0    0  0.00000000000E+00  0.00000000000E+00 -0.29484962935E+03  0.39183908749E+04  0.39072817591E+04 0.  0.
        5    1    3    3  502    0 -0.68877117107E+03  0.16818540926E+04 -0.86615748033E+03  0.20132783676E+04  0.46999998093E+01 0. -1.
       -5    1    3    3    0  502  0.68877117107E+03 -0.16818540926E+04  0.57130785098E+03  0.19051125073E+04  0.46999998093E+01 0.  1.
</event>
<event>
 5   0  0.8551754E-08  0.3903864E+04  0.7818609E-02  0.8024226E-01
        2   -1    0    0  501    0  0.00000000000E+00  0.00000000000E+00  0.12792893922E+04  0.12792893922E+04  0.25500000920E-02 0. -1.
       -2   -1    0    0    0  501  0.00000000000E+00  0.00000000000E+00 -0.29782453803E+04  0.29782453803E+04  0.25500000920E-02 0.  1.
    10030    2    1    2    0    0  0.00000000000E+00  0.00000000000E+00 -0.16989559881E+04  0.42575347725E+04  0.39038635849E+04 0.  0.
        1    1    3    3  502    0 -0.53091660980E+02 -0.23625295895E+03  0.12628456583E+04  0.12858512129E+04  0.50400001928E-02 0. -1.
       -1    1    3    3    0  502  0.53091660980E+02  0.23625295895E+03 -0.29618016464E+04  0.29716835595E+04  0.50400001928E-02 0.  1.
</event>
<event>
 5   0  0.8342802E-08  0.3961427E+04  0.7818609E-02  0.8012373E-01
       -2   -1    0    0    0  501  0.00000000000E+00  0.00000000000E+00  0.19441312737E+04  0.19441312737E+04  0.25500000920E-02 0. -1.
        2   -1    0    0  501    0  0.00000000000E+00  0.00000000000E+00 -0.20179845751E+04  0.20179845751E+04  0.25500000920E-02 0.  1.
    10030    2    1    2    0    0  0.00000000000E+00  0.00000000000E+00 -0.73853301362E+02  0.39621158488E+04  0.39614274812E+04 0.  0.
        4    1    3    3  502    0  0.14076119295E+04  0.81170299237E+03  0.10959626383E+04  0.19599410219E+04  0.12699999809E+01 0. -1.
       -4    1    3    3    0  502 -0.14076119295E+04 -0.81170299237E+03 -0.11698159397E+04  0.20021748269E+04  0.12699999809E+01 0.  1.
</event>
<event>
 5   0  0.2632875E-08  0.3892668E+04  0.7818609E-02  0.8026556E-01
       -1   -1    0    0    0  501  0.00000000000E+00  0.00000000000E+00  0.32834284749E+04  0.32834284749E+04  0.50400001928E-02 0.  1.
        1   -1    0    0  501    0  0.00000000000E+00  0.00000000000E+00 -0.11537380901E+04  0.11537380901E+04  0.50400001928E-02 0. -1.
    10030    2    1    2    0    0  0.00000000000E+00  0.00000000000E+00  0.21296903848E+04  0.44371665651E+04  0.38926682354E+04 0.  0.
        5    1    3    3  502    0  0.85530709736E+03  0.50963313881E+03  0.29711758237E+04  0.31335577277E+04  0.46999998093E+01 0.  1.
       -5    1    3    3    0  502 -0.85530709736E+03 -0.50963313881E+03 -0.84148543896E+03  0.13036088374E+04  0.46999998093E+01 0. -1.
</event>
<event>
 5   0  0.8342802E-08  0.3947365E+04  0.7818609E-02  0.8015250E-01
       -2   -1    0    0    0  501  0.00000000000E+00  0.00000000000E+00  0.17965521651E+04  0.17965521651E+04  0.25500000920E-02 0.  1.
        2   -1    0    0  501    0  0.00000000000E+00  0.00000000000E+00 -0.21682769501E+04  0.21682769501E+04  0.25500000920E-02 0. -1.
    10030    2    1    2    0    0  0.00000000000E+00  0.00000000000E+00 -0.37172478500E+03  0.39648291153E+04  0.39473650195E+04 0.  0.
        4    1    3    3  502    0 -0.11164693107E+03  0.67073040824E+03 -0.20469162439E+04  0.21568987088E+04  0.12699999809E+01 0. -1.
       -4    1    3    3    0  502  0.11164693107E+03 -0.67073040824E+03  0.16751914589E+04  0.18079304064E+04  0.12699999809E+01 0.  1.
</event>
<event>
 5   0  0.8438211E-08  0.3901368E+04  0.7818609E-02  0.8024745E-01
        2   -1    0    0  501    0  0.00000000000E+00  0.00000000000E+00  0.30245949211E+04  0.30245949211E+04  0.25500000920E-02 0.  1.
       -2   -1    0    0    0  501  0.00000000000E+00  0.00000000000E+00 -0.12580752699E+04  0.12580752699E+04  0.25500000920E-02 0. -1.
    10030    2    1    2    0    0  0.00000000000E+00  0.00000000000E+00  0.17665196511E+04  0.42826701910E+04  0.39013680020E+04 0.  0.
        5    1    3    3  502    0  0.23852479456E+03  0.77468585848E+03 -0.10644440091E+04  0.13379444665E+04  0.46999998093E+01 0. -1.
       -5    1    3    3    0  502 -0.23852479456E+03 -0.77468585848E+03  0.28309636602E+04  0.29447257245E+04  0.46999998093E+01 0.  1.
</event>
<event>
 5   0  0.8551754E-08  0.3900390E+04  0.7818609E-02  0.8024948E-01
        2   -1    0    0  501    0  0.00000000000E+00  0.00000000000E+00  0.21471093163E+04  0.21471093163E+04  0.25500000920E-02 0.  1.
       -2   -1    0    0    0  501  0.00000000000E+00  0.00000000000E+00 -0.17713401035E+04  0.17713401035E+04  0.25500000920E-02 0. -1.
    10030    2    1    2    0    0  0.00000000000E+00  0.00000000000E+00  0.37576921279E+03  0.39184494199E+04  0.39003901542E+04 0.  0.
        1    1    3    3  502    0  0.11240977410E+04  0.13129338855E+04 -0.71955263993E+03  0.18722038139E+04  0.50400001928E-02 0. -1.
       -1    1    3    3    0  502 -0.11240977410E+04 -0.13129338855E+04  0.10953218527E+04  0.20462456060E+04  0.50400001928E-02 0.  1.
</event>
<event>
 5   0  0.2632875E-08  0.3888380E+04  0.7818609E-02  0.8027450E-01
        1   -1    0    0  501    0  0.00000000000E+00  0.00000000000E+00  0.23871024204E+04  0.23871024204E+04  0.50400001928E-02 0. -1.
       -1   -1    0    0    0  501  0.00000000000E+00  0.00000000000E+00 -0.15834576011E+04  0.15834576012E+04  0.50400001928E-02 0.  1.
    10030    2    1    2    0    0  0.00000000000E+00  0.00000000000E+00  0.80364481929E+03  0.39705600216E+04  0.38883803684E+04 0.  0.
        4    1    3    3  502    0  0.12138468424E+04  0.13173573569E+04 -0.36980636807E+03  0.18291016717E+04  0.12699999809E+01 0.  1.
       -4    1    3    3    0  502 -0.12138468424E+04 -0.13173573569E+04  0.11734511874E+04  0.21414583499E+04  0.12699999809E+01 0. -1.
</event>
<event>
 5   0  0.8551754E-08  0.3899511E+04  0.7818609E-02  0.8025131E-01
        2   -1    0    0  501    0  0.00000000000E+00  0.00000000000E+00  0.23975482183E+04  0.23975482183E+04  0.25500000920E-02 0.  1.
       -2   -1    0    0    0  501  0.00000000000E+00  0.00000000000E+00 -0.15855973481E+04  0.15855973481E+04  0.25500000920E-02 0. -1.
    10030    2    1    2    0    0  0.00000000000E+00  0.00000000000E+00  0.81195087021E+03  0.39831455664E+04  0.38995107882E+04 0.  0.
        1    1    3    3  502    0  0.14892136704E+04 -0.11763916479E+04 -0.50705772801E+02  0.18984798500E+04  0.50400001928E-02 0. -1.
       -1    1    3    3    0  502 -0.14892136704E+04  0.11763916479E+04  0.86265664301E+03  0.20846657164E+04  0.50400001928E-02 0.  1.
</event>
<event>
 5   0  0.2632875E-08  0.3893967E+04  0.7818609E-02  0.8026285E-01
       -1   -1    0    0    0  501  0.00000000000E+00  0.00000000000E+00  0.13599170368E+04  0.13599170368E+04  0.50400001928E-02 0.  1.
        1   -1    0    0  501    0  0.00000000000E+00  0.00000000000E+00 -0.27874824232E+04  0.27874824232E+04  0.50400001928E-02 0. -1.
    10030    2    1    2    0    0  0.00000000000E+00  0.00000000000E+00 -0.14275653864E+04  0.41473994599E+04  0.38939670450E+04 0.  0.
        4    1    3    3  502    0 -0.99434730030E+03 -0.16156873563E+04 -0.24760818602E+03  0.19132390372E+04  0.12699999809E+01 0.  1.
       -4    1    3    3    0  502  0.99434730030E+03  0.16156873563E+04 -0.11799572004E+04  0.22341604227E+04  0.12699999809E+01 0. -1.
</event>
<event>
 5   0  0.8676098E-08  0.3643919E+04  0.7818609E-02  0.8080505E-01
       -2   -1    0    0    0  501  0.00000000000E+00  0.00000000000E+00  0.15687593818E+04  0.15687593818E+04  0.25500000920E-02 0.  1.
        2   -1    0    0  501    0  0.00000000000E+00  0.00000000000E+00 -0.21160263563E+04  0.21160263563E+04  0.25500000920E-02 0. -1.
    10030    2    1    2    0    0  0.00000000000E+00  0.00000000000E+00 -0.54726697452E+03  0.36847857382E+04  0.36439188787E+04 0.  0.
        3    1    3    3  502    0  0.56533379592E+03 -0.12464004741E+04 -0.14897934744E+04  0.20230178074E+04  0.10100000352E+00 0. -1.
       -3    1    3    3    0  502 -0.56533379592E+03  0.12464004741E+04  0.94252649986E+03  0.16617679308E+04  0.10100000352E+00 0.  1.
</event>
<event>
 5   0  0.2632875E-08  0.3857592E+04  0.7818609E-02  0.8033908E-01
        1   -1    0    0  501    0  0.00000000000E+00  0.00000000000E+00  0.17440947853E+04  0.17440947853E+04  0.50400001928E-02 0.  1.
       -1   -1    0    0    0  501  0.00000000000E+00  0.00000000000E+00 -0.21330569162E+04  0.21330569162E+04  0.50400001928E-02 0. -1.
    10030    2    1    2    0    0  0.00000000000E+00  0.00000000000E+00 -0.38896213094E+03  0.38771517015E+04  0.38575917069E+04 0.  0.
        4    1    3    3  502    0 -0.51190213753E+01  0.82594015045E+03 -0.19463188356E+04  0.21143230499E+04  0.12699999809E+01 0. -1.
       -4    1    3    3    0  502  0.51190213753E+01 -0.82594015045E+03  0.15573567047E+04  0.17628286516E+04  0.12699999809E+01 0.  1.
</event>
<event>
 5   0  0.2632875E-08  0.3889070E+04  0.7818609E-02  0.8027306E-01
        1   -1    0    0  501    0  0.00000000000E+00  0.00000000000E+00  0.31971519119E+04  0.31971519119E+04  0.50400001928E-02 0. -1.
       -1   -1    0    0    0  501  0.00000000000E+00  0.00000000000E+00 -0.11826829957E+04  0.11826829957E+04  0.50400001928E-02 0.  1.
    10030    2    1    2    0    0  0.00000000000E+00  0.00000000000E+00  0.20144689162E+04  0.43798349076E+04  0.38890704292E+04 0.  0.
        1    1    3    3  502    0  0.18789105223E+04 -0.34051921456E+03  0.14209606757E+04  0.23802074129E+04  0.50400001928E-02 0. -1.
       -1    1    3    3    0  502 -0.18789105223E+04  0.34051921456E+03  0.59350824048E+03  0.19996274947E+04  0.50400001928E-02 0.  1.
</event>
<event>
 5   0  0.8551754E-08  0.3908474E+04  0.7818609E-02  0.8023269E-01
        2   -1    0    0  501    0  0.00000000000E+00  0.00000000000E+00  0.23320218407E+04  0.23320218407E+04  0.25500000920E-02 0. -1.
       -2   -1    0    0    0  501  0.00000000000E+00  0.00000000000E+00 -0.16376526041E+04  0.16376526041E+04  0.25500000920E-02 0.  1.
    10030    2    1    2    0    0  0.00000000000E+00  0.00000000000E+00  0.69436923652E+03  0.39696744448E+04  0.39084736869E+04 0.  0.
        1    1    3    3  502    0  0.19221719897E+04  0.34837167003E+03  0.40219602044E+03  0.19944597307E+04  0.50400001928E-02 0.  1.
       -1    1    3    3    0  502 -0.19221719897E+04 -0.34837167003E+03  0.29217321607E+03  0.19752147141E+04  0.50400001928E-02 0. -1.
</event>
<event>
 5   0  0.8342802E-08  0.3712787E+04  0.7818609E-02  0.8065134E-01
       -2   -1    0    0    0  501  0.00000000000E+00  0.00000000000E+00  0.15921376425E+04  0.15921376425E+04  0.25500000920E-02 0.  1.
        2   -1    0    0  501    0  0.00000000000E+00  0.00000000000E+00 -0.21645091191E+04  0.21645091191E+04  0.25500000920E-02 0. -1.
    10030    2    1    2    0    0  0.00000000000E+00  0.00000000000E+00 -0.57237147661E+03  0.37566467616E+04  0.37127867949E+04 0.  0.
        4    1    3    3  502    0 -0.12164766733E+04  0.14010318642E+04 -0.34595172290E+03  0.18874294658E+04  0.12699999809E+01 0. -1.
       -4    1    3    3    0  502  0.12164766733E+04 -0.14010318642E+04 -0.22641975372E+03  0.18692172958E+04  0.12699999809E+01 0.  1.
</event>
<event>
 5   0  0.2632875E-08  0.3957508E+04  0.7818609E-02  0.8013174E-01
        3   -1    0    0  501    0  0.00000000000E+00  0.00000000000E+00  0.25933081936E+04  0.25933081955E+04  0.10100000352E+00 0.  1.
       -3   -1    0    0    0  501  0.00000000000E+00  0.00000000000E+00 -0.15098352020E+04  0.15098352053E+04  0.10100000352E+00 0. -1.
    10030    2    1    2    0    0  0.00000000000E+00  0.00000000000E+00  0.10834729916E+04  0.41031434009E+04  0.39575083126E+04 0.  0.
        5    1    3    3  502    0  0.15054722645E+04 -0.22928851624E+03  0.18517303256E+04  0.23974876958E+04  0.46999998093E+01 0.  1.
       -5    1    3    3    0  502 -0.15054722645E+04  0.22928851624E+03 -0.76825733401E+03  0.17056557050E+04  0.46999998093E+01 0. -1.
</event>
<event>
 5   0  0.8551754E-08  0.3895848E+04  0.7818609E-02  0.8025893E-01
       -2   -1    0    0    0  501  0.00000000000E+00  0.00000000000E+00  0.14720824816E+04  0.14720824816E+04  0.25500000920E-02 0.  1.
        2   -1    0    0  501    0  0.00000000000E+00  0.00000000000E+00 -0.25775787413E+04  0.25775787413E+04  0.25500000920E-02 0. -1.
    10030    2    1    2    0    0  0.00000000000E+00  0.00000000000E+00 -0.11054962597E+04  0.40496612228E+04  0.38958483081E+04 0.  0.
        1    1    3    3  502    0 -0.59937296695E+03 -0.18532395693E+04 -0.52596952885E+03  0.20175204584E+04  0.50400001928E-02 0. -1.
       -1    1    3    3    0  502  0.59937296695E+03  0.18532395693E+04 -0.57952673087E+03  0.20321407644E+04  0.50400001928E-02 0.  1.
</event>
<event>
 5   0  0.8676098E-08  0.3896125E+04  0.7818609E-02  0.8025836E-01
       -2   -1    0    0    0  501  0.00000000000E+00  0.00000000000E+00  0.25412186076E+04  0.25412186076E+04  0.25500000920E-02 0. -1.
        2   -1    0    0  501    0  0.00000000000E+00  0.00000000000E+00 -0.14933576736E+04  0.14933576736E+04  0.25500000920E-02 0.  1.
    10030    2    1    2    0    0  0.00000000000E+00  0.00000000000E+00  0.10478609340E+04  0.40345762812E+04  0.38961254127E+04 0.  0.
        3    1    3    3  502    0 -0.97151864644E+03 -0.12905439025E+04  0.16514742432E+04  0.23101340288E+04  0.10100000352E+00 0. -1.
       -3    1    3    3    0  502  0.97151864644E+03  0.12905439025E+04 -0.60361330918E+03  0.17244422524E+04  0.10100000352E+00 0.  1.
</event>
<event>
 5   0  0.2632875E-08  0.3903259E+04  0.7818609E-02  0.8024352E-01
        1   -1    0    0  501    0  0.00000000000E+00  0.00000000000E+00  0.24479879327E+04  0.24479879327E+04  0.50400001928E-02 0. -1.
       -1   -1    0    0    0  501  0.00000000000E+00  0.00000000000E+00 -0.15559134291E+04  0.15559134291E+04  0.50400001928E-02 0.  1.
    10030    2    1    2    0    0  0.00000000000E+00  0.00000000000E+00  0.89207450358E+03  0.40039013618E+04  0.39032587917E+04 0.  0.
        1    1    3    3  502    0 -0.65012484514E+03  0.69514709037E+03 -0.13017032922E+04  0.16125517828E+04  0.50400001928E-02 0.  1.
       -1    1    3    3    0  502  0.65012484514E+03 -0.69514709037E+03  0.21937777957E+04  0.23913495789E+04  0.50400001928E-02 0. -1.
</event>
<event>
 5   0  0.2632875E-08  0.3901907E+04  0.7818609E-02  0.8024633E-01
        1   -1    0    0  501    0  0.00000000000E+00  0.00000000000E+00  0.19270570388E+04  0.19270570388E+04  0.50400001928E-02 0.  1.
       -1   -1    0    0    0  501  0.00000000000E+00  0.00000000000E+00 -0.19751466154E+04  0.19751466154E+04  0.50400001928E-02 0. -1.
    10030    2    1    2    0    0  0.00000000000E+00  0.00000000000E+00 -0.48089576598E+02  0.39022036543E+04  0.39019073223E+04 0.  0.
        1    1    3    3  502    0 -0.64072720966E+03 -0.15830772444E+04  0.91918921735E+03  0.19394776968E+04  0.50400001928E-02 0.  1.
       -1    1    3    3    0  502  0.64072720966E+03  0.15830772444E+04 -0.96727879395E+03  0.19627259575E+04  0.50400001928E-02 0. -1.
</event>
<event>
 5   0  0.2632875E-08  0.4107263E+04  0.7818609E-02  0.7983251E-01
        1   -1    0    0  501    0  0.00000000000E+00  0.00000000000E+00  0.21522360054E+04  0.21522360054E+04  0.50400001928E-02 0. -1.
       -1   -1    0    0    0  501  0.00000000000E+00  0.00000000000E+00 -0.19595447774E+04  0.19595447774E+04  0.50400001928E-02 0.  1.
    10030    2    1    2    0    0  0.00000000000E+00  0.00000000000E+00  0.19269122800E+03  0.41117807829E+04  0.41072632369E+04 0.  0.
        3    1    3    3  502    0 -0.12174338352E+04 -0.15225680128E+04 -0.55015437004E+03  0.20255933298E+04  0.10100000352E+00 0.  1.
       -3    1    3    3    0  502  0.12174338352E+04  0.15225680128E+04  0.74284559804E+03  0.20861874531E+04  0.10100000352E+00 0. -1.
</event>
<event>
 5   0  0.2632875E-08  0.3894347E+04  0.7818609E-02  0.8026206E-01
        1   -1    0    0  501    0  0.00000000000E+00  0.00000000000E+00  0.16226915755E+04  0.16226915755E+04  0.50400001928E-02 0. -1.
       -1   -1    0    0    0  501  0.00000000000E+00  0.00000000000E+00 -0.23365401664E+04  0.23365401664E+04  0.50400001928E-02 0.  1.
    10030    2    1    2    0    0  0.00000000000E+00  0.00000000000E+00 -0.71384859091E+03  0.39592317419E+04  0.38943466943E+04 0.  0.
        5    1    3    3  502    0  0.14546703140E+04  0.30101555389E+03  0.92293316853E+03  0.17488578586E+04  0.46999998093E+01 0. -1.
       -5    1    3    3    0  502 -0.14546703140E+04 -0.30101555389E+03 -0.16367817594E+04  0.22103738833E+04  0.46999998093E+01 0.  1.
</event>
<event>
 5   0  0.2632875E-08  0.3898132E+04  0.7818609E-02  0.8025418E-01
       -1   -1    0    0    0  501  0.00000000000E+00  0.00000000000E+00  0.26495021610E+04  0.26495021610E+04  0.50400001928E-02 0. -1.
        1   -1    0    0  501    0  0.00000000000E+00  0.00000000000E+00 -0.14338010180E+04  0.14338010180E+04  0.50400001928E-02 0.  1.
    10030    2    1    2    0    0  0.00000000000E+00  0.00000000000E+00  0.12157011430E+04  0.40833031790E+04  0.38981323198E+04 0.  0.
        5    1    3    3  502    0  0.10402018460E+04 -0.12707685403E+04  0.17074608761E+04  0.23690329877E+04  0.46999998093E+01 0. -1.
       -5    1    3    3    0  502 -0.10402018460E+04  0.12707685403E+04 -0.49175973314E+03  0.17142701913E+04  0.46999998093E+01 0.  1.
</event>
<event>
 5   0  0.8342802E-08  0.3915122E+04  0.7818609E-02  0.8021891E-01
       -2   -1    0    0    0  501  0.00000000000E+00  0.00000000000E+00  0.28007374453E+04  0.28007374453E+04  0.25500000920E-02 0.  1.
        2   -1    0    0  501    0  0.00000000000E+00  0.00000000000E+00 -0.13682271254E+04  0.13682271254E+04  0.25500000920E-02 0. -1.
    10030    2    1    2    0    0  0.00000000000E+00  0.00000000000E+00  0.14325103199E+04  0.41689645707E+04  0.39151219362E+04 0.  0.
        4    1    3    3  502    0 -0.17733036927E+03  0.38841972513E+03  0.27505463813E+04  0.27834911445E+04  0.12699999809E+01 0.  1.
       -4    1    3    3    0  502  0.17733036927E+03 -0.38841972513E+03 -0.13180360614E+04  0.13854734263E+04  0.12699999809E+01 0. -1.
</event>
<event>
 5   0  0.8551754E-08  0.3887221E+04  0.7818609E-02  0.8027692E-01
        2   -1    0    0  501    0  0.00000000000E+00  0.00000000000E+00  0.34815476246E+04  0.34815476246E+04  0.25500000920E-02 0.  1.
       -2   -1    0    0    0  501  0.00000000000E+00  0.00000000000E+00 -0.10850407683E+04  0.10850407683E+04  0.25500000920E-02 0. -1.
    10030    2    1    2    0    0  0.00000000000E+00  0.00000000000E+00  0.23965068563E+04  0.45665883929E+04  0.38872206573E+04 0.  0.
        1    1    3    3  502    0 -0.12240033115E+04 -0.14755865937E+04  0.15735940539E+04  0.24802697734E+04  0.50400001928E-02 0.  1.
       -1    1    3    3    0  502  0.12240033115E+04  0.14755865937E+04  0.82291280238E+03  0.20863186196E+04  0.50400001928E-02 0. -1.
</event>
<event>
 5   0  0.2632875E-08  0.3902065E+04  0.7818609E-02  0.8024600E-01
        1   -1    0    0  501    0  0.00000000000E+00  0.00000000000E+00  0.20939635455E+04  0.20939635456E+04  0.50400001928E-02 0.  1.
       -1   -1    0    0    0  501  0.00000000000E+00  0.00000000000E+00 -0.18178572731E+04  0.18178572731E+04  0.50400001928E-02 0. -1.
    10030    2    1    2    0    0  0.00000000000E+00  0.00000000000E+00  0.27610627246E+03  0.39118208186E+04  0.39020645104E+04 0.  0.
        4    1    3    3  502    0  0.17591011219E+04 -0.16848907304E+03  0.96698202272E+03  0.20144183205E+04  0.12699999809E+01 0.  1.
       -4    1    3    3    0  502 -0.17591011219E+04  0.16848907304E+03 -0.69087575027E+03  0.18974024982E+04  0.12699999809E+01 0. -1.
</event>
<event>
 5   0  0.8438211E-08  0.3925100E+04  0.7818609E-02  0.8019829E-01
        2   -1    0    0  501    0  0.00000000000E+00  0.00000000000E+00  0.14492409648E+04  0.14492409648E+04  0.25500000920E-02 0. -1.
       -2   -1    0    0    0  501  0.00000000000E+00  0.00000000000E+00 -0.26576685922E+04  0.26576685922E+04  0.25500000920E-02 0.  1.
    10030    2    1    2    0    0  0.00000000000E+00  0.00000000000E+00 -0.12084276274E+04  0.41069095571E+04  0.39250998432E+04 0.  0.
        5    1    3    3  502    0  0.10298082693E+04 -0.45711140333E+00 -0.23522489992E+04  0.25678011459E+04  0.46999998093E+01 0.  1.
       -5    1    3    3    0  502 -0.10298082693E+04  0.45711140333E+00  0.11438213718E+04  0.15391084111E+04  0.46999998093E+01 0. -1.
</event>
<event>
 5   0  0.2632875E-08  0.3837268E+04  0.7818609E-02  0.8038204E-01
       -1   -1    0    0    0  501  0.00000000000E+00  0.00000000000E+00  0.22024032746E+04  0.22024032746E+04  0.50400001928E-02 0. -1.
        1   -1    0    0  501    0  0.00000000000E+00  0.00000000000E+00 -0.16714270174E+04  0.16714270174E+04  0.50400001928E-02 0.  1.
    10030    2    1    2    0    0  0.00000000000E+00  0.00000000000E+00  0.53097625721E+03  0.38738302920E+04  0.38372679533E+04 0.  0.
        2    1    3    3  502    0 -0.29141078618E+03  0.18957430141E+04  0.21608809845E+03  0.19301440070E+04  0.25500000920E-02 0. -1.
       -2    1    3    3    0  502  0.29141078618E+03 -0.18957430141E+04  0.31488815876E+03  0.19436862849E+04  0.25500000920E-02 0.  1.
</event>
<event>
 5   0  0.8476262E-08  0.3914695E+04  0.7818609E-02  0.8021980E-01
       -2   -1    0    0    0  501  0.00000000000E+00  0.00000000000E+00  0.17846609508E+04  0.17846609508E+04  0.25500000920E-02 0.  1.
        2   -1    0    0  501    0  0.00000000000E+00  0.00000000000E+00 -0.21467436772E+04  0.21467436772E+04  0.25500000920E-02 0. -1.
    10030    2    1    2    0    0  0.00000000000E+00  0.00000000000E+00 -0.36208272641E+03  0.39314046280E+04  0.39146951923E+04 0.  0.
        2    1    3    3  502    0  0.11713453275E+03 -0.13451469644E+04 -0.16041533664E+04  0.20967710599E+04  0.25500000920E-02 0. -1.
       -2    1    3    3    0  502 -0.11713453275E+03  0.13451469644E+04  0.12420706400E+04  0.18346335681E+04  0.25500000920E-02 0.  1.
</event>
<event>
 5   0  0.8676098E-08  0.3913164E+04  0.7818609E-02  0.8022297E-01
        2   -1    0    0  501    0  0.00000000000E+00  0.00000000000E+00  0.15190144937E+04  0.15190144937E+04  0.25500000920E-02 0.  1.
       -2   -1    0    0    0  501  0.00000000000E+00  0.00000000000E+00 -0.25201949504E+04  0.25201949504E+04  0.25500000920E-02 0. -1.
    10030    2    1    2    0    0  0.00000000000E+00  0.00000000000E+00 -0.10011804567E+04  0.40392094441E+04  0.39131637618E+04 0.  0.
        3    1    3    3  502    0  0.55739041551E+03 -0.18753657822E+04 -0.52439279621E+03  0.20255045562E+04  0.10100000352E+00 0. -1.
       -3    1    3    3    0  502 -0.55739041551E+03  0.18753657822E+04 -0.47678766045E+03  0.20137048879E+04  0.10100000352E+00 0.  1.
</event>
<event>
 5   0  0.8551754E-08  0.3898140E+04  0.7818609E-02  0.8025416E-01
       -2   -1    0    0    0  501  0.00000000000E+00  0.00000000000E+00  0.16943454479E+04  0.16943454479E+04  0.25500000920E-02 0.  1.
        2   -1    0    0  501    0  0.00000000000E+00  0.00000000000E+00 -0.22420889465E+04  0.22420889465E+04  0.25500000920E-02 0. -1.
    10030    2    1    2    0    0  0.00000000000E+00  0.00000000000E+00 -0.54774349856E+03  0.39364343944E+04  0.38981396590E+04 0.  0.
        1    1    3    3  502    0 -0.12911575237E+04 -0.14586857460E+04 -0.33790878306E+03  0.19771277659E+04  0.50400001928E-02 0. -1.
       -1    1    3    3    0  502  0.12911575237E+04  0.14586857460E+04 -0.20983471550E+03  0.19593066285E+04  0.50400001928E-02 0.  1.
</event>
<event>
 5   0  0.8342802E-08  0.3908765E+04  0.7818609E-02  0.8023209E-01
       -2   -1    0    0    0  501  0.00000000000E+00  0.00000000000E+00  0.13594422377E+04  0.13594422377E+04  0.25500000920E-02 0. -1.
        2   -1    0    0  501    0  0.00000000000E+00  0.00000000000E+00 -0.28096896100E+04  0.28096896100E+04  0.25500000920E-02 0.  1.
    10030    2    1    2    0    0  0.00000000000E+00  0.00000000000E+00 -0.14502473723E+04  0.41691318477E+04  0.39087648846E+04 0.  0.
        4    1    3    3  502    0  0.42613728073E+03 -0.14994989293E+04 -0.19824220248E+04  0.25219216320E+04  0.12699999809E+01 0.  1.
       -4    1    3    3    0  502 -0.42613728073E+03  0.14994989293E+04  0.53217465253E+03  0.16472102157E+04  0.12699999809E+01 0. -1.
</event>
<event>
 5   0  0.2632875E-08  0.3783331E+04  0.7818609E-02  0.8049742E-01
       -1   -1    0    0    0  501  0.00000000000E+00  0.00000000000E+00  0.23519565920E+04  0.23519565920E+04  0.50400001928E-02 0.  1.
        1   -1    0    0  501    0  0.00000000000E+00  0.00000000000E+00 -0.15214556120E+04  0.15214556120E+04  0.50400001928E-02 0. -1.
    10030    2    1    2    0    0  0.00000000000E+00  0.00000000000E+00  0.83050097998E+03  0.38734122039E+04  0.37833305729E+04 0.  0.
        5    1    3    3  502    0  0.10352529524E+04 -0.14870726090E+04 -0.14104864261E+03  0.18174296216E+04  0.46999998093E+01 0. -1.
       -5    1    3    3    0  502 -0.10352529524E+04  0.14870726090E+04  0.97154962258E+03  0.20559825824E+04  0.46999998093E+01 0.  1.
</event>
<event>
 5   0  0.2632875E-08  0.3900302E+04  0.7818609E-02  0.8024966E-01
       -1   -1    0    0    0  501  0.00000000000E+00  0.00000000000E+00  0.16805442699E+04  0.16805442699E+04  0.50400001928E-02 0.  1.
        1   -1    0    0  501    0  0.00000000000E+00  0.00000000000E+00 -0.22630104175E+04  0.22630104175E+04  0.50400001928E-02 0. -1.
    10030    2    1    2    0    0  0.00000000000E+00  0.00000000000E+00 -0.58246614755E+03  0.39435546874E+04  0.39003021370E+04 0.  0.
        4    1    3    3  502    0 -0.65481459004E+03  0.53830080348E+01  0.15660578973E+04  0.16974539978E+04  0.12699999809E+01 0.  1.
       -4    1    3    3    0  502  0.65481459004E+03 -0.53830080348E+01 -0.21485240448E+04  0.22461006897E+04  0.12699999809E+01 0. -1.
</event>
<event>
 5   0  0.8676098E-08  0.3920788E+04  0.7818609E-02  0.8020720E-01
        2   -1    0    0  501    0  0.00000000000E+00  0.00000000000E+00  0.23898532160E+04  0.23898532160E+04  0.25500000920E-02 0.  1.
       -2   -1    0    0    0  501  0.00000000000E+00  0.00000000000E+00 -0.16081088849E+04  0.16081088849E+04  0.25500000920E-02 0. -1.
    10030    2    1    2    0    0  0.00000000000E+00  0.00000000000E+00  0.78174433111E+03  0.39979621009E+04  0.39207877730E+04 0.  0.
        3    1    3    3  502    0  0.12350791139E+04  0.47875936483E+03  0.18644868935E+04  0.22871253427E+04  0.10100000352E+00 0.  1.
       -3    1    3    3    0  502 -0.12350791139E+04 -0.47875936483E+03 -0.10827425623E+04  0.17108367583E+04  0.10100000352E+00 0. -1.
</event>
<event>
 5   0  0.8476262E-08  0.3915600E+04  0.7818609E-02  0.8021793E-01
        2   -1    0    0  501    0  0.00000000000E+00  0.00000000000E+00  0.17289921966E+04  0.17289921966E+04  0.25500000920E-02 0. -1.
       -2   -1    0    0    0  501  0.00000000000E+00  0.00000000000E+00 -0.22168868478E+04  0.22168868478E+04  0.25500000920E-02 0.  1.
    10030    2    1    2    0    0  0.00000000000E+00  0.00000000000E+00 -0.48789465120E+03  0.39458790443E+04  0.39155996018E+04 0.  0.
        2    1    3    3  502    0  0.10839215605E+04  0.10311324484E+04  0.10286962035E+04  0.18155814370E+04  0.25500000920E-02 0. -1.
       -2    1    3    3    0  502 -0.10839215605E+04 -0.10311324484E+04 -0.15165908547E+04  0.21302976073E+04  0.25500000920E-02 0.  1.
</event>
<event>
 5   0  0.8438211E-08  0.3930577E+04  0.7818609E-02  0.8018700E-01
        2   -1    0    0  501    0  0.00000000000E+00  0.00000000000E+00  0.28949365692E+04  0.28949365692E+04  0.25500000920E-02 0. -1.
       -2   -1    0    0    0  501  0.00000000000E+00  0.00000000000E+00 -0.13341775077E+04  0.13341775077E+04  0.25500000920E-02 0.  1.
    10030    2    1    2    0    0  0.00000000000E+00  0.00000000000E+00  0.15607590615E+04  0.42291140768E+04  0.39305771875E+04 0.  0.
        5    1    3    3  502    0 -0.10217949784E+04 -0.16751879157E+04  0.66242826885E+03  0.20710269994E+04  0.46999998093E+01 0.  1.
       -5    1    3    3    0  502  0.10217949784E+04  0.16751879157E+04  0.89833079265E+03  0.21580870774E+04  0.46999998093E+01 0. -1.
</event>
<event>
 5   0  0.2632875E-08  0.3997699E+04  0.7818609E-02  0.8005011E-01
       -1   -1    0    0    0  501  0.00000000000E+00  0.00000000000E+00  0.15993786852E+04  0.15993786852E+04  0.50400001928E-02 0. -1.
        1   -1    0    0  501    0  0.00000000000E+00  0.00000000000E+00 -0.24980946229E+04  0.24980946229E+04  0.50400001928E-02 0.  1.
    10030    2    1    2    0    0  0.00000000000E+00  0.00000000000E+00 -0.89871593773E+03  0.40974733082E+04  0.39976989850E+04 0.  0.
        4    1    3    3  502    0 -0.14351656320E+04 -0.27550760532E+03 -0.18471363850E+04  0.23553172333E+04  0.12699999809E+01 0.  1.
       -4    1    3    3    0  502  0.14351656320E+04  0.27550760532E+03  0.94842044723E+03  0.17421560749E+04  0.12699999809E+01 0. -1.
</event>
<event>
 5   0  0.2632875E-08  0.3897675E+04  0.7818609E-02  0.8025513E-01
       -1   -1    0    0    0  501  0.00000000000E+00  0.00000000000E+00  0.21007757282E+04  0.21007757282E+04  0.50400001928E-02 0.  1.
        1   -1    0    0  501    0  0.00000000000E+00  0.00000000000E+00 -0.18078878290E+04  0.18078878290E+04  0.50400001928E-02 0. -1.
    10030    2    1    2    0    0  0.00000000000E+00  0.00000000000E+00  0.29288789916E+03  0.39086635572E+04  0.38976746249E+04 0.  0.
        3    1    3    3  502    0 -0.13671193211E+04 -0.74484659558E+03 -0.10291046710E+04  0.18662443899E+04  0.10100000352E+00 0. -1.
       -3    1    3    3    0  502  0.13671193211E+04  0.74484659558E+03  0.13219925701E+04  0.20424191672E+04  0.10100000352E+00 0.  1.
</event>
<event>
 5   0  0.8476262E-08  0.3894552E+04  0.7818609E-02  0.8026163E-01
        2   -1    0    0  501    0  0.00000000000E+00  0.00000000000E+00  0.16737032320E+04  0.16737032320E+04  0.25500000920E-02 0.  1.
       -2   -1    0    0    0  501  0.00000000000E+00  0.00000000000E+00 -0.22655656272E+04  0.22655656272E+04  0.25500000920E-02 0. -1.
    10030    2    1    2    0    0  0.00000000000E+00  0.00000000000E+00 -0.59186239524E+03  0.39392688592E+04  0.38945523555E+04 0.  0.
        2    1    3    3  502    0 -0.18597422295E+04  0.40194168516E+03 -0.71503906521E+03  0.20326040301E+04  0.25500000920E-02 0. -1.
       -2    1    3    3    0  502  0.18597422295E+04 -0.40194168516E+03  0.12317666997E+03  0.19066648291E+04  0.25500000920E-02 0.  1.
</event>
<event>
 5   0  0.2632875E-08  0.3881821E+04  0.7818609E-02  0.8028821E-01
       -1   -1    0    0    0  501  0.00000000000E+00  0.00000000000E+00  0.11514201423E+04  0.11514201423E+04  0.50400001928E-02 0.  1.
        1   -1    0    0  501    0  0.00000000000E+00  0.00000000000E+00 -0.32717282571E+04  0.32717282572E+04  0.50400001928E-02 0. -1.
    10030    2    1    2    0    0  0.00000000000E+00  0.00000000000E+00 -0.21203081148E+04  0.44231483995E+04  0.38818211270E+04 0.  0.
        1    1    3    3  502    0  0.18024313113E+04 -0.23952090743E+03 -0.28649650309E+03  0.18407088698E+04  0.50400001928E-02 0.  1.
       -1    1    3    3    0  502 -0.18024313113E+04  0.23952090743E+03 -0.18338116117E+04  0.25824395297E+04  0.50400001928E-02 0. -1.
</event>
<event>
 5   0  0.8342802E-08  0.3909083E+04  0.7818609E-02  0.8023143E-01
        2   -1    0    0  501    0  0.00000000000E+00  0.00000000000E+00  0.17328542941E+04  0.17328542941E+04  0.25500000920E-02 0.  1.
       -2   -1    0    0    0  501  0.00000000000E+00  0.00000000000E+00 -0.22045889907E+04  0.22045889907E+04  0.25500000920E-02 0. -1.
    10030    2    1    2    0    0  0.00000000000E+00  0.00000000000E+00 -0.47173469663E+03  0.39374432849E+04  0.39090825007E+04 0.  0.
        4    1    3    3  502    0  0.11606277867E+04  0.15479619594E+04 -0.51534533621E+03  0.20022051632E+04  0.12699999809E+01 0.  1.
       -4    1    3    3    0  502 -0.11606277867E+04 -0.15479619594E+04  0.43610639572E+02  0.19352381217E+04  0.12699999809E+01 0. -1.
</event>
<event>
 5   0  0.2632875E-08  0.3911047E+04  0.7818609E-02  0.8022736E-01
        1   -1    0    0  501    0  0.00000000000E+00  0.00000000000E+00  0.23541733860E+04  0.23541733860E+04  0.50400001928E-02 0. -1.
       -1   -1    0    0    0  501  0.00000000000E+00  0.00000000000E+00 -0.16243797364E+04  0.16243797364E+04  0.50400001928E-02 0.  1.
    10030    2    1    2    0    0  0.00000000000E+00  0.00000000000E+00  0.72979364957E+03  0.39785531225E+04  0.39110466856E+04 0.  0.
        5    1    3    3  502    0 -0.12784272054E+04  0.84178157298E+03  0.16028978301E+04  0.22163654662E+04  0.46999998093E+01 0. -1.
       -5    1    3    3    0  502  0.12784272054E+04 -0.84178157298E+03 -0.87310418049E+03  0.17621876563E+04  0.46999998093E+01 0.  1.
</event>
<event>
 5   0  0.8438211E-08  0.3864920E+04  0.7818609E-02  0.8032365E-01
        2   -1    0    0  501    0  0.00000000000E+00  0.00000000000E+00  0.26063887597E+04  0.26063887597E+04  0.25500000920E-02 0. -1.
       -2   -1    0    0    0  501  0.00000000000E+00  0.00000000000E+00 -0.14327879149E+04  0.14327879149E+04  0.25500000920E-02 0.  1.
    10030    2    1    2    0    0  0.00000000000E+00  0.00000000000E+00  0.11736008448E+04  0.40391766747E+04  0.38649203441E+04 0.  0.
        5    1    3    3  502    0 -0.32770849716E+03  0.67748377816E+03  0.24469381488E+04  0.25600596717E+04  0.46999998093E+01 0. -1.
       -5    1    3    3    0  502  0.32770849716E+03 -0.67748377816E+03 -0.12733373040E+04  0.14791170030E+04  0.46999998093E+01 0.  1.
</event>
<event>
 5   0  0.8551754E-08  0.3811263E+04  0.7818609E-02  0.8043742E-01
       -2   -1    0    0    0  501  0.00000000000E+00  0.00000000000E+00  0.18747030958E+04  0.18747030958E+04  0.25500000920E-02 0. -1.
        2   -1    0    0  501    0  0.00000000000E+00  0.00000000000E+00 -0.19370703628E+04  0.19370703628E+04  0.25500000920E-02 0.  1.
    10030    2    1    2    0    0  0.00000000000E+00  0.00000000000E+00 -0.62367266949E+02  0.38117734586E+04  0.38112632058E+04 0.  0.
        1    1    3    3  502    0  0.39270480304E+03  0.38932518848E+03  0.17926944260E+04  0.18760449008E+04  0.50400001928E-02 0. -1.
       -1    1    3    3    0  502 -0.39270480304E+03 -0.38932518848E+03 -0.18550616930E+04  0.19357285578E+04  0.50400001928E-02 0.  1.
</event>
<event>
 5   0  0.2632875E-08  0.3905967E+04  0.7818609E-02  0.8023789E-01
       -1   -1    0    0    0  501  0.00000000000E+00  0.00000000000E+00  0.26298266816E+04  0.26298266816E+04  0.50400001928E-02 0. -1.
        1   -1    0    0  501    0  0.00000000000E+00  0.00000000000E+00 -0.14503407235E+04  0.14503407235E+04  0.50400001928E-02 0.  1.
    10030    2    1    2    0    0  0.00000000000E+00  0.00000000000E+00  0.11794859581E+04  0.40801674052E+04  0.39059670926E+04 0.  0.
        3    1    3    3  502    0 -0.18329283869E+04  0.10455582221E+03 -0.10598341443E+03  0.18389646233E+04  0.10100000352E+00 0.  1.
       -3    1    3    3    0  502  0.18329283869E+04 -0.10455582221E+03  0.12854693725E+04  0.22412027818E+04  0.10100000352E+00 0. -1.
</event>
<event>
 5   0  0.2632875E-08  0.3887402E+04  0.7818609E-02  0.8027655E-01
        1   -1    0    0  501    0  0.00000000000E+00  0.00000000000E+00  0.11696338593E+04  0.11696338593E+04  0.50400001928E-02 0. -1.
       -1   -1    0    0    0  501  0.00000000000E+00  0.00000000000E+00 -0.32300472644E+04  0.32300472644E+04  0.50400001928E-02 0.  1.
    10030    2    1    2    0    0  0.00000000000E+00  0.00000000000E+00 -0.20604134052E+04  0.43996811237E+04  0.38874015216E+04 0.  0.
        4    1    3    3  502    0  0.11647235339E+04  0.84886379892E+03 -0.25062225685E+04  0.28910731287E+04  0.12699999809E+01 0.  1.
       -4    1    3    3    0  502 -0.11647235339E+04 -0.84886379892E+03  0.44580916340E+03  0.15086079950E+04  0.12699999809E+01 0. -1.
</event>
<event>
 5   0  0.2632875E-08  0.3908268E+04  0.7818609E-02  0.8023312E-01
       -1   -1    0    0    0  501  0.00000000000E+00  0.00000000000E+00  0.14517009814E+04  0.14517009814E+04  0.50400001928E-02 0.  1.
        1   -1    0    0  501    0  0.00000000000E+00  0.00000000000E+00 -0.26304591784E+04  0.26304591785E+04  0.50400001928E-02 0. -1.
    10030    2    1    2    0    0  0.00000000000E+00  0.00000000000E+00 -0.11787581970E+04  0.40821601599E+04  0.39082682462E+04 0.  0.
        4    1    3    3  502    0 -0.10152084071E+04 -0.40037034075E+03 -0.22825198927E+04  0.25299887733E+04  0.12699999809E+01 0. -1.
       -4    1    3    3    0  502  0.10152084071E+04  0.40037034075E+03  0.11037616957E+04  0.15521713866E+04  0.12699999809E+01 0.  1.
</event>
<event>
 5   0  0.2632875E-08  0.3894754E+04  0.7818609E-02  0.8026121E-01
       -1   -1    0    0    0  501  0.00000000000E+00  0.00000000000E+00  0.18794409882E+04  0.18794409882E+04  0.50400001928E-02 0.  1.
        1   -1    0    0  501    0  0.00000000000E+00  0.00000000000E+00 -0.20177689963E+04  0.20177689963E+04  0.50400001928E-02 0. -1.
    10030    2    1    2    0    0  0.00000000000E+00  0.00000000000E+00 -0.13832800809E+03  0.38972099846E+04  0.38947542960E+04 0.  0.
        4    1    3    3  502    0  0.60054163316E+03  0.11058451475E+04 -0.15562815321E+04  0.20013889085E+04  0.12699999809E+01 0. -1.
       -4    1    3    3    0  502 -0.60054163316E+03 -0.11058451475E+04  0.14179535240E+04  0.18958210760E+04  0.12699999809E+01 0.  1.
</event>
<event>
 5   0  0.2632875E-08  0.3906473E+04  0.7818609E-02  0.8023684E-01
        1   -1    0    0  501    0  0.00000000000E+00  0.00000000000E+00  0.21260781951E+04  0.21260781951E+04  0.50400001928E-02 0.  1.
       -1   -1    0    0    0  501  0.00000000000E+00  0.00000000000E+00 -0.17944465160E+04  0.17944465160E+04  0.50400001928E-02 0. -1.
    10030    2    1    2    0    0  0.00000000000E+00  0.00000000000E+00  0.33163167913E+03  0.39205247111E+04  0.39064734019E+04 0.  0.
        3    1    3    3  502    0  0.98925363884E+02 -0.96845773588E+03 -0.15336258398E+04  0.18165089707E+04  0.10100000352E+00 0. -1.
       -3    1    3    3    0  502 -0.98925363884E+02  0.96845773588E+03  0.18652575190E+04  0.21040157404E+04  0.10100000352E+00 0.  1.
</event>
<event>
 5   0  0.8438211E-08  0.3905536E+04  0.7818609E-02  0.8023879E-01
        2   -1    0    0  501    0  0.00000000000E+00  0.00000000000E+00  0.19463584092E+04  0.19463584092E+04  0.25500000920E-02 0. -1.
       -2   -1    0    0    0  501  0.00000000000E+00  0.00000000000E+00 -0.19591989027E+04  0.19591989027E+04  0.25500000920E-02 0.  1.
    10030    2    1    2    0    0  0.00000000000E+00  0.00000000000E+00 -0.12840493489E+02  0.39055573118E+04  0.39055362036E+04 0.  0.
        5    1    3    3  502    0  0.19391223114E+04 -0.10059461601E+03 -0.21370511956E+03  0.19534601566E+04  0.46999998093E+01 0. -1.
       -5    1    3    3    0  502 -0.19391223114E+04  0.10059461601E+03  0.20086462607E+03  0.19520971552E+04  0.46999998093E+01 0.  1.
</event>
<event>
 5   0  0.8476262E-08  0.3903076E+04  0.7818609E-02  0.8024390E-01
       -2   -1    0    0    0  501  0.00000000000E+00  0.00000000000E+00  0.23215939984E+04  0.23215939984E+04  0.25500000920E-02 0.  1.
        2   -1    0    0  501    0  0.00000000000E+00  0.00000000000E+00 -0.16404679441E+04  0.16404679441E+04  0.25500000920E-02 0. -1.
    10030    2    1    2    0    0  0.00000000000E+00  0.00000000000E+00  0.68112605424E+03  0.39620619425E+04  0.39030759837E+04 0.  0.
        2    1    3    3  502    0 -0.19927455984E+03 -0.11599158237E+04 -0.12396859007E+04  0.17093671930E+04  0.25500000920E-02 0. -1.
       -2    1    3    3    0  502  0.19927455984E+03  0.11599158237E+04  0.19208119549E+04  0.22526947495E+04  0.25500000920E-02 0.  1.
</event>
<event>
 5   0  0.2632875E-08  0.3750979E+04  0.7818609E-02  0.8056757E-01
       -1   -1    0    0    0  501  0.00000000000E+00  0.00000000000E+00  0.17425754465E+04  0.17425754465E+04  0.50400001928E-02 0.  1.
        1   -1    0    0  501    0  0.00000000000E+00  0.00000000000E+00 -0.20185418137E+04  0.20185418137E+04  0.50400001928E-02 0. -1.
    10030    2    1    2    0    0  0.00000000000E+00  0.00000000000E+00 -0.27596636722E+03  0.37611172602E+04  0.37509792866E+04 0.  0.
        2    1    3    3  502    0 -0.43829782272E+03 -0.13680769701E+04  0.10709794082E+04  0.17918528037E+04  0.25500000920E-02 0.  1.
       -2    1    3    3    0  502  0.43829782272E+03  0.13680769701E+04 -0.13469457754E+04  0.19692644564E+04  0.25500000920E-02 0. -1.
</event>
<event>
 5   0  0.2632875E-08  0.3914534E+04  0.7818609E-02  0.8022013E-01
       -1   -1    0    0    0  501  0.00000000000E+00  0.00000000000E+00  0.14316791294E+04  0.14316791294E+04  0.50400001928E-02 0. -1.
        1   -1    0    0  501    0  0.00000000000E+00  0.00000000000E+00 -0.26758043820E+04  0.26758043820E+04  0.50400001928E-02 0.  1.
    10030    2    1    2    0    0  0.00000000000E+00  0.00000000000E+00 -0.12441252526E+04  0.41074835115E+04  0.39145335805E+04 0.  0.
        1    1    3    3  502    0 -0.78610637090E+03 -0.17819254928E+04 -0.82572126616E+03  0.21154283957E+04  0.50400001928E-02 0. -1.
       -1    1    3    3    0  502  0.78610637090E+03  0.17819254928E+04 -0.41840398648E+03  0.19920551157E+04  0.50400001928E-02 0.  1.
</event>
<event>
 5   0  0.2632875E-08  0.3890968E+04  0.7818609E-02  0.8026910E-01
       -1   -1    0    0    0  501  0.00000000000E+00  0.00000000000E+00  0.15244691081E+04  0.15244691081E+04  0.50400001928E-02 0.  1.
        1   -1    0    0  501    0  0.00000000000E+00  0.00000000000E+00 -0.24827710359E+04  0.24827710359E+04  0.50400001928E-02 0. -1.
    10030    2    1    2    0    0  0.00000000000E+00  0.00000000000E+00 -0.95830192781E+03  0.40072401440E+04  0.38909678728E+04 0.  0.
        3    1    3    3  502    0 -0.12648459837E+04 -0.13674562278E+04  0.98993834849E+02  0.18653610071E+04  0.10100000352E+00 0.  1.
       -3    1    3    3    0  502  0.12648459837E+04  0.13674562278E+04 -0.10572957627E+04  0.21418791369E+04  0.10100000352E+00 0. -1.
</event>
<event>
 5   0  0.2632875E-08  0.3918065E+04  0.7818609E-02  0.8021283E-01
        1   -1    0    0  501    0  0.00000000000E+00  0.00000000000E+00  0.13836898802E+04  0.13836898802E+04  0.50400001928E-02 0.  1.
       -1   -1    0    0    0  501  0.00000000000E+00  0.00000000000E+00 -0.27736042570E+04  0.27736042570E+04  0.50400001928E-02 0. -1.
    10030    2    1    2    0    0  0.00000000000E+00  0.00000000000E+00 -0.13899143769E+04  0.41572941372E+04  0.39180649010E+04 0.  0.
        1    1    3    3  502    0  0.58843833618E+03  0.49851630574E+03  0.12158400617E+04  0.14398073615E+04  0.50400001928E-02 0.  1.
       -1    1    3    3    0  502 -0.58843833618E+03 -0.49851630574E+03 -0.26057544385E+04  0.27174867758E+04  0.50400001928E-02 0. -1.
</event>
<event>
 5   0  0.2632875E-08  0.3916413E+04  0.7818609E-02  0.8021624E-01
        1   -1    0    0  501    0  0.00000000000E+00  0.00000000000E+00  0.17789087370E+04  0.17789087370E+04  0.50400001928E-02 0.  1.
       -1   -1    0    0    0  501  0.00000000000E+00  0.00000000000E+00 -0.21555754097E+04  0.21555754097E+04  0.50400001928E-02 0. -1.
    10030    2    1    2    0    0  0.00000000000E+00  0.00000000000E+00 -0.37666667270E+03  0.39344841468E+04  0.39164126084E+04 0.  0.
        4    1    3    3  502    0  0.79403292370E+03 -0.10465126859E+04 -0.16472371385E+04  0.21069097961E+04  0.12699999809E+01 0. -1.
       -4    1    3    3    0  502 -0.79403292370E+03  0.10465126859E+04  0.12705704658E+04  0.18275743507E+04  0.12699999809E+01 0.  1.
</event>
<event>
 5   0  0.2632875E-08  0.3912268E+04  0.7818609E-02  0.8022483E-01
       -1   -1    0    0    0  501  0.00000000000E+00  0.00000000000E+00  0.11437802532E+04  0.11437802532E+04  0.50400001928E-02 0.  1.
        1   -1    0    0  501    0  0.00000000000E+00  0.00000000000E+00 -0.33454504516E+04  0.33454504516E+04  0.50400001928E-02 0. -1.
    10030    2    1    2    0    0  0.00000000000E+00  0.00000000000E+00 -0.22016701984E+04  0.44892307047E+04  0.39122679686E+04 0.  0.
        4    1    3    3  502    0 -0.11374503685E+04  0.54863553563E+03 -0.28150203733E+04  0.30853096451E+04  0.12699999809E+01 0. -1.
       -4    1    3    3    0  502  0.11374503685E+04 -0.54863553563E+03  0.61335017487E+03  0.14039210596E+04  0.12699999809E+01 0.  1.
</event>
<event>
 5   0  0.2632875E-08  0.3922370E+04  0.7818609E-02  0.8020393E-01
        1   -1    0    0  501    0  0.00000000000E+00  0.00000000000E+00  0.22903421011E+04  0.22903421011E+04  0.50400001928E-02 0. -1.
       -1   -1    0    0    0  501  0.00000000000E+00  0.00000000000E+00 -0.16793326301E+04  0.16793326301E+04  0.50400001928E-02 0.  1.
    10030    2    1    2    0    0  0.00000000000E+00  0.00000000000E+00  0.61100947097E+03  0.39696747312E+04  0.39223698063E+04 0.  0.
        3    1    3    3  502    0  0.65428616724E+03  0.52914071242E+03  0.20983563118E+04  0.22607917869E+04  0.10100000352E+00 0. -1.
       -3    1    3    3    0  502 -0.65428616724E+03 -0.52914071242E+03 -0.14873468408E+04  0.17088829443E+04  0.10100000352E+00 0.  1.
</event>
<event>
 5   0  0.8476262E-08  0.3895281E+04  0.7818609E-02  0.8026011E-01
       -2   -1    0    0    0  501  0.00000000000E+00  0.00000000000E+00  0.11096773082E+04  0.11096773083E+04  0.25500000920E-02 0. -1.
        2   -1    0    0  501    0  0.00000000000E+00  0.00000000000E+00 -0.34183839009E+04  0.34183839009E+04  0.25500000920E-02 0.  1.
    10030    2    1    2    0    0  0.00000000000E+00  0.00000000000E+00 -0.23087065927E+04  0.45280612092E+04  0.38952807579E+04 0.  0.
        2    1    3    3  502    0  0.97677661647E+03 -0.25947455071E+03 -0.30897099312E+04  0.32508040636E+04  0.25500000920E-02 0.  1.
       -2    1    3    3    0  502 -0.97677661647E+03  0.25947455071E+03  0.78100333857E+03  0.12772571455E+04  0.25500000920E-02 0. -1.
</event>
<event>
 5   0  0.8551754E-08  0.3913871E+04  0.7818609E-02  0.8022150E-01
        2   -1    0    0  501    0  0.00000000000E+00  0.00000000000E+00  0.22901311305E+04  0.22901311305E+04  0.25500000920E-02 0.  1.
       -2   -1    0    0    0  501  0.00000000000E+00  0.00000000000E+00 -0.16722172023E+04  0.16722172023E+04  0.25500000920E-02 0. -1.
    10030    2    1    2    0    0  0.00000000000E+00  0.00000000000E+00  0.61791392813E+03  0.39623483328E+04  0.39138710617E+04 0.  0.
        1    1    3    3  502    0 -0.71666492422E+03 -0.13050271740E+04 -0.97677014128E+03  0.17806696626E+04  0.50400001928E-02 0. -1.
       -1    1    3    3    0  502  0.71666492422E+03  0.13050271740E+04  0.15946840694E+04  0.21816786701E+04  0.50400001928E-02 0.  1.
</event>
<event>
 5   0  0.2632875E-08  0.3918171E+04  0.7818609E-02  0.8021261E-01
        1   -1    0    0  501    0  0.00000000000E+00  0.00000000000E+00  0.20749799079E+04  0.20749799079E+04  0.50400001928E-02 0.  1.
       -1   -1    0    0    0  501  0.00000000000E+00  0.00000000000E+00 -0.18496640439E+04  0.18496640439E+04  0.50400001928E-02 0. -1.
    10030    2    1    2    0    0  0.00000000000E+00  0.00000000000E+00  0.22531586400E+03  0.39246439518E+04  0.39181708627E+04 0.  0.
        3    1    3    3  502    0  0.54585900924E+03  0.80259578313E+02 -0.17702380413E+04  0.18542239323E+04  0.10100000352E+00 0. -1.
       -3    1    3    3    0  502 -0.54585900924E+03 -0.80259578313E+02  0.19955539053E+04  0.20704200195E+04  0.10100000352E+00 0.  1.
</event>
<event>
 5   0  0.8551754E-08  0.3897484E+04  0.7818609E-02  0.8025553E-01
        2   -1    0    0  501    0  0.00000000000E+00  0.00000000000E+00  0.27809240797E+04  0.27809240797E+04  0.25500000920E-02 0.  1.
       -2   -1    0    0    0  501  0.00000000000E+00  0.00000000000E+00 -0.13655872655E+04  0.13655872655E+04  0.25500000920E-02 0. -1.
    10030    2    1    2    0    0  0.00000000000E+00  0.00000000000E+00  0.14153368142E+04  0.41465113452E+04  0.38974835520E+04 0.  0.
        1    1    3    3  502    0  0.48042260040E+03  0.13138005967E+04  0.21510861335E+04  0.25659402637E+04  0.50400001928E-02 0.  1.
       -1    1    3    3    0  502 -0.48042260040E+03 -0.13138005967E+04 -0.73574931930E+03  0.15805710815E+04  0.50400001928E-02 0. -1.
</event>
<event>
 5   0  0.2632875E-08  0.3906586E+04  0.7818609E-02  0.8023661E-01
        1   -1    0    0  501    0  0.00000000000E+00  0.00000000000E+00  0.20469694580E+04  0.20469694580E+04  0.50400001928E-02 0.  1.
       -1   -1    0    0    0  501  0.00000000000E+00  0.00000000000E+00 -0.18639038612E+04  0.18639038612E+04  0.50400001928E-02 0. -1.
    10030    2    1    2    0    0  0.00000000000E+00  0.00000000000E+00  0.18306559674E+03  0.39108733192E+04  0.39065863751E+04 0.  0.
        1    1    3    3  502    0 -0.70493822332E+02  0.53530584583E+03 -0.17877145618E+04  0.18674702359E+04  0.50400001928E-02 0. -1.
       -1    1    3    3    0  502  0.70493822332E+02 -0.53530584583E+03  0.19707801585E+04  0.20434030833E+04  0.50400001928E-02 0.  1.
</event>
<event>
 5   0  0.8438211E-08  0.3941286E+04  0.7818609E-02  0.8016497E-01
        2   -1    0    0  501    0  0.00000000000E+00  0.00000000000E+00  0.24304501322E+04  0.24304501322E+04  0.25500000920E-02 0.  1.
       -2   -1    0    0    0  501  0.00000000000E+00  0.00000000000E+00 -0.15978247657E+04  0.15978247657E+04  0.25500000920E-02 0. -1.
    10030    2    1    2    0    0  0.00000000000E+00  0.00000000000E+00  0.83262536651E+03  0.40282748978E+04  0.39412857866E+04 0.  0.
        5    1    3    3  502    0 -0.18035844355E+04 -0.17552140591E+03 -0.37517360770E+03  0.18505409765E+04  0.46999998093E+01 0. -1.
       -5    1    3    3    0  502  0.18035844355E+04  0.17552140591E+03  0.12077989742E+04  0.21777339213E+04  0.46999998093E+01 0.  1.
</event>
<event>
 5   0  0.2632875E-08  0.3888952E+04  0.7818609E-02  0.8027331E-01
       -1   -1    0    0    0  501  0.00000000000E+00  0.00000000000E+00  0.17988311067E+04  0.17988311067E+04  0.50400001928E-02 0. -1.
        1   -1    0    0  501    0  0.00000000000E+00  0.00000000000E+00 -0.21019129987E+04  0.21019129988E+04  0.50400001928E-02 0.  1.
    10030    2    1    2    0    0  0.00000000000E+00  0.00000000000E+00 -0.30308189204E+03  0.39007441055E+04  0.38889517795E+04 0.  0.
        2    1    3    3  502    0 -0.96597453921E+03  0.86556583698E+03  0.13015324269E+04  0.18374704588E+04  0.25500000920E-02 0. -1.
       -2    1    3    3    0  502  0.96597453921E+03 -0.86556583698E+03 -0.16046143190E+04  0.20632736467E+04  0.25500000920E-02 0.  1.
</event>
<event>
 5   0  0.8676098E-08  0.3906768E+04  0.7818609E-02  0.8023623E-01
       -2   -1    0    0    0  501  0.00000000000E+00  0.00000000000E+00  0.30099089477E+04  0.30099089477E+04  0.25500000920E-02 0. -1.
        2   -1    0    0  501    0  0.00000000000E+00  0.00000000000E+00 -0.12677158932E+04  0.12677158932E+04  0.25500000920E-02 0.  1.
    10030    2    1    2    0    0  0.00000000000E+00  0.00000000000E+00  0.17421930546E+04  0.42776248409E+04  0.39067681836E+04 0.  0.
        3    1    3    3  502    0 -0.14696329271E+04  0.41527750411E+03  0.22046763834E+04  0.26819534507E+04  0.10100000352E+00 0. -1.
       -3    1    3    3    0  502  0.14696329271E+04 -0.41527750411E+03 -0.46248332883E+03  0.15956713902E+04  0.10100000352E+00 0.  1.
</event>
<event>
 5   0  0.8476262E-08  0.3747749E+04  0.7818609E-02  0.8057462E-01
        2   -1    0    0  501    0  0.00000000000E+00  0.00000000000E+00  0.20519023771E+04  0.20519023771E+04  0.25500000920E-02 0. -1.
       -2   -1    0    0    0  501  0.00000000000E+00  0.00000000000E+00 -0.17112926375E+04  0.17112926375E+04  0.25500000920E-02 0.  1.
    10030    2    1    2    0    0  0.00000000000E+00  0.00000000000E+00  0.34060973959E+03  0.37631950147E+04  0.37477488875E+04 0.  0.
        2    1    3    3  502    0 -0.12847428117E+04  0.82583155510E+03  0.12605253405E+04  0.19802742193E+04  0.25500000920E-02 0. -1.
       -2    1    3    3    0  502  0.12847428117E+04 -0.82583155510E+03 -0.91991560095E+03  0.17829207953E+04  0.25500000920E-02 0.  1.
</event>
<event>
 5   0  0.2632875E-08  0.3888997E+04  0.7818609E-02  0.8027322E-01
        1   -1    0    0  501    0  0.00000000000E+00  0.00000000000E+00  0.19034301208E+04  0.19034301208E+04  0.50400001928E-02 0.  1.
       -1   -1    0    0    0  501  0.00000000000E+00  0.00000000000E+00 -0.19864529482E+04  0.19864529482E+04  0.50400001928E-02 0. -1.
    10030    2    1    2    0    0  0.00000000000E+00  0.00000000000E+00 -0.83022827374E+02  0.38898830690E+04  0.38889969787E+04 0.  0.
        2    1    3    3  502    0 -0.15090989537E+04  0.20937911070E+03 -0.12500313471E+04  0.19707353026E+04  0.25500000920E-02 0.  1.
       -2    1    3    3    0  502  0.15090989537E+04 -0.20937911070E+03  0.11670085198E+04  0.19191477664E+04  0.25500000920E-02 0. -1.
</event>
<event>
 5   0  0.8438211E-08  0.3878657E+04  0.7818609E-02  0.8029483E-01
        2   -1    0    0  501    0  0.00000000000E+00  0.00000000000E+00  0.28269584445E+04  0.28269584445E+04  0.25500000920E-02 0.  1.
       -2   -1    0    0    0  501  0.00000000000E+00  0.00000000000E+00 -0.13304034237E+04  0.13304034237E+04  0.25500000920E-02 0. -1.
    10030    2    1    2    0    0  0.00000000000E+00  0.00000000000E+00  0.14965550209E+04  0.41573618682E+04  0.38786570837E+04 0.  0.
        5    1    3    3  502    0  0.11186468329E+04  0.11774039501E+04 -0.38774944059E+03  0.16697372599E+04  0.46999998093E+01 0. -1.
       -5    1    3    3    0  502 -0.11186468329E+04 -0.11774039501E+04  0.18843044615E+04  0.24876246083E+04  0.46999998093E+01 0.  1.
</event>
<event>
 5   0  0.8438211E-08  0.3910000E+04  0.7818609E-02  0.8022953E-01
       -2   -1    0    0    0  501  0.00000000000E+00  0.00000000000E+00  0.12866398081E+04  0.12866398081E+04  0.25500000920E-02 0. -1.
        2   -1    0    0  501    0  0.00000000000E+00  0.00000000000E+00 -0.29705483205E+04  0.29705483205E+04  0.25500000920E-02 0.  1.
    10030    2    1    2    0    0  0.00000000000E+00  0.00000000000E+00 -0.16839085124E+04  0.42571881286E+04  0.39100003688E+04 0.  0.
        5    1    3    3  502    0 -0.76325813781E+03 -0.13598080168E+04  0.44188341345E+03  0.16207787846E+04  0.46999998093E+01 0. -1.
       -5    1    3    3    0  502  0.76325813781E+03  0.13598080168E+04 -0.21257919259E+04  0.26364093441E+04  0.46999998093E+01 0.  1.
</event>
<event>
 5   0  0.8676098E-08  0.3911283E+04  0.7818609E-02  0.8022687E-01
        2   -1    0    0  501    0  0.00000000000E+00  0.00000000000E+00  0.22678235369E+04  0.22678235369E+04  0.25500000920E-02 0.  1.
       -2   -1    0    0    0  501  0.00000000000E+00  0.00000000000E+00 -0.16864338925E+04  0.16864338925E+04  0.25500000920E-02 0. -1.
    10030    2    1    2    0    0  0.00000000000E+00  0.00000000000E+00  0.58138964439E+03  0.39542574293E+04  0.39112834082E+04 0.  0.
        3    1    3    3  502    0  0.12867926047E+04 -0.11175118703E+04  0.12603292999E+04  0.21196928887E+04  0.10100000352E+00 0.  1.
       -3    1    3    3    0  502 -0.12867926047E+04  0.11175118703E+04 -0.67893965548E+03  0.18345645407E+04  0.10100000352E+00 0. -1.
</event>
<event>
 5   0  0.8551754E-08  0.3901862E+04  0.7818609E-02  0.8024642E-01
       -2   -1    0    0    0  501  0.00000000000E+00  0.00000000000E+00  0.15479055461E+04  0.15479055461E+04  0.25500000920E-02 0.  1.
        2   -1    0    0  501    0  0.00000000000E+00  0.00000000000E+00 -0.24588913038E+04  0.24588913038E+04  0.25500000920E-02 0. -1.
    10030    2    1    2    0    0  0.00000000000E+00  0.00000000000E+00 -0.91098575771E+03  0.40067968499E+04  0.39018618563E+04 0.  0.
        1    1    3    3  502    0  0.10739414559E+04  0.12803661077E+04  0.57828035535E+03  0.17683596325E+04  0.50400001928E-02 0.  1.
       -1    1    3    3    0  502 -0.10739414559E+04 -0.12803661077E+04 -0.14892661131E+04  0.22384372174E+04  0.50400001928E-02 0. -1.
</event>
<event>
 5   0  0.2632875E-08  0.3908697E+04  0.7818609E-02  0.8023223E-01
       -1   -1    0    0    0  501  0.00000000000E+00  0.00000000000E+00  0.27377785863E+04  0.27377785863E+04  0.50400001928E-02 0. -1.
        1   -1    0    0  501    0  0.00000000000E+00  0.00000000000E+00 -0.13951008934E+04  0.13951008934E+04  0.50400001928E-02 0.  1.
    10030    2    1    2    0    0  0.00000000000E+00  0.00000000000E+00  0.13426776929E+04  0.41328794797E+04  0.39086966379E+04 0.  0.
        5    1    3    3  502    0 -0.10237245986E+04  0.13274049549E+04 -0.39099465793E+03  0.17213119649E+04  0.46999998093E+01 0.  1.
       -5    1    3    3    0  502  0.10237245986E+04 -0.13274049549E+04  0.17336723509E+04  0.24115675148E+04  0.46999998093E+01 0. -1.
</event>
<event>
 5   0  0.2632875E-08  0.3894017E+04  0.7818609E-02  0.8026275E-01
       -1   -1    0    0    0  501  0.00000000000E+00  0.00000000000E+00  0.11901089886E+04  0.11901089886E+04  0.50400001928E-02 0. -1.
        1   -1    0    0  501    0  0.00000000000E+00  0.00000000000E+00 -0.31852900862E+04  0.31852900862E+04  0.50400001928E-02 0.  1.
    10030    2    1    2    0    0  0.00000000000E+00  0.00000000000E+00 -0.19951810977E+04  0.43753990748E+04  0.38940171354E+04 0.  0.
        3    1    3    3  502    0  0.22214625298E+03  0.10422293530E+04  0.83334321385E+03  0.13527941100E+04  0.10100000352E+00 0. -1.
       -3    1    3    3    0  502 -0.22214625298E+03 -0.10422293530E+04 -0.28285243115E+04  0.30226049647E+04  0.10100000352E+00 0.  1.
</event>
<event>
 5   0  0.8476262E-08  0.3898419E+04  0.7818609E-02  0.8025358E-01
       -2   -1    0    0    0  501  0.00000000000E+00  0.00000000000E+00  0.15022935337E+04  0.15022935337E+04  0.25500000920E-02 0. -1.
        2   -1    0    0  501    0  0.00000000000E+00  0.00000000000E+00 -0.25290779238E+04  0.25290779238E+04  0.25500000920E-02 0.  1.
    10030    2    1    2    0    0  0.00000000000E+00  0.00000000000E+00 -0.10267843902E+04  0.40313714575E+04  0.38984188646E+04 0.  0.
        2    1    3    3  502    0  0.11114640723E+04  0.10398507476E+04  0.74582895650E+03  0.16949639506E+04  0.25500000920E-02 0. -1.
       -2    1    3    3    0  502 -0.11114640723E+04 -0.10398507476E+04 -0.17726133467E+04  0.23364075069E+04  0.25500000920E-02 0.  1.
</event>
<event>
 5   0  0.2632875E-08  0.3899875E+04  0.7818609E-02  0.8025055E-01
       -1   -1    0    0    0  501  0.00000000000E+00  0.00000000000E+00  0.18980594150E+04  0.18980594150E+04  0.50400001928E-02 0. -1.
        1   -1    0    0  501    0  0.00000000000E+00  0.00000000000E+00 -0.20032339929E+04  0.20032339929E+04  0.50400001928E-02 0.  1.
    10030    2    1    2    0    0  0.00000000000E+00  0.00000000000E+00 -0.10517457791E+03  0.39012934079E+04  0.38998754548E+04 0.  0.
        2    1    3    3  502    0 -0.13116506325E+04  0.12445921233E+04  0.67762345568E+03  0.19309610257E+04  0.25500000920E-02 0. -1.
       -2    1    3    3    0  502  0.13116506325E+04 -0.12445921233E+04 -0.78279803360E+03  0.19703323822E+04  0.25500000920E-02 0.  1.
</event>
<event>
 5   0  0.8551754E-08  0.3889053E+04  0.7818609E-02  0.8027310E-01
       -2   -1    0    0    0  501  0.00000000000E+00  0.00000000000E+00  0.22212881065E+04  0.22212881065E+04  0.25500000920E-02 0.  1.
        2   -1    0    0  501    0  0.00000000000E+00  0.00000000000E+00 -0.17022477656E+04  0.17022477656E+04  0.25500000920E-02 0. -1.
    10030    2    1    2    0    0  0.00000000000E+00  0.00000000000E+00  0.51904034085E+03  0.39235358721E+04  0.38890526950E+04 0.  0.
        1    1    3    3  502    0 -0.42553186172E+03 -0.18576831333E+04 -0.13006273639E+03  0.19102304323E+04  0.50400001928E-02 0. -1.
       -1    1    3    3    0  502  0.42553186172E+03  0.18576831333E+04  0.64910307724E+03  0.20133054398E+04  0.50400001928E-02 0.  1.
</event>
<event>
 5   0  0.8438211E-08  0.3901939E+04  0.7818609E-02  0.8024626E-01
        2   -1    0    0  501    0  0.00000000000E+00  0.00000000000E+00  0.23076613475E+04  0.23076613475E+04  0.25500000920E-02 0. -1.
       -2   -1    0    0    0  501  0.00000000000E+00  0.00000000000E+00 -0.16494107877E+04  0.16494107877E+04  0.25500000920E-02 0.  1.
    10030    2    1    2    0    0  0.00000000000E+00  0.00000000000E+00  0.65825055976E+03  0.39570721352E+04  0.39019387596E+04 0.  0.
        5    1    3    3  502    0 -0.19606991660E+03 -0.16147379478E+04 -0.76333177356E+03  0.17968081530E+04  0.46999998093E+01 0.  1.
       -5    1    3    3    0  502  0.19606991660E+03  0.16147379478E+04  0.14215823333E+04  0.21602639822E+04  0.46999998093E+01 0. -1.
</event>
<event>
 5   0  0.2632875E-08  0.3898389E+04  0.7818609E-02  0.8025364E-01
       -1   -1    0    0    0  501  0.00000000000E+00  0.00000000000E+00  0.27361454628E+04  0.27361454628E+04  0.50400001928E-02 0.  1.
        1   -1    0    0  501    0  0.00000000000E+00  0.00000000000E+00 -0.13885808755E+04  0.13885808755E+04  0.50400001928E-02 0. -1.
    10030    2    1    2    0    0  0.00000000000E+00  0.00000000000E+00  0.13475645873E+04  0.41247263383E+04  0.38983890326E+04 0.  0.
        5    1    3    3  502    0  0.17216313896E+04 -0.33384726973E+03  0.15739839584E+04  0.23564626525E+04  0.46999998093E+01 0. -1.
       -5    1    3    3    0  502 -0.17216313896E+04  0.33384726973E+03 -0.22641937104E+03  0.17682636859E+04  0.46999998093E+01 0.  1.
</event>
<event>
 5   0  0.2632875E-08  0.3878116E+04  0.7818609E-02  0.8029596E-01
       -1   -1    0    0    0  501  0.00000000000E+00  0.00000000000E+00  0.14335193982E+04  0.14335193983E+04  0.50400001928E-02 0.  1.
        1   -1    0    0  501    0  0.00000000000E+00  0.00000000000E+00 -0.26228769497E+04  0.26228769497E+04  0.50400001928E-02 0. -1.
    10030    2    1    2    0    0  0.00000000000E+00  0.00000000000E+00 -0.11893575515E+04  0.40563963480E+04  0.38781155148E+04 0.  0.
        5    1    3    3  502    0 -0.45311519974E+03 -0.13206383709E+04  0.81273488413E+03  0.16155368064E+04  0.46999998093E+01 0.  1.
       -5    1    3    3    0  502  0.45311519974E+03  0.13206383709E+04 -0.20020924356E+04  0.24408595416E+04  0.46999998093E+01 0. -1.
</event>
<event>
 5   0  0.8551754E-08  0.3840107E+04  0.7818609E-02  0.8037603E-01
       -2   -1    0    0    0  501  0.00000000000E+00  0.00000000000E+00  0.15885699179E+04  0.15885699179E+04  0.25500000920E-02 0. -1.
        2   -1    0    0  501    0  0.00000000000E+00  0.00000000000E+00 -0.23207064856E+04  0.23207064856E+04  0.25500000920E-02 0.  1.
    10030    2    1    2    0    0  0.00000000000E+00  0.00000000000E+00 -0.73213656771E+03  0.39092764034E+04  0.38401065148E+04 0.  0.
        1    1    3    3  502    0 -0.90310704262E+03  0.14759210994E+04  0.48118424936E+03  0.17959631689E+04  0.50400001928E-02 0. -1.
       -1    1    3    3    0  502  0.90310704262E+03 -0.14759210994E+04 -0.12133208171E+04  0.21133132345E+04  0.50400001928E-02 0.  1.
</event>
<event>
 5   0  0.8342802E-08  0.3889751E+04  0.7818609E-02  0.8027164E-01
       -2   -1    0    0    0  501  0.00000000000E+00  0.00000000000E+00  0.33611984670E+04  0.33611984670E+04  0.25500000920E-02 0.  1.
        2   -1    0    0  501    0  0.00000000000E+00  0.00000000000E+00 -0.11253548287E+04  0.11253548287E+04  0.25500000920E-02 0. -1.
    10030    2    1    2    0    0  0.00000000000E+00  0.00000000000E+00  0.22358436383E+04  0.44865532957E+04  0.38897511104E+04 0.  0.
        4    1    3    3  502    0  0.44093261273E+03  0.12482239183E+04  0.27613279306E+04  0.30622570226E+04  0.12699999809E+01 0.  1.
       -4    1    3    3    0  502 -0.44093261273E+03 -0.12482239183E+04 -0.52548429234E+03  0.14242962731E+04  0.12699999809E+01 0. -1.
</event>
<event>
 5   0  0.2632875E-08  0.3891002E+04  0.7818609E-02  0.8026903E-01
        1   -1    0    0  501    0  0.00000000000E+00  0.00000000000E+00  0.23117374032E+04  0.23117374032E+04  0.50400001928E-02 0.  1.
       -1   -1    0    0    0  501  0.00000000000E+00  0.00000000000E+00 -0.16372852909E+04  0.16372852909E+04  0.50400001928E-02 0. -1.
    10030    2    1    2    0    0  0.00000000000E+00  0.00000000000E+00  0.67445211232E+03  0.39490226942E+04  0.38910017460E+04 0.  0.
        2    1    3    3  502    0 -0.89044838564E+02  0.18197520456E+04  0.10297105335E+04  0.20927805126E+04  0.25500000920E-02 0.  1.
       -2    1    3    3    0  502  0.89044838564E+02 -0.18197520456E+04 -0.35525842122E+03  0.18562421816E+04  0.25500000920E-02 0. -1.
</event>
<event>
 5   0  0.2632875E-08  0.3895376E+04  0.7818609E-02  0.8025992E-01
       -1   -1    0    0    0  501  0.00000000000E+00  0.00000000000E+00  0.19275063077E+04  0.19275063077E+04  0.50400001928E-02 0. -1.
        1   -1    0    0  501    0  0.00000000000E+00  0.00000000000E+00 -0.19680814556E+04  0.19680814556E+04  0.50400001928E-02 0.  1.
    10030    2    1    2    0    0  0.00000000000E+00  0.00000000000E+00 -0.40575147950E+02  0.38955877633E+04  0.38953764489E+04 0.  0.
        4    1    3    3  502    0 -0.83566198348E+03  0.15159570339E+04  0.87252685456E+03  0.19384946232E+04  0.12699999809E+01 0. -1.
       -4    1    3    3    0  502  0.83566198348E+03 -0.15159570339E+04 -0.91310200251E+03  0.19570931401E+04  0.12699999809E+01 0.  1.
</event>
<event>
 5   0  0.8676098E-08  0.3910839E+04  0.7818609E-02  0.8022779E-01
        2   -1    0    0  501    0  0.00000000000E+00  0.00000000000E+00  0.16016544497E+04  0.16016544497E+04  0.25500000920E-02 0. -1.
       -2   -1    0    0    0  501  0.00000000000E+00  0.00000000000E+00 -0.23873221000E+04  0.23873221000E+04  0.25500000920E-02 0.  1.
    10030    2    1    2    0    0  0.00000000000E+00  0.00000000000E+00 -0.78566765030E+03  0.39889765497E+04  0.39108388177E+04 0.  0.
        3    1    3    3  502    0 -0.11306341413E+04  0.49080080739E+03 -0.19412041510E+04  0.22994548397E+04  0.10100000352E+00 0.  1.
       -3    1    3    3    0  502  0.11306341413E+04 -0.49080080739E+03  0.11555365007E+04  0.16895217100E+04  0.10100000352E+00 0. -1.
</event>
<event>
 5   0  0.2632875E-08  0.3898659E+04  0.7818609E-02  0.8025308E-01
        1   -1    0    0  501    0  0.00000000000E+00  0.00000000000E+00  0.28854141924E+04  0.28854141924E+04  0.50400001928E-02 0. -1.
       -1   -1    0    0    0  501  0.00000000000E+00  0.00000000000E+00 -0.13169292822E+04  0.13169292822E+04  0.50400001928E-02 0.  1.
    10030    2    1    2    0    0  0.00000000000E+00  0.00000000000E+00  0.15684849102E+04  0.42023434746E+04  0.38986594831E+04 0.  0.
        1    1    3    3  502    0  0.12735504488E+04 -0.14756086905E+04  0.75931795372E+03  0.20918689032E+04  0.50400001928E-02 0.  1.
       -1    1    3    3    0  502 -0.12735504488E+04  0.14756086905E+04  0.80916695652E+03  0.21104745715E+04  0.50400001928E-02 0. -1.
</event>
<event>
 5   0  0.8438211E-08  0.3875498E+04  0.7818609E-02  0.8030145E-01
       -2   -1    0    0    0  501  0.00000000000E+00  0.00000000000E+00  0.21627935381E+04  0.21627935381E+04  0.25500000920E-02 0. -1.
        2   -1    0    0  501    0  0.00000000000E+00  0.00000000000E+00 -0.17361205141E+04  0.17361205141E+04  0.25500000920E-02 0.  1.
    10030    2    1    2    0    0  0.00000000000E+00  0.00000000000E+00  0.42667302396E+03  0.38989140522E+04  0.38754975058E+04 0.  0.
        5    1    3    3  502    0 -0.14731312159E+04  0.81021912502E+03 -0.75595658276E+03  0.18433835887E+04  0.46999998093E+01 0.  1.
       -5    1    3    3    0  502  0.14731312159E+04 -0.81021912502E+03  0.11826296067E+04  0.20555304636E+04  0.46999998093E+01 0. -1.
</event>
<event>
 5   0  0.2632875E-08  0.3914318E+04  0.7818609E-02  0.8022058E-01
       -1   -1    0    0    0  501  0.00000000000E+00  0.00000000000E+00  0.27860096977E+04  0.27860096977E+04  0.50400001928E-02 0. -1.
        1   -1    0    0  501    0  0.00000000000E+00  0.00000000000E+00 -0.13748953303E+04  0.13748953303E+04  0.50400001928E-02 0.  1.
    10030    2    1    2    0    0  0.00000000000E+00  0.00000000000E+00  0.14111143674E+04  0.41609050279E+04  0.39143181901E+04 0.  0.
        2    1    3    3  502    0  0.15067828896E+04  0.28407495456E+03  0.19984762018E+04  0.25189284201E+04  0.25500000920E-02 0. -1.
       -2    1    3    3    0  502 -0.15067828896E+04 -0.28407495456E+03 -0.58736183439E+03  0.16419766079E+04  0.25500000920E-02 0.  1.
</event>
<event>
 5   0  0.8551754E-08  0.3916000E+04  0.7818609E-02  0.8021710E-01
        2   -1    0    0  501    0  0.00000000000E+00  0.00000000000E+00  0.13937316949E+04  0.13937316949E+04  0.25500000920E-02 0.  1.
       -2   -1    0    0    0  501  0.00000000000E+00  0.00000000000E+00 -0.27507193871E+04  0.27507193871E+04  0.25500000920E-02 0. -1.
    10030    2    1    2    0    0  0.00000000000E+00  0.00000000000E+00 -0.13569876921E+04  0.41444510820E+04  0.39160004053E+04 0.  0.
        1    1    3    3  502    0  0.14559010056E+04 -0.41004366421E+03 -0.19944044933E+04  0.25030846625E+04  0.50400001928E-02 0. -1.
       -1    1    3    3    0  502 -0.14559010056E+04  0.41004366421E+03  0.63741680116E+03  0.16413664195E+04  0.50400001928E-02 0.  1.
</event>
<event>
 5   0  0.8476262E-08  0.3919713E+04  0.7818609E-02  0.8020942E-01
        2   -1    0    0  501    0  0.00000000000E+00  0.00000000000E+00  0.17103735183E+04  0.17103735183E+04  0.25500000920E-02 0.  1.
       -2   -1    0    0    0  501  0.00000000000E+00  0.00000000000E+00 -0.22457299047E+04  0.22457299047E+04  0.25500000920E-02 0. -1.
    10030    2    1    2    0    0  0.00000000000E+00  0.00000000000E+00 -0.53535638640E+03  0.39561034229E+04  0.39197127232E+04 0.  0.
        2    1    3    3  502    0  0.15157765869E+04 -0.48646104901E+03 -0.14214509446E+04  0.21341850439E+04  0.25500000920E-02 0. -1.
       -2    1    3    3    0  502 -0.15157765869E+04  0.48646104901E+03  0.88609455822E+03  0.18219183790E+04  0.25500000920E-02 0.  1.
</event>
<event>
 5   0  0.2632875E-08  0.3986800E+04  0.7818609E-02  0.8007215E-01
        1   -1    0    0  501    0  0.00000000000E+00  0.00000000000E+00  0.13092168184E+04  0.13092168184E+04  0.50400001928E-02 0.  1.
       -1   -1    0    0    0  501  0.00000000000E+00  0.00000000000E+00 -0.30351297579E+04  0.30351297579E+04  0.50400001928E-02 0. -1.
    10030    2    1    2    0    0  0.00000000000E+00  0.00000000000E+00 -0.17259129394E+04  0.43443465763E+04  0.39867996815E+04 0.  0.
        4    1    3    3  502    0  0.16401384614E+04  0.35869983911E+03 -0.20340087791E+04  0.26374065052E+04  0.12699999809E+01 0. -1.
       -4    1    3    3    0  502 -0.16401384614E+04 -0.35869983911E+03  0.30809583969E+03  0.17069400711E+04  0.12699999809E+01 0.  1.
</event>
<event>
 5   0  0.8342802E-08  0.3905056E+04  0.7818609E-02  0.8023979E-01
        2   -1    0    0  501    0  0.00000000000E+00  0.00000000000E+00  0.17916959244E+04  0.17916959244E+04  0.25500000920E-02 0.  1.
       -2   -1    0    0    0  501  0.00000000000E+00  0.00000000000E+00 -0.21277967026E+04  0.21277967026E+04  0.25500000920E-02 0. -1.
    10030    2    1    2    0    0  0.00000000000E+00  0.00000000000E+00 -0.33610077825E+03  0.39194926270E+04  0.39050555336E+04 0.  0.
        4    1    3    3  502    0 -0.58899614691E+03  0.83688276409E+03 -0.18370491130E+04  0.21028647789E+04  0.12699999809E+01 0. -1.
       -4    1    3    3    0  502  0.58899614691E+03 -0.83688276409E+03  0.15009483348E+04  0.18166278481E+04  0.12699999809E+01 0.  1.
</event>
<event>
 5   0  0.8438211E-08  0.3927917E+04  0.7818609E-02  0.8019248E-01
        2   -1    0    0  501    0  0.00000000000E+00  0.00000000000E+00  0.12660634949E+04  0.12660634949E+04  0.25500000920E-02 0.  1.
       -2   -1    0    0    0  501  0.00000000000E+00  0.00000000000E+00 -0.30465550805E+04  0.30465550805E+04  0.25500000920E-02 0. -1.
    10030    2    1    2    0    0  0.00000000000E+00  0.00000000000E+00 -0.17804915856E+04  0.43126185754E+04  0.39279165840E+04 0.  0.
        5    1    3    3  502    0 -0.11204824875E+04  0.12664900271E+04  0.20639399296E+03  0.17035546847E+04  0.46999998093E+01 0.  1.
       -5    1    3    3    0  502  0.11204824875E+04 -0.12664900271E+04 -0.19868855785E+04  0.26090638907E+04  0.46999998093E+01 0. -1.
</event>
<event>
 5   0  0.2632875E-08  0.3910997E+04  0.7818609E-02  0.8022746E-01
        1   -1    0    0  501    0  0.00000000000E+00  0.00000000000E+00  0.12190209152E+04  0.12190209152E+04  0.50400001928E-02 0.  1.
       -1   -1    0    0    0  501  0.00000000000E+00  0.00000000000E+00 -0.31369223896E+04  0.31369223896E+04  0.50400001928E-02 0. -1.
    10030    2    1    2    0    0  0.00000000000E+00  0.00000000000E+00 -0.19179014744E+04  0.43559433048E+04  0.39109968051E+04 0.  0.
        1    1    3    3  502    0  0.85467316422E+02  0.13885805270E+04  0.57162491210E+03  0.15040663490E+04  0.50400001928E-02 0.  1.
       -1    1    3    3    0  502 -0.85467316422E+02 -0.13885805270E+04 -0.24895263865E+04  0.28518769558E+04  0.50400001928E-02 0. -1.
</event>
<event>
 5   0  0.8342802E-08  0.3898257E+04  0.7818609E-02  0.8025392E-01
       -2   -1    0    0    0  501  0.00000000000E+00  0.00000000000E+00  0.22132351711E+04  0.22132351711E+04  0.25500000920E-02 0.  1.
        2   -1    0    0  501    0  0.00000000000E+00  0.00000000000E+00 -0.17165379005E+04  0.17165379005E+04  0.25500000920E-02 0. -1.
    10030    2    1    2    0    0  0.00000000000E+00  0.00000000000E+00  0.49669727058E+03  0.39297730715E+04  0.38982570740E+04 0.  0.
        4    1    3    3  502    0  0.15101738639E+04  0.12200459580E+04  0.42284689768E+03  0.19869419596E+04  0.12699999809E+01 0. -1.
       -4    1    3    3    0  502 -0.15101738639E+04 -0.12200459580E+04  0.73850372903E+02  0.19428311119E+04  0.12699999809E+01 0.  1.
</event>
<event>
 5   0  0.2632875E-08  0.3902165E+04  0.7818609E-02  0.8024579E-01
        1   -1    0    0  501    0  0.00000000000E+00  0.00000000000E+00  0.21905451639E+04  0.21905451639E+04  0.50400001928E-02 0.  1.
       -1   -1    0    0    0  501  0.00000000000E+00  0.00000000000E+00 -0.17377969243E+04  0.17377969243E+04  0.50400001928E-02 0. -1.
    10030    2    1    2    0    0  0.00000000000E+00  0.00000000000E+00  0.45274823963E+03  0.39283420882E+04  0.39021648598E+04 0.  0.
        5    1    3    3  502    0  0.16771615104E+04  0.97332179819E+03  0.44339976984E+03  0.19891836267E+04  0.46999998093E+01 0.  1.
       -5    1    3    3    0  502 -0.16771615104E+04 -0.97332179819E+03  0.93484697915E+01  0.19391584615E+04  0.46999998093E+01 0. -1.
</event>
<event>
 5   0  0.2632875E-08  0.3915961E+04  0.7818609E-02  0.8021718E-01
        1   -1    0    0  501    0  0.00000000000E+00  0.00000000000E+00  0.18154748345E+04  0.18154748345E+04  0.50400001928E-02 0. -1.
       -1   -1    0    0    0  501  0.00000000000E+00  0.00000000000E+00 -0.21116720615E+04  0.21116720615E+04  0.50400001928E-02 0.  1.
    10030    2    1    2    0    0  0.00000000000E+00  0.00000000000E+00 -0.29619722703E+03  0.39271468960E+04  0.39159609224E+04 0.  0.
        2    1    3    3  502    0  0.52840291892E+03 -0.18819742934E+04 -0.26089478708E+03  0.19720808746E+04  0.25500000920E-02 0.  1.
       -2    1    3    3    0  502 -0.52840291892E+03  0.18819742934E+04 -0.35302439947E+02  0.19550660214E+04  0.25500000920E-02 0. -1.
</event>
<event>
 5   0  0.2632875E-08  0.3909802E+04  0.7818609E-02  0.8022994E-01
        1   -1    0    0  501    0  0.00000000000E+00  0.00000000000E+00  0.18972586256E+04  0.18972586256E+04  0.50400001928E-02 0.  1.
       -1   -1    0    0    0  501  0.00000000000E+00  0.00000000000E+00 -0.20142950977E+04  0.20142950977E+04  0.50400001928E-02 0. -1.
    10030    2    1    2    0    0  0.00000000000E+00  0.00000000000E+00 -0.11703647211E+03  0.39115537232E+04  0.39098024239E+04 0.  0.
        2    1    3    3  502    0  0.16617775962E+04  0.94391830186E+03 -0.46998363886E+03  0.19680881994E+04  0.25500000920E-02 0. -1.
       -2    1    3    3    0  502 -0.16617775962E+04 -0.94391830186E+03  0.35294716675E+03  0.19434655238E+04  0.25500000920E-02 0.  1.
</event>
<event>
 5   0  0.2632875E-08  0.3898491E+04  0.7818609E-02  0.8025343E-01
       -1   -1    0    0    0  501  0.00000000000E+00  0.00000000000E+00  0.16699606635E+04  0.16699606635E+04  0.50400001928E-02 0. -1.
        1   -1    0    0  501    0  0.00000000000E+00  0.00000000000E+00 -0.22752379304E+04  0.22752379304E+04  0.50400001928E-02 0.  1.
    10030    2    1    2    0    0  0.00000000000E+00  0.00000000000E+00 -0.60527726684E+03  0.39451985939E+04  0.38984909100E+04 0.  0.
        3    1    3    3  502    0 -0.32149969536E+03  0.28846710482E+03  0.16209193107E+04  0.16774846488E+04  0.10100000352E+00 0. -1.
       -3    1    3    3    0  502  0.32149969536E+03 -0.28846710482E+03 -0.22261965776E+04  0.22677139451E+04  0.10100000352E+00 0.  1.
</event>
<event>
 5   0  0.2632875E-08  0.3920688E+04  0.7818609E-02  0.8020740E-01
       -3   -1    0    0    0  501  0.00000000000E+00  0.00000000000E+00  0.14185645863E+04  0.14185645899E+04  0.10100000352E+00 0. -1.
        3   -1    0    0  501    0  0.00000000000E+00  0.00000000000E+00 -0.27090408829E+04  0.27090408848E+04  0.10100000352E+00 0.  1.
    10030    2    1    2    0    0  0.00000000000E+00  0.00000000000E+00 -0.12904762966E+04  0.41276054747E+04  0.39206884450E+04 0.  0.
        2    1    3    3  502    0 -0.12386741301E+03  0.78853933400E+03  0.12397337318E+04  0.14744752093E+04  0.25500000920E-02 0. -1.
       -2    1    3    3    0  502  0.12386741301E+03 -0.78853933400E+03 -0.25302100284E+04  0.26531302654E+04  0.25500000920E-02 0.  1.
</event>
<event>
 5   0  0.2632875E-08  0.3891073E+04  0.7818609E-02  0.8026888E-01
       -1   -1    0    0    0  501  0.00000000000E+00  0.00000000000E+00  0.13528447149E+04  0.13528447149E+04  0.50400001928E-02 0. -1.
        1   -1    0    0  501    0  0.00000000000E+00  0.00000000000E+00 -0.27978907005E+04  0.27978907005E+04  0.50400001928E-02 0.  1.
    10030    2    1    2    0    0  0.00000000000E+00  0.00000000000E+00 -0.14450459856E+04  0.41507354154E+04  0.38910726783E+04 0.  0.
        2    1    3    3  502    0  0.12960505809E+04  0.13925365553E+04 -0.28763272902E+03  0.19239640727E+04  0.25500000920E-02 0. -1.
       -2    1    3    3    0  502 -0.12960505809E+04 -0.13925365553E+04 -0.11574132566E+04  0.22267713427E+04  0.25500000920E-02 0.  1.
</event>
<event>
 5   0  0.8342802E-08  0.3901578E+04  0.7818609E-02  0.8024701E-01
       -2   -1    0    0    0  501  0.00000000000E+00  0.00000000000E+00  0.14328095572E+04  0.14328095572E+04  0.25500000920E-02 0.  1.
        2   -1    0    0  501    0  0.00000000000E+00  0.00000000000E+00 -0.26560249582E+04  0.26560249582E+04  0.25500000920E-02 0. -1.
    10030    2    1    2    0    0  0.00000000000E+00  0.00000000000E+00 -0.12232154010E+04  0.40888345154E+04  0.39015781137E+04 0.  0.
        4    1    3    3  502    0  0.10285787948E+04 -0.21717729827E+03  0.11105629093E+04  0.15292128382E+04  0.12699999809E+01 0.  1.
       -4    1    3    3    0  502 -0.10285787948E+04  0.21717729827E+03 -0.23337783103E+04  0.25596216772E+04  0.12699999809E+01 0. -1.
</event>
<event>
 5   0  0.8342802E-08  0.3953618E+04  0.7818609E-02  0.8013969E-01
       -2   -1    0    0    0  501  0.00000000000E+00  0.00000000000E+00  0.14586593298E+04  0.14586593298E+04  0.25500000920E-02 0.  1.
        2   -1    0    0  501    0  0.00000000000E+00  0.00000000000E+00 -0.26790179633E+04  0.26790179633E+04  0.25500000920E-02 0. -1.
    10030    2    1    2    0    0  0.00000000000E+00  0.00000000000E+00 -0.12203586335E+04  0.41376772931E+04  0.39536183664E+04 0.  0.
        4    1    3    3  502    0  0.56523753499E+02 -0.11325006649E+04 -0.23048288277E+04  0.25686553348E+04  0.12699999809E+01 0. -1.
       -4    1    3    3    0  502 -0.56523753499E+02  0.11325006649E+04  0.10844701942E+04  0.15690219583E+04  0.12699999809E+01 0.  1.
</event>
<event>
 5   0  0.8551754E-08  0.3899163E+04  0.7818609E-02  0.8025203E-01
        2   -1    0    0  501    0  0.00000000000E+00  0.00000000000E+00  0.19557844487E+04  0.19557844487E+04  0.25500000920E-02 0. -1.
       -2   -1    0    0    0  501  0.00000000000E+00  0.00000000000E+00 -0.19433979260E+04  0.19433979260E+04  0.25500000920E-02 0.  1.
    10030    2    1    2    0    0  0.00000000000E+00  0.00000000000E+00  0.12386522687E+02  0.38991823748E+04  0.38991627006E+04 0.  0.
        1    1    3    3  502    0  0.10670791059E+04  0.15622148366E+04  0.47704001407E+03  0.19510869251E+04  0.50400001928E-02 0. -1.
       -1    1    3    3    0  502 -0.10670791059E+04 -0.15622148366E+04 -0.46465349138E+03  0.19480954497E+04  0.50400001928E-02 0.  1.
</event>
<event>
 5   0  0.2632875E-08  0.3892534E+04  0.7818609E-02  0.8026584E-01
        1   -1    0    0  501    0  0.00000000000E+00  0.00000000000E+00  0.26941509954E+04  0.26941509954E+04  0.50400001928E-02 0.  1.
       -1   -1    0    0    0  501  0.00000000000E+00  0.00000000000E+00 -0.14059924316E+04  0.14059924316E+04  0.50400001928E-02 0. -1.
    10030    2    1    2    0    0  0.00000000000E+00  0.00000000000E+00  0.12881585638E+04  0.41001434271E+04  0.38925343463E+04 0.  0.
        4    1    3    3  502    0  0.38206924699E+03 -0.72626642178E+03  0.25030038717E+04  0.26340975342E+04  0.12699999809E+01 0.  1.
       -4    1    3    3    0  502 -0.38206924699E+03  0.72626642178E+03 -0.12148453079E+04  0.14660458929E+04  0.12699999809E+01 0. -1.
</event>
<event>
 5   0  0.2632875E-08  0.3893940E+04  0.7818609E-02  0.8026291E-01
       -1   -1    0    0    0  501  0.00000000000E+00  0.00000000000E+00  0.14503503728E+04  0.14503503729E+04  0.50400001928E-02 0. -1.
        1   -1    0    0  501    0  0.00000000000E+00  0.00000000000E+00 -0.26136393781E+04  0.26136393781E+04  0.50400001928E-02 0.  1.
    10030    2    1    2    0    0  0.00000000000E+00  0.00000000000E+00 -0.11632890053E+04  0.40639897510E+04  0.38939403419E+04 0.  0.
        4    1    3    3  502    0  0.13002906179E+03  0.68114197189E+03 -0.24803871626E+04  0.25754968515E+04  0.12699999809E+01 0.  1.
       -4    1    3    3    0  502 -0.13002906179E+03 -0.68114197189E+03  0.13170981573E+04  0.14884928995E+04  0.12699999809E+01 0. -1.
</event>
<event>
 5   0  0.8438211E-08  0.3931087E+04  0.7818609E-02  0.8018595E-01
       -2   -1    0    0    0  501  0.00000000000E+00  0.00000000000E+00  0.17938844895E+04  0.17938844895E+04  0.25500000920E-02 0. -1.
        2   -1    0    0  501    0  0.00000000000E+00  0.00000000000E+00 -0.21536289392E+04  0.21536289392E+04  0.25500000920E-02 0.  1.
    10030    2    1    2    0    0  0.00000000000E+00  0.00000000000E+00 -0.35974444967E+03  0.39475134286E+04  0.39310871525E+04 0.  0.
        5    1    3    3  502    0  0.60952736825E+03  0.63466609298E+03 -0.19447756185E+04  0.21345957365E+04  0.46999998093E+01 0.  1.
       -5    1    3    3    0  502 -0.60952736825E+03 -0.63466609298E+03  0.15850311688E+04  0.18129176921E+04  0.46999998093E+01 0. -1.
</event>
<event>
 5   0  0.2632875E-08  0.3871876E+04  0.7818609E-02  0.8030904E-01
       -1   -1    0    0    0  501  0.00000000000E+00  0.00000000000E+00  0.26108183985E+04  0.26108183985E+04  0.50400001928E-02 0. -1.
        1   -1    0    0  501    0  0.00000000000E+00  0.00000000000E+00 -0.14355101901E+04  0.14355101901E+04  0.50400001928E-02 0.  1.
    10030    2    1    2    0    0  0.00000000000E+00  0.00000000000E+00  0.11753082084E+04  0.40463285886E+04  0.38718762457E+04 0.  0.
        5    1    3    3  502    0  0.46840351914E+03  0.16030787517E+04  0.16108335782E+04  0.23203599392E+04  0.46999998093E+01 0. -1.
       -5    1    3    3    0  502 -0.46840351914E+03 -0.16030787517E+04 -0.43552536979E+03  0.17259686494E+04  0.46999998093E+01 0.  1.
</event>
<event>
 5   0  0.8476262E-08  0.3914356E+04  0.7818609E-02  0.8022050E-01
        2   -1    0    0  501    0  0.00000000000E+00  0.00000000000E+00  0.17181709552E+04  0.17181709552E+04  0.25500000920E-02 0.  1.
       -2   -1    0    0    0  501  0.00000000000E+00  0.00000000000E+00 -0.22294317170E+04  0.22294317170E+04  0.25500000920E-02 0. -1.
    10030    2    1    2    0    0  0.00000000000E+00  0.00000000000E+00 -0.51126076175E+03  0.39476026722E+04  0.39143555397E+04 0.  0.
        2    1    3    3  502    0  0.12293535811E+04  0.11950014100E+04 -0.12076858893E+04  0.20971036704E+04  0.25500000920E-02 0. -1.
       -2    1    3    3    0  502 -0.12293535811E+04 -0.11950014100E+04  0.69642512754E+03  0.18504990018E+04  0.25500000920E-02 0.  1.
</event>
<event>
 5   0  0.2632875E-08  0.3899061E+04  0.7818609E-02  0.8025224E-01
       -1   -1    0    0    0  501  0.00000000000E+00  0.00000000000E+00  0.14904226842E+04  0.14904226842E+04  0.50400001928E-02 0.  1.
        1   -1    0    0  501    0  0.00000000000E+00  0.00000000000E+00 -0.25500614552E+04  0.25500614552E+04  0.50400001928E-02 0. -1.
    10030    2    1    2    0    0  0.00000000000E+00  0.00000000000E+00 -0.10596387709E+04  0.40404841394E+04  0.38990611377E+04 0.  0.
        3    1    3    3  502    0 -0.17114746238E+04  0.88163585055E+03 -0.21169553872E+03  0.19368123741E+04  0.10100000352E+00 0.  1.
       -3    1    3    3    0  502  0.17114746238E+04 -0.88163585055E+03 -0.84794323223E+03  0.21036717653E+04  0.10100000352E+00 0. -1.
</event>
<event>
 5   0  0.8676098E-08  0.3895086E+04  0.7818609E-02  0.8026052E-01
        2   -1    0    0  501    0  0.00000000000E+00  0.00000000000E+00  0.18012724362E+04  0.18012724362E+04  0.25500000920E-02 0. -1.
       -2   -1    0    0    0  501  0.00000000000E+00  0.00000000000E+00 -0.21056911800E+04  0.21056911800E+04  0.25500000920E-02 0.  1.
    10030    2    1    2    0    0  0.00000000000E+00  0.00000000000E+00 -0.30441874382E+03  0.39069636162E+04  0.38950858690E+04 0.  0.
        3    1    3    3  502    0  0.84083088950E+03  0.69451520290E+03 -0.17706896817E+04  0.20795888803E+04  0.10100000352E+00 0.  1.
       -3    1    3    3    0  502 -0.84083088950E+03 -0.69451520290E+03  0.14662709379E+04  0.18273747359E+04  0.10100000352E+00 0. -1.
</event>
<event>
 5   0  0.8342802E-08  0.3883163E+04  0.7818609E-02  0.8028540E-01
        2   -1    0    0  501    0  0.00000000000E+00  0.00000000000E+00  0.21000590953E+04  0.21000590953E+04  0.25500000920E-02 0.  1.
       -2   -1    0    0    0  501  0.00000000000E+00  0.00000000000E+00 -0.17950631344E+04  0.17950631344E+04  0.25500000920E-02 0. -1.
    10030    2    1    2    0    0  0.00000000000E+00  0.00000000000E+00  0.30499596087E+03  0.38951222297E+04  0.38831629695E+04 0.  0.
        4    1    3    3  502    0  0.87721054849E+03 -0.16381142226E+04 -0.41210362404E+03  0.19033516655E+04  0.12699999809E+01 0. -1.
       -4    1    3    3    0  502 -0.87721054849E+03  0.16381142226E+04  0.71709958491E+03  0.19917705642E+04  0.12699999809E+01 0.  1.
</event>
<event>
 5   0  0.8342802E-08  0.3897532E+04  0.7818609E-02  0.8025543E-01
        2   -1    0    0  501    0  0.00000000000E+00  0.00000000000E+00  0.16783683587E+04  0.16783683587E+04  0.25500000920E-02 0. -1.
       -2   -1    0    0    0  501  0.00000000000E+00  0.00000000000E+00 -0.22627271286E+04  0.22627271286E+04  0.25500000920E-02 0.  1.
    10030    2    1    2    0    0  0.00000000000E+00  0.00000000000E+00 -0.58435876989E+03  0.39410954872E+04  0.38975323562E+04 0.  0.
        4    1    3    3  502    0  0.75792079084E+03  0.15473260015E+04  0.62850629531E+03  0.18340347479E+04  0.12699999809E+01 0. -1.
       -4    1    3    3    0  502 -0.75792079084E+03 -0.15473260015E+04 -0.12128650652E+04  0.21070607394E+04  0.12699999809E+01 0.  1.
</event>
<event>
 5   0  0.2632875E-08  0.3905996E+04  0.7818609E-02  0.8023783E-01
        1   -1    0    0  501    0  0.00000000000E+00  0.00000000000E+00  0.26574069362E+04  0.26574069362E+04  0.50400001928E-02 0.  1.
       -1   -1    0    0    0  501  0.00000000000E+00  0.00000000000E+00 -0.14353091108E+04  0.14353091108E+04  0.50400001928E-02 0. -1.
    10030    2    1    2    0    0  0.00000000000E+00  0.00000000000E+00  0.12220978254E+04  0.40927160471E+04  0.39059955898E+04 0.  0.
        4    1    3    3  502    0  0.81034500683E+03 -0.48605220009E+03 -0.11798349574E+04  0.15115944929E+04  0.12699999809E+01 0. -1.
       -4    1    3    3    0  502 -0.81034500683E+03  0.48605220009E+03  0.24019327828E+04  0.25811215542E+04  0.12699999809E+01 0.  1.
</event>
<event>
 5   0  0.8551754E-08  0.3911605E+04  0.7818609E-02  0.8022620E-01
       -2   -1    0    0    0  501  0.00000000000E+00  0.00000000000E+00  0.13316316960E+04  0.13316316960E+04  0.25500000920E-02 0.  1.
        2   -1    0    0  501    0  0.00000000000E+00  0.00000000000E+00 -0.28725387106E+04  0.28725387106E+04  0.25500000920E-02 0. -1.
    10030    2    1    2    0    0  0.00000000000E+00  0.00000000000E+00 -0.15409070146E+04  0.42041704067E+04  0.39116050901E+04 0.  0.
        1    1    3    3  502    0  0.51033274513E+03  0.13120564533E+04 -0.22296551265E+04  0.26369098639E+04  0.50400001928E-02 0. -1.
       -1    1    3    3    0  502 -0.51033274513E+03 -0.13120564533E+04  0.68874811185E+03  0.15672605428E+04  0.50400001928E-02 0.  1.
</event>
<event>
 5   0  0.2632875E-08  0.3886416E+04  0.7818609E-02  0.8027860E-01
       -1   -1    0    0    0  501  0.00000000000E+00  0.00000000000E+00  0.12329706220E+04  0.12329706221E+04  0.50400001928E-02 0. -1.
        1   -1    0    0  501    0  0.00000000000E+00  0.00000000000E+00 -0.30625684502E+04  0.30625684502E+04  0.50400001928E-02 0.  1.
    10030    2    1    2    0    0  0.00000000000E+00  0.00000000000E+00 -0.18295978282E+04  0.42955390723E+04  0.38864157920E+04 0.  0.
        3    1    3    3  502    0  0.94437752381E+03 -0.90593213699E+03 -0.25025050352E+04  0.28240207871E+04  0.10100000352E+00 0.  1.
       -3    1    3    3    0  502 -0.94437752381E+03  0.90593213699E+03  0.67290720701E+03  0.14715182852E+04  0.10100000352E+00 0. -1.
</event>
<event>
 5   0  0.2632875E-08  0.3882269E+04  0.7818609E-02  0.8028727E-01
       -3   -1    0    0    0  501  0.00000000000E+00  0.00000000000E+00  0.23035645756E+04  0.23035645778E+04  0.10100000352E+00 0.  1.
        3   -1    0    0  501    0  0.00000000000E+00  0.00000000000E+00 -0.16357273089E+04  0.16357273120E+04  0.10100000352E+00 0. -1.
    10030    2    1    2    0    0  0.00000000000E+00  0.00000000000E+00  0.66783726675E+03  0.39392918898E+04  0.38822691790E+04 0.  0.
        3    1    3    3  502    0  0.13893722825E+04 -0.44793942399E+03  0.16321636003E+04  0.21897404174E+04  0.10100000352E+00 0.  1.
       -3    1    3    3    0  502 -0.13893722825E+04  0.44793942399E+03 -0.96432633354E+03  0.17495514725E+04  0.10100000352E+00 0. -1.
</event>
<event>
 5   0  0.8551754E-08  0.3883395E+04  0.7818609E-02  0.8028492E-01
       -2   -1    0    0    0  501  0.00000000000E+00  0.00000000000E+00  0.25070328586E+04  0.25070328586E+04  0.25500000920E-02 0.  1.
        2   -1    0    0  501    0  0.00000000000E+00  0.00000000000E+00 -0.15038452232E+04  0.15038452232E+04  0.25500000920E-02 0. -1.
    10030    2    1    2    0    0  0.00000000000E+00  0.00000000000E+00  0.10031876354E+04  0.40108780817E+04  0.38833951067E+04 0.  0.
        1    1    3    3  502    0 -0.12803643707E+04  0.61823797886E+03  0.18673647683E+04  0.23470411795E+04  0.50400001928E-02 0.  1.
       -1    1    3    3    0  502  0.12803643707E+04 -0.61823797886E+03 -0.86417713294E+03  0.16638369023E+04  0.50400001928E-02 0. -1.
</event>
<event>
 5   0  0.2632875E-08  0.3914559E+04  0.7818609E-02  0.8022008E-01
        1   -1    0    0  501    0  0.00000000000E+00  0.00000000000E+00  0.14768775696E+04  0.14768775696E+04  0.50400001928E-02 0. -1.
       -1   -1    0    0    0  501  0.00000000000E+00  0.00000000000E+00 -0.25939478370E+04  0.25939478370E+04  0.50400001928E-02 0.  1.
    10030    2    1    2    0    0  0.00000000000E+00  0.00000000000E+00 -0.11170702674E+04  0.40708254066E+04  0.39145591717E+04 0.  0.
        5    1    3    3  502    0  0.65996436771E+03  0.12686766519E+03  0.13531274854E+04  0.15108356803E+04  0.46999998093E+01 0. -1.
       -5    1    3    3    0  502 -0.65996436771E+03 -0.12686766519E+03 -0.24701977528E+04  0.25599897264E+04  0.46999998093E+01 0.  1.
</event>
<event>
 5   0  0.2632875E-08  0.3908482E+04  0.7818609E-02  0.8023267E-01
       -1   -1    0    0    0  501  0.00000000000E+00  0.00000000000E+00  0.28408898684E+04  0.28408898684E+04  0.50400001928E-02 0. -1.
        1   -1    0    0  501    0  0.00000000000E+00  0.00000000000E+00 -0.13443172353E+04  0.13443172353E+04  0.50400001928E-02 0.  1.
    10030    2    1    2    0    0  0.00000000000E+00  0.00000000000E+00  0.14965726331E+04  0.41852071036E+04  0.39084816559E+04 0.  0.
        5    1    3    3  502    0  0.19932681211E+02 -0.91828397972E+03 -0.10987736542E+04  0.14321202506E+04  0.46999998093E+01 0.  1.
       -5    1    3    3    0  502 -0.19932681211E+02  0.91828397972E+03  0.25953462873E+04  0.27530868530E+04  0.46999998093E+01 0. -1.
</event>
<event>
 5   0  0.2632875E-08  0.3895819E+04  0.7818609E-02  0.8025899E-01
        1   -1    0    0  501    0  0.00000000000E+00  0.00000000000E+00  0.29636452847E+04  0.29636452847E+04  0.50400001928E-02 0.  1.
       -1   -1    0    0    0  501  0.00000000000E+00  0.00000000000E+00 -0.12802988162E+04  0.12802988162E+04  0.50400001928E-02 0. -1.
    10030    2    1    2    0    0  0.00000000000E+00  0.00000000000E+00  0.16833464685E+04  0.42439441009E+04  0.38958190665E+04 0.  0.
        1    1    3    3  502    0  0.14909212654E+04 -0.92846858334E+03 -0.75881979403E+02  0.17580267930E+04  0.50400001928E-02 0. -1.
       -1    1    3    3    0  502 -0.14909212654E+04  0.92846858334E+03  0.17592284479E+04  0.24859173080E+04  0.50400001928E-02 0.  1.
</event>
<event>
 5   0  0.8438211E-08  0.3898617E+04  0.7818609E-02  0.8025317E-01
        2   -1    0    0  501    0  0.00000000000E+00  0.00000000000E+00  0.18334614820E+04  0.18334614820E+04  0.25500000920E-02 0. -1.
       -2   -1    0    0    0  501  0.00000000000E+00  0.00000000000E+00 -0.20724754722E+04  0.20724754722E+04  0.25500000920E-02 0.  1.
    10030    2    1    2    0    0  0.00000000000E+00  0.00000000000E+00 -0.23901399019E+03  0.39059369542E+04  0.38986171654E+04 0.  0.
        5    1    3    3  502    0  0.18236472218E+03  0.13568131498E+04 -0.15097661547E+04  0.20380418905E+04  0.46999998093E+01 0.  1.
       -5    1    3    3    0  502 -0.18236472218E+03 -0.13568131498E+04  0.12707521645E+04  0.18678950637E+04  0.46999998093E+01 0. -1.
</event>
<event>
 5   0  0.8551754E-08  0.3898289E+04  0.7818609E-02  0.8025385E-01
       -2   -1    0    0    0  501  0.00000000000E+00  0.00000000000E+00  0.18965312856E+04  0.18965312856E+04  0.25500000920E-02 0.  1.
        2   -1    0    0  501    0  0.00000000000E+00  0.00000000000E+00 -0.20032178007E+04  0.20032178007E+04  0.25500000920E-02 0. -1.
    10030    2    1    2    0    0  0.00000000000E+00  0.00000000000E+00 -0.10668651511E+03  0.38997490863E+04  0.38982894869E+04 0.  0.
        1    1    3    3  502    0  0.22426403544E+03 -0.18609874988E+04 -0.58795555530E+03  0.19645000798E+04  0.50400001928E-02 0. -1.
       -1    1    3    3    0  502 -0.22426403544E+03  0.18609874988E+04  0.48126904019E+03  0.19352490066E+04  0.50400001928E-02 0.  1.
</event>
<event>
 5   0  0.2632875E-08  0.3910213E+04  0.7818609E-02  0.8022908E-01
       -1   -1    0    0    0  501  0.00000000000E+00  0.00000000000E+00  0.17282653428E+04  0.17282653428E+04  0.50400001928E-02 0.  1.
        1   -1    0    0  501    0  0.00000000000E+00  0.00000000000E+00 -0.22117217694E+04  0.22117217694E+04  0.50400001928E-02 0. -1.
    10030    2    1    2    0    0  0.00000000000E+00  0.00000000000E+00 -0.48345642659E+03  0.39399871122E+04  0.39102133354E+04 0.  0.
        2    1    3    3  502    0  0.86635824756E+03 -0.50455874852E+03 -0.19329860133E+04  0.21775194767E+04  0.25500000920E-02 0. -1.
       -2    1    3    3    0  502 -0.86635824756E+03  0.50455874852E+03  0.14495295867E+04  0.17624676356E+04  0.25500000920E-02 0.  1.
</event>
<event>
 5   0  0.2632875E-08  0.3888915E+04  0.7818609E-02  0.8027339E-01
        1   -1    0    0  501    0  0.00000000000E+00  0.00000000000E+00  0.22313484909E+04  0.22313484909E+04  0.50400001928E-02 0. -1.
       -1   -1    0    0    0  501  0.00000000000E+00  0.00000000000E+00 -0.16944530787E+04  0.16944530787E+04  0.50400001928E-02 0.  1.
    10030    2    1    2    0    0  0.00000000000E+00  0.00000000000E+00  0.53689541214E+03  0.39258015696E+04  0.38889151804E+04 0.  0.
        5    1    3    3  502    0 -0.13311980189E+04  0.24100871505E+03 -0.11414815636E+04  0.17700778560E+04  0.46999998093E+01 0.  1.
       -5    1    3    3    0  502  0.13311980189E+04 -0.24100871505E+03  0.16783769758E+04  0.21557237135E+04  0.46999998093E+01 0. -1.
</event>
<event>
 5   0  0.8676098E-08  0.3910987E+04  0.7818609E-02  0.8022748E-01
        2   -1    0    0  501    0  0.00000000000E+00  0.00000000000E+00  0.18679837492E+04  0.18679837492E+04  0.25500000920E-02 0. -1.
       -2   -1    0    0    0  501  0.00000000000E+00  0.00000000000E+00 -0.20471030981E+04  0.20471030981E+04  0.25500000920E-02 0.  1.
    10030    2    1    2    0    0  0.00000000000E+00  0.00000000000E+00 -0.17911934889E+03  0.39150868472E+04  0.39109872514E+04 0.  0.
        3    1    3    3  502    0  0.98707464124E+03 -0.32719620323E+03  0.15682504195E+04  0.18816968649E+04  0.10100000352E+00 0. -1.
       -3    1    3    3    0  502 -0.98707464124E+03  0.32719620323E+03 -0.17473697684E+04  0.20333899824E+04  0.10100000352E+00 0.  1.
</event>
<event>
 5   0  0.8551754E-08  0.3903127E+04  0.7818609E-02  0.8024379E-01
       -2   -1    0    0    0  501  0.00000000000E+00  0.00000000000E+00  0.17421531046E+04  0.17421531046E+04  0.25500000920E-02 0.  1.
        2   -1    0    0  501    0  0.00000000000E+00  0.00000000000E+00 -0.21861459391E+04  0.21861459391E+04  0.25500000920E-02 0. -1.
    10030    2    1    2    0    0  0.00000000000E+00  0.00000000000E+00 -0.44399283457E+03  0.39282990437E+04  0.39031274306E+04 0.  0.
        1    1    3    3  502    0 -0.21145841489E+03 -0.72888474335E+03 -0.20315385052E+04  0.21686715585E+04  0.50400001928E-02 0. -1.
       -1    1    3    3    0  502  0.21145841489E+03  0.72888474335E+03  0.15875456707E+04  0.17596274852E+04  0.50400001928E-02 0.  1.
</event>
<event>
 5   0  0.2632875E-08  0.4009087E+04  0.7818609E-02  0.8002716E-01
        1   -1    0    0  501    0  0.00000000000E+00  0.00000000000E+00  0.22829220279E+04  0.22829220279E+04  0.50400001928E-02 0. -1.
       -1   -1    0    0    0  501  0.00000000000E+00  0.00000000000E+00 -0.17601106128E+04  0.17601106128E+04  0.50400001928E-02 0.  1.
    10030    2    1    2    0    0  0.00000000000E+00  0.00000000000E+00  0.52281141504E+03  0.40430326407E+04  0.40090873223E+04 0.  0.
        2    1    3    3  502    0 -0.10646249685E+04  0.23119236375E+03  0.19583052705E+04  0.22409452838E+04  0.25500000920E-02 0. -1.
       -2    1    3    3    0  502  0.10646249685E+04 -0.23119236375E+03 -0.14354938555E+04  0.18020873569E+04  0.25500000920E-02 0.  1.
</event>
<event>
 5   0  0.2632875E-08  0.3908214E+04  0.7818609E-02  0.8023323E-01
        1   -1    0    0  501    0  0.00000000000E+00  0.00000000000E+00  0.19699696119E+04  0.19699696119E+04  0.50400001928E-02 0. -1.
       -1   -1    0    0    0  501  0.00000000000E+00  0.00000000000E+00 -0.19383717699E+04  0.19383717700E+04  0.50400001928E-02 0.  1.
    10030    2    1    2    0    0  0.00000000000E+00  0.00000000000E+00  0.31597841914E+02  0.39083413818E+04  0.39082136499E+04 0.  0.
        5    1    3    3  502    0 -0.83436099077E+03 -0.49717565139E+03 -0.16798889758E+04  0.19404615307E+04  0.46999998093E+01 0.  1.
       -5    1    3    3    0  502  0.83436099077E+03  0.49717565139E+03  0.17114868177E+04  0.19678798511E+04  0.46999998093E+01 0. -1.
</event>
<event>
 5   0  0.2632875E-08  0.3966265E+04  0.7818609E-02  0.8011387E-01
        1   -1    0    0  501    0  0.00000000000E+00  0.00000000000E+00  0.18741848382E+04  0.18741848382E+04  0.50400001928E-02 0. -1.
       -1   -1    0    0    0  501  0.00000000000E+00  0.00000000000E+00 -0.20984131258E+04  0.20984131258E+04  0.50400001928E-02 0.  1.
    10030    2    1    2    0    0  0.00000000000E+00  0.00000000000E+00 -0.22422828761E+03  0.39725979641E+04  0.39662647742E+04 0.  0.
        2    1    3    3  502    0  0.22671951286E+03 -0.15928676249E+04  0.10491270790E+04  0.19207541841E+04  0.25500000920E-02 0. -1.
       -2    1    3    3    0  502 -0.22671951286E+03  0.15928676249E+04 -0.12733553666E+04  0.20518437800E+04  0.25500000920E-02 0.  1.
</event>
<event>
 5   0  0.2632875E-08  0.3892872E+04  0.7818609E-02  0.8026513E-01
       -3   -1    0    0    0  501  0.00000000000E+00  0.00000000000E+00  0.20699785829E+04  0.20699785854E+04  0.10100000352E+00 0. -1.
        3   -1    0    0  501    0  0.00000000000E+00  0.00000000000E+00 -0.18302668772E+04  0.18302668799E+04  0.10100000352E+00 0.  1.
    10030    2    1    2    0    0  0.00000000000E+00  0.00000000000E+00  0.23971170576E+03  0.39002454653E+04  0.38928720744E+04 0.  0.
        4    1    3    3  502    0 -0.21129706085E+03  0.67297926913E+03 -0.16977092599E+04  0.18384139601E+04  0.12699999809E+01 0.  1.
       -4    1    3    3    0  502  0.21129706085E+03 -0.67297926913E+03  0.19374209657E+04  0.20618315052E+04  0.12699999809E+01 0. -1.
</event>
<event>
 5   0  0.2632875E-08  0.3866225E+04  0.7818609E-02  0.8032091E-01
       -1   -1    0    0    0  501  0.00000000000E+00  0.00000000000E+00  0.16146767306E+04  0.16146767306E+04  0.50400001928E-02 0. -1.
        1   -1    0    0  501    0  0.00000000000E+00  0.00000000000E+00 -0.23143482475E+04  0.23143482475E+04  0.50400001928E-02 0.  1.
    10030    2    1    2    0    0  0.00000000000E+00  0.00000000000E+00 -0.69967151691E+03  0.39290249780E+04  0.38662251676E+04 0.  0.
        2    1    3    3  502    0 -0.16951951039E+04 -0.57741355156E+03 -0.10895542875E+04  0.20962398229E+04  0.25500000920E-02 0. -1.
       -2    1    3    3    0  502  0.16951951039E+04  0.57741355156E+03  0.38988277057E+03  0.18327851551E+04  0.25500000920E-02 0.  1.
</event>
<event>
 5   0  0.8676098E-08  0.3897943E+04  0.7818609E-02  0.8025457E-01
       -2   -1    0    0    0  501  0.00000000000E+00  0.00000000000E+00  0.16986093076E+04  0.16986093076E+04  0.25500000920E-02 0. -1.
        2   -1    0    0  501    0  0.00000000000E+00  0.00000000000E+00 -0.22362350681E+04  0.22362350681E+04  0.25500000920E-02 0.  1.
    10030    2    1    2    0    0  0.00000000000E+00  0.00000000000E+00 -0.53762576055E+03  0.39348443757E+04  0.38979428937E+04 0.  0.
        3    1    3    3  502    0 -0.18556842116E+03  0.19399930770E+04 -0.24667555174E+03  0.19643975198E+04  0.10100000352E+00 0.  1.
       -3    1    3    3    0  502  0.18556842116E+03 -0.19399930770E+04 -0.29095020882E+03  0.19704468559E+04  0.10100000352E+00 0. -1.
</event>
<event>
 5   0  0.8476262E-08  0.3897328E+04  0.7818609E-02  0.8025585E-01
        2   -1    0    0  501    0  0.00000000000E+00  0.00000000000E+00  0.24308591208E+04  0.24308591208E+04  0.25500000920E-02 0.  1.
       -2   -1    0    0    0  501  0.00000000000E+00  0.00000000000E+00 -0.15621192860E+04  0.15621192860E+04  0.25500000920E-02 0. -1.
    10030    2    1    2    0    0  0.00000000000E+00  0.00000000000E+00  0.86873983481E+03  0.39929784069E+04  0.38973282717E+04 0.  0.
        2    1    3    3  502    0 -0.15390789691E+04 -0.11705713355E+04  0.18701007361E+03  0.19426718952E+04  0.25500000920E-02 0. -1.
       -2    1    3    3    0  502  0.15390789691E+04  0.11705713355E+04  0.68172976120E+03  0.20503065117E+04  0.25500000920E-02 0.  1.
</event>
<event>
 5   0  0.8551754E-08  0.3910109E+04  0.7818609E-02  0.8022930E-01
       -2   -1    0    0    0  501  0.00000000000E+00  0.00000000000E+00  0.29756451971E+04  0.29756451971E+04  0.25500000920E-02 0.  1.
        2   -1    0    0  501    0  0.00000000000E+00  0.00000000000E+00 -0.12845075747E+04  0.12845075747E+04  0.25500000920E-02 0. -1.
    10030    2    1    2    0    0  0.00000000000E+00  0.00000000000E+00  0.16911376223E+04  0.42601527718E+04  0.39101093567E+04 0.  0.
        1    1    3    3  502    0  0.14496976176E+04  0.70347587910E+03 -0.36067464647E+03  0.16512382310E+04  0.50400001928E-02 0. -1.
       -1    1    3    3    0  502 -0.14496976176E+04 -0.70347587910E+03  0.20518122688E+04  0.26089145408E+04  0.50400001928E-02 0.  1.
</event>
<event>
 5   0  0.2632875E-08  0.3898869E+04  0.7818609E-02  0.8025264E-01
        1   -1    0    0  501    0  0.00000000000E+00  0.00000000000E+00  0.26098390792E+04  0.26098390792E+04  0.50400001928E-02 0. -1.
       -1   -1    0    0    0  501  0.00000000000E+00  0.00000000000E+00 -0.14561416780E+04  0.14561416780E+04  0.50400001928E-02 0.  1.
    10030    2    1    2    0    0  0.00000000000E+00  0.00000000000E+00  0.11536974012E+04  0.40659807572E+04  0.38988693007E+04 0.  0.
        2    1    3    3  502    0  0.13037290922E+04 -0.80742739436E+03  0.18320342039E+04  0.23891416591E+04  0.25500000920E-02 0. -1.
       -2    1    3    3    0  502 -0.13037290922E+04  0.80742739436E+03 -0.67833680275E+03  0.16768390981E+04  0.25500000920E-02 0.  1.
</event>
<event>
 5   0  0.8342802E-08  0.3897145E+04  0.7818609E-02  0.8025623E-01
       -2   -1    0    0    0  501  0.00000000000E+00  0.00000000000E+00  0.23753036332E+04  0.23753036333E+04  0.25500000920E-02 0. -1.
        2   -1    0    0  501    0  0.00000000000E+00  0.00000000000E+00 -0.15985048252E+04  0.15985048252E+04  0.25500000920E-02 0.  1.
    10030    2    1    2    0    0  0.00000000000E+00  0.00000000000E+00  0.77679880804E+03  0.39738084585E+04  0.38971447595E+04 0.  0.
        4    1    3    3  502    0  0.31043723129E+03  0.19091388861E+04  0.14763992571E+03  0.19398406433E+04  0.12699999809E+01 0.  1.
       -4    1    3    3    0  502 -0.31043723129E+03 -0.19091388861E+04  0.62915888233E+03  0.20339678151E+04  0.12699999809E+01 0. -1.
</event>
<event>
 5   0  0.2632875E-08  0.3894734E+04  0.7818609E-02  0.8026125E-01
       -1   -1    0    0    0  501  0.00000000000E+00  0.00000000000E+00  0.14426463546E+04  0.14426463546E+04  0.50400001928E-02 0. -1.
        1   -1    0    0  501    0  0.00000000000E+00  0.00000000000E+00 -0.26286684338E+04  0.26286684338E+04  0.50400001928E-02 0.  1.
    10030    2    1    2    0    0  0.00000000000E+00  0.00000000000E+00 -0.11860220792E+04  0.40713147883E+04  0.38947343598E+04 0.  0.
        1    1    3    3  502    0 -0.17779804054E+04 -0.70097943710E+02 -0.14201576023E+04  0.22766149563E+04  0.50400001928E-02 0.  1.
       -1    1    3    3    0  502  0.17779804054E+04  0.70097943710E+02  0.23413552316E+03  0.17946998320E+04  0.50400001928E-02 0. -1.
</event>
<event>
 5   0  0.2632875E-08  0.3820469E+04  0.7818609E-02  0.8041777E-01
        1   -1    0    0  501    0  0.00000000000E+00  0.00000000000E+00  0.19539809712E+04  0.19539809712E+04  0.50400001928E-02 0.  1.
       -1   -1    0    0    0  501  0.00000000000E+00  0.00000000000E+00 -0.18674672666E+04  0.18674672666E+04  0.50400001928E-02 0. -1.
    10030    2    1    2    0    0  0.00000000000E+00  0.00000000000E+00  0.86513704587E+02  0.38214482378E+04  0.38204688211E+04 0.  0.
        4    1    3    3  502    0  0.81962690640E+03  0.79475235524E+03 -0.14886625637E+04  0.18760430201E+04  0.12699999809E+01 0. -1.
       -4    1    3    3    0  502 -0.81962690640E+03 -0.79475235524E+03  0.15751762683E+04  0.19454052177E+04  0.12699999809E+01 0.  1.
</event>
<event>
 5   0  0.8676098E-08  0.3908964E+04  0.7818609E-02  0.8023167E-01
        2   -1    0    0  501    0  0.00000000000E+00  0.00000000000E+00  0.23191849362E+04  0.23191849362E+04  0.25500000920E-02 0.  1.
       -2   -1    0    0    0  501  0.00000000000E+00  0.00000000000E+00 -0.16471305872E+04  0.16471305872E+04  0.25500000920E-02 0. -1.
    10030    2    1    2    0    0  0.00000000000E+00  0.00000000000E+00  0.67205434896E+03  0.39663155234E+04  0.39089642852E+04 0.  0.
        3    1    3    3  502    0  0.19141570186E+04  0.12574144652E+02 -0.64537199332E+02  0.19152859477E+04  0.10100000352E+00 0. -1.
       -3    1    3    3    0  502 -0.19141570186E+04 -0.12574144652E+02  0.73659154829E+03  0.20510295757E+04  0.10100000352E+00 0.  1.
</event>
<event>
 5   0  0.2632875E-08  0.3909285E+04  0.7818609E-02  0.8023101E-01
       -1   -1    0    0    0  501  0.00000000000E+00  0.00000000000E+00  0.17080333063E+04  0.17080333063E+04  0.50400001928E-02 0. -1.
        1   -1    0    0  501    0  0.00000000000E+00  0.00000000000E+00 -0.22368576186E+04  0.22368576186E+04  0.50400001928E-02 0.  1.
    10030    2    1    2    0    0  0.00000000000E+00  0.00000000000E+00 -0.52882431236E+03  0.39448909249E+04  0.39092850058E+04 0.  0.
        5    1    3    3  502    0 -0.12253924269E+04  0.13932665807E+04  0.35586256173E+03  0.18892957994E+04  0.46999998093E+01 0. -1.
       -5    1    3    3    0  502  0.12253924269E+04 -0.13932665807E+04 -0.88468687408E+03  0.20555951255E+04  0.46999998093E+01 0.  1.
</event>
<event>
 5   0  0.8676098E-08  0.3913465E+04  0.7818609E-02  0.8022234E-01
       -2   -1    0    0    0  501  0.00000000000E+00  0.00000000000E+00  0.21760294593E+04  0.21760294593E+04  0.25500000920E-02 0. -1.
        2   -1    0    0  501    0  0.00000000000E+00  0.00000000000E+00 -0.17595364012E+04  0.17595364012E+04  0.25500000920E-02 0.  1.
    10030    2    1    2    0    0  0.00000000000E+00  0.00000000000E+00  0.41649305812E+03  0.39355658605E+04  0.39134654943E+04 0.  0.
        3    1    3    3  502    0  0.11490365997E+04 -0.75671220348E+03 -0.11909787666E+04  0.18197057177E+04  0.10100000352E+00 0.  1.
       -3    1    3    3    0  502 -0.11490365997E+04  0.75671220348E+03  0.16074718248E+04  0.21158601428E+04  0.10100000352E+00 0. -1.
</event>
<event>
 5   0  0.2632875E-08  0.3896006E+04  0.7818609E-02  0.8025860E-01
       -1   -1    0    0    0  501  0.00000000000E+00  0.00000000000E+00  0.17398794393E+04  0.17398794393E+04  0.50400001928E-02 0. -1.
        1   -1    0    0  501    0  0.00000000000E+00  0.00000000000E+00 -0.21810222005E+04  0.21810222005E+04  0.50400001928E-02 0.  1.
    10030    2    1    2    0    0  0.00000000000E+00  0.00000000000E+00 -0.44114276124E+03  0.39209016398E+04  0.38960059976E+04 0.  0.
        1    1    3    3  502    0  0.67044392760E+03 -0.18285912911E+04 -0.18192661278E+03  0.19561028762E+04  0.50400001928E-02 0.  1.
       -1    1    3    3    0  502 -0.67044392760E+03  0.18285912911E+04 -0.25921614846E+03  0.19647987636E+04  0.50400001928E-02 0. -1.
</event>
<event>
 5   0  0.2632875E-08  0.3896047E+04  0.7818609E-02  0.8025852E-01
        3   -1    0    0  501    0  0.00000000000E+00  0.00000000000E+00  0.23497267131E+04  0.23497267153E+04  0.10100000352E+00 0.  1.
       -3   -1    0    0    0  501  0.00000000000E+00  0.00000000000E+00 -0.16149945414E+04  0.16149945446E+04  0.10100000352E+00 0. -1.
    10030    2    1    2    0    0  0.00000000000E+00  0.00000000000E+00  0.73473217171E+03  0.39647212599E+04  0.38960471384E+04 0.  0.
        1    1    3    3  502    0  0.17959245406E+04  0.38293957188E+03 -0.29433239026E+03  0.18597363327E+04  0.50400001928E-02 0. -1.
       -1    1    3    3    0  502 -0.17959245406E+04 -0.38293957188E+03  0.10290645620E+04  0.21049849272E+04  0.50400001928E-02 0.  1.
</event>
<event>
 5   0  0.8438211E-08  0.3903033E+04  0.7818609E-02  0.8024399E-01
       -2   -1    0    0    0  501  0.00000000000E+00  0.00000000000E+00  0.14490168120E+04  0.14490168120E+04  0.25500000920E-02 0.  1.
        2   -1    0    0  501    0  0.00000000000E+00  0.00000000000E+00 -0.26282764818E+04  0.26282764818E+04  0.25500000920E-02 0. -1.
    10030    2    1    2    0    0  0.00000000000E+00  0.00000000000E+00 -0.11792596698E+04  0.40772932938E+04  0.39030330815E+04 0.  0.
        5    1    3    3  502    0 -0.66603370983E+03 -0.14343348201E+04 -0.17841316736E+04  0.23841277645E+04  0.46999998093E+01 0. -1.
       -5    1    3    3    0  502  0.66603370983E+03  0.14343348201E+04  0.60487200377E+03  0.16931655293E+04  0.46999998093E+01 0.  1.
</event>
<event>
 5   0  0.2632875E-08  0.3899498E+04  0.7818609E-02  0.8025134E-01
       -1   -1    0    0    0  501  0.00000000000E+00  0.00000000000E+00  0.15824113221E+04  0.15824113221E+04  0.50400001928E-02 0. -1.
        1   -1    0    0  501    0  0.00000000000E+00  0.00000000000E+00 -0.24023598133E+04  0.24023598133E+04  0.50400001928E-02 0.  1.
    10030    2    1    2    0    0  0.00000000000E+00  0.00000000000E+00 -0.81994849113E+03  0.39847711354E+04  0.38994981053E+04 0.  0.
        1    1    3    3  502    0  0.24178517410E+03  0.51749310042E+03 -0.23149456321E+04  0.23843725504E+04  0.50400001928E-02 0.  1.
       -1    1    3    3    0  502 -0.24178517410E+03 -0.51749310042E+03  0.14949971410E+04  0.16003985850E+04  0.50400001928E-02 0. -1.
</event>
<event>
 5   0  0.8438211E-08  0.3864391E+04  0.7818609E-02  0.8032476E-01
       -2   -1    0    0    0  501  0.00000000000E+00  0.00000000000E+00  0.14873822866E+04  0.14873822866E+04  0.25500000920E-02 0. -1.
        2   -1    0    0  501    0  0.00000000000E+00  0.00000000000E+00 -0.25100340969E+04  0.25100340969E+04  0.25500000920E-02 0.  1.
    10030    2    1    2    0    0  0.00000000000E+00  0.00000000000E+00 -0.10226518102E+04  0.39974163835E+04  0.38643914163E+04 0.  0.
        5    1    3    3  502    0 -0.16705686830E+04  0.89901734105E+03 -0.89044769084E+03  0.20956982331E+04  0.46999998093E+01 0.  1.
       -5    1    3    3    0  502  0.16705686830E+04 -0.89901734105E+03 -0.13220411938E+03  0.19017181504E+04  0.46999998093E+01 0. -1.
</event>
<event>
 5   0  0.2632875E-08  0.3903250E+04  0.7818609E-02  0.8024354E-01
       -1   -1    0    0    0  501  0.00000000000E+00  0.00000000000E+00  0.17310200321E+04  0.17310200321E+04  0.50400001928E-02 0.  1.
        1   -1    0    0  501    0  0.00000000000E+00  0.00000000000E+00 -0.22003440658E+04  0.22003440658E+04  0.50400001928E-02 0. -1.
    10030    2    1    2    0    0  0.00000000000E+00  0.00000000000E+00 -0.46932403371E+03  0.39313640978E+04  0.39032497513E+04 0.  0.
        2    1    3    3  502    0 -0.10399441439E+04 -0.16390919472E+04 -0.43794094948E+03  0.19899493735E+04  0.25500000920E-02 0.  1.
       -2    1    3    3    0  502  0.10399441439E+04  0.16390919472E+04 -0.31383084228E+02  0.19414147243E+04  0.25500000920E-02 0. -1.
</event>
<event>
 5   0  0.2632875E-08  0.3899331E+04  0.7818609E-02  0.8025168E-01
       -1   -1    0    0    0  501  0.00000000000E+00  0.00000000000E+00  0.17361961364E+04  0.17361961364E+04  0.50400001928E-02 0. -1.
        1   -1    0    0  501    0  0.00000000000E+00  0.00000000000E+00 -0.21893811341E+04  0.21893811341E+04  0.50400001928E-02 0.  1.
    10030    2    1    2    0    0  0.00000000000E+00  0.00000000000E+00 -0.45318499771E+03  0.39255772706E+04  0.38993307458E+04 0.  0.
        3    1    3    3  502    0 -0.15243839141E+04  0.89003183468E+02 -0.14469926889E+04  0.21036767185E+04  0.10100000352E+00 0.  1.
       -3    1    3    3    0  502  0.15243839141E+04 -0.89003183468E+02  0.99380769119E+03  0.18219005520E+04  0.10100000352E+00 0. -1.
</event>
<event>
 5   0  0.2632875E-08  0.3878759E+04  0.7818609E-02  0.8029461E-01
        1   -1    0    0  501    0  0.00000000000E+00  0.00000000000E+00  0.20846816728E+04  0.20846816729E+04  0.50400001928E-02 0. -1.
       -1   -1    0    0    0  501  0.00000000000E+00  0.00000000000E+00 -0.18042052091E+04  0.18042052091E+04  0.50400001928E-02 0.  1.
    10030    2    1    2    0    0  0.00000000000E+00  0.00000000000E+00  0.28047646378E+03  0.38888868819E+04  0.38787593550E+04 0.  0.
        5    1    3    3  502    0 -0.15978681023E+04  0.73835691493E+03 -0.67602387143E+03  0.18855725313E+04  0.46999998093E+01 0.  1.
       -5    1    3    3    0  502  0.15978681023E+04 -0.73835691493E+03  0.95650033521E+03  0.20033143506E+04  0.46999998093E+01 0. -1.
</event>
<event>
 5   0  0.8476262E-08  0.3912611E+04  0.7818609E-02  0.8022411E-01
       -2   -1    0    0    0  501  0.00000000000E+00  0.00000000000E+00  0.18407616899E+04  0.18407616899E+04  0.25500000920E-02 0.  1.
        2   -1    0    0  501    0  0.00000000000E+00  0.00000000000E+00 -0.20791023739E+04  0.20791023739E+04  0.25500000920E-02 0. -1.
    10030    2    1    2    0    0  0.00000000000E+00  0.00000000000E+00 -0.23834068406E+03  0.39198640638E+04  0.39126114038E+04 0.  0.
        2    1    3    3  502    0  0.16666193974E+04  0.86123315519E+03  0.43664560585E+03  0.19261365862E+04  0.25500000920E-02 0.  1.
       -2    1    3    3    0  502 -0.16666193974E+04 -0.86123315519E+03 -0.67498628991E+03  0.19937274776E+04  0.25500000920E-02 0. -1.
</event>
<event>
 5   0  0.8551754E-08  0.3834026E+04  0.7818609E-02  0.8038892E-01
       -2   -1    0    0    0  501  0.00000000000E+00  0.00000000000E+00  0.18686232979E+04  0.18686232979E+04  0.25500000920E-02 0. -1.
        2   -1    0    0  501    0  0.00000000000E+00  0.00000000000E+00 -0.19666556985E+04  0.19666556985E+04  0.25500000920E-02 0.  1.
    10030    2    1    2    0    0  0.00000000000E+00  0.00000000000E+00 -0.98032400590E+02  0.38352789965E+04  0.38340259036E+04 0.  0.
        1    1    3    3  502    0  0.57299919989E+03 -0.92660972856E+03  0.15288404421E+04  0.18773083842E+04  0.50400001928E-02 0. -1.
       -1    1    3    3    0  502 -0.57299919989E+03  0.92660972856E+03 -0.16268728427E+04  0.19579706122E+04  0.50400001928E-02 0.  1.
</event>
<event>
 5   0  0.2632875E-08  0.3905456E+04  0.7818609E-02  0.8023895E-01
       -1   -1    0    0    0  501  0.00000000000E+00  0.00000000000E+00  0.16044728349E+04  0.16044728349E+04  0.50400001928E-02 0.  1.
        1   -1    0    0  501    0  0.00000000000E+00  0.00000000000E+00 -0.23765732386E+04  0.23765732386E+04  0.50400001928E-02 0. -1.
    10030    2    1    2    0    0  0.00000000000E+00  0.00000000000E+00 -0.77210040375E+03  0.39810460735E+04  0.39054562866E+04 0.  0.
        1    1    3    3  502    0  0.10821715013E+04  0.18790440774E+03 -0.20318409327E+04  0.23097144413E+04  0.50400001928E-02 0. -1.
       -1    1    3    3    0  502 -0.10821715013E+04 -0.18790440774E+03  0.12597405289E+04  0.16713316322E+04  0.50400001928E-02 0.  1.
</event>
<event>
 5   0  0.2632875E-08  0.3898160E+04  0.7818609E-02  0.8025412E-01
        1   -1    0    0  501    0  0.00000000000E+00  0.00000000000E+00  0.12941292379E+04  0.12941292379E+04  0.50400001928E-02 0. -1.
       -1   -1    0    0    0  501  0.00000000000E+00  0.00000000000E+00 -0.29354978886E+04  0.29354978886E+04  0.50400001928E-02 0.  1.
    10030    2    1    2    0    0  0.00000000000E+00  0.00000000000E+00 -0.16413686507E+04  0.42296271265E+04  0.38981604100E+04 0.  0.
        3    1    3    3  502    0  0.33864749716E+01 -0.87265300620E+03  0.10703171252E+04  0.13809828008E+04  0.10100000352E+00 0. -1.
       -3    1    3    3    0  502 -0.33864749716E+01  0.87265300620E+03 -0.27116857759E+04  0.28486443258E+04  0.10100000352E+00 0.  1.
</event>
<event>
 5   0  0.2632875E-08  0.3895113E+04  0.7818609E-02  0.8026046E-01
        1   -1    0    0  501    0  0.00000000000E+00  0.00000000000E+00  0.12802472148E+04  0.12802472148E+04  0.50400001928E-02 0.  1.
       -1   -1    0    0    0  501  0.00000000000E+00  0.00000000000E+00 -0.29626903665E+04  0.29626903665E+04  0.50400001928E-02 0. -1.
    10030    2    1    2    0    0  0.00000000000E+00  0.00000000000E+00 -0.16824431517E+04  0.42429375813E+04  0.38951128816E+04 0.  0.
        3    1    3    3  502    0 -0.39524041875E+03 -0.18137537927E+04 -0.19949829685E+03  0.18670076030E+04  0.10100000352E+00 0.  1.
       -3    1    3    3    0  502  0.39524041875E+03  0.18137537927E+04 -0.14829448549E+04  0.23759299783E+04  0.10100000352E+00 0. -1.
</event>
<event>
 5   0  0.2632875E-08  0.3905403E+04  0.7818609E-02  0.8023906E-01
       -1   -1    0    0    0  501  0.00000000000E+00  0.00000000000E+00  0.15263525437E+04  0.15263525437E+04  0.50400001928E-02 0. -1.
        1   -1    0    0  501    0  0.00000000000E+00  0.00000000000E+00 -0.24981405218E+04  0.24981405218E+04  0.50400001928E-02 0.  1.
    10030    2    1    2    0    0  0.00000000000E+00  0.00000000000E+00 -0.97178797806E+03  0.40244930655E+04  0.39054029958E+04 0.  0.
        4    1    3    3  502    0  0.16807831387E+04  0.91385457072E+03 -0.82973084222E+02  0.19149538588E+04  0.12699999809E+01 0.  1.
       -4    1    3    3    0  502 -0.16807831387E+04 -0.91385457072E+03 -0.88881489383E+03  0.21095392066E+04  0.12699999809E+01 0. -1.
</event>
<event>
 5   0  0.8551754E-08  0.3917085E+04  0.7818609E-02  0.8021485E-01
       -2   -1    0    0    0  501  0.00000000000E+00  0.00000000000E+00  0.18879674993E+04  0.18879674993E+04  0.25500000920E-02 0.  1.
        2   -1    0    0  501    0  0.00000000000E+00  0.00000000000E+00 -0.20317553180E+04  0.20317553180E+04  0.25500000920E-02 0. -1.
    10030    2    1    2    0    0  0.00000000000E+00  0.00000000000E+00 -0.14378781861E+03  0.39197228173E+04  0.39170846337E+04 0.  0.
        1    1    3    3  502    0  0.11938457900E+04  0.15271324923E+04 -0.35223717328E+03  0.19701452854E+04  0.50400001928E-02 0.  1.
       -1    1    3    3    0  502 -0.11938457900E+04 -0.15271324923E+04  0.20844935467E+03  0.19495775319E+04  0.50400001928E-02 0. -1.
</event>
<event>
 5   0  0.8676098E-08  0.3911444E+04  0.7818609E-02  0.8022653E-01
       -2   -1    0    0    0  501  0.00000000000E+00  0.00000000000E+00  0.27106736167E+04  0.27106736167E+04  0.25500000920E-02 0.  1.
        2   -1    0    0  501    0  0.00000000000E+00  0.00000000000E+00 -0.14110327134E+04  0.14110327134E+04  0.25500000920E-02 0. -1.
    10030    2    1    2    0    0  0.00000000000E+00  0.00000000000E+00  0.12996409033E+04  0.41217063302E+04  0.39114443105E+04 0.  0.
        3    1    3    3  502    0  0.13650225353E+04 -0.13946069135E+04  0.51391386462E+03  0.20179996124E+04  0.10100000352E+00 0.  1.
       -3    1    3    3    0  502 -0.13650225353E+04  0.13946069135E+04  0.78572703871E+03  0.21037067178E+04  0.10100000352E+00 0. -1.
</event>
<event>
 5   0  0.2632875E-08  0.4055090E+04  0.7818609E-02  0.7993524E-01
        1   -1    0    0  501    0  0.00000000000E+00  0.00000000000E+00  0.19594826273E+04  0.19594826273E+04  0.50400001928E-02 0. -1.
       -1   -1    0    0    0  501  0.00000000000E+00  0.00000000000E+00 -0.20979719676E+04  0.20979719676E+04  0.50400001928E-02 0.  1.
    10030    2    1    2    0    0  0.00000000000E+00  0.00000000000E+00 -0.13848934032E+03  0.40574545948E+04  0.40550904419E+04 0.  0.
        3    1    3    3  502    0 -0.10384017986E+04  0.40130390758E+03 -0.17648170874E+04  0.20866007006E+04  0.10100000352E+00 0.  1.
       -3    1    3    3    0  502  0.10384017986E+04 -0.40130390758E+03  0.16263277470E+04  0.19708538943E+04  0.10100000352E+00 0. -1.
</event>
<event>
 5   0  0.8342802E-08  0.3871043E+04  0.7818609E-02  0.8031079E-01
        2   -1    0    0  501    0  0.00000000000E+00  0.00000000000E+00  0.25184596070E+04  0.25184596070E+04  0.25500000920E-02 0. -1.
       -2   -1    0    0    0  501  0.00000000000E+00  0.00000000000E+00 -0.14875135209E+04  0.14875135209E+04  0.25500000920E-02 0.  1.
    10030    2    1    2    0    0  0.00000000000E+00  0.00000000000E+00  0.10309460861E+04  0.40059731279E+04  0.38710426075E+04 0.  0.
        4    1    3    3  502    0 -0.87797017017E+03  0.10960521831E+03 -0.12659822941E+04  0.15445250744E+04  0.12699999809E+01 0.  1.
       -4    1    3    3    0  502  0.87797017017E+03 -0.10960521831E+03  0.22969283802E+04  0.24614480535E+04  0.12699999809E+01 0. -1.
</event>
<event>
 5   0  0.2632875E-08  0.3909707E+04  0.7818609E-02  0.8023013E-01
        1   -1    0    0  501    0  0.00000000000E+00  0.00000000000E+00  0.27722765491E+04  0.27722765491E+04  0.50400001928E-02 0.  1.
       -1   -1    0    0    0  501  0.00000000000E+00  0.00000000000E+00 -0.13784528497E+04  0.13784528497E+04  0.50400001928E-02 0. -1.
    10030    2    1    2    0    0  0.00000000000E+00  0.00000000000E+00  0.13938236995E+04  0.41507293988E+04  0.39097071549E+04 0.  0.
        5    1    3    3  502    0  0.37658103041E+03  0.82595189930E+03 -0.11411242479E+04  0.14581482955E+04  0.46999998093E+01 0. -1.
       -5    1    3    3    0  502 -0.37658103041E+03 -0.82595189930E+03  0.25349479474E+04  0.26925811034E+04  0.46999998093E+01 0.  1.
</event>
<event>
 5   0  0.2632875E-08  0.3900330E+04  0.7818609E-02  0.8024960E-01
       -1   -1    0    0    0  501  0.00000000000E+00  0.00000000000E+00  0.28209427971E+04  0.28209427971E+04  0.50400001928E-02 0. -1.
        1   -1    0    0  501    0  0.00000000000E+00  0.00000000000E+00 -0.13481820341E+04  0.13481820341E+04  0.50400001928E-02 0.  1.
    10030    2    1    2    0    0  0.00000000000E+00  0.00000000000E+00  0.14727607631E+04  0.41691248312E+04  0.39003304466E+04 0.  0.
        5    1    3    3  502    0  0.11490933536E+04  0.38094767541E+03 -0.89790261105E+03  0.15072451213E+04  0.46999998093E+01 0.  1.
       -5    1    3    3    0  502 -0.11490933536E+04 -0.38094767541E+03  0.23706633741E+04  0.26618797099E+04  0.46999998093E+01 0. -1.
</event>
<event>
 5   0  0.8438211E-08  0.3898616E+04  0.7818609E-02  0.8025317E-01
        2   -1    0    0  501    0  0.00000000000E+00  0.00000000000E+00  0.15688995847E+04  0.15688995847E+04  0.25500000920E-02 0.  1.
       -2   -1    0    0    0  501  0.00000000000E+00  0.00000000000E+00 -0.24219536095E+04  0.24219536095E+04  0.25500000920E-02 0. -1.
    10030    2    1    2    0    0  0.00000000000E+00  0.00000000000E+00 -0.85305402474E+03  0.39908531942E+04  0.38986161710E+04 0.  0.
        5    1    3    3  502    0  0.14594898019E+04  0.10011392959E+04 -0.12627940400E+04  0.21741805925E+04  0.46999998093E+01 0. -1.
       -5    1    3    3    0  502 -0.14594898019E+04 -0.10011392959E+04  0.40974001521E+03  0.18166726017E+04  0.46999998093E+01 0.  1.
</event>
<event>
 5   0  0.2632875E-08  0.3903700E+04  0.7818609E-02  0.8024260E-01
       -1   -1    0    0    0  501  0.00000000000E+00  0.00000000000E+00  0.12116928685E+04  0.12116928685E+04  0.50400001928E-02 0. -1.
        1   -1    0    0  501    0  0.00000000000E+00  0.00000000000E+00 -0.31441293472E+04  0.31441293472E+04  0.50400001928E-02 0.  1.
    10030    2    1    2    0    0  0.00000000000E+00  0.00000000000E+00 -0.19324364788E+04  0.43558222157E+04  0.39037003510E+04 0.  0.
        4    1    3    3  502    0 -0.18847379294E+04 -0.49357283025E+03 -0.10976117352E+04  0.22362031069E+04  0.12699999809E+01 0. -1.
       -4    1    3    3    0  502  0.18847379294E+04  0.49357283025E+03 -0.83482474359E+03  0.21196191088E+04  0.12699999809E+01 0.  1.
</event>
<event>
 5   0  0.2632875E-08  0.3909543E+04  0.7818609E-02  0.8023047E-01
        1   -1    0    0  501    0  0.00000000000E+00  0.00000000000E+00  0.13023310477E+04  0.13023310477E+04  0.50400001928E-02 0.  1.
       -1   -1    0    0    0  501  0.00000000000E+00  0.00000000000E+00 -0.29340710315E+04  0.29340710315E+04  0.50400001928E-02 0. -1.
    10030    2    1    2    0    0  0.00000000000E+00  0.00000000000E+00 -0.16317399838E+04  0.42364020792E+04  0.39095430938E+04 0.  0.
        3    1    3    3  502    0 -0.60005985071E+03  0.19464518116E+03  0.11889971854E+04  0.13459839851E+04  0.10100000352E+00 0.  1.
       -3    1    3    3    0  502  0.60005985071E+03 -0.19464518116E+03 -0.28207371692E+04  0.28904180941E+04  0.10100000352E+00 0. -1.
</event>
<event>
 5   0  0.8476262E-08  0.3909696E+04  0.7818609E-02  0.8023016E-01
        2   -1    0    0  501    0  0.00000000000E+00  0.00000000000E+00  0.14485908173E+04  0.14485908173E+04  0.25500000920E-02 0.  1.
       -2   -1    0    0    0  501  0.00000000000E+00  0.00000000000E+00 -0.26380325784E+04  0.26380325784E+04  0.25500000920E-02 0. -1.
    10030    2    1    2    0    0  0.00000000000E+00  0.00000000000E+00 -0.11894417611E+04  0.40866233957E+04  0.39096955220E+04 0.  0.
        2    1    3    3  502    0  0.99323433187E+03 -0.16706303509E+04 -0.81374968375E+03  0.21070616401E+04  0.25500000920E-02 0. -1.
       -2    1    3    3    0  502 -0.99323433187E+03  0.16706303509E+04 -0.37569207739E+03  0.19795617556E+04  0.25500000920E-02 0.  1.
</event>
<event>
 5   0  0.2632875E-08  0.3894204E+04  0.7818609E-02  0.8026236E-01
       -1   -1    0    0    0  501  0.00000000000E+00  0.00000000000E+00  0.16438001542E+04  0.16438001543E+04  0.50400001928E-02 0.  1.
        1   -1    0    0  501    0  0.00000000000E+00  0.00000000000E+00 -0.23063673207E+04  0.23063673207E+04  0.50400001928E-02 0. -1.
    10030    2    1    2    0    0  0.00000000000E+00  0.00000000000E+00 -0.66256716642E+03  0.39501674749E+04  0.38942043898E+04 0.  0.
        1    1    3    3  502    0  0.79895439282E+03 -0.58892454622E+03 -0.20304824711E+04  0.22600927654E+04  0.50400001928E-02 0. -1.
       -1    1    3    3    0  502 -0.79895439282E+03  0.58892454622E+03  0.13679153047E+04  0.16900747095E+04  0.50400001928E-02 0.  1.
</event>
<event>
 5   0  0.8551754E-08  0.3896207E+04  0.7818609E-02  0.8025819E-01
       -2   -1    0    0    0  501  0.00000000000E+00  0.00000000000E+00  0.15927466271E+04  0.15927466271E+04  0.25500000920E-02 0.  1.
        2   -1    0    0  501    0  0.00000000000E+00  0.00000000000E+00 -0.23827433202E+04  0.23827433202E+04  0.25500000920E-02 0. -1.
    10030    2    1    2    0    0  0.00000000000E+00  0.00000000000E+00 -0.78999669307E+03  0.39754899473E+04  0.38962065584E+04 0.  0.
        1    1    3    3  502    0 -0.40447757848E+03 -0.48401244738E+02  0.15488028258E+04  0.16014789993E+04  0.50400001928E-02 0.  1.
       -1    1    3    3    0  502  0.40447757848E+03  0.48401244738E+02 -0.23387995188E+04  0.23740109480E+04  0.50400001928E-02 0. -1.
</event>
<event>
 5   0  0.2632875E-08  0.3898110E+04  0.7818609E-02  0.8025422E-01
       -1   -1    0    0    0  501  0.00000000000E+00  0.00000000000E+00  0.16342394201E+04  0.16342394201E+04  0.50400001928E-02 0. -1.
        1   -1    0    0  501    0  0.00000000000E+00  0.00000000000E+00 -0.23245163104E+04  0.23245163104E+04  0.50400001928E-02 0.  1.
    10030    2    1    2    0    0  0.00000000000E+00  0.00000000000E+00 -0.69027689028E+03  0.39587557305E+04  0.38981104074E+04 0.  0.
        2    1    3    3  502    0 -0.56964362219E+03  0.73810128624E+03  0.13930764093E+04  0.16762903231E+04  0.25500000920E-02 0. -1.
       -2    1    3    3    0  502  0.56964362219E+03 -0.73810128624E+03 -0.20833532996E+04  0.22824654074E+04  0.25500000920E-02 0.  1.
</event>
<event>
 5   0  0.2632875E-08  0.3914017E+04  0.7818609E-02  0.8022120E-01
       -1   -1    0    0    0  501  0.00000000000E+00  0.00000000000E+00  0.23716380935E+04  0.23716380935E+04  0.50400001928E-02 0.  1.
        1   -1    0    0  501    0  0.00000000000E+00  0.00000000000E+00 -0.16148681427E+04  0.16148681427E+04  0.50400001928E-02 0. -1.
    10030    2    1    2    0    0  0.00000000000E+00  0.00000000000E+00  0.75676995080E+03  0.39865062363E+04  0.39140172730E+04 0.  0.
        4    1    3    3  502    0  0.67515222270E+03  0.98668166584E+03 -0.11996675906E+04  0.16936868584E+04  0.12699999809E+01 0. -1.
       -4    1    3    3    0  502 -0.67515222270E+03 -0.98668166584E+03  0.19564375414E+04  0.22928193779E+04  0.12699999809E+01 0.  1.
</event>
<event>
 5   0  0.8676098E-08  0.3895540E+04  0.7818609E-02  0.8025957E-01
       -2   -1    0    0    0  501  0.00000000000E+00  0.00000000000E+00  0.22696243885E+04  0.22696243885E+04  0.25500000920E-02 0.  1.
        2   -1    0    0  501    0  0.00000000000E+00  0.00000000000E+00 -0.16715574213E+04  0.16715574213E+04  0.25500000920E-02 0. -1.
    10030    2    1    2    0    0  0.00000000000E+00  0.00000000000E+00  0.59806696725E+03  0.39411818098E+04  0.38955397521E+04 0.  0.
        3    1    3    3  502    0  0.16335636542E+04  0.95029828531E+03 -0.17788159669E+03  0.18982199336E+04  0.10100000352E+00 0. -1.
       -3    1    3    3    0  502 -0.16335636542E+04 -0.95029828531E+03  0.77594856394E+03  0.20429618762E+04  0.10100000352E+00 0.  1.
</event>
<event>
 5   0  0.2632875E-08  0.3882262E+04  0.7818609E-02  0.8028729E-01
        1   -1    0    0  501    0  0.00000000000E+00  0.00000000000E+00  0.17213535156E+04  0.17213535156E+04  0.50400001928E-02 0. -1.
       -1   -1    0    0    0  501  0.00000000000E+00  0.00000000000E+00 -0.21889687762E+04  0.21889687762E+04  0.50400001928E-02 0.  1.
    10030    2    1    2    0    0  0.00000000000E+00  0.00000000000E+00 -0.46761526059E+03  0.39103222918E+04  0.38822617627E+04 0.  0.
        3    1    3    3  502    0  0.92296740718E+02  0.60018099251E+03 -0.20908400913E+04  0.21772340733E+04  0.10100000352E+00 0.  1.
       -3    1    3    3    0  502 -0.92296740718E+02 -0.60018099251E+03  0.16232248307E+04  0.17330882186E+04  0.10100000352E+00 0. -1.
</event>
<event>
 5   0  0.8476262E-08  0.3919882E+04  0.7818609E-02  0.8020907E-01
       -2   -1    0    0    0  501  0.00000000000E+00  0.00000000000E+00  0.19437833095E+04  0.19437833095E+04  0.25500000920E-02 0. -1.
        2   -1    0    0  501    0  0.00000000000E+00  0.00000000000E+00 -0.19762329133E+04  0.19762329133E+04  0.25500000920E-02 0.  1.
    10030    2    1    2    0    0  0.00000000000E+00  0.00000000000E+00 -0.32449603851E+02  0.39200162228E+04  0.39198819128E+04 0.  0.
        2    1    3    3  502    0 -0.13236449760E+04 -0.68205586793E+03  0.12582333664E+04  0.19494582411E+04  0.25500000920E-02 0. -1.
       -2    1    3    3    0  502  0.13236449760E+04  0.68205586793E+03 -0.12906829703E+04  0.19705579817E+04  0.25500000920E-02 0.  1.
</event>
<event>
 5   0  0.8676098E-08  0.3897348E+04  0.7818609E-02  0.8025581E-01
        2   -1    0    0  501    0  0.00000000000E+00  0.00000000000E+00  0.21740848554E+04  0.21740848554E+04  0.25500000920E-02 0. -1.
       -2   -1    0    0    0  501  0.00000000000E+00  0.00000000000E+00 -0.17466338071E+04  0.17466338071E+04  0.25500000920E-02 0.  1.
    10030    2    1    2    0    0  0.00000000000E+00  0.00000000000E+00  0.42745104838E+03  0.39207186625E+04  0.38973478715E+04 0.  0.
        3    1    3    3  502    0  0.80653425381E+03 -0.16250575684E+04  0.92934237962E+03  0.20383784909E+04  0.10100000352E+00 0. -1.
       -3    1    3    3    0  502 -0.80653425381E+03  0.16250575684E+04 -0.50189133124E+03  0.18823401716E+04  0.10100000352E+00 0.  1.
</event>
<event>
 5   0  0.8476262E-08  0.3878163E+04  0.7818609E-02  0.8029586E-01
        2   -1    0    0  501    0  0.00000000000E+00  0.00000000000E+00  0.27947209620E+04  0.27947209620E+04  0.25500000920E-02 0. -1.
       -2   -1    0    0    0  501  0.00000000000E+00  0.00000000000E+00 -0.13454072135E+04  0.13454072135E+04  0.25500000920E-02 0.  1.
    10030    2    1    2    0    0  0.00000000000E+00  0.00000000000E+00  0.14493137485E+04  0.41401281754E+04  0.38781633498E+04 0.  0.
        2    1    3    3  502    0 -0.26167495681E+02 -0.14625660202E+04 -0.63421713456E+03  0.15943699304E+04  0.25500000920E-02 0.  1.
       -2    1    3    3    0  502  0.26167495681E+02  0.14625660202E+04  0.20835308831E+04  0.25457582450E+04  0.25500000920E-02 0. -1.
</event>
<event>
 5   0  0.8476262E-08  0.3900717E+04  0.7818609E-02  0.8024880E-01
       -2   -1    0    0    0  501  0.00000000000E+00  0.00000000000E+00  0.23582154779E+04  0.23582154779E+04  0.25500000920E-02 0. -1.
        2   -1    0    0  501    0  0.00000000000E+00  0.00000000000E+00 -0.16130411050E+04  0.16130411050E+04  0.25500000920E-02 0.  1.
    10030    2    1    2    0    0  0.00000000000E+00  0.00000000000E+00  0.74517437297E+03  0.39712565829E+04  0.39007171137E+04 0.  0.
        2    1    3    3  502    0 -0.14674911073E+04 -0.94958231770E+03  0.12534866002E+04  0.21509219849E+04  0.25500000920E-02 0. -1.
       -2    1    3    3    0  502  0.14674911073E+04  0.94958231770E+03 -0.50831222725E+03  0.18203345980E+04  0.25500000920E-02 0.  1.
</event>
<event>
 5   0  0.2632875E-08  0.3951138E+04  0.7818609E-02  0.8014477E-01
        3   -1    0    0  501    0  0.00000000000E+00  0.00000000000E+00  0.19978290445E+04  0.19978290470E+04  0.10100000352E+00 0. -1.
       -3   -1    0    0    0  501  0.00000000000E+00  0.00000000000E+00 -0.19535569136E+04  0.19535569162E+04  0.10100000352E+00 0.  1.
    10030    2    1    2    0    0  0.00000000000E+00  0.00000000000E+00  0.44272130878E+02  0.39513859632E+04  0.39511379385E+04 0.  0.
        2    1    3    3  502    0 -0.45766583318E+03 -0.28494466888E+03  0.19228398265E+04  0.19969888526E+04  0.25500000920E-02 0. -1.
       -2    1    3    3    0  502  0.45766583318E+03  0.28494466888E+03 -0.18785676956E+04  0.19543971106E+04  0.25500000920E-02 0.  1.
</event>
<event>
 5   0  0.2632875E-08  0.3897628E+04  0.7818609E-02  0.8025523E-01
       -1   -1    0    0    0  501  0.00000000000E+00  0.00000000000E+00  0.21001581970E+04  0.21001581970E+04  0.50400001928E-02 0. -1.
        1   -1    0    0  501    0  0.00000000000E+00  0.00000000000E+00 -0.18083761178E+04  0.18083761178E+04  0.50400001928E-02 0.  1.
    10030    2    1    2    0    0  0.00000000000E+00  0.00000000000E+00  0.29178207915E+03  0.39085343148E+04  0.38976279592E+04 0.  0.
        1    1    3    3  502    0  0.12437246326E+04 -0.86959165298E+03 -0.10801647231E+04  0.18627389602E+04  0.50400001928E-02 0.  1.
       -1    1    3    3    0  502 -0.12437246326E+04  0.86959165298E+03  0.13719468023E+04  0.20457953546E+04  0.50400001928E-02 0. -1.
</event>
<event>
 5   0  0.8476262E-08  0.3897985E+04  0.7818609E-02  0.8025448E-01
       -2   -1    0    0    0  501  0.00000000000E+00  0.00000000000E+00  0.11855745178E+04  0.11855745178E+04  0.25500000920E-02 0.  1.
        2   -1    0    0  501    0  0.00000000000E+00  0.00000000000E+00 -0.32039918415E+04  0.32039918415E+04  0.25500000920E-02 0. -1.
    10030    2    1    2    0    0  0.00000000000E+00  0.00000000000E+00 -0.20184173237E+04  0.43895663593E+04  0.38979846499E+04 0.  0.
        2    1    3    3  502    0  0.50692126536E+03 -0.98503467185E+03  0.79654538253E+03  0.13644585082E+04  0.25500000920E-02 0.  1.
       -2    1    3    3    0  502 -0.50692126536E+03  0.98503467185E+03 -0.28149627062E+04  0.30251078512E+04  0.25500000920E-02 0. -1.
</event>
<event>
 5   0  0.8476262E-08  0.3902940E+04  0.7818609E-02  0.8024418E-01
        2   -1    0    0  501    0  0.00000000000E+00  0.00000000000E+00  0.27066830656E+04  0.27066830656E+04  0.25500000920E-02 0.  1.
       -2   -1    0    0    0  501  0.00000000000E+00  0.00000000000E+00 -0.14069747095E+04  0.14069747095E+04  0.25500000920E-02 0. -1.
    10030    2    1    2    0    0  0.00000000000E+00  0.00000000000E+00  0.12997083560E+04  0.41136577751E+04  0.39029397228E+04 0.  0.
        2    1    3    3  502    0  0.70308749884E+03  0.40082003862E+03 -0.12217552907E+04  0.14654947030E+04  0.25500000920E-02 0. -1.
       -2    1    3    3    0  502 -0.70308749884E+03 -0.40082003862E+03  0.25214636467E+04  0.26481630720E+04  0.25500000920E-02 0.  1.
</event>
<event>
 5   0  0.8676098E-08  0.3951366E+04  0.7818609E-02  0.8014430E-01
       -2   -1    0    0    0  501  0.00000000000E+00  0.00000000000E+00  0.18657789920E+04  0.18657789920E+04  0.25500000920E-02 0. -1.
        2   -1    0    0  501    0  0.00000000000E+00  0.00000000000E+00 -0.20920612137E+04  0.20920612137E+04  0.25500000920E-02 0.  1.
    10030    2    1    2    0    0  0.00000000000E+00  0.00000000000E+00 -0.22628222172E+03  0.39578402057E+04  0.39513662764E+04 0.  0.
        3    1    3    3  502    0 -0.12269639719E+04  0.33029541546E+03 -0.16284939609E+04  0.20655576101E+04  0.10100000352E+00 0.  1.
       -3    1    3    3    0  502  0.12269639719E+04 -0.33029541546E+03  0.14022117392E+04  0.18922825956E+04  0.10100000352E+00 0. -1.
</event>
<event>
 5   0  0.2632875E-08  0.3902563E+04  0.7818609E-02  0.8024496E-01
        1   -1    0    0  501    0  0.00000000000E+00  0.00000000000E+00  0.23622100766E+04  0.23622100766E+04  0.50400001928E-02 0. -1.
       -1   -1    0    0    0  501  0.00000000000E+00  0.00000000000E+00 -0.16118378166E+04  0.16118378166E+04  0.50400001928E-02 0.  1.
    10030    2    1    2    0    0  0.00000000000E+00  0.00000000000E+00  0.75037225995E+03  0.39740478932E+04  0.39025630205E+04 0.  0.
        2    1    3    3  502    0  0.12786336974E+04 -0.86134001604E+03 -0.84283762077E+03  0.17570389894E+04  0.25500000920E-02 0.  1.
       -2    1    3    3    0  502 -0.12786336974E+04  0.86134001604E+03  0.15932098807E+04  0.22170089038E+04  0.25500000920E-02 0. -1.
</event>
<event>
 5   0  0.2632875E-08  0.3830289E+04  0.7818609E-02  0.8039686E-01
        1   -1    0    0  501    0  0.00000000000E+00  0.00000000000E+00  0.23702956982E+04  0.23702956982E+04  0.50400001928E-02 0.  1.
       -1   -1    0    0    0  501  0.00000000000E+00  0.00000000000E+00 -0.15473926766E+04  0.15473926767E+04  0.50400001928E-02 0. -1.
    10030    2    1    2    0    0  0.00000000000E+00  0.00000000000E+00  0.82290302158E+03  0.39176883749E+04  0.38302888690E+04 0.  0.
        1    1    3    3  502    0 -0.12928418404E+04  0.11114268139E+03 -0.10292287465E+04  0.16562320286E+04  0.50400001928E-02 0. -1.
       -1    1    3    3    0  502  0.12928418404E+04 -0.11114268139E+03  0.18521317681E+04  0.22614563463E+04  0.50400001928E-02 0.  1.
</event>
<event>
 5   0  0.8476262E-08  0.3880536E+04  0.7818609E-02  0.8029090E-01
       -2   -1    0    0    0  501  0.00000000000E+00  0.00000000000E+00  0.12928052908E+04  0.12928052908E+04  0.25500000920E-02 0. -1.
        2   -1    0    0  501    0  0.00000000000E+00  0.00000000000E+00 -0.29119932424E+04  0.29119932424E+04  0.25500000920E-02 0.  1.
    10030    2    1    2    0    0  0.00000000000E+00  0.00000000000E+00 -0.16191879516E+04  0.42047985332E+04  0.38805361849E+04 0.  0.
        2    1    3    3  502    0  0.80675368182E+03 -0.34833656234E+03 -0.26840140876E+04  0.28242028054E+04  0.25500000920E-02 0.  1.
       -2    1    3    3    0  502 -0.80675368182E+03  0.34833656234E+03  0.10648261360E+04  0.13805957278E+04  0.25500000920E-02 0. -1.
</event>
<event>
 5   0  0.8438211E-08  0.3903320E+04  0.7818609E-02  0.8024339E-01
        2   -1    0    0  501    0  0.00000000000E+00  0.00000000000E+00  0.24154323882E+04  0.24154323882E+04  0.25500000920E-02 0. -1.
       -2   -1    0    0    0  501  0.00000000000E+00  0.00000000000E+00 -0.15769336798E+04  0.15769336798E+04  0.25500000920E-02 0.  1.
    10030    2    1    2    0    0  0.00000000000E+00  0.00000000000E+00  0.83849870843E+03  0.39923660680E+04  0.39033199635E+04 0.  0.
        5    1    3    3  502    0 -0.48641420276E+03  0.11285264936E+04  0.19700117602E+04  0.23218826949E+04  0.46999998093E+01 0. -1.
       -5    1    3    3    0  502  0.48641420276E+03 -0.11285264936E+04 -0.11315130518E+04  0.16704833731E+04  0.46999998093E+01 0.  1.
</event>
<event>
 5   0  0.2632875E-08  0.3896271E+04  0.7818609E-02  0.8025805E-01
        1   -1    0    0  501    0  0.00000000000E+00  0.00000000000E+00  0.23980101895E+04  0.23980101895E+04  0.50400001928E-02 0.  1.
       -1   -1    0    0    0  501  0.00000000000E+00  0.00000000000E+00 -0.15826591904E+04  0.15826591904E+04  0.50400001928E-02 0. -1.
    10030    2    1    2    0    0  0.00000000000E+00  0.00000000000E+00  0.81535099905E+03  0.39806693799E+04  0.38962714818E+04 0.  0.
        2    1    3    3  502    0 -0.75619276931E+02  0.17370763973E+03  0.23885762451E+04  0.23960778572E+04  0.25500000920E-02 0.  1.
       -2    1    3    3    0  502  0.75619276931E+02 -0.17370763973E+03 -0.15732252460E+04  0.15845915227E+04  0.25500000920E-02 0. -1.
</event>
<event>
 5   0  0.2632875E-08  0.3902657E+04  0.7818609E-02  0.8024477E-01
       -1   -1    0    0    0  501  0.00000000000E+00  0.00000000000E+00  0.18183046323E+04  0.18183046323E+04  0.50400001928E-02 0.  1.
        1   -1    0    0  501    0  0.00000000000E+00  0.00000000000E+00 -0.20940846448E+04  0.20940846448E+04  0.50400001928E-02 0. -1.
    10030    2    1    2    0    0  0.00000000000E+00  0.00000000000E+00 -0.27578001248E+03  0.39123892771E+04  0.39026574588E+04 0.  0.
        5    1    3    3  502    0 -0.94019321471E+03 -0.16130582110E+03  0.15686118013E+04  0.18359052051E+04  0.46999998093E+01 0.  1.
       -5    1    3    3    0  502  0.94019321471E+03  0.16130582110E+03 -0.18443918138E+04  0.20764840721E+04  0.46999998093E+01 0. -1.
</event>
<event>
 5   0  0.8342802E-08  0.3894582E+04  0.7818609E-02  0.8026157E-01
       -2   -1    0    0    0  501  0.00000000000E+00  0.00000000000E+00  0.22223629160E+04  0.22223629160E+04  0.25500000920E-02 0. -1.
        2   -1    0    0  501    0  0.00000000000E+00  0.00000000000E+00 -0.17062662950E+04  0.17062662950E+04  0.25500000920E-02 0.  1.
    10030    2    1    2    0    0  0.00000000000E+00  0.00000000000E+00  0.51609662092E+03  0.39286292110E+04  0.38945823596E+04 0.  0.
        4    1    3    3  502    0  0.88259701023E+03  0.17190068166E+04  0.50094245060E+03  0.19962231513E+04  0.12699999809E+01 0. -1.
       -4    1    3    3    0  502 -0.88259701023E+03 -0.17190068166E+04  0.15154170323E+02  0.19324060597E+04  0.12699999809E+01 0.  1.
</event>
<event>
 5   0  0.2632875E-08  0.3906907E+04  0.7818609E-02  0.8023594E-01
        1   -1    0    0  501    0  0.00000000000E+00  0.00000000000E+00  0.27977038235E+04  0.27977038235E+04  0.50400001928E-02 0. -1.
       -1   -1    0    0    0  501  0.00000000000E+00  0.00000000000E+00 -0.13639684555E+04  0.13639684555E+04  0.50400001928E-02 0.  1.
    10030    2    1    2    0    0  0.00000000000E+00  0.00000000000E+00  0.14337353680E+04  0.41616722791E+04  0.39069065836E+04 0.  0.
        3    1    3    3  502    0 -0.11770378227E+04 -0.15248733804E+04  0.10625651819E+04  0.21999321894E+04  0.10100000352E+00 0. -1.
       -3    1    3    3    0  502  0.11770378227E+04  0.15248733804E+04  0.37117018611E+03  0.19617400897E+04  0.10100000352E+00 0.  1.
</event>
<event>
 5   0  0.2632875E-08  0.3904040E+04  0.7818609E-02  0.8024189E-01
        1   -1    0    0  501    0  0.00000000000E+00  0.00000000000E+00  0.27507375887E+04  0.27507375887E+04  0.50400001928E-02 0. -1.
       -1   -1    0    0    0  501  0.00000000000E+00  0.00000000000E+00 -0.13852221037E+04  0.13852221037E+04  0.50400001928E-02 0.  1.
    10030    2    1    2    0    0  0.00000000000E+00  0.00000000000E+00  0.13655154850E+04  0.41359596924E+04  0.39040402198E+04 0.  0.
        2    1    3    3  502    0  0.13544534729E+03  0.42225089557E+03 -0.13311544952E+04  0.14030728958E+04  0.25500000920E-02 0.  1.
       -2    1    3    3    0  502 -0.13544534729E+03 -0.42225089557E+03  0.26966699802E+04  0.27328867966E+04  0.25500000920E-02 0. -1.
</event>
<event>
 5   0  0.8476262E-08  0.3849969E+04  0.7818609E-02  0.8035516E-01
       -2   -1    0    0    0  501  0.00000000000E+00  0.00000000000E+00  0.23055742207E+04  0.23055742207E+04  0.25500000920E-02 0.  1.
        2   -1    0    0  501    0  0.00000000000E+00  0.00000000000E+00 -0.16072199888E+04  0.16072199888E+04  0.25500000920E-02 0. -1.
    10030    2    1    2    0    0  0.00000000000E+00  0.00000000000E+00  0.69835423194E+03  0.39127942095E+04  0.38499688171E+04 0.  0.
        2    1    3    3  502    0 -0.19051137429E+04  0.46346975644E+02  0.62556818892E+03  0.20057272931E+04  0.25500000920E-02 0. -1.
       -2    1    3    3    0  502  0.19051137429E+04 -0.46346975644E+02  0.72786043027E+02  0.19070669164E+04  0.25500000920E-02 0.  1.
</event>
<event>
 5   0  0.8438211E-08  0.3900664E+04  0.7818609E-02  0.8024891E-01
       -2   -1    0    0    0  501  0.00000000000E+00  0.00000000000E+00  0.28810771846E+04  0.28810771846E+04  0.25500000920E-02 0. -1.
        2   -1    0    0  501    0  0.00000000000E+00  0.00000000000E+00 -0.13202681266E+04  0.13202681266E+04  0.25500000920E-02 0.  1.
    10030    2    1    2    0    0  0.00000000000E+00  0.00000000000E+00  0.15608090580E+04  0.42013453112E+04  0.39006637267E+04 0.  0.
        5    1    3    3  502    0 -0.14180658987E+04 -0.26167343748E+03 -0.63397972674E+03  0.15752257822E+04  0.46999998093E+01 0.  1.
       -5    1    3    3    0  502  0.14180658987E+04  0.26167343748E+03  0.21947887848E+04  0.26261195290E+04  0.46999998093E+01 0. -1.
</event>
<event>
 5   0  0.2632875E-08  0.3937279E+04  0.7818609E-02  0.8017320E-01
        1   -1    0    0  501    0  0.00000000000E+00  0.00000000000E+00  0.16873569315E+04  0.16873569315E+04  0.50400001928E-02 0.  1.
       -1   -1    0    0    0  501  0.00000000000E+00  0.00000000000E+00 -0.22968115546E+04  0.22968115546E+04  0.50400001928E-02 0. -1.
    10030    2    1    2    0    0  0.00000000000E+00  0.00000000000E+00 -0.60945462311E+03  0.39841684861E+04  0.39372787034E+04 0.  0.
        4    1    3    3  502    0 -0.12429602675E+04 -0.87015387205E+03  0.96457201692E+03  0.17979206813E+04  0.12699999809E+01 0.  1.
       -4    1    3    3    0  502  0.12429602675E+04  0.87015387205E+03 -0.15740266400E+04  0.21862478048E+04  0.12699999809E+01 0. -1.
</event>
<event>
 5   0  0.8438211E-08  0.3917081E+04  0.7818609E-02  0.8021486E-01
        2   -1    0    0  501    0  0.00000000000E+00  0.00000000000E+00  0.22982803930E+04  0.22982803930E+04  0.25500000920E-02 0.  1.
       -2   -1    0    0    0  501  0.00000000000E+00  0.00000000000E+00 -0.16690221910E+04  0.16690221910E+04  0.25500000920E-02 0. -1.
    10030    2    1    2    0    0  0.00000000000E+00  0.00000000000E+00  0.62925820200E+03  0.39673025840E+04  0.39170810444E+04 0.  0.
        5    1    3    3  502    0 -0.95585612267E+03 -0.14970276293E+04 -0.52124370545E+03  0.18510725919E+04  0.46999998093E+01 0. -1.
       -5    1    3    3    0  502  0.95585612267E+03  0.14970276293E+04  0.11505019074E+04  0.21162299920E+04  0.46999998093E+01 0.  1.
</event>
<event>
 5   0  0.2632875E-08  0.3900455E+04  0.7818609E-02  0.8024935E-01
       -1   -1    0    0    0  501  0.00000000000E+00  0.00000000000E+00  0.25718173327E+04  0.25718173327E+04  0.50400001928E-02 0. -1.
        1   -1    0    0  501    0  0.00000000000E+00  0.00000000000E+00 -0.14788713017E+04  0.14788713017E+04  0.50400001928E-02 0.  1.
    10030    2    1    2    0    0  0.00000000000E+00  0.00000000000E+00  0.10929460310E+04  0.40506886344E+04  0.39004547666E+04 0.  0.
        3    1    3    3  502    0 -0.15448074271E+04 -0.16603301586E+03 -0.67765174456E+03  0.16950542311E+04  0.10100000352E+00 0. -1.
       -3    1    3    3    0  502  0.15448074271E+04  0.16603301586E+03  0.17705977756E+04  0.23556344034E+04  0.10100000352E+00 0.  1.
</event>
<event>
 5   0  0.8476262E-08  0.3893594E+04  0.7818609E-02  0.8026363E-01
       -2   -1    0    0    0  501  0.00000000000E+00  0.00000000000E+00  0.20307340179E+04  0.20307340179E+04  0.25500000920E-02 0. -1.
        2   -1    0    0  501    0  0.00000000000E+00  0.00000000000E+00 -0.18663291538E+04  0.18663291538E+04  0.25500000920E-02 0.  1.
    10030    2    1    2    0    0  0.00000000000E+00  0.00000000000E+00  0.16440486412E+03  0.38970631717E+04  0.38935937647E+04 0.  0.
        2    1    3    3  502    0  0.11873778279E+04  0.81535338734E+03  0.13930834928E+04  0.20038335435E+04  0.25500000920E-02 0. -1.
       -2    1    3    3    0  502 -0.11873778279E+04 -0.81535338734E+03 -0.12286786287E+04  0.18932296282E+04  0.25500000920E-02 0.  1.
</event>
<event>
 5   0  0.8676098E-08  0.3891724E+04  0.7818609E-02  0.8026753E-01
       -2   -1    0    0    0  501  0.00000000000E+00  0.00000000000E+00  0.11866622765E+04  0.11866622765E+04  0.25500000920E-02 0. -1.
        2   -1    0    0  501    0  0.00000000000E+00  0.00000000000E+00 -0.31907811978E+04  0.31907811978E+04  0.25500000920E-02 0.  1.
    10030    2    1    2    0    0  0.00000000000E+00  0.00000000000E+00 -0.20041189213E+04  0.43774434744E+04  0.38917243891E+04 0.  0.
        3    1    3    3  502    0 -0.18779629830E+04 -0.26004226856E+03 -0.14949420461E+04  0.24143774930E+04  0.10100000352E+00 0. -1.
       -3    1    3    3    0  502  0.18779629830E+04  0.26004226856E+03 -0.50917687518E+03  0.19630659814E+04  0.10100000352E+00 0.  1.
</event>
<event>
 5   0  0.8551754E-08  0.3900190E+04  0.7818609E-02  0.8024990E-01
        2   -1    0    0  501    0  0.00000000000E+00  0.00000000000E+00  0.21773599601E+04  0.21773599601E+04  0.25500000920E-02 0.  1.
       -2   -1    0    0    0  501  0.00000000000E+00  0.00000000000E+00 -0.17465514887E+04  0.17465514887E+04  0.25500000920E-02 0. -1.
    10030    2    1    2    0    0  0.00000000000E+00  0.00000000000E+00  0.43080847140E+03  0.39239114488E+04  0.39001903952E+04 0.  0.
        1    1    3    3  502    0  0.55959248244E+03 -0.73587991902E+03 -0.15120735457E+04  0.17722949555E+04  0.50400001928E-02 0. -1.
       -1    1    3    3    0  502 -0.55959248244E+03  0.73587991902E+03  0.19428820171E+04  0.21516164933E+04  0.50400001928E-02 0.  1.
</event>
<event>
 5   0  0.2632875E-08  0.3861946E+04  0.7818609E-02  0.8032990E-01
        1   -1    0    0  501    0  0.00000000000E+00  0.00000000000E+00  0.27735953042E+04  0.27735953042E+04  0.50400001928E-02 0. -1.
       -1   -1    0    0    0  501  0.00000000000E+00  0.00000000000E+00 -0.13443408582E+04  0.13443408582E+04  0.50400001928E-02 0.  1.
    10030    2    1    2    0    0  0.00000000000E+00  0.00000000000E+00  0.14292544460E+04  0.41179361624E+04  0.38619463961E+04 0.  0.
        1    1    3    3  502    0 -0.27821739086E+03 -0.14399041246E+04  0.20540480702E+04  0.25238546470E+04  0.50400001928E-02 0. -1.
       -1    1    3    3    0  502  0.27821739086E+03  0.14399041246E+04 -0.62479362422E+03  0.15940815154E+04  0.50400001928E-02 0.  1.
</event>
<event>
 5   0  0.8676098E-08  0.3914704E+04  0.7818609E-02  0.8021978E-01
        2   -1    0    0  501    0  0.00000000000E+00  0.00000000000E+00  0.14216805202E+04  0.14216805202E+04  0.25500000920E-02 0.  1.
       -2   -1    0    0    0  501  0.00000000000E+00  0.00000000000E+00 -0.26948582843E+04  0.26948582843E+04  0.25500000920E-02 0. -1.
    10030    2    1    2    0    0  0.00000000000E+00  0.00000000000E+00 -0.12731777642E+04  0.41165388045E+04  0.39147043451E+04 0.  0.
        3    1    3    3  502    0 -0.11478508973E+04  0.14851349666E+04 -0.52959995672E+02  0.18777625843E+04  0.10100000352E+00 0.  1.
       -3    1    3    3    0  502  0.11478508973E+04 -0.14851349666E+04 -0.12202177685E+04  0.22387762202E+04  0.10100000352E+00 0. -1.
</event>
<event>
 5   0  0.2632875E-08  0.3645541E+04  0.7818609E-02  0.8080139E-01
        1   -1    0    0  501    0  0.00000000000E+00  0.00000000000E+00  0.13361929532E+04  0.13361929532E+04  0.50400001928E-02 0. -1.
       -1   -1    0    0    0  501  0.00000000000E+00  0.00000000000E+00 -0.24865358211E+04  0.24865358211E+04  0.50400001928E-02 0.  1.
    10030    2    1    2    0    0  0.00000000000E+00  0.00000000000E+00 -0.11503428680E+04  0.38227287743E+04  0.36455406414E+04 0.  0.
        4    1    3    3  502    0  0.96495660749E+03  0.14956722977E+04 -0.98709156162E+03  0.20353201813E+04  0.12699999809E+01 0.  1.
       -4    1    3    3    0  502 -0.96495660749E+03 -0.14956722977E+04 -0.16325130637E+03  0.17874085930E+04  0.12699999809E+01 0. -1.
</event>
<event>
 5   0  0.8438211E-08  0.3883934E+04  0.7818609E-02  0.8028379E-01
        2   -1    0    0  501    0  0.00000000000E+00  0.00000000000E+00  0.21106463317E+04  0.21106463317E+04  0.25500000920E-02 0. -1.
       -2   -1    0    0    0  501  0.00000000000E+00  0.00000000000E+00 -0.17867684777E+04  0.17867684777E+04  0.25500000920E-02 0.  1.
    10030    2    1    2    0    0  0.00000000000E+00  0.00000000000E+00  0.32387785407E+03  0.38974148094E+04  0.38839342595E+04 0.  0.
        5    1    3    3  502    0 -0.36269857513E+03 -0.13422939090E+04  0.15223401228E+04  0.20617576807E+04  0.46999998093E+01 0. -1.
       -5    1    3    3    0  502  0.36269857513E+03  0.13422939090E+04 -0.11984622687E+04  0.18356571287E+04  0.46999998093E+01 0.  1.
</event>
<event>
 5   0  0.2632875E-08  0.3902565E+04  0.7818609E-02  0.8024496E-01
        1   -1    0    0  501    0  0.00000000000E+00  0.00000000000E+00  0.31827032467E+04  0.31827032467E+04  0.50400001928E-02 0.  1.
       -1   -1    0    0    0  501  0.00000000000E+00  0.00000000000E+00 -0.11963110809E+04  0.11963110809E+04  0.50400001928E-02 0. -1.
    10030    2    1    2    0    0  0.00000000000E+00  0.00000000000E+00  0.19863921658E+04  0.43790143276E+04  0.39025648803E+04 0.  0.
        4    1    3    3  502    0  0.10275722650E+04  0.15038575133E+04  0.17786639549E+04  0.25458081737E+04  0.12699999809E+01 0.  1.
       -4    1    3    3    0  502 -0.10275722650E+04 -0.15038575133E+04  0.20772821083E+03  0.18332061539E+04  0.12699999809E+01 0. -1.
</event>
<event>
 5   0  0.2632875E-08  0.3853561E+04  0.7818609E-02  0.8034757E-01
        1   -1    0    0  501    0  0.00000000000E+00  0.00000000000E+00  0.28715118805E+04  0.28715118805E+04  0.50400001928E-02 0.  1.
       -1   -1    0    0    0  501  0.00000000000E+00  0.00000000000E+00 -0.12928672323E+04  0.12928672323E+04  0.50400001928E-02 0. -1.
    10030    2    1    2    0    0  0.00000000000E+00  0.00000000000E+00  0.15786446482E+04  0.41643791128E+04  0.38535612710E+04 0.  0.
        5    1    3    3  502    0  0.88680357868E+03 -0.98011899176E+03  0.23043282019E+04  0.26565022825E+04  0.46999998093E+01 0.  1.
       -5    1    3    3    0  502 -0.88680357868E+03  0.98011899176E+03 -0.72568355366E+03  0.15078768303E+04  0.46999998093E+01 0. -1.
</event>
<event>
 5   0  0.8551754E-08  0.3900046E+04  0.7818609E-02  0.8025020E-01
       -2   -1    0    0    0  501  0.00000000000E+00  0.00000000000E+00  0.20328161135E+04  0.20328161135E+04  0.25500000920E-02 0.  1.
        2   -1    0    0  501    0  0.00000000000E+00  0.00000000000E+00 -0.18706016096E+04  0.18706016096E+04  0.25500000920E-02 0. -1.
    10030    2    1    2    0    0  0.00000000000E+00  0.00000000000E+00  0.16221450395E+03  0.39034177231E+04  0.39000456889E+04 0.  0.
        1    1    3    3  502    0 -0.12017863850E+04 -0.90105941986E+03 -0.11635074348E+04  0.18999863536E+04  0.50400001928E-02 0. -1.
       -1    1    3    3    0  502  0.12017863850E+04  0.90105941986E+03  0.13257219387E+04  0.20034313694E+04  0.50400001928E-02 0.  1.
</event>
<event>
 5   0  0.8342802E-08  0.3909287E+04  0.7818609E-02  0.8023101E-01
       -2   -1    0    0    0  501  0.00000000000E+00  0.00000000000E+00  0.21028306103E+04  0.21028306103E+04  0.25500000920E-02 0. -1.
        2   -1    0    0  501    0  0.00000000000E+00  0.00000000000E+00 -0.18168989771E+04  0.18168989771E+04  0.25500000920E-02 0.  1.
    10030    2    1    2    0    0  0.00000000000E+00  0.00000000000E+00  0.28593163325E+03  0.39197295874E+04  0.39092867814E+04 0.  0.
        4    1    3    3  502    0 -0.16420720113E+04  0.36980065902E+02  0.12054478756E+04  0.20373694337E+04  0.12699999809E+01 0. -1.
       -4    1    3    3    0  502  0.16420720113E+04 -0.36980065902E+02 -0.91951624233E+03  0.18823601537E+04  0.12699999809E+01 0.  1.
</event>
<event>
 5   0  0.8676098E-08  0.3895857E+04  0.7818609E-02  0.8025891E-01
       -2   -1    0    0    0  501  0.00000000000E+00  0.00000000000E+00  0.14360465708E+04  0.14360465708E+04  0.25500000920E-02 0. -1.
        2   -1    0    0  501    0  0.00000000000E+00  0.00000000000E+00 -0.26422724281E+04  0.26422724281E+04  0.25500000920E-02 0.  1.
    10030    2    1    2    0    0  0.00000000000E+00  0.00000000000E+00 -0.12062258573E+04  0.40783189989E+04  0.38958574201E+04 0.  0.
        3    1    3    3  502    0 -0.28636782264E+03  0.11302198697E+02  0.14138559713E+04  0.14426097834E+04  0.10100000352E+00 0. -1.
       -3    1    3    3    0  502  0.28636782264E+03 -0.11302198697E+02 -0.26200818286E+04  0.26357092154E+04  0.10100000352E+00 0.  1.
</event>
<event>
 5   0  0.2632875E-08  0.3904540E+04  0.7818609E-02  0.8024086E-01
        1   -1    0    0  501    0  0.00000000000E+00  0.00000000000E+00  0.22218413136E+04  0.22218413136E+04  0.50400001928E-02 0. -1.
       -1   -1    0    0    0  501  0.00000000000E+00  0.00000000000E+00 -0.17154055458E+04  0.17154055458E+04  0.50400001928E-02 0.  1.
    10030    2    1    2    0    0  0.00000000000E+00  0.00000000000E+00  0.50643576782E+03  0.39372468594E+04  0.39045403884E+04 0.  0.
        4    1    3    3  502    0  0.70934731759E+03  0.17899612901E+04  0.57875684357E+03  0.20104964894E+04  0.12699999809E+01 0. -1.
       -4    1    3    3    0  502 -0.70934731759E+03 -0.17899612901E+04 -0.72321075753E+02  0.19267503699E+04  0.12699999809E+01 0.  1.
</event>
<event>
 5   0  0.2632875E-08  0.3947878E+04  0.7818609E-02  0.8015144E-01
        1   -1    0    0  501    0  0.00000000000E+00  0.00000000000E+00  0.16185860594E+04  0.16185860594E+04  0.50400001928E-02 0.  1.
       -1   -1    0    0    0  501  0.00000000000E+00  0.00000000000E+00 -0.24073083913E+04  0.24073083913E+04  0.50400001928E-02 0. -1.
    10030    2    1    2    0    0  0.00000000000E+00  0.00000000000E+00 -0.78872233189E+03  0.40258944507E+04  0.39478783177E+04 0.  0.
        2    1    3    3  502    0 -0.11993036297E+04 -0.39633397209E+03 -0.19412510101E+04  0.23160020073E+04  0.25500000920E-02 0. -1.
       -2    1    3    3    0  502  0.11993036297E+04  0.39633397209E+03  0.11525286782E+04  0.17098924434E+04  0.25500000920E-02 0.  1.
</event>
<event>
 5   0  0.8438211E-08  0.3907613E+04  0.7818609E-02  0.8023448E-01
       -2   -1    0    0    0  501  0.00000000000E+00  0.00000000000E+00  0.21009444009E+04  0.21009444009E+04  0.25500000920E-02 0.  1.
        2   -1    0    0  501    0  0.00000000000E+00  0.00000000000E+00 -0.18169733481E+04  0.18169733481E+04  0.25500000920E-02 0. -1.
    10030    2    1    2    0    0  0.00000000000E+00  0.00000000000E+00  0.28397105275E+03  0.39179177490E+04  0.39076130731E+04 0.  0.
        5    1    3    3  502    0 -0.67520958974E+03 -0.29321651620E+03  0.19565796966E+04  0.20904808333E+04  0.46999998093E+01 0.  1.
       -5    1    3    3    0  502  0.67520958974E+03  0.29321651620E+03 -0.16726086438E+04  0.18274369157E+04  0.46999998093E+01 0. -1.
</event>
<event>
 5   0  0.2632875E-08  0.3945621E+04  0.7818609E-02  0.8015607E-01
       -1   -1    0    0    0  501  0.00000000000E+00  0.00000000000E+00  0.21517464901E+04  0.21517464901E+04  0.50400001928E-02 0. -1.
        1   -1    0    0  501    0  0.00000000000E+00  0.00000000000E+00 -0.18087542792E+04  0.18087542792E+04  0.50400001928E-02 0.  1.
    10030    2    1    2    0    0  0.00000000000E+00  0.00000000000E+00  0.34299221084E+03  0.39605007693E+04  0.39456206973E+04 0.  0.
        1    1    3    3  502    0 -0.14372489962E+04  0.10895640085E+04  0.97397736110E+03  0.20497478639E+04  0.50400001928E-02 0.  1.
       -1    1    3    3    0  502  0.14372489962E+04 -0.10895640085E+04 -0.63098515026E+03  0.19107529054E+04  0.50400001928E-02 0. -1.
</event>
<event>
 5   0  0.8676098E-08  0.3889464E+04  0.7818609E-02  0.8027224E-01
        2   -1    0    0  501    0  0.00000000000E+00  0.00000000000E+00  0.25540301157E+04  0.25540301157E+04  0.25500000920E-02 0.  1.
       -2   -1    0    0    0  501  0.00000000000E+00  0.00000000000E+00 -0.14807902652E+04  0.14807902652E+04  0.25500000920E-02 0. -1.
    10030    2    1    2    0    0  0.00000000000E+00  0.00000000000E+00  0.10732398505E+04  0.40348203809E+04  0.38894641956E+04 0.  0.
        3    1    3    3  502    0 -0.46508285531E+03 -0.10809008478E+04 -0.10695767403E+04  0.15901707829E+04  0.10100000352E+00 0. -1.
       -3    1    3    3    0  502  0.46508285531E+03  0.10809008478E+04  0.21428165908E+04  0.24446495980E+04  0.10100000352E+00 0.  1.
</event>
<event>
 5   0  0.2632875E-08  0.3897120E+04  0.7818609E-02  0.8025629E-01
       -1   -1    0    0    0  501  0.00000000000E+00  0.00000000000E+00  0.31057015315E+04  0.31057015315E+04  0.50400001928E-02 0.  1.
        1   -1    0    0  501    0  0.00000000000E+00  0.00000000000E+00 -0.12225532195E+04  0.12225532195E+04  0.50400001928E-02 0. -1.
    10030    2    1    2    0    0  0.00000000000E+00  0.00000000000E+00  0.18831483120E+04  0.43282547509E+04  0.38971196574E+04 0.  0.
        2    1    3    3  502    0 -0.18276647825E+03 -0.13776158144E+03  0.30907215332E+04  0.30991839949E+04  0.25500000920E-02 0.  1.
       -2    1    3    3    0  502  0.18276647825E+03  0.13776158144E+03 -0.12075732211E+04  0.12290707560E+04  0.25500000920E-02 0. -1.
</event>
<event>
 5   0  0.2632875E-08  0.3861780E+04  0.7818609E-02  0.8033026E-01
        1   -1    0    0  501    0  0.00000000000E+00  0.00000000000E+00  0.17466282350E+04  0.17466282350E+04  0.50400001928E-02 0.  1.
       -1   -1    0    0    0  501  0.00000000000E+00  0.00000000000E+00 -0.21345903452E+04  0.21345903452E+04  0.50400001928E-02 0. -1.
    10030    2    1    2    0    0  0.00000000000E+00  0.00000000000E+00 -0.38796211021E+03  0.38812185802E+04  0.38617797799E+04 0.  0.
        4    1    3    3  502    0  0.92187522782E+03 -0.53592267333E+03  0.14238631162E+04  0.17788914621E+04  0.12699999809E+01 0.  1.
       -4    1    3    3    0  502 -0.92187522782E+03  0.53592267333E+03 -0.18118252264E+04  0.21023271181E+04  0.12699999809E+01 0. -1.
</event>
<event>
 5   0  0.8342802E-08  0.3906020E+04  0.7818609E-02  0.8023778E-01
        2   -1    0    0  501    0  0.00000000000E+00  0.00000000000E+00  0.26523460039E+04  0.26523460039E+04  0.25500000920E-02 0.  1.
       -2   -1    0    0    0  501  0.00000000000E+00  0.00000000000E+00 -0.14380660515E+04  0.14380660515E+04  0.25500000920E-02 0. -1.
    10030    2    1    2    0    0  0.00000000000E+00  0.00000000000E+00  0.12142799523E+04  0.40904120554E+04  0.39060203507E+04 0.  0.
        4    1    3    3  502    0  0.82745303981E+03 -0.16415444192E+04 -0.83461529660E+02  0.18401940259E+04  0.12699999809E+01 0. -1.
       -4    1    3    3    0  502 -0.82745303981E+03  0.16415444192E+04  0.12977414820E+04  0.22502180295E+04  0.12699999809E+01 0.  1.
</event>
<event>
 5   0  0.2632875E-08  0.3881483E+04  0.7818609E-02  0.8028891E-01
        1   -1    0    0  501    0  0.00000000000E+00  0.00000000000E+00  0.23085905939E+04  0.23085905940E+04  0.50400001928E-02 0.  1.
       -1   -1    0    0    0  501  0.00000000000E+00  0.00000000000E+00 -0.16315053270E+04  0.16315053270E+04  0.50400001928E-02 0. -1.
    10030    2    1    2    0    0  0.00000000000E+00  0.00000000000E+00  0.67708526697E+03  0.39400959209E+04  0.38814831453E+04 0.  0.
        5    1    3    3  502    0 -0.10308929954E+04 -0.12862454341E+04  0.13783585458E+04  0.21487349896E+04  0.46999998093E+01 0.  1.
       -5    1    3    3    0  502  0.10308929954E+04  0.12862454341E+04 -0.70127327883E+03  0.17913609313E+04  0.46999998093E+01 0. -1.
</event>
<event>
 5   0  0.8476262E-08  0.3889070E+04  0.7818609E-02  0.8027306E-01
        2   -1    0    0  501    0  0.00000000000E+00  0.00000000000E+00  0.24631573158E+04  0.24631573158E+04  0.25500000920E-02 0. -1.
       -2   -1    0    0    0  501  0.00000000000E+00  0.00000000000E+00 -0.15351096886E+04  0.15351096886E+04  0.25500000920E-02 0.  1.
    10030    2    1    2    0    0  0.00000000000E+00  0.00000000000E+00  0.92804762715E+03  0.39982670044E+04  0.38890701511E+04 0.  0.
        2    1    3    3  502    0  0.37692717896E+03 -0.18979683926E+04  0.66140015531E+03  0.20449470123E+04  0.25500000920E-02 0. -1.
       -2    1    3    3    0  502 -0.37692717896E+03  0.18979683926E+04  0.26664747184E+03  0.19533199922E+04  0.25500000920E-02 0.  1.
</event>
<event>
 5   0  0.2632875E-08  0.3864469E+04  0.7818609E-02  0.8032460E-01
       -1   -1    0    0    0  501  0.00000000000E+00  0.00000000000E+00  0.12671082178E+04  0.12671082178E+04  0.50400001928E-02 0. -1.
        1   -1    0    0  501    0  0.00000000000E+00  0.00000000000E+00 -0.29464960953E+04  0.29464960953E+04  0.50400001928E-02 0.  1.
    10030    2    1    2    0    0  0.00000000000E+00  0.00000000000E+00 -0.16793878775E+04  0.42136043130E+04  0.38644686134E+04 0.  0.
        4    1    3    3  502    0 -0.46696609209E+02 -0.15315164124E+04  0.44386253588E+03  0.15952237017E+04  0.12699999809E+01 0. -1.
       -4    1    3    3    0  502  0.46696609209E+02  0.15315164124E+04 -0.21232504134E+04  0.26183806113E+04  0.12699999809E+01 0.  1.
</event>
<event>
 5   0  0.2632875E-08  0.3903143E+04  0.7818609E-02  0.8024376E-01
       -1   -1    0    0    0  501  0.00000000000E+00  0.00000000000E+00  0.16370831302E+04  0.16370831302E+04  0.50400001928E-02 0. -1.
        1   -1    0    0  501    0  0.00000000000E+00  0.00000000000E+00 -0.23264738316E+04  0.23264738316E+04  0.50400001928E-02 0.  1.
    10030    2    1    2    0    0  0.00000000000E+00  0.00000000000E+00 -0.68939070139E+03  0.39635569618E+04  0.39031428683E+04 0.  0.
        1    1    3    3  502    0  0.18900873091E+03 -0.58783271765E+03  0.15352727637E+04  0.16547912446E+04  0.50400001928E-02 0. -1.
       -1    1    3    3    0  502 -0.18900873091E+03  0.58783271765E+03 -0.22246634651E+04  0.23087657172E+04  0.50400001928E-02 0.  1.
</event>
<event>
 5   0  0.8476262E-08  0.3929776E+04  0.7818609E-02  0.8018865E-01
       -2   -1    0    0    0  501  0.00000000000E+00  0.00000000000E+00  0.18668971901E+04  0.18668971901E+04  0.25500000920E-02 0.  1.
        2   -1    0    0  501    0  0.00000000000E+00  0.00000000000E+00 -0.20680219796E+04  0.20680219796E+04  0.25500000920E-02 0. -1.
    10030    2    1    2    0    0  0.00000000000E+00  0.00000000000E+00 -0.20112478951E+03  0.39349191696E+04  0.39297757812E+04 0.  0.
        2    1    3    3  502    0  0.15539876212E+04  0.11745207081E+04 -0.35859717650E+03  0.19806484685E+04  0.25500000920E-02 0. -1.
       -2    1    3    3    0  502 -0.15539876212E+04 -0.11745207081E+04  0.15747238699E+03  0.19542707012E+04  0.25500000920E-02 0.  1.
</event>
<event>
 5   0  0.8551754E-08  0.3923092E+04  0.7818609E-02  0.8020244E-01
        2   -1    0    0  501    0  0.00000000000E+00  0.00000000000E+00  0.22828792429E+04  0.22828792429E+04  0.25500000920E-02 0. -1.
       -2   -1    0    0    0  501  0.00000000000E+00  0.00000000000E+00 -0.16854425993E+04  0.16854425993E+04  0.25500000920E-02 0.  1.
    10030    2    1    2    0    0  0.00000000000E+00  0.00000000000E+00  0.59743664364E+03  0.39683218422E+04  0.39230915998E+04 0.  0.
        1    1    3    3  502    0  0.64358927083E+03 -0.13282677515E+04 -0.10081365628E+04  0.17874120114E+04  0.50400001928E-02 0.  1.
       -1    1    3    3    0  502 -0.64358927083E+03  0.13282677515E+04  0.16055732064E+04  0.21809098309E+04  0.50400001928E-02 0. -1.
</event>
<event>
 5   0  0.2632875E-08  0.3888842E+04  0.7818609E-02  0.8027354E-01
        1   -1    0    0  501    0  0.00000000000E+00  0.00000000000E+00  0.22824259314E+04  0.22824259314E+04  0.50400001928E-02 0.  1.
       -1   -1    0    0    0  501  0.00000000000E+00  0.00000000000E+00 -0.16564715395E+04  0.16564715395E+04  0.50400001928E-02 0. -1.
    10030    2    1    2    0    0  0.00000000000E+00  0.00000000000E+00  0.62595439181E+03  0.39388974709E+04  0.38888422938E+04 0.  0.
        2    1    3    3  502    0  0.17180642767E+04 -0.80887126951E+03 -0.11044186165E+03  0.19021606122E+04  0.25500000920E-02 0.  1.
       -2    1    3    3    0  502 -0.17180642767E+04  0.80887126951E+03  0.73639625346E+03  0.20367368587E+04  0.25500000920E-02 0. -1.
</event>
<event>
 5   0  0.2632875E-08  0.3908136E+04  0.7818609E-02  0.8023339E-01
       -1   -1    0    0    0  501  0.00000000000E+00  0.00000000000E+00  0.23156732271E+04  0.23156732271E+04  0.50400001928E-02 0.  1.
        1   -1    0    0  501    0  0.00000000000E+00  0.00000000000E+00 -0.16489294899E+04  0.16489294899E+04  0.50400001928E-02 0. -1.
    10030    2    1    2    0    0  0.00000000000E+00  0.00000000000E+00  0.66674373718E+03  0.39646027170E+04  0.39081360637E+04 0.  0.
        3    1    3    3  502    0 -0.10073474060E+04 -0.11723300022E+04 -0.87942471021E+03  0.17783403109E+04  0.10100000352E+00 0.  1.
       -3    1    3    3    0  502  0.10073474060E+04  0.11723300022E+04  0.15461684474E+04  0.21862624061E+04  0.10100000352E+00 0. -1.
</event>
<event>
 5   0  0.2632875E-08  0.3894528E+04  0.7818609E-02  0.8026168E-01
       -1   -1    0    0    0  501  0.00000000000E+00  0.00000000000E+00  0.14702786160E+04  0.14702786160E+04  0.50400001928E-02 0. -1.
        1   -1    0    0  501    0  0.00000000000E+00  0.00000000000E+00 -0.25789928083E+04  0.25789928083E+04  0.50400001928E-02 0.  1.
    10030    2    1    2    0    0  0.00000000000E+00  0.00000000000E+00 -0.11087141923E+04  0.40492714243E+04  0.38945284577E+04 0.  0.
        1    1    3    3  502    0  0.38763429464E+03 -0.57740414692E+03 -0.24454667409E+04  0.25424325903E+04  0.50400001928E-02 0.  1.
       -1    1    3    3    0  502 -0.38763429464E+03  0.57740414692E+03  0.13367525487E+04  0.15068388340E+04  0.50400001928E-02 0. -1.
</event>
<event>
 5   0  0.8342802E-08  0.3896137E+04  0.7818609E-02  0.8025833E-01
        2   -1    0    0  501    0  0.00000000000E+00  0.00000000000E+00  0.20507948172E+04  0.20507948172E+04  0.25500000920E-02 0. -1.
       -2   -1    0    0    0  501  0.00000000000E+00  0.00000000000E+00 -0.18504874462E+04  0.18504874462E+04  0.25500000920E-02 0.  1.
    10030    2    1    2    0    0  0.00000000000E+00  0.00000000000E+00  0.20030737098E+03  0.39012822634E+04  0.38961365807E+04 0.  0.
        4    1    3    3  502    0  0.18062978344E+04 -0.66777835362E+03  0.39435911804E+03  0.19657468105E+04  0.12699999809E+01 0. -1.
       -4    1    3    3    0  502 -0.18062978344E+04  0.66777835362E+03 -0.19405174706E+03  0.19355354529E+04  0.12699999809E+01 0.  1.
</event>
<event>
 5   0  0.2632875E-08  0.3818780E+04  0.7818609E-02  0.8042137E-01
        1   -1    0    0  501    0  0.00000000000E+00  0.00000000000E+00  0.16897178860E+04  0.16897178860E+04  0.50400001928E-02 0.  1.
       -1   -1    0    0    0  501  0.00000000000E+00  0.00000000000E+00 -0.21576204691E+04  0.21576204691E+04  0.50400001928E-02 0. -1.
    10030    2    1    2    0    0  0.00000000000E+00  0.00000000000E+00 -0.46790258318E+03  0.38473383551E+04  0.38187798564E+04 0.  0.
        3    1    3    3  502    0 -0.56701725600E+03  0.15112066597E+04 -0.12616364590E+04  0.20486533875E+04  0.10100000352E+00 0. -1.
       -3    1    3    3    0  502  0.56701725600E+03 -0.15112066597E+04  0.79373387586E+03  0.17986849677E+04  0.10100000352E+00 0.  1.
</event>
<event>
 5   0  0.2632875E-08  0.3903304E+04  0.7818609E-02  0.8024342E-01
        1   -1    0    0  501    0  0.00000000000E+00  0.00000000000E+00  0.23612961481E+04  0.23612961481E+04  0.50400001928E-02 0. -1.
       -1   -1    0    0    0  501  0.00000000000E+00  0.00000000000E+00 -0.16130739143E+04  0.16130739143E+04  0.50400001928E-02 0.  1.
    10030    2    1    2    0    0  0.00000000000E+00  0.00000000000E+00  0.74822223376E+03  0.39743700624E+04  0.39033038419E+04 0.  0.
        1    1    3    3  502    0 -0.17367509412E+04 -0.39532043825E+03  0.11863587448E+04  0.21401002668E+04  0.50400001928E-02 0. -1.
       -1    1    3    3    0  502  0.17367509412E+04  0.39532043825E+03 -0.43813651107E+03  0.18342697956E+04  0.50400001928E-02 0.  1.
</event>
<event>
 5   0  0.2632875E-08  0.3637928E+04  0.7818609E-02  0.8081859E-01
       -1   -1    0    0    0  501  0.00000000000E+00  0.00000000000E+00  0.13752271519E+04  0.13752271519E+04  0.50400001928E-02 0. -1.
        1   -1    0    0  501    0  0.00000000000E+00  0.00000000000E+00 -0.24058795601E+04  0.24058795601E+04  0.50400001928E-02 0.  1.
    10030    2    1    2    0    0  0.00000000000E+00  0.00000000000E+00 -0.10306524082E+04  0.37811067121E+04  0.36379284739E+04 0.  0.
        1    1    3    3  502    0 -0.43007251572E+03  0.10365789965E+04  0.97250628840E+03  0.14850006282E+04  0.50400001928E-02 0. -1.
       -1    1    3    3    0  502  0.43007251572E+03 -0.10365789965E+04 -0.20031586966E+04  0.22961060839E+04  0.50400001928E-02 0.  1.
</event>
<event>
 5   0  0.8342802E-08  0.3887705E+04  0.7818609E-02  0.8027591E-01
        2   -1    0    0  501    0  0.00000000000E+00  0.00000000000E+00  0.12185863032E+04  0.12185863032E+04  0.25500000920E-02 0. -1.
       -2   -1    0    0    0  501  0.00000000000E+00  0.00000000000E+00 -0.31007756047E+04  0.31007756047E+04  0.25500000920E-02 0.  1.
    10030    2    1    2    0    0  0.00000000000E+00  0.00000000000E+00 -0.18821893015E+04  0.43193619078E+04  0.38877050716E+04 0.  0.
        4    1    3    3  502    0  0.17356557748E+04 -0.82331304346E+03 -0.12710835301E+04  0.23034756976E+04  0.12699999809E+01 0.  1.
       -4    1    3    3    0  502 -0.17356557748E+04  0.82331304346E+03 -0.61110577147E+03  0.20158862103E+04  0.12699999809E+01 0. -1.
</event>
<event>
 5   0  0.8676098E-08  0.3905277E+04  0.7818609E-02  0.8023933E-01
        2   -1    0    0  501    0  0.00000000000E+00  0.00000000000E+00  0.20309639086E+04  0.20309639086E+04  0.25500000920E-02 0.  1.
       -2   -1    0    0    0  501  0.00000000000E+00  0.00000000000E+00 -0.18773335141E+04  0.18773335141E+04  0.25500000920E-02 0. -1.
    10030    2    1    2    0    0  0.00000000000E+00  0.00000000000E+00  0.15363039449E+03  0.39082974226E+04  0.39052767438E+04 0.  0.
        3    1    3    3  502    0  0.17301332160E+04 -0.45054906392E+03 -0.70892978913E+03  0.19232620363E+04  0.10100000352E+00 0. -1.
       -3    1    3    3    0  502 -0.17301332160E+04  0.45054906392E+03  0.86256018362E+03  0.19850353863E+04  0.10100000352E+00 0.  1.
</event>
<event>
 5   0  0.8438211E-08  0.3894626E+04  0.7818609E-02  0.8026148E-01
       -2   -1    0    0    0  501  0.00000000000E+00  0.00000000000E+00  0.21885046894E+04  0.21885046894E+04  0.25500000920E-02 0.  1.
        2   -1    0    0  501    0  0.00000000000E+00  0.00000000000E+00 -0.17327023949E+04  0.17327023949E+04  0.25500000920E-02 0. -1.
    10030    2    1    2    0    0  0.00000000000E+00  0.00000000000E+00  0.45580229449E+03  0.39212070843E+04  0.38946256902E+04 0.  0.
        5    1    3    3  502    0 -0.13272367957E+04  0.32828477673E+03  0.16239711629E+04  0.21228831420E+04  0.46999998093E+01 0.  1.
       -5    1    3    3    0  502  0.13272367957E+04 -0.32828477673E+03 -0.11681688684E+04  0.17983239424E+04  0.46999998093E+01 0. -1.
</event>
<event>
 5   0  0.8676098E-08  0.3896303E+04  0.7818609E-02  0.8025799E-01
        2   -1    0    0  501    0  0.00000000000E+00  0.00000000000E+00  0.30428672564E+04  0.30428672564E+04  0.25500000920E-02 0.  1.
       -2   -1    0    0    0  501  0.00000000000E+00  0.00000000000E+00 -0.12472755690E+04  0.12472755690E+04  0.25500000920E-02 0. -1.
    10030    2    1    2    0    0  0.00000000000E+00  0.00000000000E+00  0.17955916873E+04  0.42901428254E+04  0.38963028572E+04 0.  0.
        3    1    3    3  502    0 -0.60865036042E+03 -0.95838279885E+03  0.26409633997E+04  0.28746548556E+04  0.10100000352E+00 0.  1.
       -3    1    3    3    0  502  0.60865036042E+03  0.95838279885E+03 -0.84537171235E+03  0.14154879698E+04  0.10100000352E+00 0. -1.
</event>
<event>
 5   0  0.2632875E-08  0.3888521E+04  0.7818609E-02  0.8027421E-01
        1   -1    0    0  501    0  0.00000000000E+00  0.00000000000E+00  0.18211651090E+04  0.18211651090E+04  0.50400001928E-02 0.  1.
       -1   -1    0    0    0  501  0.00000000000E+00  0.00000000000E+00 -0.20756764319E+04  0.20756764320E+04  0.50400001928E-02 0. -1.
    10030    2    1    2    0    0  0.00000000000E+00  0.00000000000E+00 -0.25451132295E+03  0.38968415410E+04  0.38885213105E+04 0.  0.
        5    1    3    3  502    0 -0.12953390097E+04  0.53144829955E+02  0.13247752006E+04  0.18535854297E+04  0.46999998093E+01 0.  1.
       -5    1    3    3    0  502  0.12953390097E+04 -0.53144829955E+02 -0.15792865235E+04  0.20432561113E+04  0.46999998093E+01 0. -1.
</event>
<event>
 5   0  0.8438211E-08  0.3897162E+04  0.7818609E-02  0.8025620E-01
       -2   -1    0    0    0  501  0.00000000000E+00  0.00000000000E+00  0.20895629033E+04  0.20895629033E+04  0.25500000920E-02 0. -1.
        2   -1    0    0  501    0  0.00000000000E+00  0.00000000000E+00 -0.18171113171E+04  0.18171113171E+04  0.25500000920E-02 0.  1.
    10030    2    1    2    0    0  0.00000000000E+00  0.00000000000E+00  0.27245158621E+03  0.39066742203E+04  0.38971622492E+04 0.  0.
        5    1    3    3  502    0  0.19171765260E+04  0.31342401444E+03 -0.16283185319E+02  0.19427011291E+04  0.46999998093E+01 0.  1.
       -5    1    3    3    0  502 -0.19171765260E+04 -0.31342401444E+03  0.28873477153E+03  0.19639730912E+04  0.46999998093E+01 0. -1.
</event>
<event>
 5   0  0.8476262E-08  0.3903664E+04  0.7818609E-02  0.8024268E-01
        2   -1    0    0  501    0  0.00000000000E+00  0.00000000000E+00  0.27744179427E+04  0.27744179427E+04  0.25500000920E-02 0.  1.
       -2   -1    0    0    0  501  0.00000000000E+00  0.00000000000E+00 -0.13731339446E+04  0.13731339446E+04  0.25500000920E-02 0. -1.
    10030    2    1    2    0    0  0.00000000000E+00  0.00000000000E+00  0.14012839981E+04  0.41475518873E+04  0.39036636400E+04 0.  0.
        2    1    3    3  502    0  0.18380360155E+04  0.65609320321E+03  0.67035175479E+03  0.20635421393E+04  0.25500000920E-02 0. -1.
       -2    1    3    3    0  502 -0.18380360155E+04 -0.65609320321E+03  0.73093224336E+03  0.20840097480E+04  0.25500000920E-02 0.  1.
</event>
<event>
 5   0  0.8438211E-08  0.3931789E+04  0.7818609E-02  0.8018450E-01
       -2   -1    0    0    0  501  0.00000000000E+00  0.00000000000E+00  0.16595538925E+04  0.16595538925E+04  0.25500000920E-02 0.  1.
        2   -1    0    0  501    0  0.00000000000E+00  0.00000000000E+00 -0.23287827781E+04  0.23287827781E+04  0.25500000920E-02 0. -1.
    10030    2    1    2    0    0  0.00000000000E+00  0.00000000000E+00 -0.66922888564E+03  0.39883366706E+04  0.39317886638E+04 0.  0.
        5    1    3    3  502    0 -0.18180185018E+04  0.40090245155E+03  0.30597770103E+03  0.18866792234E+04  0.46999998093E+01 0. -1.
       -5    1    3    3    0  502  0.18180185018E+04 -0.40090245155E+03 -0.97520658667E+03  0.21016574472E+04  0.46999998093E+01 0.  1.
</event>
<event>
 5   0  0.2632875E-08  0.3783531E+04  0.7818609E-02  0.8049698E-01
       -1   -1    0    0    0  501  0.00000000000E+00  0.00000000000E+00  0.14120729976E+04  0.14120729976E+04  0.50400001928E-02 0.  1.
        1   -1    0    0  501    0  0.00000000000E+00  0.00000000000E+00 -0.25344136502E+04  0.25344136502E+04  0.50400001928E-02 0. -1.
    10030    2    1    2    0    0  0.00000000000E+00  0.00000000000E+00 -0.11223406526E+04  0.39464866479E+04  0.37835311974E+04 0.  0.
        1    1    3    3  502    0  0.18493334789E+04 -0.11798009212E+03 -0.95811756119E+03  0.20861310792E+04  0.50400001928E-02 0.  1.
       -1    1    3    3    0  502 -0.18493334789E+04  0.11798009212E+03 -0.16422309141E+03  0.18603555687E+04  0.50400001928E-02 0. -1.
</event>
<event>
 5   0  0.8476262E-08  0.3877813E+04  0.7818609E-02  0.8029660E-01
        2   -1    0    0  501    0  0.00000000000E+00  0.00000000000E+00  0.36611123634E+04  0.36611123634E+04  0.25500000920E-02 0.  1.
       -2   -1    0    0    0  501  0.00000000000E+00  0.00000000000E+00 -0.10268350813E+04  0.10268350813E+04  0.25500000920E-02 0. -1.
    10030    2    1    2    0    0  0.00000000000E+00  0.00000000000E+00  0.26342772820E+04  0.46879474447E+04  0.38778131009E+04 0.  0.
        2    1    3    3  502    0  0.13896803159E+04 -0.13275243911E+04  0.10069718289E+04  0.21696830767E+04  0.25500000920E-02 0. -1.
       -2    1    3    3    0  502 -0.13896803159E+04  0.13275243911E+04  0.16273054532E+04  0.25182643680E+04  0.25500000920E-02 0.  1.
</event>
<event>
 5   0  0.2632875E-08  0.3889674E+04  0.7818609E-02  0.8027180E-01
        1   -1    0    0  501    0  0.00000000000E+00  0.00000000000E+00  0.15286506015E+04  0.15286506016E+04  0.50400001928E-02 0.  1.
       -1   -1    0    0    0  501  0.00000000000E+00  0.00000000000E+00 -0.24743327081E+04  0.24743327081E+04  0.50400001928E-02 0. -1.
    10030    2    1    2    0    0  0.00000000000E+00  0.00000000000E+00 -0.94568210653E+03  0.40029833096E+04  0.38896736021E+04 0.  0.
        5    1    3    3  502    0 -0.62090383538E+03  0.14065228580E+04 -0.16985614370E+04  0.22910611446E+04  0.46999998093E+01 0. -1.
       -5    1    3    3    0  502  0.62090383538E+03 -0.14065228580E+04  0.75287933049E+03  0.17119221650E+04  0.46999998093E+01 0.  1.
</event>
<event>
 5   0  0.2632875E-08  0.3897742E+04  0.7818609E-02  0.8025499E-01
       -1   -1    0    0    0  501  0.00000000000E+00  0.00000000000E+00  0.14601224650E+04  0.14601224651E+04  0.50400001928E-02 0.  1.
        1   -1    0    0  501    0  0.00000000000E+00  0.00000000000E+00 -0.26012193066E+04  0.26012193066E+04  0.50400001928E-02 0. -1.
    10030    2    1    2    0    0  0.00000000000E+00  0.00000000000E+00 -0.11410968416E+04  0.40613417717E+04  0.38977422933E+04 0.  0.
        5    1    3    3  502    0 -0.75802879615E+03  0.13784164372E+04  0.62814486647E+03  0.16938794506E+04  0.46999998093E+01 0. -1.
       -5    1    3    3    0  502  0.75802879615E+03 -0.13784164372E+04 -0.17692417081E+04  0.23674623211E+04  0.46999998093E+01 0.  1.
</event>
<event>
 5   0  0.8342802E-08  0.3889907E+04  0.7818609E-02  0.8027132E-01
        2   -1    0    0  501    0  0.00000000000E+00  0.00000000000E+00  0.28629824837E+04  0.28629824837E+04  0.25500000920E-02 0. -1.
       -2   -1    0    0    0  501  0.00000000000E+00  0.00000000000E+00 -0.13212951550E+04  0.13212951550E+04  0.25500000920E-02 0.  1.
    10030    2    1    2    0    0  0.00000000000E+00  0.00000000000E+00  0.15416873288E+04  0.41842776387E+04  0.38899073945E+04 0.  0.
        4    1    3    3  502    0 -0.17509365733E+04 -0.52352443684E+02  0.16799794091E+04  0.24271077623E+04  0.12699999809E+01 0. -1.
       -4    1    3    3    0  502  0.17509365733E+04  0.52352443684E+02 -0.13829208030E+03  0.17571698764E+04  0.12699999809E+01 0.  1.
</event>
<event>
 5   0  0.2632875E-08  0.3902049E+04  0.7818609E-02  0.8024603E-01
        1   -1    0    0  501    0  0.00000000000E+00  0.00000000000E+00  0.13276434482E+04  0.13276434483E+04  0.50400001928E-02 0. -1.
       -1   -1    0    0    0  501  0.00000000000E+00  0.00000000000E+00 -0.28671073455E+04  0.28671073455E+04  0.50400001928E-02 0.  1.
    10030    2    1    2    0    0  0.00000000000E+00  0.00000000000E+00 -0.15394638973E+04  0.41947507938E+04  0.39020488376E+04 0.  0.
        5    1    3    3  502    0 -0.89740810402E+03 -0.16472982342E+04 -0.19327926254E+03  0.18858185864E+04  0.46999998093E+01 0. -1.
       -5    1    3    3    0  502  0.89740810402E+03  0.16472982342E+04 -0.13461846347E+04  0.23089322074E+04  0.46999998093E+01 0.  1.
</event>
<event>
 5   0  0.2632875E-08  0.3892972E+04  0.7818609E-02  0.8026493E-01
       -1   -1    0    0    0  501  0.00000000000E+00  0.00000000000E+00  0.20520368170E+04  0.20520368170E+04  0.50400001928E-02 0. -1.
        1   -1    0    0  501    0  0.00000000000E+00  0.00000000000E+00 -0.18463642087E+04  0.18463642087E+04  0.50400001928E-02 0.  1.
    10030    2    1    2    0    0  0.00000000000E+00  0.00000000000E+00  0.20567260829E+03  0.38984010258E+04  0.38929717872E+04 0.  0.
        1    1    3    3  502    0  0.81183369792E+03 -0.29720634641E+03 -0.16435573852E+04  0.18570639310E+04  0.50400001928E-02 0.  1.
       -1    1    3    3    0  502 -0.81183369792E+03  0.29720634641E+03  0.18492299935E+04  0.20413370947E+04  0.50400001928E-02 0. -1.
</event>
<event>
 5   0  0.2632875E-08  0.3908963E+04  0.7818609E-02  0.8023168E-01
        1   -1    0    0  501    0  0.00000000000E+00  0.00000000000E+00  0.12408234087E+04  0.12408234087E+04  0.50400001928E-02 0.  1.
       -1   -1    0    0    0  501  0.00000000000E+00  0.00000000000E+00 -0.30785999114E+04  0.30785999114E+04  0.50400001928E-02 0. -1.
    10030    2    1    2    0    0  0.00000000000E+00  0.00000000000E+00 -0.18377765027E+04  0.43194233201E+04  0.39089634617E+04 0.  0.
        5    1    3    3  502    0  0.99428435018E+03  0.18748907685E+03  0.92889096058E+03  0.13735406909E+04  0.46999998093E+01 0.  1.
       -5    1    3    3    0  502 -0.99428435018E+03 -0.18748907685E+03 -0.27666674633E+04  0.29458826292E+04  0.46999998093E+01 0. -1.
</event>
<event>
 5   0  0.8438211E-08  0.3915785E+04  0.7818609E-02  0.8021754E-01
       -2   -1    0    0    0  501  0.00000000000E+00  0.00000000000E+00  0.15295878672E+04  0.15295878672E+04  0.25500000920E-02 0.  1.
        2   -1    0    0  501    0  0.00000000000E+00  0.00000000000E+00 -0.25061284316E+04  0.25061284316E+04  0.25500000920E-02 0. -1.
    10030    2    1    2    0    0  0.00000000000E+00  0.00000000000E+00 -0.97654056441E+03  0.40357162988E+04  0.39157853070E+04 0.  0.
        5    1    3    3  502    0  0.85150597904E+02  0.32368092782E+03 -0.24764204780E+04  0.24989398634E+04  0.46999998093E+01 0. -1.
       -5    1    3    3    0  502 -0.85150597904E+02 -0.32368092782E+03  0.14998799135E+04  0.15367764354E+04  0.46999998093E+01 0.  1.
</event>
<event>
 5   0  0.2632875E-08  0.3900322E+04  0.7818609E-02  0.8024962E-01
        1   -1    0    0  501    0  0.00000000000E+00  0.00000000000E+00  0.20714007986E+04  0.20714007986E+04  0.50400001928E-02 0.  1.
       -1   -1    0    0    0  501  0.00000000000E+00  0.00000000000E+00 -0.18360171467E+04  0.18360171467E+04  0.50400001928E-02 0. -1.
    10030    2    1    2    0    0  0.00000000000E+00  0.00000000000E+00  0.23538365193E+03  0.39074179454E+04  0.39003217221E+04 0.  0.
        1    1    3    3  502    0 -0.88022466254E+03 -0.12516213567E+04 -0.10935471427E+04  0.18807436908E+04  0.50400001928E-02 0.  1.
       -1    1    3    3    0  502  0.88022466254E+03  0.12516213567E+04  0.13289307946E+04  0.20266742546E+04  0.50400001928E-02 0. -1.
</event>
<event>
 5   0  0.8438211E-08  0.3903540E+04  0.7818609E-02  0.8024293E-01
       -2   -1    0    0    0  501  0.00000000000E+00  0.00000000000E+00  0.27697422241E+04  0.27697422241E+04  0.25500000920E-02 0. -1.
        2   -1    0    0  501    0  0.00000000000E+00  0.00000000000E+00 -0.13753645208E+04  0.13753645208E+04  0.25500000920E-02 0.  1.
    10030    2    1    2    0    0  0.00000000000E+00  0.00000000000E+00  0.13943777033E+04  0.41451067449E+04  0.39035395152E+04 0.  0.
        5    1    3    3  502    0  0.52615359486E+03  0.18626639756E+04  0.43059796532E+03  0.19828745268E+04  0.46999998093E+01 0.  1.
       -5    1    3    3    0  502 -0.52615359486E+03 -0.18626639756E+04  0.96377973798E+03  0.21622322180E+04  0.46999998093E+01 0. -1.
</event>
<event>
 5   0  0.2632875E-08  0.3869092E+04  0.7818609E-02  0.8031488E-01
       -1   -1    0    0    0  501  0.00000000000E+00  0.00000000000E+00  0.15585333927E+04  0.15585333927E+04  0.50400001928E-02 0. -1.
        1   -1    0    0  501    0  0.00000000000E+00  0.00000000000E+00 -0.24012755085E+04  0.24012755085E+04  0.50400001928E-02 0.  1.
    10030    2    1    2    0    0  0.00000000000E+00  0.00000000000E+00 -0.84274211586E+03  0.39598089012E+04  0.38690919168E+04 0.  0.
        5    1    3    3  502    0  0.13421708667E+04  0.13412151330E+04 -0.80725969742E+03  0.20620307897E+04  0.46999998093E+01 0. -1.
       -5    1    3    3    0  502 -0.13421708667E+04 -0.13412151330E+04 -0.35482418442E+02  0.18977781115E+04  0.46999998093E+01 0.  1.
</event>
<event>
 5   0  0.8342802E-08  0.3908616E+04  0.7818609E-02  0.8023240E-01
        2   -1    0    0  501    0  0.00000000000E+00  0.00000000000E+00  0.12825307698E+04  0.12825307698E+04  0.25500000920E-02 0. -1.
       -2   -1    0    0    0  501  0.00000000000E+00  0.00000000000E+00 -0.29779551934E+04  0.29779551934E+04  0.25500000920E-02 0.  1.
    10030    2    1    2    0    0  0.00000000000E+00  0.00000000000E+00 -0.16954244236E+04  0.42604859633E+04  0.39086156970E+04 0.  0.
        4    1    3    3  502    0  0.13250333107E+04  0.79823044254E+03  0.45414025551E+03  0.16121817821E+04  0.12699999809E+01 0. -1.
       -4    1    3    3    0  502 -0.13250333107E+04 -0.79823044254E+03 -0.21495646791E+04  0.26483041812E+04  0.12699999809E+01 0.  1.
</event>
<event>
 5   0  0.2632875E-08  0.3895999E+04  0.7818609E-02  0.8025862E-01
       -1   -1    0    0    0  501  0.00000000000E+00  0.00000000000E+00  0.14831465706E+04  0.14831465706E+04  0.50400001928E-02 0.  1.
        1   -1    0    0  501    0  0.00000000000E+00  0.00000000000E+00 -0.25585478489E+04  0.25585478489E+04  0.50400001928E-02 0. -1.
    10030    2    1    2    0    0  0.00000000000E+00  0.00000000000E+00 -0.10754012783E+04  0.40416944195E+04  0.38959987001E+04 0.  0.
        4    1    3    3  502    0  0.14511217198E+04 -0.12018469138E+04 -0.10506714262E+04  0.21573368557E+04  0.12699999809E+01 0.  1.
       -4    1    3    3    0  502 -0.14511217198E+04  0.12018469138E+04 -0.24729852061E+02  0.18843575639E+04  0.12699999809E+01 0. -1.
</event>
<event>
 5   0  0.2632875E-08  0.3885743E+04  0.7818609E-02  0.8028001E-01
       -1   -1    0    0    0  501  0.00000000000E+00  0.00000000000E+00  0.28866938861E+04  0.28866938861E+04  0.50400001928E-02 0.  1.
        1   -1    0    0  501    0  0.00000000000E+00  0.00000000000E+00 -0.13076378138E+04  0.13076378138E+04  0.50400001928E-02 0. -1.
    10030    2    1    2    0    0  0.00000000000E+00  0.00000000000E+00  0.15790560723E+04  0.41943316999E+04  0.38857432146E+04 0.  0.
        2    1    3    3  502    0  0.18209209273E+04 -0.50363340121E+03  0.30038428323E+03  0.19130160334E+04  0.25500000920E-02 0. -1.
       -2    1    3    3    0  502 -0.18209209273E+04  0.50363340121E+03  0.12786717890E+04  0.22813156665E+04  0.25500000920E-02 0.  1.
</event>
<event>
 5   0  0.2632875E-08  0.3669683E+04  0.7818609E-02  0.8074714E-01
        1   -1    0    0  501    0  0.00000000000E+00  0.00000000000E+00  0.25083845019E+04  0.25083845019E+04  0.50400001928E-02 0. -1.
       -1   -1    0    0    0  501  0.00000000000E+00  0.00000000000E+00 -0.13421557993E+04  0.13421557993E+04  0.50400001928E-02 0.  1.
    10030    2    1    2    0    0  0.00000000000E+00  0.00000000000E+00  0.11662287025E+04  0.38505403012E+04  0.36696827144E+04 0.  0.
        3    1    3    3  502    0 -0.39742152895E+03  0.53378808263E+03  0.23772889382E+04  0.24686790587E+04  0.10100000352E+00 0. -1.
       -3    1    3    3    0  502  0.39742152895E+03 -0.53378808263E+03 -0.12110602357E+04  0.13818612425E+04  0.10100000352E+00 0.  1.
</event>
<event>
 5   0  0.8676098E-08  0.3888375E+04  0.7818609E-02  0.8027451E-01
       -2   -1    0    0    0  501  0.00000000000E+00  0.00000000000E+00  0.17911951930E+04  0.17911951930E+04  0.25500000920E-02 0. -1.
        2   -1    0    0  501    0  0.00000000000E+00  0.00000000000E+00 -0.21102475546E+04  0.21102475546E+04  0.25500000920E-02 0.  1.
    10030    2    1    2    0    0  0.00000000000E+00  0.00000000000E+00 -0.31905236158E+03  0.39014427476E+04  0.38883751238E+04 0.  0.
        3    1    3    3  502    0  0.15139159224E+04  0.85567626204E+03 -0.10317819604E+04  0.20220527464E+04  0.10100000352E+00 0.  1.
       -3    1    3    3    0  502 -0.15139159224E+04 -0.85567626204E+03  0.71272959880E+03  0.18793900012E+04  0.10100000352E+00 0. -1.
</event>
<event>
 5   0  0.2632875E-08  0.3910398E+04  0.7818609E-02  0.8022870E-01
       -1   -1    0    0    0  501  0.00000000000E+00  0.00000000000E+00  0.20656559704E+04  0.20656559704E+04  0.50400001928E-02 0.  1.
        1   -1    0    0  501    0  0.00000000000E+00  0.00000000000E+00 -0.18506481196E+04  0.18506481196E+04  0.50400001928E-02 0. -1.
    10030    2    1    2    0    0  0.00000000000E+00  0.00000000000E+00  0.21500785079E+03  0.39163040900E+04  0.39103975948E+04 0.  0.
        2    1    3    3  502    0 -0.69351488161E+03  0.80328290669E+03 -0.15371018952E+04  0.18678620280E+04  0.25500000920E-02 0. -1.
       -2    1    3    3    0  502  0.69351488161E+03 -0.80328290669E+03  0.17521097460E+04  0.20484420620E+04  0.25500000920E-02 0.  1.
</event>
<event>
 5   0  0.2632875E-08  0.3896954E+04  0.7818609E-02  0.8025663E-01
       -1   -1    0    0    0  501  0.00000000000E+00  0.00000000000E+00  0.17794870095E+04  0.17794870095E+04  0.50400001928E-02 0.  1.
        1   -1    0    0  501    0  0.00000000000E+00  0.00000000000E+00 -0.21335148660E+04  0.21335148660E+04  0.50400001928E-02 0. -1.
    10030    2    1    2    0    0  0.00000000000E+00  0.00000000000E+00 -0.35402785648E+03  0.39130018755E+04  0.38969536762E+04 0.  0.
        4    1    3    3  502    0  0.85063314139E+03 -0.89400722560E+03 -0.16911144498E+04  0.20934888001E+04  0.12699999809E+01 0. -1.
       -4    1    3    3    0  502 -0.85063314139E+03  0.89400722560E+03  0.13370865934E+04  0.18195130754E+04  0.12699999809E+01 0.  1.
</event>
<event>
 5   0  0.8438211E-08  0.3910921E+04  0.7818609E-02  0.8022762E-01
        2   -1    0    0  501    0  0.00000000000E+00  0.00000000000E+00  0.14779931404E+04  0.14779931404E+04  0.25500000920E-02 0. -1.
       -2   -1    0    0    0  501  0.00000000000E+00  0.00000000000E+00 -0.25871735860E+04  0.25871735860E+04  0.25500000920E-02 0.  1.
    10030    2    1    2    0    0  0.00000000000E+00  0.00000000000E+00 -0.11091804456E+04  0.40651667264E+04  0.39109205122E+04 0.  0.
        5    1    3    3  502    0 -0.30681659171E+03 -0.12796882217E+04  0.94885252061E+03  0.16223691200E+04  0.46999998093E+01 0. -1.
       -5    1    3    3    0  502  0.30681659171E+03  0.12796882217E+04 -0.20580329662E+04  0.24427976064E+04  0.46999998093E+01 0.  1.
</event>
<event>
 5   0  0.8342802E-08  0.3898701E+04  0.7818609E-02  0.8025299E-01
        2   -1    0    0  501    0  0.00000000000E+00  0.00000000000E+00  0.22360403854E+04  0.22360403854E+04  0.25500000920E-02 0.  1.
       -2   -1    0    0    0  501  0.00000000000E+00  0.00000000000E+00 -0.16994183594E+04  0.16994183594E+04  0.25500000920E-02 0. -1.
    10030    2    1    2    0    0  0.00000000000E+00  0.00000000000E+00  0.53662202600E+03  0.39354587448E+04  0.38987013650E+04 0.  0.
        4    1    3    3  502    0 -0.53645208812E+03  0.11088642071E+03  0.21567483603E+04  0.22252284700E+04  0.12699999809E+01 0.  1.
       -4    1    3    3    0  502  0.53645208812E+03 -0.11088642071E+03 -0.16201263343E+04  0.17102302749E+04  0.12699999809E+01 0. -1.
</event>
<event>
 5   0  0.2632875E-08  0.3910268E+04  0.7818609E-02  0.8022897E-01
        1   -1    0    0  501    0  0.00000000000E+00  0.00000000000E+00  0.23886473963E+04  0.23886473963E+04  0.50400001928E-02 0. -1.
       -1   -1    0    0    0  501  0.00000000000E+00  0.00000000000E+00 -0.16002988473E+04  0.16002988473E+04  0.50400001928E-02 0.  1.
    10030    2    1    2    0    0  0.00000000000E+00  0.00000000000E+00  0.78834854904E+03  0.39889462436E+04  0.39102683667E+04 0.  0.
        2    1    3    3  502    0 -0.84729683451E+03 -0.11004807799E+04 -0.10095875429E+04  0.17170430628E+04  0.25500000920E-02 0.  1.
       -2    1    3    3    0  502  0.84729683451E+03  0.11004807799E+04  0.17979360919E+04  0.22719031809E+04  0.25500000920E-02 0. -1.
</event>
<event>
 5   0  0.2632875E-08  0.3755594E+04  0.7818609E-02  0.8055752E-01
        1   -1    0    0  501    0  0.00000000000E+00  0.00000000000E+00  0.29270576135E+04  0.29270576135E+04  0.50400001928E-02 0. -1.
       -1   -1    0    0    0  501  0.00000000000E+00  0.00000000000E+00 -0.12046640316E+04  0.12046640316E+04  0.50400001928E-02 0.  1.
    10030    2    1    2    0    0  0.00000000000E+00  0.00000000000E+00  0.17223935820E+04  0.41317216451E+04  0.37555937082E+04 0.  0.
        3    1    3    3  502    0 -0.11500281550E+04  0.38251677222E+03  0.24391518659E+04  0.27236640163E+04  0.10100000352E+00 0. -1.
       -3    1    3    3    0  502  0.11500281550E+04 -0.38251677222E+03 -0.71675828395E+03  0.14080576288E+04  0.10100000352E+00 0.  1.
</event>
<event>
 5   0  0.2632875E-08  0.3811790E+04  0.7818609E-02  0.8043629E-01
        1   -1    0    0  501    0  0.00000000000E+00  0.00000000000E+00  0.18588295291E+04  0.18588295291E+04  0.50400001928E-02 0.  1.
       -1   -1    0    0    0  501  0.00000000000E+00  0.00000000000E+00 -0.19541524490E+04  0.19541524490E+04  0.50400001928E-02 0. -1.
    10030    2    1    2    0    0  0.00000000000E+00  0.00000000000E+00 -0.95322919847E+02  0.38129819781E+04  0.38117902757E+04 0.  0.
        5    1    3    3  502    0  0.13020689591E+04 -0.77969461867E+03  0.11055679608E+04  0.18776607464E+04  0.46999998093E+01 0.  1.
       -5    1    3    3    0  502 -0.13020689591E+04  0.77969461867E+03 -0.12008908806E+04  0.19353212317E+04  0.46999998093E+01 0. -1.
</event>
<event>
 5   0  0.8476262E-08  0.3903824E+04  0.7818609E-02  0.8024234E-01
        2   -1    0    0  501    0  0.00000000000E+00  0.00000000000E+00  0.24565396919E+04  0.24565396919E+04  0.25500000920E-02 0. -1.
       -2   -1    0    0    0  501  0.00000000000E+00  0.00000000000E+00 -0.15509462314E+04  0.15509462314E+04  0.25500000920E-02 0.  1.
    10030    2    1    2    0    0  0.00000000000E+00  0.00000000000E+00  0.90559346054E+03  0.40074859233E+04  0.39038242672E+04 0.  0.
        2    1    3    3  502    0  0.11861001870E+04  0.83276586547E+03 -0.88945075789E+03  0.17004279729E+04  0.25500000920E-02 0.  1.
       -2    1    3    3    0  502 -0.11861001870E+04 -0.83276586547E+03  0.17950442184E+04  0.23070579504E+04  0.25500000920E-02 0. -1.
</event>
<event>
 5   0  0.2632875E-08  0.3861602E+04  0.7818609E-02  0.8033063E-01
        1   -1    0    0  501    0  0.00000000000E+00  0.00000000000E+00  0.21042118491E+04  0.21042118491E+04  0.50400001928E-02 0. -1.
       -1   -1    0    0    0  501  0.00000000000E+00  0.00000000000E+00 -0.17716813786E+04  0.17716813786E+04  0.50400001928E-02 0.  1.
    10030    2    1    2    0    0  0.00000000000E+00  0.00000000000E+00  0.33253047049E+03  0.38758932277E+04  0.38616022321E+04 0.  0.
        1    1    3    3  502    0 -0.62217595660E+03  0.17685165811E+04  0.62975240864E+03  0.19777112820E+04  0.50400001928E-02 0.  1.
       -1    1    3    3    0  502  0.62217595660E+03 -0.17685165811E+04 -0.29722193815E+03  0.18981819458E+04  0.50400001928E-02 0. -1.
</event>
<event>
 5   0  0.8438211E-08  0.3900051E+04  0.7818609E-02  0.8025019E-01
       -2   -1    0    0    0  501  0.00000000000E+00  0.00000000000E+00  0.16994393683E+04  0.16994393683E+04  0.25500000920E-02 0.  1.
        2   -1    0    0  501    0  0.00000000000E+00  0.00000000000E+00 -0.22375609599E+04  0.22375609599E+04  0.25500000920E-02 0. -1.
    10030    2    1    2    0    0  0.00000000000E+00  0.00000000000E+00 -0.53812159159E+03  0.39370003281E+04  0.39000508633E+04 0.  0.
        5    1    3    3  502    0  0.10202535944E+04 -0.16518955064E+04 -0.85956181227E+02  0.19434728493E+04  0.46999998093E+01 0.  1.
       -5    1    3    3    0  502 -0.10202535944E+04  0.16518955064E+04 -0.45216541036E+03  0.19935274789E+04  0.46999998093E+01 0. -1.
</event>
<event>
 5   0  0.2632875E-08  0.3881489E+04  0.7818609E-02  0.8028890E-01
       -1   -1    0    0    0  501  0.00000000000E+00  0.00000000000E+00  0.19525588854E+04  0.19525588854E+04  0.50400001928E-02 0. -1.
        1   -1    0    0  501    0  0.00000000000E+00  0.00000000000E+00 -0.19290012970E+04  0.19290012970E+04  0.50400001928E-02 0.  1.
    10030    2    1    2    0    0  0.00000000000E+00  0.00000000000E+00  0.23557588426E+02  0.38815601824E+04  0.38814886950E+04 0.  0.
        3    1    3    3  502    0  0.11303090175E+04 -0.13090913983E+04  0.89223231469E+03  0.19461236543E+04  0.10100000352E+00 0. -1.
       -3    1    3    3    0  502 -0.11303090175E+04  0.13090913983E+04 -0.86867472627E+03  0.19354365281E+04  0.10100000352E+00 0.  1.
</event>
<event>
 5   0  0.8476262E-08  0.3920300E+04  0.7818609E-02  0.8020820E-01
       -2   -1    0    0    0  501  0.00000000000E+00  0.00000000000E+00  0.25846786121E+04  0.25846786121E+04  0.25500000920E-02 0.  1.
        2   -1    0    0  501    0  0.00000000000E+00  0.00000000000E+00 -0.14865243316E+04  0.14865243316E+04  0.25500000920E-02 0. -1.
    10030    2    1    2    0    0  0.00000000000E+00  0.00000000000E+00  0.10981542804E+04  0.40712029437E+04  0.39202998081E+04 0.  0.
        2    1    3    3  502    0 -0.38535218590E+03  0.16989131075E+04  0.14822110421E+04  0.22873022597E+04  0.25500000920E-02 0.  1.
       -2    1    3    3    0  502  0.38535218590E+03 -0.16989131075E+04 -0.38405676170E+03  0.17839006839E+04  0.25500000920E-02 0. -1.
</event>
<event>
 5   0  0.8438211E-08  0.3907317E+04  0.7818609E-02  0.8023509E-01
        2   -1    0    0  501    0  0.00000000000E+00  0.00000000000E+00  0.20629193548E+04  0.20629193548E+04  0.25500000920E-02 0. -1.
       -2   -1    0    0    0  501  0.00000000000E+00  0.00000000000E+00 -0.18501849339E+04  0.18501849339E+04  0.25500000920E-02 0.  1.
    10030    2    1    2    0    0  0.00000000000E+00  0.00000000000E+00  0.21273442091E+03  0.39131042888E+04  0.39073173970E+04 0.  0.
        5    1    3    3  502    0  0.67780418095E+03  0.26313494950E+03 -0.17096307358E+04  0.18578261093E+04  0.46999998093E+01 0.  1.
       -5    1    3    3    0  502 -0.67780418095E+03 -0.26313494950E+03  0.19223651567E+04  0.20552781795E+04  0.46999998093E+01 0. -1.
</event>
<event>
 5   0  0.2632875E-08  0.3855459E+04  0.7818609E-02  0.8034357E-01
        1   -1    0    0  501    0  0.00000000000E+00  0.00000000000E+00  0.12987326417E+04  0.12987326417E+04  0.50400001928E-02 0.  1.
       -1   -1    0    0    0  501  0.00000000000E+00  0.00000000000E+00 -0.28613589498E+04  0.28613589498E+04  0.50400001928E-02 0. -1.
    10030    2    1    2    0    0  0.00000000000E+00  0.00000000000E+00 -0.15626263081E+04  0.41600915915E+04  0.38554586071E+04 0.  0.
        3    1    3    3  502    0 -0.83301766895E+03 -0.25776341646E+03  0.10737678963E+04  0.13832345864E+04  0.10100000352E+00 0.  1.
       -3    1    3    3    0  502  0.83301766895E+03  0.25776341646E+03 -0.26363942044E+04  0.27768570051E+04  0.10100000352E+00 0. -1.
</event>
<event>
 5   0  0.2632875E-08  0.3893092E+04  0.7818609E-02  0.8026468E-01
        1   -1    0    0  501    0  0.00000000000E+00  0.00000000000E+00  0.19879649534E+04  0.19879649534E+04  0.50400001928E-02 0. -1.
       -1   -1    0    0    0  501  0.00000000000E+00  0.00000000000E+00 -0.19059896368E+04  0.19059896368E+04  0.50400001928E-02 0.  1.
    10030    2    1    2    0    0  0.00000000000E+00  0.00000000000E+00  0.81975316581E+02  0.38939545903E+04  0.38930916247E+04 0.  0.
        4    1    3    3  502    0 -0.48783397486E+03 -0.53286314536E+03 -0.17669289448E+04  0.19089171348E+04  0.12699999809E+01 0.  1.
       -4    1    3    3    0  502  0.48783397486E+03  0.53286314536E+03  0.18489042614E+04  0.19850374554E+04  0.12699999809E+01 0. -1.
</event>
<event>
 5   0  0.8676098E-08  0.3910782E+04  0.7818609E-02  0.8022791E-01
        2   -1    0    0  501    0  0.00000000000E+00  0.00000000000E+00  0.24506312296E+04  0.24506312296E+04  0.25500000920E-02 0.  1.
       -2   -1    0    0    0  501  0.00000000000E+00  0.00000000000E+00 -0.15602321591E+04  0.15602321591E+04  0.25500000920E-02 0. -1.
    10030    2    1    2    0    0  0.00000000000E+00  0.00000000000E+00  0.89039907048E+03  0.40108633888E+04  0.39107818424E+04 0.  0.
        3    1    3    3  502    0  0.13553787849E+03 -0.21564213188E+03  0.24335459422E+04  0.24468383495E+04  0.10100000352E+00 0.  1.
       -3    1    3    3    0  502 -0.13553787849E+03  0.21564213188E+03 -0.15431468717E+04  0.15640250393E+04  0.10100000352E+00 0. -1.
</event>
<event>
 5   0  0.2632875E-08  0.3898466E+04  0.7818609E-02  0.8025348E-01
       -1   -1    0    0    0  501  0.00000000000E+00  0.00000000000E+00  0.16239414410E+04  0.16239414410E+04  0.50400001928E-02 0. -1.
        1   -1    0    0  501    0  0.00000000000E+00  0.00000000000E+00 -0.23396836201E+04  0.23396836201E+04  0.50400001928E-02 0.  1.
    10030    2    1    2    0    0  0.00000000000E+00  0.00000000000E+00 -0.71574217914E+03  0.39636250611E+04  0.38984659493E+04 0.  0.
        5    1    3    3  502    0  0.18978019339E+04 -0.88963573325E+02  0.85211444319E+02  0.19018017189E+04  0.46999998093E+01 0.  1.
       -5    1    3    3    0  502 -0.18978019339E+04  0.88963573325E+02 -0.80095362346E+03  0.20618233422E+04  0.46999998093E+01 0. -1.
</event>
<event>
 5   0  0.8551754E-08  0.3926821E+04  0.7818609E-02  0.8019474E-01
        2   -1    0    0  501    0  0.00000000000E+00  0.00000000000E+00  0.16500024692E+04  0.16500024692E+04  0.25500000920E-02 0. -1.
       -2   -1    0    0    0  501  0.00000000000E+00  0.00000000000E+00 -0.23363484263E+04  0.23363484263E+04  0.25500000920E-02 0.  1.
    10030    2    1    2    0    0  0.00000000000E+00  0.00000000000E+00 -0.68634595710E+03  0.39863508954E+04  0.39268209392E+04 0.  0.
        1    1    3    3  502    0  0.86206435765E+03  0.13204852020E+03  0.14425820176E+04  0.16857148768E+04  0.50400001928E-02 0. -1.
       -1    1    3    3    0  502 -0.86206435765E+03 -0.13204852020E+03 -0.21289279747E+04  0.23006360186E+04  0.50400001928E-02 0.  1.
</event>
<event>
 5   0  0.2632875E-08  0.3916465E+04  0.7818609E-02  0.8021613E-01
        1   -1    0    0  501    0  0.00000000000E+00  0.00000000000E+00  0.15576173290E+04  0.15576173290E+04  0.50400001928E-02 0.  1.
       -1   -1    0    0    0  501  0.00000000000E+00  0.00000000000E+00 -0.24618851450E+04  0.24618851450E+04  0.50400001928E-02 0. -1.
    10030    2    1    2    0    0  0.00000000000E+00  0.00000000000E+00 -0.90426781598E+03  0.40195024740E+04  0.39164652246E+04 0.  0.
        1    1    3    3  502    0 -0.14042350814E+04  0.12862589222E+03 -0.18466507746E+04  0.23234758160E+04  0.50400001928E-02 0. -1.
       -1    1    3    3    0  502  0.14042350814E+04 -0.12862589222E+03  0.94238295866E+03  0.16960266580E+04  0.50400001928E-02 0.  1.
</event>
<event>
 5   0  0.8476262E-08  0.3898575E+04  0.7818609E-02  0.8025326E-01
        2   -1    0    0  501    0  0.00000000000E+00  0.00000000000E+00  0.18610459137E+04  0.18610459137E+04  0.25500000920E-02 0.  1.
       -2   -1    0    0    0  501  0.00000000000E+00  0.00000000000E+00 -0.20417126406E+04  0.20417126406E+04  0.25500000920E-02 0. -1.
    10030    2    1    2    0    0  0.00000000000E+00  0.00000000000E+00 -0.18066672688E+03  0.39027585544E+04  0.38985745943E+04 0.  0.
        2    1    3    3  502    0 -0.14935391084E+04 -0.11888185180E+04  0.30477036958E+03  0.19330891121E+04  0.25500000920E-02 0. -1.
       -2    1    3    3    0  502  0.14935391084E+04  0.11888185180E+04 -0.48543709645E+03  0.19696694423E+04  0.25500000920E-02 0.  1.
</event>
<event>
 5   0  0.2632875E-08  0.3849903E+04  0.7818609E-02  0.8035530E-01
        1   -1    0    0  501    0  0.00000000000E+00  0.00000000000E+00  0.16912632700E+04  0.16912632700E+04  0.50400001928E-02 0.  1.
       -1   -1    0    0    0  501  0.00000000000E+00  0.00000000000E+00 -0.21909292341E+04  0.21909292341E+04  0.50400001928E-02 0. -1.
    10030    2    1    2    0    0  0.00000000000E+00  0.00000000000E+00 -0.49966596411E+03  0.38821925042E+04  0.38499029291E+04 0.  0.
        3    1    3    3  502    0 -0.43135961633E+03 -0.89397334798E+03  0.14132962703E+04  0.17270396126E+04  0.10100000352E+00 0.  1.
       -3    1    3    3    0  502  0.43135961633E+03  0.89397334798E+03 -0.19129622344E+04  0.21551528916E+04  0.10100000352E+00 0. -1.
</event>
<event>
 5   0  0.8342802E-08  0.3908097E+04  0.7818609E-02  0.8023347E-01
        2   -1    0    0  501    0  0.00000000000E+00  0.00000000000E+00  0.16589102653E+04  0.16589102653E+04  0.25500000920E-02 0.  1.
       -2   -1    0    0    0  501  0.00000000000E+00  0.00000000000E+00 -0.23016950746E+04  0.23016950746E+04  0.25500000920E-02 0. -1.
    10030    2    1    2    0    0  0.00000000000E+00  0.00000000000E+00 -0.64278480937E+03  0.39606053399E+04  0.39080970238E+04 0.  0.
        4    1    3    3  502    0 -0.59649376257E+02  0.16965706289E+04 -0.13020684091E+04  0.21394610774E+04  0.12699999809E+01 0. -1.
       -4    1    3    3    0  502  0.59649376257E+02 -0.16965706289E+04  0.65928359978E+03  0.18211442625E+04  0.12699999809E+01 0.  1.
</event>
<event>
 5   0  0.8551754E-08  0.3892805E+04  0.7818609E-02  0.8026527E-01
        2   -1    0    0  501    0  0.00000000000E+00  0.00000000000E+00  0.24974755184E+04  0.24974755184E+04  0.25500000920E-02 0. -1.
       -2   -1    0    0    0  501  0.00000000000E+00  0.00000000000E+00 -0.15169247150E+04  0.15169247150E+04  0.25500000920E-02 0.  1.
    10030    2    1    2    0    0  0.00000000000E+00  0.00000000000E+00  0.98055080337E+03  0.40144002334E+04  0.38928048186E+04 0.  0.
        1    1    3    3  502    0  0.20532672924E+03  0.18368629495E+04 -0.13891187276E+03  0.18535158671E+04  0.50400001928E-02 0.  1.
       -1    1    3    3    0  502 -0.20532672924E+03 -0.18368629495E+04  0.11194626761E+04  0.21608843663E+04  0.50400001928E-02 0. -1.
</event>
<event>
 5   0  0.2632875E-08  0.3886693E+04  0.7818609E-02  0.8027802E-01
        1   -1    0    0  501    0  0.00000000000E+00  0.00000000000E+00  0.21468719840E+04  0.21468719840E+04  0.50400001928E-02 0. -1.
       -1   -1    0    0    0  501  0.00000000000E+00  0.00000000000E+00 -0.17591156937E+04  0.17591156937E+04  0.50400001928E-02 0.  1.
    10030    2    1    2    0    0  0.00000000000E+00  0.00000000000E+00  0.38775629031E+03  0.39059876777E+04  0.38866932986E+04 0.  0.
        3    1    3    3  502    0 -0.12433274344E+04  0.91065590103E+03  0.13835787515E+04  0.20710981269E+04  0.10100000352E+00 0. -1.
       -3    1    3    3    0  502  0.12433274344E+04 -0.91065590103E+03 -0.99582246122E+03  0.18348895508E+04  0.10100000352E+00 0.  1.
</event>
<event>
 5   0  0.2632875E-08  0.3902472E+04  0.7818609E-02  0.8024515E-01
       -1   -1    0    0    0  501  0.00000000000E+00  0.00000000000E+00  0.21825504821E+04  0.21825504821E+04  0.50400001928E-02 0. -1.
        1   -1    0    0  501    0  0.00000000000E+00  0.00000000000E+00 -0.17444366796E+04  0.17444366796E+04  0.50400001928E-02 0.  1.
    10030    2    1    2    0    0  0.00000000000E+00  0.00000000000E+00  0.43811380252E+03  0.39269871617E+04  0.39024715840E+04 0.  0.
        5    1    3    3  502    0  0.18331977189E+04 -0.62970040854E+03 -0.63200570461E+01  0.19383494303E+04  0.46999998093E+01 0.  1.
       -5    1    3    3    0  502 -0.18331977189E+04  0.62970040854E+03  0.44443385957E+03  0.19886377313E+04  0.46999998093E+01 0. -1.
</event>
<event>
 5   0  0.2632875E-08  0.3891429E+04  0.7818609E-02  0.8026814E-01
       -1   -1    0    0    0  501  0.00000000000E+00  0.00000000000E+00  0.18001715021E+04  0.18001715021E+04  0.50400001928E-02 0.  1.
        1   -1    0    0  501    0  0.00000000000E+00  0.00000000000E+00 -0.21030242111E+04  0.21030242111E+04  0.50400001928E-02 0. -1.
    10030    2    1    2    0    0  0.00000000000E+00  0.00000000000E+00 -0.30285270900E+03  0.39031957133E+04  0.38914286596E+04 0.  0.
        3    1    3    3  502    0 -0.10818544165E+04  0.12962592515E+04  0.81850714568E+03  0.18763397836E+04  0.10100000352E+00 0.  1.
       -3    1    3    3    0  502  0.10818544165E+04 -0.12962592515E+04 -0.11213598547E+04  0.20268559297E+04  0.10100000352E+00 0. -1.
</event>
<event>
 5   0  0.8476262E-08  0.3892363E+04  0.7818609E-02  0.8026619E-01
        2   -1    0    0  501    0  0.00000000000E+00  0.00000000000E+00  0.16037319016E+04  0.16037319016E+04  0.25500000920E-02 0. -1.
       -2   -1    0    0    0  501  0.00000000000E+00  0.00000000000E+00 -0.23617552912E+04  0.23617552912E+04  0.25500000920E-02 0.  1.
    10030    2    1    2    0    0  0.00000000000E+00  0.00000000000E+00 -0.75802338962E+03  0.39654871928E+04  0.38923629349E+04 0.  0.
        2    1    3    3  502    0  0.51400978994E+03 -0.76309823346E+03  0.13681693984E+04  0.16487608926E+04  0.25500000920E-02 0. -1.
       -2    1    3    3    0  502 -0.51400978994E+03  0.76309823346E+03 -0.21261927880E+04  0.23167263002E+04  0.25500000920E-02 0.  1.
</event>
<event>
 5   0  0.2632875E-08  0.3900777E+04  0.7818609E-02  0.8024868E-01
        1   -1    0    0  501    0  0.00000000000E+00  0.00000000000E+00  0.22982070782E+04  0.22982070782E+04  0.50400001928E-02 0. -1.
       -1   -1    0    0    0  501  0.00000000000E+00  0.00000000000E+00 -0.16552098632E+04  0.16552098632E+04  0.50400001928E-02 0.  1.
    10030    2    1    2    0    0  0.00000000000E+00  0.00000000000E+00  0.64299721494E+03  0.39534169414E+04  0.39007768578E+04 0.  0.
        3    1    3    3  502    0 -0.11557802363E+04 -0.10964054734E+04 -0.81888888491E+03  0.17912319595E+04  0.10100000352E+00 0.  1.
       -3    1    3    3    0  502  0.11557802363E+04  0.10964054734E+04  0.14618860998E+04  0.21621849819E+04  0.10100000352E+00 0. -1.
</event>
<event>
 5   0  0.8551754E-08  0.3957860E+04  0.7818609E-02  0.8013102E-01
       -2   -1    0    0    0  501  0.00000000000E+00  0.00000000000E+00  0.17175488425E+04  0.17175488425E+04  0.25500000920E-02 0. -1.
        2   -1    0    0  501    0  0.00000000000E+00  0.00000000000E+00 -0.22800890881E+04  0.22800890881E+04  0.25500000920E-02 0.  1.
    10030    2    1    2    0    0  0.00000000000E+00  0.00000000000E+00 -0.56254024560E+03  0.39976379305E+04  0.39578602168E+04 0.  0.
        1    1    3    3  502    0  0.11182567163E+04  0.76487706062E+03 -0.17382057651E+04  0.22038362651E+04  0.50400001928E-02 0.  1.
       -1    1    3    3    0  502 -0.11182567163E+04 -0.76487706062E+03  0.11756655195E+04  0.17938016655E+04  0.50400001928E-02 0. -1.
</event>
<event>
 5   0  0.8342802E-08  0.3887566E+04  0.7818609E-02  0.8027620E-01
        2   -1    0    0  501    0  0.00000000000E+00  0.00000000000E+00  0.12545994803E+04  0.12545994803E+04  0.25500000920E-02 0.  1.
       -2   -1    0    0    0  501  0.00000000000E+00  0.00000000000E+00 -0.30115524593E+04  0.30115524593E+04  0.25500000920E-02 0. -1.
    10030    2    1    2    0    0  0.00000000000E+00  0.00000000000E+00 -0.17569529790E+04  0.42661519396E+04  0.38875658967E+04 0.  0.
        4    1    3    3  502    0  0.80156205766E+03  0.13713147078E+04  0.35102677534E+03  0.16267228313E+04  0.12699999809E+01 0.  1.
       -4    1    3    3    0  502 -0.80156205766E+03 -0.13713147078E+04 -0.21079797543E+04  0.26394291083E+04  0.12699999809E+01 0. -1.
</event>
<event>
 5   0  0.2632875E-08  0.3901877E+04  0.7818609E-02  0.8024639E-01
       -1   -1    0    0    0  501  0.00000000000E+00  0.00000000000E+00  0.21557985007E+04  0.21557985007E+04  0.50400001928E-02 0.  1.
        1   -1    0    0  501    0  0.00000000000E+00  0.00000000000E+00 -0.17655462123E+04  0.17655462123E+04  0.50400001928E-02 0. -1.
    10030    2    1    2    0    0  0.00000000000E+00  0.00000000000E+00  0.39025228842E+03  0.39213447130E+04  0.39018774339E+04 0.  0.
        5    1    3    3  502    0 -0.74297573884E+03  0.13983179656E+04 -0.95022373259E+03  0.18466871185E+04  0.46999998093E+01 0. -1.
       -5    1    3    3    0  502  0.74297573884E+03 -0.13983179656E+04  0.13404760210E+04  0.20746575945E+04  0.46999998093E+01 0.  1.
</event>
<event>
 5   0  0.8676098E-08  0.3909401E+04  0.7818609E-02  0.8023077E-01
       -2   -1    0    0    0  501  0.00000000000E+00  0.00000000000E+00  0.18345652303E+04  0.18345652303E+04  0.25500000920E-02 0.  1.
        2   -1    0    0  501    0  0.00000000000E+00  0.00000000000E+00 -0.20827025431E+04  0.20827025431E+04  0.25500000920E-02 0. -1.
    10030    2    1    2    0    0  0.00000000000E+00  0.00000000000E+00 -0.24813731276E+03  0.39172677734E+04  0.39094008086E+04 0.  0.
        3    1    3    3  502    0 -0.31327444560E+03 -0.98376935064E+03 -0.17872010400E+04  0.20639841523E+04  0.10100000352E+00 0. -1.
       -3    1    3    3    0  502  0.31327444560E+03  0.98376935064E+03  0.15390637272E+04  0.18532836211E+04  0.10100000352E+00 0.  1.
</event>
<event>
 5   0  0.8676098E-08  0.3900929E+04  0.7818609E-02  0.8024836E-01
        2   -1    0    0  501    0  0.00000000000E+00  0.00000000000E+00  0.28599667913E+04  0.28599667913E+04  0.25500000920E-02 0. -1.
       -2   -1    0    0    0  501  0.00000000000E+00  0.00000000000E+00 -0.13301943145E+04  0.13301943145E+04  0.25500000920E-02 0.  1.
    10030    2    1    2    0    0  0.00000000000E+00  0.00000000000E+00  0.15297724767E+04  0.41901611058E+04  0.39009288973E+04 0.  0.
        3    1    3    3  502    0  0.28630709695E+03 -0.10729756563E+04 -0.95745440345E+03  0.14662767330E+04  0.10100000352E+00 0.  1.
       -3    1    3    3    0  502 -0.28630709695E+03  0.10729756563E+04  0.24872268802E+04  0.27238843728E+04  0.10100000352E+00 0. -1.
</event>
<event>
 5   0  0.2632875E-08  0.3901120E+04  0.7818609E-02  0.8024796E-01
        1   -1    0    0  501    0  0.00000000000E+00  0.00000000000E+00  0.12631462007E+04  0.12631462007E+04  0.50400001928E-02 0. -1.
       -1   -1    0    0    0  501  0.00000000000E+00  0.00000000000E+00 -0.30120688810E+04  0.30120688810E+04  0.50400001928E-02 0.  1.
    10030    2    1    2    0    0  0.00000000000E+00  0.00000000000E+00 -0.17489226803E+04  0.42752150817E+04  0.39011195128E+04 0.  0.
        2    1    3    3  502    0  0.13875588310E+04 -0.61620612326E+03  0.46757485521E+03  0.15886018195E+04  0.25500000920E-02 0. -1.
       -2    1    3    3    0  502 -0.13875588310E+04  0.61620612326E+03 -0.22164975355E+04  0.26866132622E+04  0.25500000920E-02 0.  1.
</event>
<event>
 5   0  0.2632875E-08  0.3866048E+04  0.7818609E-02  0.8032128E-01
        1   -1    0    0  501    0  0.00000000000E+00  0.00000000000E+00  0.18844888386E+04  0.18844888386E+04  0.50400001928E-02 0. -1.
       -1   -1    0    0    0  501  0.00000000000E+00  0.00000000000E+00 -0.19828090210E+04  0.19828090210E+04  0.50400001928E-02 0.  1.
    10030    2    1    2    0    0  0.00000000000E+00  0.00000000000E+00 -0.98320182450E+02  0.38672978596E+04  0.38660478368E+04 0.  0.
        5    1    3    3  502    0 -0.67846729971E+03 -0.11015955809E+04  0.13875245619E+04  0.18971234015E+04  0.46999998093E+01 0. -1.
       -5    1    3    3    0  502  0.67846729971E+03  0.11015955809E+04 -0.14858447444E+04  0.19701744580E+04  0.46999998093E+01 0.  1.
</event>
<event>
 5   0  0.2632875E-08  0.3907447E+04  0.7818609E-02  0.8023482E-01
        1   -1    0    0  501    0  0.00000000000E+00  0.00000000000E+00  0.21562348987E+04  0.21562348987E+04  0.50400001928E-02 0.  1.
       -1   -1    0    0    0  501  0.00000000000E+00  0.00000000000E+00 -0.17702314326E+04  0.17702314326E+04  0.50400001928E-02 0. -1.
    10030    2    1    2    0    0  0.00000000000E+00  0.00000000000E+00  0.38600346612E+03  0.39264663313E+04  0.39074466311E+04 0.  0.
        1    1    3    3  502    0  0.11624680419E+04 -0.15288403073E+04  0.55300548753E+03  0.19986244527E+04  0.50400001928E-02 0. -1.
       -1    1    3    3    0  502 -0.11624680419E+04  0.15288403073E+04 -0.16700202141E+03  0.19278418786E+04  0.50400001928E-02 0.  1.
</event>
<event>
 5   0  0.8438211E-08  0.3886627E+04  0.7818609E-02  0.8027816E-01
       -2   -1    0    0    0  501  0.00000000000E+00  0.00000000000E+00  0.28762500580E+04  0.28762500580E+04  0.25500000920E-02 0.  1.
        2   -1    0    0  501    0  0.00000000000E+00  0.00000000000E+00 -0.13129832679E+04  0.13129832679E+04  0.25500000920E-02 0. -1.
    10030    2    1    2    0    0  0.00000000000E+00  0.00000000000E+00  0.15632667900E+04  0.41892333259E+04  0.38866274329E+04 0.  0.
        5    1    3    3  502    0 -0.60808857352E+03 -0.13526194095E+04  0.21352341359E+04  0.25997303486E+04  0.46999998093E+01 0.  1.
       -5    1    3    3    0  502  0.60808857352E+03  0.13526194095E+04 -0.57196734586E+03  0.15895029773E+04  0.46999998093E+01 0. -1.
</event>
<event>
 5   0  0.8676098E-08  0.3908162E+04  0.7818609E-02  0.8023334E-01
       -2   -1    0    0    0  501  0.00000000000E+00  0.00000000000E+00  0.13748213126E+04  0.13748213126E+04  0.25500000920E-02 0. -1.
        2   -1    0    0  501    0  0.00000000000E+00  0.00000000000E+00 -0.27774026841E+04  0.27774026841E+04  0.25500000920E-02 0.  1.
    10030    2    1    2    0    0  0.00000000000E+00  0.00000000000E+00 -0.14025813715E+04  0.41522239967E+04  0.39081619228E+04 0.  0.
        3    1    3    3  502    0  0.13008366946E+04 -0.12641685969E+04  0.70821323489E+02  0.18152999801E+04  0.10100000352E+00 0.  1.
       -3    1    3    3    0  502 -0.13008366946E+04  0.12641685969E+04 -0.14734026950E+04  0.23369240166E+04  0.10100000352E+00 0. -1.
</event>
<event>
 5   0  0.8342802E-08  0.3890876E+04  0.7818609E-02  0.8026929E-01
       -2   -1    0    0    0  501  0.00000000000E+00  0.00000000000E+00  0.21074262566E+04  0.21074262566E+04  0.25500000920E-02 0.  1.
        2   -1    0    0  501    0  0.00000000000E+00  0.00000000000E+00 -0.17959012950E+04  0.17959012950E+04  0.25500000920E-02 0. -1.
    10030    2    1    2    0    0  0.00000000000E+00  0.00000000000E+00  0.31152496158E+03  0.39033275517E+04  0.38908762733E+04 0.  0.
        4    1    3    3  502    0 -0.58197944098E+02  0.49227831122E+03  0.20430064285E+04  0.21022849037E+04  0.12699999809E+01 0.  1.
       -4    1    3    3    0  502  0.58197944098E+02 -0.49227831122E+03 -0.17314814670E+04  0.18010426480E+04  0.12699999809E+01 0. -1.
</event>
<event>
 5   0  0.8676098E-08  0.3942307E+04  0.7818609E-02  0.8016287E-01
       -2   -1    0    0    0  501  0.00000000000E+00  0.00000000000E+00  0.19837944275E+04  0.19837944275E+04  0.25500000920E-02 0. -1.
        2   -1    0    0  501    0  0.00000000000E+00  0.00000000000E+00 -0.19585927562E+04  0.19585927562E+04  0.25500000920E-02 0.  1.
    10030    2    1    2    0    0  0.00000000000E+00  0.00000000000E+00  0.25201671293E+02  0.39423871838E+04  0.39423066322E+04 0.  0.
        3    1    3    3  502    0  0.64948886209E+03  0.34601587977E+03 -0.18160651437E+04  0.19595038626E+04  0.10100000352E+00 0.  1.
       -3    1    3    3    0  502 -0.64948886209E+03 -0.34601587977E+03  0.18412668150E+04  0.19828833212E+04  0.10100000352E+00 0. -1.
</event>
<event>
 5   0  0.2632875E-08  0.3831863E+04  0.7818609E-02  0.8039351E-01
       -1   -1    0    0    0  501  0.00000000000E+00  0.00000000000E+00  0.17087459513E+04  0.17087459513E+04  0.50400001928E-02 0.  1.
        1   -1    0    0  501    0  0.00000000000E+00  0.00000000000E+00 -0.21482388491E+04  0.21482388491E+04  0.50400001928E-02 0. -1.
    10030    2    1    2    0    0  0.00000000000E+00  0.00000000000E+00 -0.43949289782E+03  0.38569848004E+04  0.38318634818E+04 0.  0.
        5    1    3    3  502    0  0.15131701351E+04 -0.61133534717E+03  0.79050557471E+03  0.18133769377E+04  0.46999998093E+01 0.  1.
       -5    1    3    3    0  502 -0.15131701351E+04  0.61133534717E+03 -0.12299984725E+04  0.20436078628E+04  0.46999998093E+01 0. -1.
</event>
<event>
 5   0  0.2632875E-08  0.3896561E+04  0.7818609E-02  0.8025745E-01
       -1   -1    0    0    0  501  0.00000000000E+00  0.00000000000E+00  0.21952199858E+04  0.21952199858E+04  0.50400001928E-02 0.  1.
        1   -1    0    0  501    0  0.00000000000E+00  0.00000000000E+00 -0.17291192749E+04  0.17291192749E+04  0.50400001928E-02 0. -1.
    10030    2    1    2    0    0  0.00000000000E+00  0.00000000000E+00  0.46610071091E+03  0.39243392606E+04  0.38965611454E+04 0.  0.
        4    1    3    3  502    0  0.89567597687E+03 -0.84091668737E+02  0.19735161339E+04  0.21688878274E+04  0.12699999809E+01 0.  1.
       -4    1    3    3    0  502 -0.89567597687E+03  0.84091668737E+02 -0.15074154229E+04  0.17554514333E+04  0.12699999809E+01 0. -1.
</event>
<event>
 5   0  0.2632875E-08  0.3711561E+04  0.7818609E-02  0.8065405E-01
       -1   -1    0    0    0  501  0.00000000000E+00  0.00000000000E+00  0.17464183485E+04  0.17464183485E+04  0.50400001928E-02 0. -1.
        1   -1    0    0  501    0  0.00000000000E+00  0.00000000000E+00 -0.19719910112E+04  0.19719910112E+04  0.50400001928E-02 0.  1.
    10030    2    1    2    0    0  0.00000000000E+00  0.00000000000E+00 -0.22557266272E+03  0.37184093597E+04  0.37115610113E+04 0.  0.
        5    1    3    3  502    0 -0.53038765838E+03 -0.67346506433E+02 -0.18931563555E+04  0.19672086052E+04  0.46999998093E+01 0.  1.
       -5    1    3    3    0  502  0.53038765838E+03  0.67346506433E+02  0.16675836928E+04  0.17512007545E+04  0.46999998093E+01 0. -1.
</event>
<event>
 5   0  0.2632875E-08  0.3889411E+04  0.7818609E-02  0.8027235E-01
        1   -1    0    0  501    0  0.00000000000E+00  0.00000000000E+00  0.17295130256E+04  0.17295130256E+04  0.50400001928E-02 0.  1.
       -1   -1    0    0    0  501  0.00000000000E+00  0.00000000000E+00 -0.21866729736E+04  0.21866729736E+04  0.50400001928E-02 0. -1.
    10030    2    1    2    0    0  0.00000000000E+00  0.00000000000E+00 -0.45715994794E+03  0.39161859992E+04  0.38894109531E+04 0.  0.
        4    1    3    3  502    0 -0.18264157979E+04  0.55775855897E+03 -0.59851705423E+03  0.20012779802E+04  0.12699999809E+01 0.  1.
       -4    1    3    3    0  502  0.18264157979E+04 -0.55775855897E+03  0.14135710629E+03  0.19149080190E+04  0.12699999809E+01 0. -1.
</event>
<event>
 5   0  0.8676098E-08  0.3928830E+04  0.7818609E-02  0.8019060E-01
        2   -1    0    0  501    0  0.00000000000E+00  0.00000000000E+00  0.20162842219E+04  0.20162842219E+04  0.25500000920E-02 0. -1.
       -2   -1    0    0    0  501  0.00000000000E+00  0.00000000000E+00 -0.19138800347E+04  0.19138800347E+04  0.25500000920E-02 0.  1.
    10030    2    1    2    0    0  0.00000000000E+00  0.00000000000E+00  0.10240418720E+03  0.39301642566E+04  0.39288299106E+04 0.  0.
        3    1    3    3  502    0  0.17928387025E+04  0.21073049969E+03  0.82622205649E+03  0.19852760144E+04  0.10100000352E+00 0.  1.
       -3    1    3    3    0  502 -0.17928387025E+04 -0.21073049969E+03 -0.72381786928E+03  0.19448882422E+04  0.10100000352E+00 0. -1.
</event>
<event>
 5   0  0.2632875E-08  0.3930312E+04  0.7818609E-02  0.8018754E-01
       -1   -1    0    0    0  501  0.00000000000E+00  0.00000000000E+00  0.26453888959E+04  0.26453888959E+04  0.50400001928E-02 0.  1.
        1   -1    0    0  501    0  0.00000000000E+00  0.00000000000E+00 -0.14598373863E+04  0.14598373863E+04  0.50400001928E-02 0. -1.
    10030    2    1    2    0    0  0.00000000000E+00  0.00000000000E+00  0.11855515096E+04  0.41052262822E+04  0.39303117492E+04 0.  0.
        3    1    3    3  502    0  0.14926622323E+04 -0.10652125063E+04 -0.14514940298E+03  0.18395071575E+04  0.10100000352E+00 0. -1.
       -3    1    3    3    0  502 -0.14926622323E+04  0.10652125063E+04  0.13307009126E+04  0.22657191247E+04  0.10100000352E+00 0.  1.
</event>
<event>
 5   0  0.2632875E-08  0.3895321E+04  0.7818609E-02  0.8026003E-01
        1   -1    0    0  501    0  0.00000000000E+00  0.00000000000E+00  0.13677992076E+04  0.13677992076E+04  0.50400001928E-02 0.  1.
       -1   -1    0    0    0  501  0.00000000000E+00  0.00000000000E+00 -0.27733469315E+04  0.27733469315E+04  0.50400001928E-02 0. -1.
    10030    2    1    2    0    0  0.00000000000E+00  0.00000000000E+00 -0.14055477240E+04  0.41411461391E+04  0.38953211602E+04 0.  0.
        2    1    3    3  502    0  0.10421383443E+03  0.17611667216E+04  0.17441115246E+03  0.17728474257E+04  0.25500000920E-02 0. -1.
       -2    1    3    3    0  502 -0.10421383443E+03 -0.17611667216E+04 -0.15799588764E+04  0.23682987134E+04  0.25500000920E-02 0.  1.
</event>
<event>
 5   0  0.8676098E-08  0.3852405E+04  0.7818609E-02  0.8035001E-01
        2   -1    0    0  501    0  0.00000000000E+00  0.00000000000E+00  0.18899475573E+04  0.18899475573E+04  0.25500000920E-02 0.  1.
       -2   -1    0    0    0  501  0.00000000000E+00  0.00000000000E+00 -0.19631532221E+04  0.19631532221E+04  0.25500000920E-02 0. -1.
    10030    2    1    2    0    0  0.00000000000E+00  0.00000000000E+00 -0.73205664825E+02  0.38531007794E+04  0.38524052937E+04 0.  0.
        3    1    3    3  502    0 -0.10734327339E+04 -0.38550684051E+03  0.15158962150E+04  0.18970542173E+04  0.10100000352E+00 0.  1.
       -3    1    3    3    0  502  0.10734327339E+04  0.38550684051E+03 -0.15891018798E+04  0.19560465621E+04  0.10100000352E+00 0. -1.
</event>
<event>
 5   0  0.2632875E-08  0.3904261E+04  0.7818609E-02  0.8024144E-01
       -1   -1    0    0    0  501  0.00000000000E+00  0.00000000000E+00  0.12553374316E+04  0.12553374316E+04  0.50400001928E-02 0. -1.
        1   -1    0    0  501    0  0.00000000000E+00  0.00000000000E+00 -0.30356885846E+04  0.30356885846E+04  0.50400001928E-02 0.  1.
    10030    2    1    2    0    0  0.00000000000E+00  0.00000000000E+00 -0.17803511531E+04  0.42910260162E+04  0.39042610112E+04 0.  0.
        3    1    3    3  502    0  0.15336066721E+04  0.11474278899E+04 -0.47561879244E+03  0.19735129676E+04  0.10100000352E+00 0. -1.
       -3    1    3    3    0  502 -0.15336066721E+04 -0.11474278899E+04 -0.13047323606E+04  0.23175130486E+04  0.10100000352E+00 0.  1.
</event>
<event>
 5   0  0.8342802E-08  0.3907472E+04  0.7818609E-02  0.8023477E-01
       -2   -1    0    0    0  501  0.00000000000E+00  0.00000000000E+00  0.26126197678E+04  0.26126197678E+04  0.25500000920E-02 0.  1.
        2   -1    0    0  501    0  0.00000000000E+00  0.00000000000E+00 -0.14610179872E+04  0.14610179872E+04  0.25500000920E-02 0. -1.
    10030    2    1    2    0    0  0.00000000000E+00  0.00000000000E+00  0.11516017806E+04  0.40736377550E+04  0.39074720597E+04 0.  0.
        4    1    3    3  502    0  0.30661387277E+03  0.50261927956E+03  0.25179344247E+04  0.25858525842E+04  0.12699999809E+01 0.  1.
       -4    1    3    3    0  502 -0.30661387277E+03 -0.50261927956E+03 -0.13663326441E+04  0.14877851708E+04  0.12699999809E+01 0. -1.
</event>
<event>
 5   0  0.2632875E-08  0.3937265E+04  0.7818609E-02  0.8017323E-01
        1   -1    0    0  501    0  0.00000000000E+00  0.00000000000E+00  0.15438856200E+04  0.15438856200E+04  0.50400001928E-02 0.  1.
       -1   -1    0    0    0  501  0.00000000000E+00  0.00000000000E+00 -0.25102343990E+04  0.25102343990E+04  0.50400001928E-02 0. -1.
    10030    2    1    2    0    0  0.00000000000E+00  0.00000000000E+00 -0.96634877904E+03  0.40541200190E+04  0.39372654427E+04 0.  0.
        2    1    3    3  502    0  0.12928825343E+04  0.86461199070E+03  0.75946345206E+03  0.17308621773E+04  0.25500000920E-02 0.  1.
       -2    1    3    3    0  502 -0.12928825343E+04 -0.86461199070E+03 -0.17258122311E+04  0.23232578417E+04  0.25500000920E-02 0. -1.
</event>
<event>
 5   0  0.2632875E-08  0.3896442E+04  0.7818609E-02  0.8025770E-01
        1   -1    0    0  501    0  0.00000000000E+00  0.00000000000E+00  0.21971355766E+04  0.21971355766E+04  0.50400001928E-02 0.  1.
       -1   -1    0    0    0  501  0.00000000000E+00  0.00000000000E+00 -0.17275063426E+04  0.17275063426E+04  0.50400001928E-02 0. -1.
    10030    2    1    2    0    0  0.00000000000E+00  0.00000000000E+00  0.46962923398E+03  0.39246419192E+04  0.38964422973E+04 0.  0.
        2    1    3    3  502    0  0.12286009986E+04  0.11542230402E+04 -0.74891871454E+03  0.18446057793E+04  0.25500000920E-02 0. -1.
       -2    1    3    3    0  502 -0.12286009986E+04 -0.11542230402E+04  0.12185479485E+04  0.20800361398E+04  0.25500000920E-02 0.  1.
</event>
<event>
 5   0  0.2632875E-08  0.3889546E+04  0.7818609E-02  0.8027207E-01
        1   -1    0    0  501    0  0.00000000000E+00  0.00000000000E+00  0.11153967795E+04  0.11153967795E+04  0.50400001928E-02 0. -1.
       -1   -1    0    0    0  501  0.00000000000E+00  0.00000000000E+00 -0.33908490730E+04  0.33908490730E+04  0.50400001928E-02 0.  1.
    10030    2    1    2    0    0  0.00000000000E+00  0.00000000000E+00 -0.22754522935E+04  0.45062458525E+04  0.38895460588E+04 0.  0.
        4    1    3    3  502    0 -0.27555805667E+03 -0.86502956985E+03 -0.31302799893E+04  0.32592733582E+04  0.12699999809E+01 0.  1.
       -4    1    3    3    0  502  0.27555805667E+03  0.86502956985E+03  0.85482769576E+03  0.12469724943E+04  0.12699999809E+01 0. -1.
</event>
<event>
 5   0  0.2632875E-08  0.3874083E+04  0.7818609E-02  0.8030441E-01
       -1   -1    0    0    0  501  0.00000000000E+00  0.00000000000E+00  0.12778248485E+04  0.12778248485E+04  0.50400001928E-02 0.  1.
        1   -1    0    0  501    0  0.00000000000E+00  0.00000000000E+00 -0.29363406494E+04  0.29363406494E+04  0.50400001928E-02 0. -1.
    10030    2    1    2    0    0  0.00000000000E+00  0.00000000000E+00 -0.16585158009E+04  0.42141654979E+04  0.38740826246E+04 0.  0.
        3    1    3    3  502    0  0.82954343624E+03 -0.17401421815E+04 -0.10353403454E+04  0.21881880097E+04  0.10100000352E+00 0. -1.
       -3    1    3    3    0  502 -0.82954343624E+03  0.17401421815E+04 -0.62317545551E+03  0.20259774883E+04  0.10100000352E+00 0.  1.
</event>
<event>
 5   0  0.2632875E-08  0.3887075E+04  0.7818609E-02  0.8027723E-01
       -1   -1    0    0    0  501  0.00000000000E+00  0.00000000000E+00  0.16126431891E+04  0.16126431891E+04  0.50400001928E-02 0.  1.
        1   -1    0    0  501    0  0.00000000000E+00  0.00000000000E+00 -0.23423276723E+04  0.23423276723E+04  0.50400001928E-02 0. -1.
    10030    2    1    2    0    0  0.00000000000E+00  0.00000000000E+00 -0.72968448314E+03  0.39549708614E+04  0.38870753877E+04 0.  0.
        5    1    3    3  502    0  0.17522413795E+04  0.84064747857E+03 -0.34785809803E+03  0.19743518890E+04  0.46999998093E+01 0. -1.
       -5    1    3    3    0  502 -0.17522413795E+04 -0.84064747857E+03 -0.38182638511E+03  0.19806189724E+04  0.46999998093E+01 0.  1.
</event>
<event>
 5   0  0.8676098E-08  0.3918741E+04  0.7818609E-02  0.8021143E-01
        2   -1    0    0  501    0  0.00000000000E+00  0.00000000000E+00  0.24473818849E+04  0.24473818849E+04  0.25500000920E-02 0. -1.
       -2   -1    0    0    0  501  0.00000000000E+00  0.00000000000E+00 -0.15686688959E+04  0.15686688959E+04  0.25500000920E-02 0.  1.
    10030    2    1    2    0    0  0.00000000000E+00  0.00000000000E+00  0.87871298904E+03  0.40160507808E+04  0.39187405320E+04 0.  0.
        3    1    3    3  502    0  0.61332144336E+03  0.12049952481E+04  0.18926518058E+04  0.23260067947E+04  0.10100000352E+00 0. -1.
       -3    1    3    3    0  502 -0.61332144336E+03 -0.12049952481E+04 -0.10139388167E+04  0.16900439861E+04  0.10100000352E+00 0.  1.
</event>
<event>
 5   0  0.2632875E-08  0.3901265E+04  0.7818609E-02  0.8024766E-01
        1   -1    0    0  501    0  0.00000000000E+00  0.00000000000E+00  0.13330128087E+04  0.13330128087E+04  0.50400001928E-02 0.  1.
       -1   -1    0    0    0  501  0.00000000000E+00  0.00000000000E+00 -0.28544108503E+04  0.28544108503E+04  0.50400001928E-02 0. -1.
    10030    2    1    2    0    0  0.00000000000E+00  0.00000000000E+00 -0.15213980417E+04  0.41874236590E+04  0.39012645257E+04 0.  0.
        1    1    3    3  502    0  0.15116783446E+04  0.91697999598E+03  0.12371984799E+03  0.17723798496E+04  0.50400001928E-02 0.  1.
       -1    1    3    3    0  502 -0.15116783446E+04 -0.91697999598E+03 -0.16451178896E+04  0.24150438094E+04  0.50400001928E-02 0. -1.
</event>
<event>
 5   0  0.8551754E-08  0.3898128E+04  0.7818609E-02  0.8025419E-01
        2   -1    0    0  501    0  0.00000000000E+00  0.00000000000E+00  0.12841158176E+04  0.12841158176E+04  0.25500000920E-02 0.  1.
       -2   -1    0    0    0  501  0.00000000000E+00  0.00000000000E+00 -0.29583388976E+04  0.29583388976E+04  0.25500000920E-02 0. -1.
    10030    2    1    2    0    0  0.00000000000E+00  0.00000000000E+00 -0.16742230800E+04  0.42424547152E+04  0.38981276389E+04 0.  0.
        1    1    3    3  502    0 -0.34411846469E+03  0.87055897634E+03 -0.26976678887E+04  0.28554688734E+04  0.50400001928E-02 0.  1.
       -1    1    3    3    0  502  0.34411846469E+03 -0.87055897634E+03  0.10234448087E+04  0.13869858418E+04  0.50400001928E-02 0. -1.
</event>
<event>
 5   0  0.2632875E-08  0.3905696E+04  0.7818609E-02  0.8023846E-01
       -1   -1    0    0    0  501  0.00000000000E+00  0.00000000000E+00  0.17499116567E+04  0.17499116567E+04  0.50400001928E-02 0. -1.
        1   -1    0    0  501    0  0.00000000000E+00  0.00000000000E+00 -0.21793184682E+04  0.21793184682E+04  0.50400001928E-02 0.  1.
    10030    2    1    2    0    0  0.00000000000E+00  0.00000000000E+00 -0.42940681154E+03  0.39292301249E+04  0.39056957338E+04 0.  0.
        3    1    3    3  502    0  0.19210481624E+04  0.32820247620E+03 -0.33983889872E+03  0.19782905234E+04  0.10100000352E+00 0. -1.
       -3    1    3    3    0  502 -0.19210481624E+04 -0.32820247620E+03 -0.89567912820E+02  0.19509396015E+04  0.10100000352E+00 0.  1.
</event>
<event>
 5   0  0.2632875E-08  0.3898799E+04  0.7818609E-02  0.8025279E-01
        1   -1    0    0  501    0  0.00000000000E+00  0.00000000000E+00  0.14394031547E+04  0.14394031547E+04  0.50400001928E-02 0.  1.
       -1   -1    0    0    0  501  0.00000000000E+00  0.00000000000E+00 -0.26400932091E+04  0.26400932092E+04  0.50400001928E-02 0. -1.
    10030    2    1    2    0    0  0.00000000000E+00  0.00000000000E+00 -0.12006900545E+04  0.40794963638E+04  0.38987990427E+04 0.  0.
        2    1    3    3  502    0  0.17189371870E+03 -0.11895154670E+04 -0.22062963292E+04  0.25124167626E+04  0.25500000920E-02 0. -1.
       -2    1    3    3    0  502 -0.17189371870E+03  0.11895154670E+04  0.10056062747E+04  0.15670796012E+04  0.25500000920E-02 0.  1.
</event>
<event>
 5   0  0.2632875E-08  0.3892624E+04  0.7818609E-02  0.8026565E-01
       -3   -1    0    0    0  501  0.00000000000E+00  0.00000000000E+00  0.15438668555E+04  0.15438668588E+04  0.10100000352E+00 0. -1.
        3   -1    0    0  501    0  0.00000000000E+00  0.00000000000E+00 -0.24536638520E+04  0.24536638541E+04  0.10100000352E+00 0.  1.
    10030    2    1    2    0    0  0.00000000000E+00  0.00000000000E+00 -0.90979699645E+03  0.39975307129E+04  0.38926239512E+04 0.  0.
        3    1    3    3  502    0  0.18916938111E+04 -0.31735977583E+03 -0.79380386011E+03  0.20758967414E+04  0.10100000352E+00 0. -1.
       -3    1    3    3    0  502 -0.18916938111E+04  0.31735977583E+03 -0.11599313635E+03  0.19216339715E+04  0.10100000352E+00 0.  1.
</event>
<event>
 5   0  0.8438211E-08  0.3900177E+04  0.7818609E-02  0.8024992E-01
        2   -1    0    0  501    0  0.00000000000E+00  0.00000000000E+00  0.16719603699E+04  0.16719603699E+04  0.25500000920E-02 0.  1.
       -2   -1    0    0    0  501  0.00000000000E+00  0.00000000000E+00 -0.22744822677E+04  0.22744822677E+04  0.25500000920E-02 0. -1.
    10030    2    1    2    0    0  0.00000000000E+00  0.00000000000E+00 -0.60252189781E+03  0.39464426376E+04  0.39001765159E+04 0.  0.
        5    1    3    3  502    0  0.86312189021E+03 -0.15928635248E+04 -0.10313662610E+04  0.20846899194E+04  0.46999998093E+01 0. -1.
       -5    1    3    3    0  502 -0.86312189021E+03  0.15928635248E+04  0.42884436321E+03  0.18617527182E+04  0.46999998093E+01 0.  1.
</event>
<event>
 5   0  0.8438211E-08  0.3899934E+04  0.7818609E-02  0.8025043E-01
       -2   -1    0    0    0  501  0.00000000000E+00  0.00000000000E+00  0.20156963933E+04  0.20156963933E+04  0.25500000920E-02 0. -1.
        2   -1    0    0  501    0  0.00000000000E+00  0.00000000000E+00 -0.18863804871E+04  0.18863804871E+04  0.25500000920E-02 0.  1.
    10030    2    1    2    0    0  0.00000000000E+00  0.00000000000E+00  0.12931590619E+03  0.39020768805E+04  0.38999335094E+04 0.  0.
        5    1    3    3  502    0  0.97322831208E+03  0.15071510453E+04  0.82906123078E+03  0.19763709761E+04  0.46999998093E+01 0. -1.
       -5    1    3    3    0  502 -0.97322831208E+03 -0.15071510453E+04 -0.69974532459E+03  0.19257059044E+04  0.46999998093E+01 0.  1.
</event>
<event>
 5   0  0.8438211E-08  0.3903276E+04  0.7818609E-02  0.8024348E-01
       -2   -1    0    0    0  501  0.00000000000E+00  0.00000000000E+00  0.18485598083E+04  0.18485598083E+04  0.25500000920E-02 0.  1.
        2   -1    0    0  501    0  0.00000000000E+00  0.00000000000E+00 -0.20604643169E+04  0.20604643169E+04  0.25500000920E-02 0. -1.
    10030    2    1    2    0    0  0.00000000000E+00  0.00000000000E+00 -0.21190450860E+03  0.39090241252E+04  0.39032763277E+04 0.  0.
        5    1    3    3  502    0  0.73539507199E+03  0.91301196863E+03  0.14566250222E+04  0.18698062232E+04  0.46999998093E+01 0.  1.
       -5    1    3    3    0  502 -0.73539507199E+03 -0.91301196863E+03 -0.16685295308E+04  0.20392179020E+04  0.46999998093E+01 0. -1.
</event>
<event>
 5   0  0.2632875E-08  0.3910836E+04  0.7818609E-02  0.8022779E-01
       -1   -1    0    0    0  501  0.00000000000E+00  0.00000000000E+00  0.26233637637E+04  0.26233637637E+04  0.50400001928E-02 0.  1.
        1   -1    0    0  501    0  0.00000000000E+00  0.00000000000E+00 -0.14575403712E+04  0.14575403712E+04  0.50400001928E-02 0. -1.
    10030    2    1    2    0    0  0.00000000000E+00  0.00000000000E+00  0.11658233925E+04  0.40809041350E+04  0.39108355087E+04 0.  0.
        4    1    3    3  502    0  0.18391843976E+04 -0.56224437825E+03  0.21407354021E+03  0.19350832237E+04  0.12699999809E+01 0. -1.
       -4    1    3    3    0  502 -0.18391843976E+04  0.56224437825E+03  0.95174985229E+03  0.21458209113E+04  0.12699999809E+01 0.  1.
</event>
<event>
 5   0  0.8476262E-08  0.3895173E+04  0.7818609E-02  0.8026034E-01
        2   -1    0    0  501    0  0.00000000000E+00  0.00000000000E+00  0.16918828116E+04  0.16918828116E+04  0.25500000920E-02 0.  1.
       -2   -1    0    0    0  501  0.00000000000E+00  0.00000000000E+00 -0.22419363521E+04  0.22419363521E+04  0.25500000920E-02 0. -1.
    10030    2    1    2    0    0  0.00000000000E+00  0.00000000000E+00 -0.55005354048E+03  0.39338191636E+04  0.38951732073E+04 0.  0.
        2    1    3    3  502    0 -0.70684687242E+03  0.85943913050E+03 -0.18892672546E+04  0.21926237432E+04  0.25500000920E-02 0. -1.
       -2    1    3    3    0  502  0.70684687242E+03 -0.85943913050E+03  0.13392137141E+04  0.17411954204E+04  0.25500000920E-02 0.  1.
</event>
<event>
 5   0  0.8676098E-08  0.3897912E+04  0.7818609E-02  0.8025464E-01
        2   -1    0    0  501    0  0.00000000000E+00  0.00000000000E+00  0.15325537323E+04  0.15325537323E+04  0.25500000920E-02 0.  1.
       -2   -1    0    0    0  501  0.00000000000E+00  0.00000000000E+00 -0.24784970354E+04  0.24784970354E+04  0.25500000920E-02 0. -1.
    10030    2    1    2    0    0  0.00000000000E+00  0.00000000000E+00 -0.94594330312E+03  0.40110507678E+04  0.38979122013E+04 0.  0.
        3    1    3    3  502    0 -0.13659951533E+04 -0.12892769206E+04 -0.10079185492E+04  0.21316842048E+04  0.10100000352E+00 0. -1.
       -3    1    3    3    0  502  0.13659951533E+04  0.12892769206E+04  0.61975246073E+02  0.18793665630E+04  0.10100000352E+00 0.  1.
</event>
<event>
 5   0  0.2632875E-08  0.3913161E+04  0.7818609E-02  0.8022298E-01
       -1   -1    0    0    0  501  0.00000000000E+00  0.00000000000E+00  0.27467773216E+04  0.27467773216E+04  0.50400001928E-02 0.  1.
        1   -1    0    0  501    0  0.00000000000E+00  0.00000000000E+00 -0.13937084920E+04  0.13937084920E+04  0.50400001928E-02 0. -1.
    10030    2    1    2    0    0  0.00000000000E+00  0.00000000000E+00  0.13530688296E+04  0.41404858136E+04  0.39131608087E+04 0.  0.
        3    1    3    3  502    0 -0.70846392624E+03 -0.35086813821E+03 -0.12171782932E+04  0.14513967731E+04  0.10100000352E+00 0. -1.
       -3    1    3    3    0  502  0.70846392624E+03  0.35086813821E+03  0.25702471228E+04  0.26890890405E+04  0.10100000352E+00 0.  1.
</event>
<event>
 5   0  0.8676098E-08  0.3857286E+04  0.7818609E-02  0.8033972E-01
       -2   -1    0    0    0  501  0.00000000000E+00  0.00000000000E+00  0.21640651882E+04  0.21640651882E+04  0.25500000920E-02 0. -1.
        2   -1    0    0  501    0  0.00000000000E+00  0.00000000000E+00 -0.17188313833E+04  0.17188313833E+04  0.25500000920E-02 0.  1.
    10030    2    1    2    0    0  0.00000000000E+00  0.00000000000E+00  0.44523380487E+03  0.38828965715E+04  0.38572856575E+04 0.  0.
        3    1    3    3  502    0  0.12032539542E+04  0.94531654766E+02  0.17369009856E+04  0.21150842432E+04  0.10100000352E+00 0. -1.
       -3    1    3    3    0  502 -0.12032539542E+04 -0.94531654766E+02 -0.12916671807E+04  0.17678123283E+04  0.10100000352E+00 0.  1.
</event>
<event>
 5   0  0.2632875E-08  0.3899613E+04  0.7818609E-02  0.8025110E-01
        1   -1    0    0  501    0  0.00000000000E+00  0.00000000000E+00  0.22979143515E+04  0.22979143515E+04  0.50400001928E-02 0.  1.
       -1   -1    0    0    0  501  0.00000000000E+00  0.00000000000E+00 -0.16544326195E+04  0.16544326195E+04  0.50400001928E-02 0. -1.
    10030    2    1    2    0    0  0.00000000000E+00  0.00000000000E+00  0.64348173201E+03  0.39523469709E+04  0.38996125242E+04 0.  0.
        1    1    3    3  502    0  0.21151296571E+03 -0.94447261027E+03 -0.13937731436E+04  0.16968705968E+04  0.50400001928E-02 0. -1.
       -1    1    3    3    0  502 -0.21151296571E+03  0.94447261027E+03  0.20372548756E+04  0.22554763742E+04  0.50400001928E-02 0.  1.
</event>
<event>
 5   0  0.8438211E-08  0.3855863E+04  0.7818609E-02  0.8034272E-01
        2   -1    0    0  501    0  0.00000000000E+00  0.00000000000E+00  0.21688177985E+04  0.21688177985E+04  0.25500000920E-02 0.  1.
       -2   -1    0    0    0  501  0.00000000000E+00  0.00000000000E+00 -0.17137997128E+04  0.17137997128E+04  0.25500000920E-02 0. -1.
    10030    2    1    2    0    0  0.00000000000E+00  0.00000000000E+00  0.45501808572E+03  0.38826175112E+04  0.38558627154E+04 0.  0.
        5    1    3    3  502    0  0.84725355650E+03  0.40199986322E+02 -0.15158164619E+04  0.17370020909E+04  0.46999998093E+01 0. -1.
       -5    1    3    3    0  502 -0.84725355650E+03 -0.40199986322E+02  0.19708345476E+04  0.21456154203E+04  0.46999998093E+01 0.  1.
</event>
<event>
 5   0  0.2632875E-08  0.3894824E+04  0.7818609E-02  0.8026107E-01
        1   -1    0    0  501    0  0.00000000000E+00  0.00000000000E+00  0.21824073898E+04  0.21824073898E+04  0.50400001928E-02 0.  1.
       -1   -1    0    0    0  501  0.00000000000E+00  0.00000000000E+00 -0.17377203689E+04  0.17377203689E+04  0.50400001928E-02 0. -1.
    10030    2    1    2    0    0  0.00000000000E+00  0.00000000000E+00  0.44468702088E+03  0.39201277587E+04  0.38948241421E+04 0.  0.
        3    1    3    3  502    0 -0.91147276572E+03  0.52375065022E+03 -0.14276102390E+04  0.17728982912E+04  0.10100000352E+00 0. -1.
       -3    1    3    3    0  502  0.91147276572E+03 -0.52375065022E+03  0.18722972599E+04  0.21472294675E+04  0.10100000352E+00 0.  1.
</event>
<event>
 5   0  0.8476262E-08  0.3896592E+04  0.7818609E-02  0.8025738E-01
        2   -1    0    0  501    0  0.00000000000E+00  0.00000000000E+00  0.22854449892E+04  0.22854449892E+04  0.25500000920E-02 0. -1.
       -2   -1    0    0    0  501  0.00000000000E+00  0.00000000000E+00 -0.16608834330E+04  0.16608834330E+04  0.25500000920E-02 0.  1.
    10030    2    1    2    0    0  0.00000000000E+00  0.00000000000E+00  0.62456155621E+03  0.39463284223E+04  0.38965922136E+04 0.  0.
        2    1    3    3  502    0  0.67524431678E+03  0.67526758995E+03  0.20321665709E+04  0.22453601443E+04  0.25500000920E-02 0. -1.
       -2    1    3    3    0  502 -0.67524431678E+03 -0.67526758995E+03 -0.14076050147E+04  0.17009682780E+04  0.25500000920E-02 0.  1.
</event>
<event>
 5   0  0.2632875E-08  0.3911904E+04  0.7818609E-02  0.8022558E-01
        1   -1    0    0  501    0  0.00000000000E+00  0.00000000000E+00  0.19160188061E+04  0.19160188061E+04  0.50400001928E-02 0.  1.
       -1   -1    0    0    0  501  0.00000000000E+00  0.00000000000E+00 -0.19967171194E+04  0.19967171194E+04  0.50400001928E-02 0. -1.
    10030    2    1    2    0    0  0.00000000000E+00  0.00000000000E+00 -0.80698313335E+02  0.39127359255E+04  0.39119036548E+04 0.  0.
        5    1    3    3  502    0  0.12158328218E+03 -0.13685606444E+04  0.13520622202E+04  0.19276501418E+04  0.46999998093E+01 0.  1.
       -5    1    3    3    0  502 -0.12158328218E+03  0.13685606444E+04 -0.14327605335E+04  0.19850857836E+04  0.46999998093E+01 0. -1.
</event>
<event>
 5   0  0.2632875E-08  0.3896651E+04  0.7818609E-02  0.8025726E-01
       -1   -1    0    0    0  501  0.00000000000E+00  0.00000000000E+00  0.22656198924E+04  0.22656198924E+04  0.50400001928E-02 0. -1.
        1   -1    0    0  501    0  0.00000000000E+00  0.00000000000E+00 -0.16754676114E+04  0.16754676114E+04  0.50400001928E-02 0.  1.
    10030    2    1    2    0    0  0.00000000000E+00  0.00000000000E+00  0.59015228094E+03  0.39410875038E+04  0.38966512543E+04 0.  0.
        2    1    3    3  502    0  0.64775787366E+03 -0.32274524605E+03  0.21246319127E+04  0.22445078573E+04  0.25500000920E-02 0. -1.
       -2    1    3    3    0  502 -0.64775787366E+03  0.32274524605E+03 -0.15344796318E+04  0.16965796465E+04  0.25500000920E-02 0.  1.
</event>
<event>
 5   0  0.2632875E-08  0.3876989E+04  0.7818609E-02  0.8029832E-01
        3   -1    0    0  501    0  0.00000000000E+00  0.00000000000E+00  0.11697629293E+04  0.11697629337E+04  0.10100000352E+00 0. -1.
       -3   -1    0    0    0  501  0.00000000000E+00  0.00000000000E+00 -0.32124121266E+04  0.32124121282E+04  0.10100000352E+00 0.  1.
    10030    2    1    2    0    0  0.00000000000E+00  0.00000000000E+00 -0.20426491973E+04  0.43821750618E+04  0.38769888482E+04 0.  0.
        5    1    3    3  502    0  0.46280421020E+03 -0.18642349517E+04 -0.13164591173E+04  0.23286576369E+04  0.46999998093E+01 0.  1.
       -5    1    3    3    0  502 -0.46280421020E+03  0.18642349517E+04 -0.72619007997E+03  0.20535174249E+04  0.46999998093E+01 0. -1.
</event>
<event>
 5   0  0.8438211E-08  0.3896237E+04  0.7818609E-02  0.8025812E-01
       -2   -1    0    0    0  501  0.00000000000E+00  0.00000000000E+00  0.15661309636E+04  0.15661309636E+04  0.25500000920E-02 0.  1.
        2   -1    0    0  501    0  0.00000000000E+00  0.00000000000E+00 -0.24232751693E+04  0.24232751693E+04  0.25500000920E-02 0. -1.
    10030    2    1    2    0    0  0.00000000000E+00  0.00000000000E+00 -0.85714420573E+03  0.39894061329E+04  0.38962373007E+04 0.  0.
        5    1    3    3  502    0  0.42738513628E+03 -0.18604695025E+04 -0.30509257592E+02  0.19091772388E+04  0.46999998093E+01 0.  1.
       -5    1    3    3    0  502 -0.42738513628E+03  0.18604695025E+04 -0.82663494814E+03  0.20802288941E+04  0.46999998093E+01 0. -1.
</event>
<event>
 5   0  0.2632875E-08  0.3958765E+04  0.7818609E-02  0.8012917E-01
       -3   -1    0    0    0  501  0.00000000000E+00  0.00000000000E+00  0.17622088688E+04  0.17622088717E+04  0.10100000352E+00 0. -1.
        3   -1    0    0  501    0  0.00000000000E+00  0.00000000000E+00 -0.22233205650E+04  0.22233205673E+04  0.10100000352E+00 0.  1.
    10030    2    1    2    0    0  0.00000000000E+00  0.00000000000E+00 -0.46111169620E+03  0.39855294389E+04  0.39587650741E+04 0.  0.
        1    1    3    3  502    0  0.14864792960E+03 -0.11226266094E+04  0.14038633195E+04  0.18036681876E+04  0.50400001928E-02 0. -1.
       -1    1    3    3    0  502 -0.14864792960E+03  0.11226266094E+04 -0.18649750157E+04  0.21818612514E+04  0.50400001928E-02 0.  1.
</event>
<event>
 5   0  0.8551754E-08  0.3859812E+04  0.7818609E-02  0.8033440E-01
       -2   -1    0    0    0  501  0.00000000000E+00  0.00000000000E+00  0.16105203813E+04  0.16105203813E+04  0.25500000920E-02 0. -1.
        2   -1    0    0  501    0  0.00000000000E+00  0.00000000000E+00 -0.23126296988E+04  0.23126296988E+04  0.25500000920E-02 0.  1.
    10030    2    1    2    0    0  0.00000000000E+00  0.00000000000E+00 -0.70210931754E+03  0.39231500801E+04  0.38598120495E+04 0.  0.
        1    1    3    3  502    0 -0.48218980052E+03 -0.16872322348E+04  0.46541880661E+03  0.18154542912E+04  0.50400001928E-02 0. -1.
       -1    1    3    3    0  502  0.48218980052E+03  0.16872322348E+04 -0.11675281242E+04  0.21076957889E+04  0.50400001928E-02 0.  1.
</event>
<event>
 5   0  0.8438211E-08  0.3900763E+04  0.7818609E-02  0.8024871E-01
        2   -1    0    0  501    0  0.00000000000E+00  0.00000000000E+00  0.20932781591E+04  0.20932781591E+04  0.25500000920E-02 0.  1.
       -2   -1    0    0    0  501  0.00000000000E+00  0.00000000000E+00 -0.18172393348E+04  0.18172393348E+04  0.25500000920E-02 0. -1.
    10030    2    1    2    0    0  0.00000000000E+00  0.00000000000E+00  0.27603882432E+03  0.39105174938E+04  0.39007626994E+04 0.  0.
        5    1    3    3  502    0  0.45116186911E+03  0.12140607845E+04  0.15999098044E+04  0.20584518680E+04  0.46999998093E+01 0.  1.
       -5    1    3    3    0  502 -0.45116186911E+03 -0.12140607845E+04 -0.13238709800E+04  0.18520656259E+04  0.46999998093E+01 0. -1.
</event>
<event>
 5   0  0.8438211E-08  0.3896858E+04  0.7818609E-02  0.8025683E-01
       -2   -1    0    0    0  501  0.00000000000E+00  0.00000000000E+00  0.23783931800E+04  0.23783931800E+04  0.25500000920E-02 0. -1.
        2   -1    0    0  501    0  0.00000000000E+00  0.00000000000E+00 -0.15961931279E+04  0.15961931279E+04  0.25500000920E-02 0.  1.
    10030    2    1    2    0    0  0.00000000000E+00  0.00000000000E+00  0.78220005211E+03  0.39745863079E+04  0.38968576312E+04 0.  0.
        5    1    3    3  502    0  0.92480457219E+03 -0.16640410076E+04  0.81417106598E+03  0.20705536907E+04  0.46999998093E+01 0.  1.
       -5    1    3    3    0  502 -0.92480457219E+03  0.16640410076E+04 -0.31971013867E+02  0.19040326172E+04  0.46999998093E+01 0. -1.
</event>
<event>
 5   0  0.2632875E-08  0.3904191E+04  0.7818609E-02  0.8024158E-01
        1   -1    0    0  501    0  0.00000000000E+00  0.00000000000E+00  0.22091263343E+04  0.22091263343E+04  0.50400001928E-02 0.  1.
       -1   -1    0    0    0  501  0.00000000000E+00  0.00000000000E+00 -0.17249704797E+04  0.17249704797E+04  0.50400001928E-02 0. -1.
    10030    2    1    2    0    0  0.00000000000E+00  0.00000000000E+00  0.48415585467E+03  0.39340968140E+04  0.39041914464E+04 0.  0.
        5    1    3    3  502    0 -0.11608295042E+04  0.14303167171E+04  0.89303285183E+03  0.20471592057E+04  0.46999998093E+01 0.  1.
       -5    1    3    3    0  502  0.11608295042E+04 -0.14303167171E+04 -0.40887699716E+03  0.18869376083E+04  0.46999998093E+01 0. -1.
</event>
<event>
 5   0  0.2632875E-08  0.3889897E+04  0.7818609E-02  0.8027134E-01
       -3   -1    0    0    0  501  0.00000000000E+00  0.00000000000E+00  0.17693886657E+04  0.17693886686E+04  0.10100000352E+00 0. -1.
        3   -1    0    0  501    0  0.00000000000E+00  0.00000000000E+00 -0.21379278865E+04  0.21379278889E+04  0.10100000352E+00 0.  1.
    10030    2    1    2    0    0  0.00000000000E+00  0.00000000000E+00 -0.36853922078E+03  0.39073165575E+04  0.38898973667E+04 0.  0.
        3    1    3    3  502    0 -0.14757544303E+03  0.65531697267E+03  0.16491729429E+04  0.17807274502E+04  0.10100000352E+00 0. -1.
       -3    1    3    3    0  502  0.14757544303E+03 -0.65531697267E+03 -0.20177121637E+04  0.21265891074E+04  0.10100000352E+00 0.  1.
</event>
<event>
 5   0  0.8438211E-08  0.3905799E+04  0.7818609E-02  0.8023824E-01
       -2   -1    0    0    0  501  0.00000000000E+00  0.00000000000E+00  0.16704572177E+04  0.16704572177E+04  0.25500000920E-02 0.  1.
        2   -1    0    0  501    0  0.00000000000E+00  0.00000000000E+00 -0.22830970940E+04  0.22830970940E+04  0.25500000920E-02 0. -1.
    10030    2    1    2    0    0  0.00000000000E+00  0.00000000000E+00 -0.61263987631E+03  0.39535543117E+04  0.39057987759E+04 0.  0.
        5    1    3    3  502    0 -0.41192373578E+03 -0.19088115429E+04 -0.28255395787E+03  0.19730943970E+04  0.46999998093E+01 0. -1.
       -5    1    3    3    0  502  0.41192373578E+03  0.19088115429E+04 -0.33008591844E+03  0.19804599147E+04  0.46999998093E+01 0.  1.
</event>
<event>
 5   0  0.2632875E-08  0.3879748E+04  0.7818609E-02  0.8029254E-01
        1   -1    0    0  501    0  0.00000000000E+00  0.00000000000E+00  0.31247676988E+04  0.31247676988E+04  0.50400001928E-02 0. -1.
       -1   -1    0    0    0  501  0.00000000000E+00  0.00000000000E+00 -0.12042850446E+04  0.12042850446E+04  0.50400001928E-02 0.  1.
    10030    2    1    2    0    0  0.00000000000E+00  0.00000000000E+00  0.19204826542E+04  0.43290527434E+04  0.38797479339E+04 0.  0.
        4    1    3    3  502    0 -0.70773495164E+03  0.70255944026E+03 -0.89637384321E+03  0.13408826230E+04  0.12699999809E+01 0.  1.
       -4    1    3    3    0  502  0.70773495164E+03 -0.70255944026E+03  0.28168564974E+04  0.29881701205E+04  0.12699999809E+01 0. -1.
</event>
<event>
 5   0  0.8551754E-08  0.3900540E+04  0.7818609E-02  0.8024917E-01
        2   -1    0    0  501    0  0.00000000000E+00  0.00000000000E+00  0.18252958957E+04  0.18252958957E+04  0.25500000920E-02 0. -1.
       -2   -1    0    0    0  501  0.00000000000E+00  0.00000000000E+00 -0.20838006165E+04  0.20838006165E+04  0.25500000920E-02 0.  1.
    10030    2    1    2    0    0  0.00000000000E+00  0.00000000000E+00 -0.25850472083E+03  0.39090965122E+04  0.39005398153E+04 0.  0.
        1    1    3    3  502    0  0.81195917380E+03 -0.82198395929E+03  0.14453778120E+04  0.18504195062E+04  0.50400001928E-02 0. -1.
       -1    1    3    3    0  502 -0.81195917380E+03  0.82198395929E+03 -0.17038825328E+04  0.20586770060E+04  0.50400001928E-02 0.  1.
</event>
<event>
 5   0  0.2632875E-08  0.3894293E+04  0.7818609E-02  0.8026217E-01
        1   -1    0    0  501    0  0.00000000000E+00  0.00000000000E+00  0.22445740878E+04  0.22445740878E+04  0.50400001928E-02 0. -1.
       -1   -1    0    0    0  501  0.00000000000E+00  0.00000000000E+00 -0.16891306499E+04  0.16891306499E+04  0.50400001928E-02 0.  1.
    10030    2    1    2    0    0  0.00000000000E+00  0.00000000000E+00  0.55544343796E+03  0.39337047377E+04  0.38942926894E+04 0.  0.
        5    1    3    3  502    0  0.36563377575E+03 -0.13406483431E+04 -0.11000214074E+04  0.17723135232E+04  0.46999998093E+01 0.  1.
       -5    1    3    3    0  502 -0.36563377575E+03  0.13406483431E+04  0.16554648454E+04  0.21613912145E+04  0.46999998093E+01 0. -1.
</event>
<event>
 5   0  0.2632875E-08  0.3908840E+04  0.7818609E-02  0.8023193E-01
       -1   -1    0    0    0  501  0.00000000000E+00  0.00000000000E+00  0.18048046248E+04  0.18048046248E+04  0.50400001928E-02 0. -1.
        1   -1    0    0  501    0  0.00000000000E+00  0.00000000000E+00 -0.21164386799E+04  0.21164386799E+04  0.50400001928E-02 0.  1.
    10030    2    1    2    0    0  0.00000000000E+00  0.00000000000E+00 -0.31163405517E+03  0.39212433047E+04  0.39088403997E+04 0.  0.
        1    1    3    3  502    0 -0.42625194543E+03 -0.74956765140E+03 -0.19152967273E+04  0.21004532698E+04  0.50400001928E-02 0.  1.
       -1    1    3    3    0  502  0.42625194543E+03  0.74956765140E+03  0.16036626722E+04  0.18207900349E+04  0.50400001928E-02 0. -1.
</event>
<event>
 5   0  0.2632875E-08  0.3894765E+04  0.7818609E-02  0.8026119E-01
        1   -1    0    0  501    0  0.00000000000E+00  0.00000000000E+00  0.21968664413E+04  0.21968664413E+04  0.50400001928E-02 0. -1.
       -1   -1    0    0    0  501  0.00000000000E+00  0.00000000000E+00 -0.17262312526E+04  0.17262312526E+04  0.50400001928E-02 0.  1.
    10030    2    1    2    0    0  0.00000000000E+00  0.00000000000E+00  0.47063518870E+03  0.39230976939E+04  0.38947654660E+04 0.  0.
        3    1    3    3  502    0  0.18095501156E+04  0.10710454953E+03  0.95208129705E+03  0.20475355459E+04  0.10100000352E+00 0. -1.
       -3    1    3    3    0  502 -0.18095501156E+04 -0.10710454953E+03 -0.48144610835E+03  0.18755621480E+04  0.10100000352E+00 0.  1.
</event>
<event>
 5   0  0.2632875E-08  0.3904464E+04  0.7818609E-02  0.8024101E-01
        1   -1    0    0  501    0  0.00000000000E+00  0.00000000000E+00  0.20242307389E+04  0.20242307389E+04  0.50400001928E-02 0.  1.
       -1   -1    0    0    0  501  0.00000000000E+00  0.00000000000E+00 -0.18827943544E+04  0.18827943544E+04  0.50400001928E-02 0. -1.
    10030    2    1    2    0    0  0.00000000000E+00  0.00000000000E+00  0.14143638452E+03  0.39070250933E+04  0.39044642179E+04 0.  0.
        4    1    3    3  502    0  0.18085064291E+04 -0.48620603714E+03 -0.48111134779E+03  0.19335360241E+04  0.12699999809E+01 0. -1.
       -4    1    3    3    0  502 -0.18085064291E+04  0.48620603714E+03  0.62254773231E+03  0.19734890692E+04  0.12699999809E+01 0.  1.
</event>
<event>
 5   0  0.8342802E-08  0.3889007E+04  0.7818609E-02  0.8027319E-01
       -2   -1    0    0    0  501  0.00000000000E+00  0.00000000000E+00  0.20487479437E+04  0.20487479437E+04  0.25500000920E-02 0.  1.
        2   -1    0    0  501    0  0.00000000000E+00  0.00000000000E+00 -0.18455632425E+04  0.18455632425E+04  0.25500000920E-02 0. -1.
    10030    2    1    2    0    0  0.00000000000E+00  0.00000000000E+00  0.20318470116E+03  0.38943111862E+04  0.38890070188E+04 0.  0.
        4    1    3    3  502    0 -0.16705916778E+03  0.73529686919E+03 -0.16932031937E+04  0.18535125895E+04  0.12699999809E+01 0. -1.
       -4    1    3    3    0  502  0.16705916778E+03 -0.73529686919E+03  0.18963878949E+04  0.20407985967E+04  0.12699999809E+01 0.  1.
</event>
<event>
 5   0  0.8676098E-08  0.3895293E+04  0.7818609E-02  0.8026009E-01
       -2   -1    0    0    0  501  0.00000000000E+00  0.00000000000E+00  0.14979788175E+04  0.14979788175E+04  0.25500000920E-02 0.  1.
        2   -1    0    0  501    0  0.00000000000E+00  0.00000000000E+00 -0.25322964961E+04  0.25322964961E+04  0.25500000920E-02 0. -1.
    10030    2    1    2    0    0  0.00000000000E+00  0.00000000000E+00 -0.10343176786E+04  0.40302753136E+04  0.38952928058E+04 0.  0.
        3    1    3    3  502    0 -0.10795683483E+04 -0.13368438378E+04 -0.14658328393E+04  0.22586024856E+04  0.10100000352E+00 0. -1.
       -3    1    3    3    0  502  0.10795683483E+04  0.13368438378E+04  0.43151516066E+03  0.17716728280E+04  0.10100000352E+00 0.  1.
</event>
<event>
 5   0  0.2632875E-08  0.3940640E+04  0.7818609E-02  0.8016630E-01
        1   -1    0    0  501    0  0.00000000000E+00  0.00000000000E+00  0.20320015825E+04  0.20320015825E+04  0.50400001928E-02 0. -1.
       -1   -1    0    0    0  501  0.00000000000E+00  0.00000000000E+00 -0.19105103418E+04  0.19105103418E+04  0.50400001928E-02 0.  1.
    10030    2    1    2    0    0  0.00000000000E+00  0.00000000000E+00  0.12149124069E+03  0.39425119243E+04  0.39406395612E+04 0.  0.
        1    1    3    3  502    0 -0.38967797803E+03  0.37811307903E+02  0.19926943137E+04  0.20307903017E+04  0.50400001928E-02 0. -1.
       -1    1    3    3    0  502  0.38967797803E+03 -0.37811307903E+02 -0.18712030730E+04  0.19117216226E+04  0.50400001928E-02 0.  1.
</event>
<event>
 5   0  0.8438211E-08  0.3901218E+04  0.7818609E-02  0.8024776E-01
       -2   -1    0    0    0  501  0.00000000000E+00  0.00000000000E+00  0.32507782037E+04  0.32507782037E+04  0.25500000920E-02 0. -1.
        2   -1    0    0  501    0  0.00000000000E+00  0.00000000000E+00 -0.11704506409E+04  0.11704506409E+04  0.25500000920E-02 0.  1.
    10030    2    1    2    0    0  0.00000000000E+00  0.00000000000E+00  0.20803275628E+04  0.44212288445E+04  0.39012179800E+04 0.  0.
        5    1    3    3  502    0  0.12539670250E+04  0.50918271744E+03  0.26320908189E+04  0.29596662833E+04  0.46999998093E+01 0. -1.
       -5    1    3    3    0  502 -0.12539670250E+04 -0.50918271744E+03 -0.55176325612E+03  0.14615625612E+04  0.46999998093E+01 0.  1.
</event>
<event>
 5   0  0.8676098E-08  0.3949256E+04  0.7818609E-02  0.8014862E-01
       -2   -1    0    0    0  501  0.00000000000E+00  0.00000000000E+00  0.19113681252E+04  0.19113681252E+04  0.25500000920E-02 0.  1.
        2   -1    0    0  501    0  0.00000000000E+00  0.00000000000E+00 -0.20399816184E+04  0.20399816184E+04  0.25500000920E-02 0. -1.
    10030    2    1    2    0    0  0.00000000000E+00  0.00000000000E+00 -0.12861349325E+03  0.39513497436E+04  0.39492560521E+04 0.  0.
        3    1    3    3  502    0 -0.13438389100E+04 -0.97704207773E+02 -0.15085770245E+04  0.20226847944E+04  0.10100000352E+00 0. -1.
       -3    1    3    3    0  502  0.13438389100E+04  0.97704207773E+02  0.13799635313E+04  0.19286649492E+04  0.10100000352E+00 0.  1.
</event>
<event>
 5   0  0.8342802E-08  0.3878307E+04  0.7818609E-02  0.8029556E-01
       -2   -1    0    0    0  501  0.00000000000E+00  0.00000000000E+00  0.20926493059E+04  0.20926493059E+04  0.25500000920E-02 0.  1.
        2   -1    0    0  501    0  0.00000000000E+00  0.00000000000E+00 -0.17969169321E+04  0.17969169321E+04  0.25500000920E-02 0. -1.
    10030    2    1    2    0    0  0.00000000000E+00  0.00000000000E+00  0.29573237382E+03  0.38895662379E+04  0.38783073476E+04 0.  0.
        4    1    3    3  502    0 -0.93812369723E+03  0.14310575592E+04 -0.76709449308E+03  0.18752166230E+04  0.12699999809E+01 0. -1.
       -4    1    3    3    0  502  0.93812369723E+03 -0.14310575592E+04  0.10628268669E+04  0.20143496149E+04  0.12699999809E+01 0.  1.
</event>
<event>
 5   0  0.8476262E-08  0.3906085E+04  0.7818609E-02  0.8023765E-01
        2   -1    0    0  501    0  0.00000000000E+00  0.00000000000E+00  0.21773672957E+04  0.21773672957E+04  0.25500000920E-02 0.  1.
       -2   -1    0    0    0  501  0.00000000000E+00  0.00000000000E+00 -0.17518288037E+04  0.17518288037E+04  0.25500000920E-02 0. -1.
    10030    2    1    2    0    0  0.00000000000E+00  0.00000000000E+00  0.42553849199E+03  0.39291960995E+04  0.39060848660E+04 0.  0.
        2    1    3    3  502    0 -0.97787082854E+03  0.32734856731E+03  0.18811925354E+04  0.21452910751E+04  0.25500000920E-02 0.  1.
       -2    1    3    3    0  502  0.97787082854E+03 -0.32734856731E+03 -0.14556540434E+04  0.17839050244E+04  0.25500000920E-02 0. -1.
</event>
<event>
 5   0  0.8476262E-08  0.3919479E+04  0.7818609E-02  0.8020990E-01
        2   -1    0    0  501    0  0.00000000000E+00  0.00000000000E+00  0.22548483429E+04  0.22548483429E+04  0.25500000920E-02 0. -1.
       -2   -1    0    0    0  501  0.00000000000E+00  0.00000000000E+00 -0.17032533831E+04  0.17032533831E+04  0.25500000920E-02 0.  1.
    10030    2    1    2    0    0  0.00000000000E+00  0.00000000000E+00  0.55159495975E+03  0.39581017260E+04  0.39194785717E+04 0.  0.
        2    1    3    3  502    0  0.18500666489E+04 -0.64491814307E+03  0.23163956968E+03  0.19728970847E+04  0.25500000920E-02 0. -1.
       -2    1    3    3    0  502 -0.18500666489E+04  0.64491814307E+03  0.31995539007E+03  0.19852046414E+04  0.25500000920E-02 0.  1.
</event>
<event>
 5   0  0.8476262E-08  0.3892628E+04  0.7818609E-02  0.8026564E-01
        2   -1    0    0  501    0  0.00000000000E+00  0.00000000000E+00  0.16777117481E+04  0.16777117481E+04  0.25500000920E-02 0. -1.
       -2   -1    0    0    0  501  0.00000000000E+00  0.00000000000E+00 -0.22579195252E+04  0.22579195252E+04  0.25500000920E-02 0.  1.
    10030    2    1    2    0    0  0.00000000000E+00  0.00000000000E+00 -0.58020777707E+03  0.39356312733E+04  0.38926279626E+04 0.  0.
        2    1    3    3  502    0  0.81156390033E+02 -0.85192585045E+03  0.14772850298E+04  0.17072595214E+04  0.25500000920E-02 0. -1.
       -2    1    3    3    0  502 -0.81156390033E+02  0.85192585045E+03 -0.20574928069E+04  0.22283717519E+04  0.25500000920E-02 0.  1.
</event>
<event>
 5   0  0.8676098E-08  0.3896357E+04  0.7818609E-02  0.8025787E-01
        2   -1    0    0  501    0  0.00000000000E+00  0.00000000000E+00  0.21062148133E+04  0.21062148133E+04  0.25500000920E-02 0. -1.
       -2   -1    0    0    0  501  0.00000000000E+00  0.00000000000E+00 -0.18019998194E+04  0.18019998194E+04  0.25500000920E-02 0.  1.
    10030    2    1    2    0    0  0.00000000000E+00  0.00000000000E+00  0.30421499389E+03  0.39082146327E+04  0.38963566126E+04 0.  0.
        3    1    3    3  502    0  0.42277217242E+03 -0.12954182003E+04  0.15486645042E+04  0.20628151590E+04  0.10100000352E+00 0. -1.
       -3    1    3    3    0  502 -0.42277217242E+03  0.12954182003E+04 -0.12444495103E+04  0.18453994737E+04  0.10100000352E+00 0.  1.
</event>
<event>
 5   0  0.8342802E-08  0.3938708E+04  0.7818609E-02  0.8017027E-01
        2   -1    0    0  501    0  0.00000000000E+00  0.00000000000E+00  0.14687270760E+04  0.14687270760E+04  0.25500000920E-02 0.  1.
       -2   -1    0    0    0  501  0.00000000000E+00  0.00000000000E+00 -0.26406230327E+04  0.26406230327E+04  0.25500000920E-02 0. -1.
    10030    2    1    2    0    0  0.00000000000E+00  0.00000000000E+00 -0.11718959566E+04  0.41093501087E+04  0.39387076793E+04 0.  0.
        4    1    3    3  502    0 -0.16859797178E+04  0.71746334154E+03  0.16717886650E+03  0.18398998999E+04  0.12699999809E+01 0. -1.
       -4    1    3    3    0  502  0.16859797178E+04 -0.71746334154E+03 -0.13390748231E+04  0.22694502088E+04  0.12699999809E+01 0.  1.
</event>
<event>
 5   0  0.8551754E-08  0.3895235E+04  0.7818609E-02  0.8026021E-01
       -2   -1    0    0    0  501  0.00000000000E+00  0.00000000000E+00  0.26952363472E+04  0.26952363472E+04  0.25500000920E-02 0. -1.
        2   -1    0    0  501    0  0.00000000000E+00  0.00000000000E+00 -0.14073774472E+04  0.14073774472E+04  0.25500000920E-02 0.  1.
    10030    2    1    2    0    0  0.00000000000E+00  0.00000000000E+00  0.12878589000E+04  0.41026137944E+04  0.38952354742E+04 0.  0.
        1    1    3    3  502    0  0.15777950227E+04 -0.11417530652E+04  0.62989113492E+03  0.20469001044E+04  0.50400001928E-02 0. -1.
       -1    1    3    3    0  502 -0.15777950227E+04  0.11417530652E+04  0.65796776509E+03  0.20557136900E+04  0.50400001928E-02 0.  1.
</event>
<event>
 5   0  0.2632875E-08  0.3915502E+04  0.7818609E-02  0.8021813E-01
        1   -1    0    0  501    0  0.00000000000E+00  0.00000000000E+00  0.16560797686E+04  0.16560797686E+04  0.50400001928E-02 0. -1.
       -1   -1    0    0    0  501  0.00000000000E+00  0.00000000000E+00 -0.23143751601E+04  0.23143751601E+04  0.50400001928E-02 0.  1.
    10030    2    1    2    0    0  0.00000000000E+00  0.00000000000E+00 -0.65829539150E+03  0.39704549288E+04  0.39155024606E+04 0.  0.
        1    1    3    3  502    0 -0.18227810262E+04 -0.71177144842E+03 -0.26796337203E+03  0.19750831965E+04  0.50400001928E-02 0.  1.
       -1    1    3    3    0  502  0.18227810262E+04  0.71177144842E+03 -0.39033201947E+03  0.19953717322E+04  0.50400001928E-02 0. -1.
</event>
<event>
 5   0  0.2632875E-08  0.3900459E+04  0.7818609E-02  0.8024934E-01
        1   -1    0    0  501    0  0.00000000000E+00  0.00000000000E+00  0.18389220907E+04  0.18389220907E+04  0.50400001928E-02 0.  1.
       -1   -1    0    0    0  501  0.00000000000E+00  0.00000000000E+00 -0.20682744792E+04  0.20682744792E+04  0.50400001928E-02 0. -1.
    10030    2    1    2    0    0  0.00000000000E+00  0.00000000000E+00 -0.22935238849E+03  0.39071965700E+04  0.39004592702E+04 0.  0.
        3    1    3    3  502    0  0.27147011408E+03  0.17846150471E+04  0.62473749260E+03  0.19101947111E+04  0.10100000352E+00 0.  1.
       -3    1    3    3    0  502 -0.27147011408E+03 -0.17846150471E+04 -0.85408988109E+03  0.19970018589E+04  0.10100000352E+00 0. -1.
</event>
<event>
 5   0  0.2632875E-08  0.3846370E+04  0.7818609E-02  0.8036277E-01
       -1   -1    0    0    0  501  0.00000000000E+00  0.00000000000E+00  0.19399029236E+04  0.19399029236E+04  0.50400001928E-02 0. -1.
        1   -1    0    0  501    0  0.00000000000E+00  0.00000000000E+00 -0.19066114336E+04  0.19066114336E+04  0.50400001928E-02 0.  1.
    10030    2    1    2    0    0  0.00000000000E+00  0.00000000000E+00  0.33291490016E+02  0.38465143572E+04  0.38463702860E+04 0.  0.
        1    1    3    3  502    0 -0.26427883117E+03 -0.16648219053E+04 -0.90922143284E+03  0.19152438203E+04  0.50400001928E-02 0. -1.
       -1    1    3    3    0  502  0.26427883117E+03  0.16648219053E+04  0.94251292285E+03  0.19312705369E+04  0.50400001928E-02 0.  1.
</event>
<event>
 5   0  0.8342802E-08  0.3900293E+04  0.7818609E-02  0.8024968E-01
        2   -1    0    0  501    0  0.00000000000E+00  0.00000000000E+00  0.30202009904E+04  0.30202009904E+04  0.25500000920E-02 0.  1.
       -2   -1    0    0    0  501  0.00000000000E+00  0.00000000000E+00 -0.12592110375E+04  0.12592110375E+04  0.25500000920E-02 0. -1.
    10030    2    1    2    0    0  0.00000000000E+00  0.00000000000E+00  0.17609899529E+04  0.42794120280E+04  0.39002925135E+04 0.  0.
        4    1    3    3  502    0  0.97130515191E+03  0.14584858990E+04 -0.58529903764E+02  0.17532946638E+04  0.12699999809E+01 0. -1.
       -4    1    3    3    0  502 -0.97130515191E+03 -0.14584858990E+04  0.18195198566E+04  0.25261173641E+04  0.12699999809E+01 0.  1.
</event>
<event>
 5   0  0.8476262E-08  0.3743052E+04  0.7818609E-02  0.8058487E-01
       -2   -1    0    0    0  501  0.00000000000E+00  0.00000000000E+00  0.18267495820E+04  0.18267495820E+04  0.25500000920E-02 0.  1.
        2   -1    0    0  501    0  0.00000000000E+00  0.00000000000E+00 -0.19174000851E+04  0.19174000851E+04  0.25500000920E-02 0. -1.
    10030    2    1    2    0    0  0.00000000000E+00  0.00000000000E+00 -0.90650503073E+02  0.37441496671E+04  0.37430521257E+04 0.  0.
        2    1    3    3  502    0  0.38162572200E+03  0.18311122161E+04  0.17936190737E+02  0.18705431956E+04  0.25500000920E-02 0.  1.
       -2    1    3    3    0  502 -0.38162572200E+03 -0.18311122161E+04 -0.10858669381E+03  0.18736064714E+04  0.25500000920E-02 0. -1.
</event>
<event>
 5   0  0.8476262E-08  0.3920612E+04  0.7818609E-02  0.8020756E-01
        2   -1    0    0  501    0  0.00000000000E+00  0.00000000000E+00  0.21668815408E+04  0.21668815408E+04  0.25500000920E-02 0. -1.
       -2   -1    0    0    0  501  0.00000000000E+00  0.00000000000E+00 -0.17734238469E+04  0.17734238469E+04  0.25500000920E-02 0.  1.
    10030    2    1    2    0    0  0.00000000000E+00  0.00000000000E+00  0.39345769383E+03  0.39403053877E+04  0.39206118899E+04 0.  0.
        2    1    3    3  502    0 -0.83588567612E+03  0.12920864832E+03  0.19740574170E+04  0.21476271613E+04  0.25500000920E-02 0. -1.
       -2    1    3    3    0  502  0.83588567612E+03 -0.12920864832E+03 -0.15805997232E+04  0.17926782264E+04  0.25500000920E-02 0.  1.
</event>
<event>
 5   0  0.8551754E-08  0.3916869E+04  0.7818609E-02  0.8021530E-01
       -2   -1    0    0    0  501  0.00000000000E+00  0.00000000000E+00  0.14193331750E+04  0.14193331750E+04  0.25500000920E-02 0.  1.
        2   -1    0    0  501    0  0.00000000000E+00  0.00000000000E+00 -0.27023006597E+04  0.27023006597E+04  0.25500000920E-02 0. -1.
    10030    2    1    2    0    0  0.00000000000E+00  0.00000000000E+00 -0.12829674847E+04  0.41216338347E+04  0.39168686346E+04 0.  0.
        1    1    3    3  502    0  0.32294310765E+03 -0.10734039011E+04  0.10483894520E+04  0.15347992145E+04  0.50400001928E-02 0.  1.
       -1    1    3    3    0  502 -0.32294310765E+03  0.10734039011E+04 -0.23313569368E+04  0.25868346202E+04  0.50400001928E-02 0. -1.
</event>
<event>
 5   0  0.8438211E-08  0.3925076E+04  0.7818609E-02  0.8019834E-01
        2   -1    0    0  501    0  0.00000000000E+00  0.00000000000E+00  0.24786283745E+04  0.24786283745E+04  0.25500000920E-02 0. -1.
       -2   -1    0    0    0  501  0.00000000000E+00  0.00000000000E+00 -0.15539056240E+04  0.15539056240E+04  0.25500000920E-02 0.  1.
    10030    2    1    2    0    0  0.00000000000E+00  0.00000000000E+00  0.92472275047E+03  0.40325339985E+04  0.39250755768E+04 0.  0.
        5    1    3    3  502    0  0.15189552508E+03  0.17401640799E+04  0.13814417521E+04  0.22270264211E+04  0.46999998093E+01 0. -1.
       -5    1    3    3    0  502 -0.15189552508E+03 -0.17401640799E+04 -0.45671900167E+03  0.18055075774E+04  0.46999998093E+01 0.  1.
</event>
<event>
 5   0  0.2632875E-08  0.3878072E+04  0.7818609E-02  0.8029605E-01
       -1   -1    0    0    0  501  0.00000000000E+00  0.00000000000E+00  0.27993016813E+04  0.27993016813E+04  0.50400001928E-02 0.  1.
        1   -1    0    0  501    0  0.00000000000E+00  0.00000000000E+00 -0.13431422895E+04  0.13431422895E+04  0.50400001928E-02 0. -1.
    10030    2    1    2    0    0  0.00000000000E+00  0.00000000000E+00  0.14561593917E+04  0.41424439708E+04  0.38780719278E+04 0.  0.
        2    1    3    3  502    0 -0.26870492929E+03 -0.15378072189E+04  0.19566189563E+04  0.25030803267E+04  0.25500000920E-02 0.  1.
       -2    1    3    3    0  502  0.26870492929E+03  0.15378072189E+04 -0.50045956462E+03  0.16393636441E+04  0.25500000920E-02 0. -1.
</event>
<event>
 5   0  0.2632875E-08  0.3902698E+04  0.7818609E-02  0.8024468E-01
        1   -1    0    0  501    0  0.00000000000E+00  0.00000000000E+00  0.22865765793E+04  0.22865765793E+04  0.50400001928E-02 0. -1.
       -1   -1    0    0    0  501  0.00000000000E+00  0.00000000000E+00 -0.16652681931E+04  0.16652681931E+04  0.50400001928E-02 0.  1.
    10030    2    1    2    0    0  0.00000000000E+00  0.00000000000E+00  0.62130838617E+03  0.39518447724E+04  0.39026981685E+04 0.  0.
        3    1    3    3  502    0 -0.16182991031E+04  0.46221026080E+03  0.13106290734E+04  0.21331382727E+04  0.10100000352E+00 0. -1.
       -3    1    3    3    0  502  0.16182991031E+04 -0.46221026080E+03 -0.68932068719E+03  0.18187064997E+04  0.10100000352E+00 0.  1.
</event>
<event>
 5   0  0.2632875E-08  0.3897286E+04  0.7818609E-02  0.8025594E-01
        1   -1    0    0  501    0  0.00000000000E+00  0.00000000000E+00  0.18412188912E+04  0.18412188912E+04  0.50400001928E-02 0. -1.
       -1   -1    0    0    0  501  0.00000000000E+00  0.00000000000E+00 -0.20623345569E+04  0.20623345569E+04  0.50400001928E-02 0.  1.
    10030    2    1    2    0    0  0.00000000000E+00  0.00000000000E+00 -0.22111566570E+03  0.39035534482E+04  0.38972858998E+04 0.  0.
        1    1    3    3  502    0  0.92106207914E+03  0.13574245958E+04  0.94291899789E+03  0.18921028311E+04  0.50400001928E-02 0. -1.
       -1    1    3    3    0  502 -0.92106207914E+03 -0.13574245958E+04 -0.11640346636E+04  0.20114506171E+04  0.50400001928E-02 0.  1.
</event>
<event>
 5   0  0.2632875E-08  0.3897652E+04  0.7818609E-02  0.8025518E-01
       -1   -1    0    0    0  501  0.00000000000E+00  0.00000000000E+00  0.27234601340E+04  0.27234601340E+04  0.50400001928E-02 0. -1.
        1   -1    0    0  501    0  0.00000000000E+00  0.00000000000E+00 -0.13945211239E+04  0.13945211239E+04  0.50400001928E-02 0.  1.
    10030    2    1    2    0    0  0.00000000000E+00  0.00000000000E+00  0.13289390101E+04  0.41179812579E+04  0.38976519532E+04 0.  0.
        2    1    3    3  502    0  0.33886437427E+03 -0.12125496496E+04  0.22361130635E+04  0.25661853693E+04  0.25500000920E-02 0. -1.
       -2    1    3    3    0  502 -0.33886437427E+03  0.12125496496E+04 -0.90717405334E+03  0.15517958886E+04  0.25500000920E-02 0.  1.
</event>
<event>
 5   0  0.8676098E-08  0.3867561E+04  0.7818609E-02  0.8031810E-01
        2   -1    0    0  501    0  0.00000000000E+00  0.00000000000E+00  0.13484328832E+04  0.13484328832E+04  0.25500000920E-02 0.  1.
       -2   -1    0    0    0  501  0.00000000000E+00  0.00000000000E+00 -0.27732241620E+04  0.27732241620E+04  0.25500000920E-02 0. -1.
    10030    2    1    2    0    0  0.00000000000E+00  0.00000000000E+00 -0.14247912788E+04  0.41216570453E+04  0.38675608089E+04 0.  0.
        3    1    3    3  502    0 -0.18045368668E+04  0.67951357770E+03 -0.86834731857E+03  0.21147385375E+04  0.10100000352E+00 0.  1.
       -3    1    3    3    0  502  0.18045368668E+04 -0.67951357770E+03 -0.55644396023E+03  0.20069185078E+04  0.10100000352E+00 0. -1.
</event>
<event>
 5   0  0.2632875E-08  0.3889453E+04  0.7818609E-02  0.8027226E-01
        1   -1    0    0  501    0  0.00000000000E+00  0.00000000000E+00  0.18302482210E+04  0.18302482210E+04  0.50400001928E-02 0.  1.
       -1   -1    0    0    0  501  0.00000000000E+00  0.00000000000E+00 -0.20663653330E+04  0.20663653330E+04  0.50400001928E-02 0. -1.
    10030    2    1    2    0    0  0.00000000000E+00  0.00000000000E+00 -0.23611711203E+03  0.38966135540E+04  0.38894531619E+04 0.  0.
        2    1    3    3  502    0 -0.96534769799E+03  0.10071358740E+04  0.12393315750E+04  0.18660550902E+04  0.25500000920E-02 0.  1.
       -2    1    3    3    0  502  0.96534769799E+03 -0.10071358740E+04 -0.14754486871E+04  0.20305584638E+04  0.25500000920E-02 0. -1.
</event>
<event>
 5   0  0.8438211E-08  0.3907438E+04  0.7818609E-02  0.8023484E-01
       -2   -1    0    0    0  501  0.00000000000E+00  0.00000000000E+00  0.18408447493E+04  0.18408447493E+04  0.25500000920E-02 0. -1.
        2   -1    0    0  501    0  0.00000000000E+00  0.00000000000E+00 -0.20735137893E+04  0.20735137893E+04  0.25500000920E-02 0.  1.
    10030    2    1    2    0    0  0.00000000000E+00  0.00000000000E+00 -0.23266904001E+03  0.39143585385E+04  0.39074375089E+04 0.  0.
        5    1    3    3  502    0  0.53325360113E+03 -0.67040201913E+03 -0.18753480157E+04  0.20617348375E+04  0.46999998093E+01 0.  1.
       -5    1    3    3    0  502 -0.53325360113E+03  0.67040201913E+03  0.16426789757E+04  0.18526237010E+04  0.46999998093E+01 0. -1.
</event>
<event>
 5   0  0.8551754E-08  0.3871723E+04  0.7818609E-02  0.8030936E-01
        2   -1    0    0  501    0  0.00000000000E+00  0.00000000000E+00  0.21721749515E+04  0.21721749515E+04  0.25500000920E-02 0. -1.
       -2   -1    0    0    0  501  0.00000000000E+00  0.00000000000E+00 -0.17252566863E+04  0.17252566863E+04  0.25500000920E-02 0.  1.
    10030    2    1    2    0    0  0.00000000000E+00  0.00000000000E+00  0.44691826514E+03  0.38974316378E+04  0.38717227994E+04 0.  0.
        1    1    3    3  502    0 -0.15419174701E+03  0.16214852501E+04  0.12766230968E+04  0.20694820710E+04  0.50400001928E-02 0. -1.
       -1    1    3    3    0  502  0.15419174701E+03 -0.16214852501E+04 -0.82970483166E+03  0.18279495668E+04  0.50400001928E-02 0.  1.
</event>
<event>
 5   0  0.2632875E-08  0.3885584E+04  0.7818609E-02  0.8028034E-01
        1   -1    0    0  501    0  0.00000000000E+00  0.00000000000E+00  0.20915364038E+04  0.20915364038E+04  0.50400001928E-02 0.  1.
       -1   -1    0    0    0  501  0.00000000000E+00  0.00000000000E+00 -0.18046256031E+04  0.18046256031E+04  0.50400001928E-02 0. -1.
    10030    2    1    2    0    0  0.00000000000E+00  0.00000000000E+00  0.28691080065E+03  0.38961620069E+04  0.38855836854E+04 0.  0.
        5    1    3    3  502    0  0.42961898994E+02  0.17895718876E+04  0.90049743126E+03  0.20038290793E+04  0.46999998093E+01 0.  1.
       -5    1    3    3    0  502 -0.42961898994E+02 -0.17895718876E+04 -0.61358663061E+03  0.18923329276E+04  0.46999998093E+01 0. -1.
</event>
<event>
 5   0  0.2632875E-08  0.3831805E+04  0.7818609E-02  0.8039364E-01
       -1   -1    0    0    0  501  0.00000000000E+00  0.00000000000E+00  0.17117606970E+04  0.17117606970E+04  0.50400001928E-02 0. -1.
        1   -1    0    0  501    0  0.00000000000E+00  0.00000000000E+00 -0.21443904631E+04  0.21443904631E+04  0.50400001928E-02 0.  1.
    10030    2    1    2    0    0  0.00000000000E+00  0.00000000000E+00 -0.43262976612E+03  0.38561511602E+04  0.38318054825E+04 0.  0.
        3    1    3    3  502    0  0.74974901757E+03  0.57776752205E+03  0.14600250376E+04  0.17400034538E+04  0.10100000352E+00 0. -1.
       -3    1    3    3    0  502 -0.74974901757E+03 -0.57776752205E+03 -0.18926548037E+04  0.21161477063E+04  0.10100000352E+00 0.  1.
</event>
<event>
 5   0  0.2632875E-08  0.3820320E+04  0.7818609E-02  0.8041808E-01
       -1   -1    0    0    0  501  0.00000000000E+00  0.00000000000E+00  0.24847413657E+04  0.24847413657E+04  0.50400001928E-02 0.  1.
        1   -1    0    0  501    0  0.00000000000E+00  0.00000000000E+00 -0.14684474565E+04  0.14684474565E+04  0.50400001928E-02 0. -1.
    10030    2    1    2    0    0  0.00000000000E+00  0.00000000000E+00  0.10162939092E+04  0.39531888223E+04  0.38203204780E+04 0.  0.
        1    1    3    3  502    0  0.13209537704E+04 -0.12534285071E+04  0.11050184713E+04  0.21300393677E+04  0.50400001928E-02 0.  1.
       -1    1    3    3    0  502 -0.13209537704E+04  0.12534285071E+04 -0.88724562121E+02  0.18231494546E+04  0.50400001928E-02 0. -1.
</event>
<event>
 5   0  0.2632875E-08  0.3919191E+04  0.7818609E-02  0.8021050E-01
       -3   -1    0    0    0  501  0.00000000000E+00  0.00000000000E+00  0.23940662099E+04  0.23940662120E+04  0.10100000352E+00 0. -1.
        3   -1    0    0  501    0  0.00000000000E+00  0.00000000000E+00 -0.16039715188E+04  0.16039715220E+04  0.10100000352E+00 0.  1.
    10030    2    1    2    0    0  0.00000000000E+00  0.00000000000E+00  0.79009469103E+03  0.39980377340E+04  0.39191907458E+04 0.  0.
        2    1    3    3  502    0  0.13649886999E+04  0.83635432545E+03  0.15479755611E+04  0.22268612544E+04  0.25500000920E-02 0. -1.
       -2    1    3    3    0  502 -0.13649886999E+04 -0.83635432545E+03 -0.75788087008E+03  0.17711764796E+04  0.25500000920E-02 0.  1.
</event>
<event>
 5   0  0.8476262E-08  0.3900239E+04  0.7818609E-02  0.8024979E-01
       -2   -1    0    0    0  501  0.00000000000E+00  0.00000000000E+00  0.14489820348E+04  0.14489820348E+04  0.25500000920E-02 0. -1.
        2   -1    0    0  501    0  0.00000000000E+00  0.00000000000E+00 -0.26245784057E+04  0.26245784057E+04  0.25500000920E-02 0.  1.
    10030    2    1    2    0    0  0.00000000000E+00  0.00000000000E+00 -0.11755963710E+04  0.40735604405E+04  0.39002394587E+04 0.  0.
        2    1    3    3  502    0 -0.17503034855E+04  0.11552315344E+02 -0.14858156645E+04  0.22959407519E+04  0.25500000920E-02 0.  1.
       -2    1    3    3    0  502  0.17503034855E+04 -0.11552315344E+02  0.31021929354E+03  0.17776196886E+04  0.25500000920E-02 0. -1.
</event>
<event>
 5   0  0.2632875E-08  0.3898193E+04  0.7818609E-02  0.8025405E-01
       -1   -1    0    0    0  501  0.00000000000E+00  0.00000000000E+00  0.14748703131E+04  0.14748703131E+04  0.50400001928E-02 0. -1.
        1   -1    0    0  501    0  0.00000000000E+00  0.00000000000E+00 -0.25758041505E+04  0.25758041505E+04  0.50400001928E-02 0.  1.
    10030    2    1    2    0    0  0.00000000000E+00  0.00000000000E+00 -0.11009338374E+04  0.40506744637E+04  0.38981929527E+04 0.  0.
        2    1    3    3  502    0 -0.32617664452E+03  0.39605255955E+03 -0.25043719390E+04  0.25563895717E+04  0.25500000920E-02 0.  1.
       -2    1    3    3    0  502  0.32617664452E+03 -0.39605255955E+03  0.14034381016E+04  0.14942848920E+04  0.25500000920E-02 0. -1.
</event>
<event>
 5   0  0.8438211E-08  0.3903753E+04  0.7818609E-02  0.8024249E-01
       -2   -1    0    0    0  501  0.00000000000E+00  0.00000000000E+00  0.13220459669E+04  0.13220459669E+04  0.25500000920E-02 0.  1.
        2   -1    0    0  501    0  0.00000000000E+00  0.00000000000E+00 -0.28817619086E+04  0.28817619086E+04  0.25500000920E-02 0. -1.
    10030    2    1    2    0    0  0.00000000000E+00  0.00000000000E+00 -0.15597159417E+04  0.42038078755E+04  0.39037529168E+04 0.  0.
        5    1    3    3  502    0  0.15688302955E+04 -0.63639180399E+03 -0.18258999593E+04  0.24900111999E+04  0.46999998093E+01 0. -1.
       -5    1    3    3    0  502 -0.15688302955E+04  0.63639180399E+03  0.26618401755E+03  0.17137966756E+04  0.46999998093E+01 0.  1.
</event>
<event>
 5   0  0.2632875E-08  0.3904156E+04  0.7818609E-02  0.8024165E-01
       -1   -1    0    0    0  501  0.00000000000E+00  0.00000000000E+00  0.12384849044E+04  0.12384849044E+04  0.50400001928E-02 0.  1.
        1   -1    0    0  501    0  0.00000000000E+00  0.00000000000E+00 -0.30768300402E+04  0.30768300402E+04  0.50400001928E-02 0. -1.
    10030    2    1    2    0    0  0.00000000000E+00  0.00000000000E+00 -0.18383451357E+04  0.43153149446E+04  0.39041555083E+04 0.  0.
        3    1    3    3  502    0  0.97147364814E+02 -0.19435651472E+04 -0.10894211579E+04  0.22301841989E+04  0.10100000352E+00 0.  1.
       -3    1    3    3    0  502 -0.97147364814E+02  0.19435651472E+04 -0.74892397789E+03  0.20851307457E+04  0.10100000352E+00 0. -1.
</event>
<event>
 5   0  0.8676098E-08  0.3775229E+04  0.7818609E-02  0.8051492E-01
       -2   -1    0    0    0  501  0.00000000000E+00  0.00000000000E+00  0.17999091481E+04  0.17999091481E+04  0.25500000920E-02 0. -1.
        2   -1    0    0  501    0  0.00000000000E+00  0.00000000000E+00 -0.19795938323E+04  0.19795938323E+04  0.25500000920E-02 0.  1.
    10030    2    1    2    0    0  0.00000000000E+00  0.00000000000E+00 -0.17968468423E+03  0.37795029805E+04  0.37752292902E+04 0.  0.
        3    1    3    3  502    0  0.99792026667E+03 -0.16017344913E+04 -0.48676467120E+02  0.18877943871E+04  0.10100000352E+00 0.  1.
       -3    1    3    3    0  502 -0.99792026667E+03  0.16017344913E+04 -0.13100821711E+03  0.18917085934E+04  0.10100000352E+00 0. -1.
</event>
<event>
 5   0  0.8438211E-08  0.3849852E+04  0.7818609E-02  0.8035541E-01
       -2   -1    0    0    0  501  0.00000000000E+00  0.00000000000E+00  0.18307787710E+04  0.18307787710E+04  0.25500000920E-02 0. -1.
        2   -1    0    0  501    0  0.00000000000E+00  0.00000000000E+00 -0.20239147597E+04  0.20239147597E+04  0.25500000920E-02 0.  1.
    10030    2    1    2    0    0  0.00000000000E+00  0.00000000000E+00 -0.19313598868E+03  0.38546935306E+04  0.38498520368E+04 0.  0.
        5    1    3    3  502    0 -0.14585829851E+03 -0.17145662162E+03 -0.20106849875E+04  0.20232518937E+04  0.46999998093E+01 0.  1.
       -5    1    3    3    0  502  0.14585829851E+03  0.17145662162E+03  0.18175489988E+04  0.18314416369E+04  0.46999998093E+01 0. -1.
</event>
<event>
 5   0  0.8438211E-08  0.3886641E+04  0.7818609E-02  0.8027813E-01
       -2   -1    0    0    0  501  0.00000000000E+00  0.00000000000E+00  0.14463530798E+04  0.14463530798E+04  0.25500000920E-02 0. -1.
        2   -1    0    0  501    0  0.00000000000E+00  0.00000000000E+00 -0.26110459887E+04  0.26110459887E+04  0.25500000920E-02 0.  1.
    10030    2    1    2    0    0  0.00000000000E+00  0.00000000000E+00 -0.11646929089E+04  0.40573990685E+04  0.38866409184E+04 0.  0.
        5    1    3    3  502    0  0.26426024605E+02 -0.15130664406E+04  0.69039951045E+03  0.16633526272E+04  0.46999998093E+01 0. -1.
       -5    1    3    3    0  502 -0.26426024605E+02  0.15130664406E+04 -0.18550924193E+04  0.23940464412E+04  0.46999998093E+01 0.  1.
</event>
<event>
 5   0  0.8676098E-08  0.3896440E+04  0.7818609E-02  0.8025770E-01
        2   -1    0    0  501    0  0.00000000000E+00  0.00000000000E+00  0.22265058692E+04  0.22265058692E+04  0.25500000920E-02 0.  1.
       -2   -1    0    0    0  501  0.00000000000E+00  0.00000000000E+00 -0.17047168342E+04  0.17047168342E+04  0.25500000920E-02 0. -1.
    10030    2    1    2    0    0  0.00000000000E+00  0.00000000000E+00  0.52178903498E+03  0.39312227034E+04  0.38964404456E+04 0.  0.
        3    1    3    3  502    0  0.13681994029E+04 -0.10450109158E+04  0.11809253459E+04  0.20877265393E+04  0.10100000352E+00 0.  1.
       -3    1    3    3    0  502 -0.13681994029E+04  0.10450109158E+04 -0.65913631092E+03  0.18434961640E+04  0.10100000352E+00 0. -1.
</event>
<event>
 5   0  0.2632875E-08  0.3908640E+04  0.7818609E-02  0.8023235E-01
        1   -1    0    0  501    0  0.00000000000E+00  0.00000000000E+00  0.19654128116E+04  0.19654128116E+04  0.50400001928E-02 0. -1.
       -1   -1    0    0    0  501  0.00000000000E+00  0.00000000000E+00 -0.19432898845E+04  0.19432898845E+04  0.50400001928E-02 0.  1.
    10030    2    1    2    0    0  0.00000000000E+00  0.00000000000E+00  0.22122927021E+02  0.39087026961E+04  0.39086400886E+04 0.  0.
        1    1    3    3  502    0 -0.59537808409E+03 -0.78122138808E+02  0.18708731498E+04  0.19648777251E+04  0.50400001928E-02 0. -1.
       -1    1    3    3    0  502  0.59537808409E+03  0.78122138808E+02 -0.18487502228E+04  0.19438249710E+04  0.50400001928E-02 0.  1.
</event>
<event>
 5   0  0.2632875E-08  0.3889480E+04  0.7818609E-02  0.8027221E-01
        1   -1    0    0  501    0  0.00000000000E+00  0.00000000000E+00  0.17417756915E+04  0.17417756915E+04  0.50400001928E-02 0.  1.
       -1   -1    0    0    0  501  0.00000000000E+00  0.00000000000E+00 -0.21713551977E+04  0.21713551977E+04  0.50400001928E-02 0. -1.
    10030    2    1    2    0    0  0.00000000000E+00  0.00000000000E+00 -0.42957950620E+03  0.39131308892E+04  0.38894800172E+04 0.  0.
        4    1    3    3  502    0 -0.92680146504E+03 -0.13049891257E+04 -0.13260670662E+04  0.20785603313E+04  0.12699999809E+01 0.  1.
       -4    1    3    3    0  502  0.92680146504E+03  0.13049891257E+04  0.89648755997E+03  0.18345705579E+04  0.12699999809E+01 0. -1.
</event>
<event>
 5   0  0.2632875E-08  0.3901484E+04  0.7818609E-02  0.8024721E-01
        3   -1    0    0  501    0  0.00000000000E+00  0.00000000000E+00  0.13953798275E+04  0.13953798312E+04  0.10100000352E+00 0. -1.
       -3   -1    0    0    0  501  0.00000000000E+00  0.00000000000E+00 -0.27271385283E+04  0.27271385301E+04  0.10100000352E+00 0.  1.
    10030    2    1    2    0    0  0.00000000000E+00  0.00000000000E+00 -0.13317587008E+04  0.41225183613E+04  0.39014838718E+04 0.  0.
        4    1    3    3  502    0 -0.10722096942E+03  0.21878978517E+03 -0.27109967555E+04  0.27219240121E+04  0.12699999809E+01 0.  1.
       -4    1    3    3    0  502  0.10722096942E+03 -0.21878978517E+03  0.13792380548E+04  0.14005943492E+04  0.12699999809E+01 0. -1.
</event>
<event>
 5   0  0.8476262E-08  0.3846492E+04  0.7818609E-02  0.8036251E-01
       -2   -1    0    0    0  501  0.00000000000E+00  0.00000000000E+00  0.16156817267E+04  0.16156817267E+04  0.25500000920E-02 0. -1.
        2   -1    0    0  501    0  0.00000000000E+00  0.00000000000E+00 -0.22893587307E+04  0.22893587307E+04  0.25500000920E-02 0.  1.
    10030    2    1    2    0    0  0.00000000000E+00  0.00000000000E+00 -0.67367700407E+03  0.39050404574E+04  0.38464919431E+04 0.  0.
        2    1    3    3  502    0  0.15390870855E+04  0.11213090560E+04 -0.61066988039E+03  0.19997601753E+04  0.25500000920E-02 0. -1.
       -2    1    3    3    0  502 -0.15390870855E+04 -0.11213090560E+04 -0.63007123675E+02  0.19052802821E+04  0.25500000920E-02 0.  1.
</event>
<event>
 5   0  0.2632875E-08  0.3884415E+04  0.7818609E-02  0.8028278E-01
       -1   -1    0    0    0  501  0.00000000000E+00  0.00000000000E+00  0.14347984208E+04  0.14347984208E+04  0.50400001928E-02 0.  1.
        1   -1    0    0  501    0  0.00000000000E+00  0.00000000000E+00 -0.26290592691E+04  0.26290592691E+04  0.50400001928E-02 0. -1.
    10030    2    1    2    0    0  0.00000000000E+00  0.00000000000E+00 -0.11942608483E+04  0.40638576899E+04  0.38844150589E+04 0.  0.
        3    1    3    3  502    0 -0.16913054621E+04  0.51855066285E+03  0.24162948089E+03  0.17854393780E+04  0.10100000352E+00 0.  1.
       -3    1    3    3    0  502  0.16913054621E+04 -0.51855066285E+03 -0.14358903292E+04  0.22784183119E+04  0.10100000352E+00 0. -1.
</event>
<event>
 5   0  0.2632875E-08  0.3896977E+04  0.7818609E-02  0.8025658E-01
        1   -1    0    0  501    0  0.00000000000E+00  0.00000000000E+00  0.16892108122E+04  0.16892108122E+04  0.50400001928E-02 0. -1.
       -1   -1    0    0    0  501  0.00000000000E+00  0.00000000000E+00 -0.22475623574E+04  0.22475623574E+04  0.50400001928E-02 0.  1.
    10030    2    1    2    0    0  0.00000000000E+00  0.00000000000E+00 -0.55835154526E+03  0.39367731696E+04  0.38969765897E+04 0.  0.
        1    1    3    3  502    0  0.54778581514E+03  0.11476809191E+04 -0.17705192029E+04  0.21799034472E+04  0.50400001928E-02 0.  1.
       -1    1    3    3    0  502 -0.54778581514E+03 -0.11476809191E+04  0.12121676576E+04  0.17568697224E+04  0.50400001928E-02 0. -1.
</event>
<event>
 5   0  0.8342802E-08  0.3915281E+04  0.7818609E-02  0.8021859E-01
        2   -1    0    0  501    0  0.00000000000E+00  0.00000000000E+00  0.19187360569E+04  0.19187360569E+04  0.25500000920E-02 0. -1.
       -2   -1    0    0    0  501  0.00000000000E+00  0.00000000000E+00 -0.19973335647E+04  0.19973335647E+04  0.25500000920E-02 0.  1.
    10030    2    1    2    0    0  0.00000000000E+00  0.00000000000E+00 -0.78597507827E+02  0.39160696216E+04  0.39152807962E+04 0.  0.
        4    1    3    3  502    0 -0.13354573984E+04 -0.47315792312E+03 -0.13905074337E+04  0.19851542558E+04  0.12699999809E+01 0.  1.
       -4    1    3    3    0  502  0.13354573984E+04  0.47315792312E+03  0.13119099259E+04  0.19309153658E+04  0.12699999809E+01 0. -1.
</event>
<event>
 5   0  0.2632875E-08  0.3852019E+04  0.7818609E-02  0.8035083E-01
       -1   -1    0    0    0  501  0.00000000000E+00  0.00000000000E+00  0.18268171417E+04  0.18268171417E+04  0.50400001928E-02 0. -1.
        1   -1    0    0  501    0  0.00000000000E+00  0.00000000000E+00 -0.20305878133E+04  0.20305878133E+04  0.50400001928E-02 0.  1.
    10030    2    1    2    0    0  0.00000000000E+00  0.00000000000E+00 -0.20377067156E+03  0.38574049550E+04  0.38520190160E+04 0.  0.
        4    1    3    3  502    0  0.13860254706E+04 -0.13285975744E+04  0.50882521948E+02  0.19206323865E+04  0.12699999809E+01 0.  1.
       -4    1    3    3    0  502 -0.13860254706E+04  0.13285975744E+04 -0.25465319351E+03  0.19367725685E+04  0.12699999809E+01 0. -1.
</event>
<event>
 5   0  0.2632875E-08  0.3909232E+04  0.7818609E-02  0.8023112E-01
       -1   -1    0    0    0  501  0.00000000000E+00  0.00000000000E+00  0.16109193849E+04  0.16109193849E+04  0.50400001928E-02 0.  1.
        1   -1    0    0  501    0  0.00000000000E+00  0.00000000000E+00 -0.23716422572E+04  0.23716422572E+04  0.50400001928E-02 0. -1.
    10030    2    1    2    0    0  0.00000000000E+00  0.00000000000E+00 -0.76072287223E+03  0.39825616421E+04  0.39092323984E+04 0.  0.
        4    1    3    3  502    0  0.10907144566E+03  0.19505261801E+04 -0.44538592427E+03  0.20037013734E+04  0.12699999809E+01 0.  1.
       -4    1    3    3    0  502 -0.10907144566E+03 -0.19505261801E+04 -0.31533694795E+03  0.19788602687E+04  0.12699999809E+01 0. -1.
</event>
<event>
 5   0  0.2632875E-08  0.3925883E+04  0.7818609E-02  0.8019667E-01
        1   -1    0    0  501    0  0.00000000000E+00  0.00000000000E+00  0.11593487511E+04  0.11593487511E+04  0.50400001928E-02 0. -1.
       -1   -1    0    0    0  501  0.00000000000E+00  0.00000000000E+00 -0.33235383787E+04  0.33235383787E+04  0.50400001928E-02 0.  1.
    10030    2    1    2    0    0  0.00000000000E+00  0.00000000000E+00 -0.21641896276E+04  0.44828871297E+04  0.39258833750E+04 0.  0.
        3    1    3    3  502    0 -0.64773575643E+03  0.91069729051E+03  0.76062081444E+03  0.13518414103E+04  0.10100000352E+00 0. -1.
       -3    1    3    3    0  502  0.64773575643E+03 -0.91069729051E+03 -0.29248104420E+04  0.31310457194E+04  0.10100000352E+00 0.  1.
</event>
<event>
 5   0  0.8551754E-08  0.3893669E+04  0.7818609E-02  0.8026347E-01
       -2   -1    0    0    0  501  0.00000000000E+00  0.00000000000E+00  0.25162355265E+04  0.25162355265E+04  0.25500000920E-02 0.  1.
        2   -1    0    0  501    0  0.00000000000E+00  0.00000000000E+00 -0.15062840817E+04  0.15062840817E+04  0.25500000920E-02 0. -1.
    10030    2    1    2    0    0  0.00000000000E+00  0.00000000000E+00  0.10099514448E+04  0.40225196082E+04  0.38936694874E+04 0.  0.
        1    1    3    3  502    0  0.38017423362E+03  0.10506072859E+04  0.21520556608E+04  0.24247993081E+04  0.50400001928E-02 0.  1.
       -1    1    3    3    0  502 -0.38017423362E+03 -0.10506072859E+04 -0.11421042160E+04  0.15977203001E+04  0.50400001928E-02 0. -1.
</event>
<event>
 5   0  0.2632875E-08  0.3891866E+04  0.7818609E-02  0.8026723E-01
        1   -1    0    0  501    0  0.00000000000E+00  0.00000000000E+00  0.27987613952E+04  0.27987613952E+04  0.50400001928E-02 0. -1.
       -1   -1    0    0    0  501  0.00000000000E+00  0.00000000000E+00 -0.13529750933E+04  0.13529750933E+04  0.50400001928E-02 0.  1.
    10030    2    1    2    0    0  0.00000000000E+00  0.00000000000E+00  0.14457863019E+04  0.41517364885E+04  0.38918655988E+04 0.  0.
        3    1    3    3  502    0 -0.54424241809E+03 -0.50515463321E+03  0.26416831356E+04  0.27440610074E+04  0.10100000352E+00 0. -1.
       -3    1    3    3    0  502  0.54424241809E+03  0.50515463321E+03 -0.11958968337E+04  0.14076754811E+04  0.10100000352E+00 0.  1.
</event>
<event>
 5   0  0.8476262E-08  0.3922883E+04  0.7818609E-02  0.8020287E-01
        2   -1    0    0  501    0  0.00000000000E+00  0.00000000000E+00  0.24091261058E+04  0.24091261058E+04  0.25500000920E-02 0.  1.
       -2   -1    0    0    0  501  0.00000000000E+00  0.00000000000E+00 -0.15969497754E+04  0.15969497754E+04  0.25500000920E-02 0. -1.
    10030    2    1    2    0    0  0.00000000000E+00  0.00000000000E+00  0.81217633037E+03  0.40060758812E+04  0.39228833241E+04 0.  0.
        2    1    3    3  502    0 -0.16025879230E+04 -0.92584140446E+03 -0.25713293442E+03  0.18685790599E+04  0.25500000920E-02 0. -1.
       -2    1    3    3    0  502  0.16025879230E+04  0.92584140446E+03  0.10693092648E+04  0.21374968213E+04  0.25500000920E-02 0.  1.
</event>
<event>
 5   0  0.8676098E-08  0.3800245E+04  0.7818609E-02  0.8046102E-01
        2   -1    0    0  501    0  0.00000000000E+00  0.00000000000E+00  0.26071889945E+04  0.26071889945E+04  0.25500000920E-02 0.  1.
       -2   -1    0    0    0  501  0.00000000000E+00  0.00000000000E+00 -0.13848117003E+04  0.13848117003E+04  0.25500000920E-02 0. -1.
    10030    2    1    2    0    0  0.00000000000E+00  0.00000000000E+00  0.12223772942E+04  0.39920006947E+04  0.38002451628E+04 0.  0.
        3    1    3    3  502    0  0.31859468480E+03  0.10394291258E+04  0.22482032284E+04  0.24972651535E+04  0.10100000352E+00 0.  1.
       -3    1    3    3    0  502 -0.31859468480E+03 -0.10394291258E+04 -0.10258259342E+04  0.14947355412E+04  0.10100000352E+00 0. -1.
</event>
<event>
 5   0  0.2632875E-08  0.3943359E+04  0.7818609E-02  0.8016071E-01
       -1   -1    0    0    0  501  0.00000000000E+00  0.00000000000E+00  0.22577523411E+04  0.22577523411E+04  0.50400001928E-02 0.  1.
        1   -1    0    0  501    0  0.00000000000E+00  0.00000000000E+00 -0.17218540561E+04  0.17218540561E+04  0.50400001928E-02 0. -1.
    10030    2    1    2    0    0  0.00000000000E+00  0.00000000000E+00  0.53589828497E+03  0.39796063973E+04  0.39433589876E+04 0.  0.
        5    1    3    3  502    0 -0.46350136156E+03  0.16035672618E+04  0.13269933668E+04  0.21324152881E+04  0.46999998093E+01 0.  1.
       -5    1    3    3    0  502  0.46350136156E+03 -0.16035672618E+04 -0.79109508181E+03  0.18471911092E+04  0.46999998093E+01 0. -1.
</event>
<event>
 5   0  0.8342802E-08  0.3900666E+04  0.7818609E-02  0.8024891E-01
        2   -1    0    0  501    0  0.00000000000E+00  0.00000000000E+00  0.12138205370E+04  0.12138205370E+04  0.25500000920E-02 0.  1.
       -2   -1    0    0    0  501  0.00000000000E+00  0.00000000000E+00 -0.31337402609E+04  0.31337402609E+04  0.25500000920E-02 0. -1.
    10030    2    1    2    0    0  0.00000000000E+00  0.00000000000E+00 -0.19199197239E+04  0.43475607979E+04  0.39006657310E+04 0.  0.
        4    1    3    3  502    0  0.80666030647E+03 -0.16975214104E+04 -0.37918829001E+03  0.19173067467E+04  0.12699999809E+01 0.  1.
       -4    1    3    3    0  502 -0.80666030647E+03  0.16975214104E+04 -0.15407314338E+04  0.24302540511E+04  0.12699999809E+01 0. -1.
</event>
<event>
 5   0  0.8342802E-08  0.3915338E+04  0.7818609E-02  0.8021847E-01
        2   -1    0    0  501    0  0.00000000000E+00  0.00000000000E+00  0.14485395366E+04  0.14485395366E+04  0.25500000920E-02 0.  1.
       -2   -1    0    0    0  501  0.00000000000E+00  0.00000000000E+00 -0.26457462293E+04  0.26457462293E+04  0.25500000920E-02 0. -1.
    10030    2    1    2    0    0  0.00000000000E+00  0.00000000000E+00 -0.11972066927E+04  0.40942857659E+04  0.39153380528E+04 0.  0.
        4    1    3    3  502    0  0.71953233933E+03  0.97365678359E+03 -0.22073343638E+04  0.25175505806E+04  0.12699999809E+01 0. -1.
       -4    1    3    3    0  502 -0.71953233933E+03 -0.97365678359E+03  0.10101276711E+04  0.15767351852E+04  0.12699999809E+01 0.  1.
</event>
<event>
 5   0  0.8476262E-08  0.3911069E+04  0.7818609E-02  0.8022731E-01
        2   -1    0    0  501    0  0.00000000000E+00  0.00000000000E+00  0.14579472706E+04  0.14579472706E+04  0.25500000920E-02 0. -1.
       -2   -1    0    0    0  501  0.00000000000E+00  0.00000000000E+00 -0.26229451969E+04  0.26229451969E+04  0.25500000920E-02 0.  1.
    10030    2    1    2    0    0  0.00000000000E+00  0.00000000000E+00 -0.11649979263E+04  0.40808924675E+04  0.39110693119E+04 0.  0.
        2    1    3    3  502    0  0.41992947193E+03 -0.15130328710E+03  0.14040834940E+04  0.14733241002E+04  0.25500000920E-02 0. -1.
       -2    1    3    3    0  502 -0.41992947193E+03  0.15130328710E+03 -0.25690814203E+04  0.26075683673E+04  0.25500000920E-02 0.  1.
</event>
<event>
 5   0  0.2632875E-08  0.3886429E+04  0.7818609E-02  0.8027858E-01
        1   -1    0    0  501    0  0.00000000000E+00  0.00000000000E+00  0.20895750601E+04  0.20895750601E+04  0.50400001928E-02 0. -1.
       -1   -1    0    0    0  501  0.00000000000E+00  0.00000000000E+00 -0.18071054883E+04  0.18071054883E+04  0.50400001928E-02 0.  1.
    10030    2    1    2    0    0  0.00000000000E+00  0.00000000000E+00  0.28246957178E+03  0.38966805484E+04  0.38864289827E+04 0.  0.
        5    1    3    3  502    0  0.80964213798E+03 -0.63914374784E+03  0.17924045991E+04  0.20680332345E+04  0.46999998093E+01 0. -1.
       -5    1    3    3    0  502 -0.80964213798E+03  0.63914374784E+03 -0.15099350274E+04  0.18286473140E+04  0.46999998093E+01 0.  1.
</event>
<event>
 5   0  0.8676098E-08  0.3886610E+04  0.7818609E-02  0.8027820E-01
       -2   -1    0    0    0  501  0.00000000000E+00  0.00000000000E+00  0.29966835191E+04  0.29966835191E+04  0.25500000920E-02 0. -1.
        2   -1    0    0  501    0  0.00000000000E+00  0.00000000000E+00 -0.12602044726E+04  0.12602044726E+04  0.25500000920E-02 0.  1.
    10030    2    1    2    0    0  0.00000000000E+00  0.00000000000E+00  0.17364790465E+04  0.42568879917E+04  0.38866098202E+04 0.  0.
        3    1    3    3  502    0 -0.15455902575E+04 -0.62959139174E+03  0.19586795741E+04  0.25732586829E+04  0.10100000352E+00 0. -1.
       -3    1    3    3    0  502  0.15455902575E+04  0.62959139174E+03 -0.22220052762E+03  0.16836293088E+04  0.10100000352E+00 0.  1.
</event>
<event>
 5   0  0.2632875E-08  0.3931906E+04  0.7818609E-02  0.8018426E-01
       -1   -1    0    0    0  501  0.00000000000E+00  0.00000000000E+00  0.23620225012E+04  0.23620225012E+04  0.50400001928E-02 0.  1.
        1   -1    0    0  501    0  0.00000000000E+00  0.00000000000E+00 -0.16362975599E+04  0.16362975599E+04  0.50400001928E-02 0. -1.
    10030    2    1    2    0    0  0.00000000000E+00  0.00000000000E+00  0.72572494128E+03  0.39983200611E+04  0.39319062325E+04 0.  0.
        5    1    3    3  502    0  0.18801406258E+04 -0.41226430028E+03  0.76969378192E+03  0.20730029508E+04  0.46999998093E+01 0.  1.
       -5    1    3    3    0  502 -0.18801406258E+04  0.41226430028E+03 -0.43968840638E+02  0.19253171103E+04  0.46999998093E+01 0. -1.
</event>
<event>
 5   0  0.8342802E-08  0.3634613E+04  0.7818609E-02  0.8082609E-01
        2   -1    0    0  501    0  0.00000000000E+00  0.00000000000E+00  0.25762277701E+04  0.25762277701E+04  0.25500000920E-02 0.  1.
       -2   -1    0    0    0  501  0.00000000000E+00  0.00000000000E+00 -0.12819526913E+04  0.12819526913E+04  0.25500000920E-02 0. -1.
    10030    2    1    2    0    0  0.00000000000E+00  0.00000000000E+00  0.12942750787E+04  0.38581804614E+04  0.36346125644E+04 0.  0.
        4    1    3    3  502    0  0.94529098300E+03 -0.98368405444E+03  0.19215656409E+04  0.23566131390E+04  0.12699999809E+01 0.  1.
       -4    1    3    3    0  502 -0.94529098300E+03  0.98368405444E+03 -0.62729056218E+03  0.15015673224E+04  0.12699999809E+01 0. -1.
</event>
<event>
 5   0  0.2632875E-08  0.3905630E+04  0.7818609E-02  0.8023859E-01
       -1   -1    0    0    0  501  0.00000000000E+00  0.00000000000E+00  0.24090652870E+04  0.24090652870E+04  0.50400001928E-02 0.  1.
        1   -1    0    0  501    0  0.00000000000E+00  0.00000000000E+00 -0.15829736182E+04  0.15829736182E+04  0.50400001928E-02 0. -1.
    10030    2    1    2    0    0  0.00000000000E+00  0.00000000000E+00  0.82609166878E+03  0.39920389053E+04  0.39056301893E+04 0.  0.
        4    1    3    3  502    0  0.12625236201E+04  0.14462931705E+04  0.77838245093E+03  0.20716203028E+04  0.12699999809E+01 0.  1.
       -4    1    3    3    0  502 -0.12625236201E+04 -0.14462931705E+04  0.47709217848E+02  0.19204186024E+04  0.12699999809E+01 0. -1.
</event>
<event>
 5   0  0.2632875E-08  0.3893706E+04  0.7818609E-02  0.8026340E-01
       -1   -1    0    0    0  501  0.00000000000E+00  0.00000000000E+00  0.17670360628E+04  0.17670360628E+04  0.50400001928E-02 0. -1.
        1   -1    0    0  501    0  0.00000000000E+00  0.00000000000E+00 -0.21449681144E+04  0.21449681145E+04  0.50400001928E-02 0.  1.
    10030    2    1    2    0    0  0.00000000000E+00  0.00000000000E+00 -0.37793205166E+03  0.39120041772E+04  0.38937056960E+04 0.  0.
        3    1    3    3  502    0 -0.17840236543E+04 -0.77941793987E+03 -0.19078488414E+03  0.19561778054E+04  0.10100000352E+00 0. -1.
       -3    1    3    3    0  502  0.17840236543E+04  0.77941793987E+03 -0.18714716752E+03  0.19558263718E+04  0.10100000352E+00 0.  1.
</event>
<event>
 5   0  0.8476262E-08  0.3897866E+04  0.7818609E-02  0.8025473E-01
        2   -1    0    0  501    0  0.00000000000E+00  0.00000000000E+00  0.26288903733E+04  0.26288903733E+04  0.25500000920E-02 0.  1.
       -2   -1    0    0    0  501  0.00000000000E+00  0.00000000000E+00 -0.14448453829E+04  0.14448453829E+04  0.25500000920E-02 0. -1.
    10030    2    1    2    0    0  0.00000000000E+00  0.00000000000E+00  0.11840449904E+04  0.40737357562E+04  0.38978661434E+04 0.  0.
        2    1    3    3  502    0 -0.15944560920E+04 -0.83700503871E+03  0.13709502833E+04  0.22632658579E+04  0.25500000920E-02 0.  1.
       -2    1    3    3    0  502  0.15944560920E+04  0.83700503871E+03 -0.18690529292E+03  0.18104698983E+04  0.25500000920E-02 0. -1.
</event>
<event>
 5   0  0.2632875E-08  0.3908025E+04  0.7818609E-02  0.8023362E-01
       -1   -1    0    0    0  501  0.00000000000E+00  0.00000000000E+00  0.17717955338E+04  0.17717955338E+04  0.50400001928E-02 0. -1.
        1   -1    0    0  501    0  0.00000000000E+00  0.00000000000E+00 -0.21549690003E+04  0.21549690003E+04  0.50400001928E-02 0.  1.
    10030    2    1    2    0    0  0.00000000000E+00  0.00000000000E+00 -0.38317346653E+03  0.39267645341E+04  0.39080247953E+04 0.  0.
        3    1    3    3  502    0 -0.26602714932E+02 -0.17581657915E+04 -0.10479114842E+04  0.20469423890E+04  0.10100000352E+00 0.  1.
       -3    1    3    3    0  502  0.26602714932E+02  0.17581657915E+04  0.66473801771E+03  0.18798221451E+04  0.10100000352E+00 0. -1.
</event>
<event>
 5   0  0.8342802E-08  0.3691867E+04  0.7818609E-02  0.8069767E-01
        2   -1    0    0  501    0  0.00000000000E+00  0.00000000000E+00  0.17845400720E+04  0.17845400720E+04  0.25500000920E-02 0. -1.
       -2   -1    0    0    0  501  0.00000000000E+00  0.00000000000E+00 -0.19094388425E+04  0.19094388425E+04  0.25500000920E-02 0.  1.
    10030    2    1    2    0    0  0.00000000000E+00  0.00000000000E+00 -0.12489877053E+03  0.36939789144E+04  0.36918668066E+04 0.  0.
        4    1    3    3  502    0 -0.59302727427E+03 -0.19711425177E+03  0.16754764151E+04  0.17882276720E+04  0.12699999809E+01 0. -1.
       -4    1    3    3    0  502  0.59302727427E+03  0.19711425177E+03 -0.18003751856E+04  0.19057512425E+04  0.12699999809E+01 0.  1.
</event>
<event>
 5   0  0.8551754E-08  0.3899496E+04  0.7818609E-02  0.8025134E-01
       -2   -1    0    0    0  501  0.00000000000E+00  0.00000000000E+00  0.14092181102E+04  0.14092181102E+04  0.25500000920E-02 0.  1.
        2   -1    0    0  501    0  0.00000000000E+00  0.00000000000E+00 -0.26976074572E+04  0.26976074572E+04  0.25500000920E-02 0. -1.
    10030    2    1    2    0    0  0.00000000000E+00  0.00000000000E+00 -0.12883893470E+04  0.41068255675E+04  0.38994960100E+04 0.  0.
        1    1    3    3  502    0  0.12146406604E+04 -0.39213137293E+03 -0.21964655432E+04  0.25403897004E+04  0.50400001928E-02 0. -1.
       -1    1    3    3    0  502 -0.12146406604E+04  0.39213137293E+03  0.90807619618E+03  0.15664358671E+04  0.50400001928E-02 0.  1.
</event>
<event>
 5   0  0.8676098E-08  0.3900546E+04  0.7818609E-02  0.8024916E-01
        2   -1    0    0  501    0  0.00000000000E+00  0.00000000000E+00  0.17694848937E+04  0.17694848937E+04  0.25500000920E-02 0. -1.
       -2   -1    0    0    0  501  0.00000000000E+00  0.00000000000E+00 -0.21495323845E+04  0.21495323845E+04  0.25500000920E-02 0.  1.
    10030    2    1    2    0    0  0.00000000000E+00  0.00000000000E+00 -0.38004749083E+03  0.39190172782E+04  0.39005461581E+04 0.  0.
        3    1    3    3  502    0  0.16068625236E+04  0.10811517284E+04  0.40559977358E+02  0.19371477361E+04  0.10100000352E+00 0.  1.
       -3    1    3    3    0  502 -0.16068625236E+04 -0.10811517284E+04 -0.42060746819E+03  0.19818695421E+04  0.10100000352E+00 0. -1.
</event>
<event>
 5   0  0.8676098E-08  0.3891411E+04  0.7818609E-02  0.8026818E-01
        2   -1    0    0  501    0  0.00000000000E+00  0.00000000000E+00  0.12040045687E+04  0.12040045687E+04  0.25500000920E-02 0. -1.
       -2   -1    0    0    0  501  0.00000000000E+00  0.00000000000E+00 -0.31443150370E+04  0.31443150370E+04  0.25500000920E-02 0.  1.
    10030    2    1    2    0    0  0.00000000000E+00  0.00000000000E+00 -0.19403104683E+04  0.43483196057E+04  0.38914108855E+04 0.  0.
        3    1    3    3  502    0  0.13346047614E+03 -0.18174414124E+04 -0.17320195634E+04  0.25141194810E+04  0.10100000352E+00 0.  1.
       -3    1    3    3    0  502 -0.13346047614E+03  0.18174414124E+04 -0.20829090488E+03  0.18342001247E+04  0.10100000352E+00 0. -1.
</event>
<event>
 5   0  0.8438211E-08  0.3881392E+04  0.7818609E-02  0.8028910E-01
        2   -1    0    0  501    0  0.00000000000E+00  0.00000000000E+00  0.27378591906E+04  0.27378591906E+04  0.25500000920E-02 0.  1.
       -2   -1    0    0    0  501  0.00000000000E+00  0.00000000000E+00 -0.13756374313E+04  0.13756374313E+04  0.25500000920E-02 0. -1.
    10030    2    1    2    0    0  0.00000000000E+00  0.00000000000E+00  0.13622217592E+04  0.41134966219E+04  0.38813923194E+04 0.  0.
        5    1    3    3  502    0  0.25903970406E+03 -0.90755088884E+03  0.24782533275E+04  0.26518883517E+04  0.46999998093E+01 0.  1.
       -5    1    3    3    0  502 -0.25903970406E+03  0.90755088884E+03 -0.11160315683E+04  0.14616082702E+04  0.46999998093E+01 0. -1.
</event>
<event>
 5   0  0.2632875E-08  0.3909634E+04  0.7818609E-02  0.8023029E-01
       -1   -1    0    0    0  501  0.00000000000E+00  0.00000000000E+00  0.18106787773E+04  0.18106787773E+04  0.50400001928E-02 0.  1.
        1   -1    0    0  501    0  0.00000000000E+00  0.00000000000E+00 -0.21104291362E+04  0.21104291362E+04  0.50400001928E-02 0. -1.
    10030    2    1    2    0    0  0.00000000000E+00  0.00000000000E+00 -0.29975035889E+03  0.39211079135E+04  0.39096338692E+04 0.  0.
        3    1    3    3  502    0 -0.70827673497E+03 -0.17196650548E+04 -0.75364310619E+03  0.20067091906E+04  0.10100000352E+00 0. -1.
       -3    1    3    3    0  502  0.70827673497E+03  0.17196650548E+04  0.45389274730E+03  0.19143987229E+04  0.10100000352E+00 0.  1.
</event>
<event>
 5   0  0.2632875E-08  0.3891597E+04  0.7818609E-02  0.8026779E-01
       -1   -1    0    0    0  501  0.00000000000E+00  0.00000000000E+00  0.19702807510E+04  0.19702807510E+04  0.50400001928E-02 0.  1.
        1   -1    0    0  501    0  0.00000000000E+00  0.00000000000E+00 -0.19216200278E+04  0.19216200278E+04  0.50400001928E-02 0. -1.
    10030    2    1    2    0    0  0.00000000000E+00  0.00000000000E+00  0.48660723261E+02  0.38919007788E+04  0.38915965626E+04 0.  0.
        4    1    3    3  502    0  0.72518955433E+03 -0.61185933169E+03 -0.16745836488E+04  0.19247087419E+04  0.12699999809E+01 0. -1.
       -4    1    3    3    0  502 -0.72518955433E+03  0.61185933169E+03  0.17232443720E+04  0.19671920369E+04  0.12699999809E+01 0.  1.
</event>
<event>
 5   0  0.8342802E-08  0.3904825E+04  0.7818609E-02  0.8024026E-01
       -2   -1    0    0    0  501  0.00000000000E+00  0.00000000000E+00  0.19023932349E+04  0.19023932349E+04  0.25500000920E-02 0. -1.
        2   -1    0    0  501    0  0.00000000000E+00  0.00000000000E+00 -0.20037473505E+04  0.20037473505E+04  0.25500000920E-02 0.  1.
    10030    2    1    2    0    0  0.00000000000E+00  0.00000000000E+00 -0.10135411558E+03  0.39061405854E+04  0.39048254271E+04 0.  0.
        4    1    3    3  502    0  0.58982397302E+03 -0.18450895380E+04 -0.29502571633E+03  0.19594105003E+04  0.12699999809E+01 0. -1.
       -4    1    3    3    0  502 -0.58982397302E+03  0.18450895380E+04  0.19367160075E+03  0.19467300851E+04  0.12699999809E+01 0.  1.
</event>
<event>
 5   0  0.2632875E-08  0.3904301E+04  0.7818609E-02  0.8024135E-01
        1   -1    0    0  501    0  0.00000000000E+00  0.00000000000E+00  0.16254185760E+04  0.16254185761E+04  0.50400001928E-02 0.  1.
       -1   -1    0    0    0  501  0.00000000000E+00  0.00000000000E+00 -0.23445597762E+04  0.23445597762E+04  0.50400001928E-02 0. -1.
    10030    2    1    2    0    0  0.00000000000E+00  0.00000000000E+00 -0.71914120020E+03  0.39699783523E+04  0.39043007123E+04 0.  0.
        3    1    3    3  502    0 -0.53378307776E+03 -0.17902814686E+04  0.21640212522E+03  0.18806546735E+04  0.10100000352E+00 0. -1.
       -3    1    3    3    0  502  0.53378307776E+03  0.17902814686E+04 -0.93554332542E+03  0.20893236788E+04  0.10100000352E+00 0.  1.
</event>
<event>
 5   0  0.2632875E-08  0.3852582E+04  0.7818609E-02  0.8034964E-01
       -1   -1    0    0    0  501  0.00000000000E+00  0.00000000000E+00  0.16152464311E+04  0.16152464311E+04  0.50400001928E-02 0. -1.
        1   -1    0    0  501    0  0.00000000000E+00  0.00000000000E+00 -0.22972322566E+04  0.22972322566E+04  0.50400001928E-02 0.  1.
    10030    2    1    2    0    0  0.00000000000E+00  0.00000000000E+00 -0.68198582555E+03  0.39124786877E+04  0.38525815780E+04 0.  0.
        4    1    3    3  502    0 -0.11295368312E+04 -0.12750162079E+04 -0.12544633158E+04  0.21154667587E+04  0.12699999809E+01 0.  1.
       -4    1    3    3    0  502  0.11295368312E+04  0.12750162079E+04  0.57247749028E+03  0.17970119290E+04  0.12699999809E+01 0. -1.
</event>
<event>
 5   0  0.2632875E-08  0.3881941E+04  0.7818609E-02  0.8028796E-01
        1   -1    0    0  501    0  0.00000000000E+00  0.00000000000E+00  0.15971480977E+04  0.15971480977E+04  0.50400001928E-02 0.  1.
       -1   -1    0    0    0  501  0.00000000000E+00  0.00000000000E+00 -0.23588088068E+04  0.23588088068E+04  0.50400001928E-02 0. -1.
    10030    2    1    2    0    0  0.00000000000E+00  0.00000000000E+00 -0.76166070913E+03  0.39559569045E+04  0.38819412662E+04 0.  0.
        5    1    3    3  502    0 -0.89439654087E+03 -0.39222359159E+02 -0.21358339613E+04  0.23158783141E+04  0.46999998093E+01 0. -1.
       -5    1    3    3    0  502  0.89439654087E+03  0.39222359159E+02  0.13741732521E+04  0.16400785904E+04  0.46999998093E+01 0.  1.
</event>
<event>
 5   0  0.2632875E-08  0.3921670E+04  0.7818609E-02  0.8020537E-01
       -1   -1    0    0    0  501  0.00000000000E+00  0.00000000000E+00  0.19444015449E+04  0.19444015449E+04  0.50400001928E-02 0. -1.
        1   -1    0    0  501    0  0.00000000000E+00  0.00000000000E+00 -0.19774076705E+04  0.19774076705E+04  0.50400001928E-02 0.  1.
    10030    2    1    2    0    0  0.00000000000E+00  0.00000000000E+00 -0.33006125603E+02  0.39218092154E+04  0.39216703224E+04 0.  0.
        3    1    3    3  502    0 -0.12983450099E+04  0.99392867905E+03 -0.10987985414E+04  0.19700132559E+04  0.10100000352E+00 0.  1.
       -3    1    3    3    0  502  0.12983450099E+04 -0.99392867905E+03  0.10657924158E+04  0.19517959595E+04  0.10100000352E+00 0. -1.
</event>
<event>
 5   0  0.2632875E-08  0.3908731E+04  0.7818609E-02  0.8023216E-01
        1   -1    0    0  501    0  0.00000000000E+00  0.00000000000E+00  0.21576537590E+04  0.21576537590E+04  0.50400001928E-02 0.  1.
       -1   -1    0    0    0  501  0.00000000000E+00  0.00000000000E+00 -0.17702304245E+04  0.17702304245E+04  0.50400001928E-02 0. -1.
    10030    2    1    2    0    0  0.00000000000E+00  0.00000000000E+00  0.38742333450E+03  0.39278841835E+04  0.39087309090E+04 0.  0.
        5    1    3    3  502    0  0.76706035914E+03  0.11775772640E+04  0.15584727523E+04  0.20985540776E+04  0.46999998093E+01 0.  1.
       -5    1    3    3    0  502 -0.76706035914E+03 -0.11775772640E+04 -0.11710494178E+04  0.18293301058E+04  0.46999998093E+01 0. -1.
</event>
<event>
 5   0  0.2632875E-08  0.3888988E+04  0.7818609E-02  0.8027323E-01
       -1   -1    0    0    0  501  0.00000000000E+00  0.00000000000E+00  0.14289215614E+04  0.14289215614E+04  0.50400001928E-02 0.  1.
        1   -1    0    0  501    0  0.00000000000E+00  0.00000000000E+00 -0.26460917282E+04  0.26460917282E+04  0.50400001928E-02 0. -1.
    10030    2    1    2    0    0  0.00000000000E+00  0.00000000000E+00 -0.12171701668E+04  0.40750132896E+04  0.38889883126E+04 0.  0.
        2    1    3    3  502    0 -0.56573469753E+03 -0.50539550463E+03 -0.24846398353E+04  0.25978674861E+04  0.25500000920E-02 0. -1.
       -2    1    3    3    0  502  0.56573469753E+03  0.50539550463E+03  0.12674696685E+04  0.14771458035E+04  0.25500000920E-02 0.  1.
</event>
<event>
 5   0  0.2632875E-08  0.3900743E+04  0.7818609E-02  0.8024875E-01
       -1   -1    0    0    0  501  0.00000000000E+00  0.00000000000E+00  0.19198805500E+04  0.19198805500E+04  0.50400001928E-02 0.  1.
        1   -1    0    0  501    0  0.00000000000E+00  0.00000000000E+00 -0.19813466288E+04  0.19813466288E+04  0.50400001928E-02 0. -1.
    10030    2    1    2    0    0  0.00000000000E+00  0.00000000000E+00 -0.61466078754E+02  0.39012271788E+04  0.39007429320E+04 0.  0.
        2    1    3    3  502    0  0.44278066856E+03 -0.18863617760E+04  0.19185555949E+03  0.19471065780E+04  0.25500000920E-02 0.  1.
       -2    1    3    3    0  502 -0.44278066856E+03  0.18863617760E+04 -0.25332163824E+03  0.19541206008E+04  0.25500000920E-02 0. -1.
</event>
<event>
 5   0  0.8438211E-08  0.3876683E+04  0.7818609E-02  0.8029896E-01
       -2   -1    0    0    0  501  0.00000000000E+00  0.00000000000E+00  0.27149982502E+04  0.27149982502E+04  0.25500000920E-02 0. -1.
        2   -1    0    0  501    0  0.00000000000E+00  0.00000000000E+00 -0.13838564358E+04  0.13838564358E+04  0.25500000920E-02 0.  1.
    10030    2    1    2    0    0  0.00000000000E+00  0.00000000000E+00  0.13311418144E+04  0.40988546860E+04  0.38766830160E+04 0.  0.
        5    1    3    3  502    0  0.15031185012E+04 -0.11982565746E+04  0.40238431023E+03  0.19639550072E+04  0.46999998093E+01 0. -1.
       -5    1    3    3    0  502 -0.15031185012E+04  0.11982565746E+04  0.92875750418E+03  0.21348996788E+04  0.46999998093E+01 0.  1.
</event>
<event>
 5   0  0.2632875E-08  0.3910059E+04  0.7818609E-02  0.8022940E-01
        1   -1    0    0  501    0  0.00000000000E+00  0.00000000000E+00  0.25555341591E+04  0.25555341591E+04  0.50400001928E-02 0.  1.
       -1   -1    0    0    0  501  0.00000000000E+00  0.00000000000E+00 -0.14956330104E+04  0.14956330104E+04  0.50400001928E-02 0. -1.
    10030    2    1    2    0    0  0.00000000000E+00  0.00000000000E+00  0.10599011487E+04  0.40511671695E+04  0.39100594612E+04 0.  0.
        3    1    3    3  502    0 -0.81675488081E+03 -0.15387577924E+04 -0.38935655525E+03  0.17850665579E+04  0.10100000352E+00 0. -1.
       -3    1    3    3    0  502  0.81675488081E+03  0.15387577924E+04  0.14492577039E+04  0.22661006115E+04  0.10100000352E+00 0.  1.
</event>
<event>
 5   0  0.8438211E-08  0.3895880E+04  0.7818609E-02  0.8025887E-01
       -2   -1    0    0    0  501  0.00000000000E+00  0.00000000000E+00  0.16937566194E+04  0.16937566194E+04  0.25500000920E-02 0.  1.
        2   -1    0    0  501    0  0.00000000000E+00  0.00000000000E+00 -0.22402692565E+04  0.22402692565E+04  0.25500000920E-02 0. -1.
    10030    2    1    2    0    0  0.00000000000E+00  0.00000000000E+00 -0.54651263708E+03  0.39340258759E+04  0.38958803279E+04 0.  0.
        5    1    3    3  502    0 -0.72814909050E+03  0.10883960638E+04 -0.17294725350E+04  0.21693096665E+04  0.46999998093E+01 0. -1.
       -5    1    3    3    0  502  0.72814909050E+03 -0.10883960638E+04  0.11829598979E+04  0.17647162094E+04  0.46999998093E+01 0.  1.
</event>
<event>
 5   0  0.2632875E-08  0.3885304E+04  0.7818609E-02  0.8028093E-01
       -1   -1    0    0    0  501  0.00000000000E+00  0.00000000000E+00  0.20942346617E+04  0.20942346617E+04  0.50400001928E-02 0. -1.
        1   -1    0    0  501    0  0.00000000000E+00  0.00000000000E+00 -0.18020408910E+04  0.18020408910E+04  0.50400001928E-02 0.  1.
    10030    2    1    2    0    0  0.00000000000E+00  0.00000000000E+00  0.29219377072E+03  0.38962755528E+04  0.38853038470E+04 0.  0.
        5    1    3    3  502    0  0.85684591433E+03  0.57331631142E+03 -0.15050635185E+04  0.18243121439E+04  0.46999998093E+01 0.  1.
       -5    1    3    3    0  502 -0.85684591433E+03 -0.57331631142E+03  0.17972572892E+04  0.20719634088E+04  0.46999998093E+01 0. -1.
</event>
<event>
 5   0  0.8342802E-08  0.3903400E+04  0.7818609E-02  0.8024322E-01
       -2   -1    0    0    0  501  0.00000000000E+00  0.00000000000E+00  0.17587207205E+04  0.17587207205E+04  0.25500000920E-02 0.  1.
        2   -1    0    0  501    0  0.00000000000E+00  0.00000000000E+00 -0.21658547977E+04  0.21658547977E+04  0.25500000920E-02 0. -1.
    10030    2    1    2    0    0  0.00000000000E+00  0.00000000000E+00 -0.40713407721E+03  0.39245755182E+04  0.39034004203E+04 0.  0.
        4    1    3    3  502    0 -0.17649316572E+04  0.43402025022E+02  0.63297091576E+03  0.18755056074E+04  0.12699999809E+01 0.  1.
       -4    1    3    3    0  502  0.17649316572E+04 -0.43402025022E+02 -0.10401049930E+04  0.20490699108E+04  0.12699999809E+01 0. -1.
</event>
<event>
 5   0  0.2632875E-08  0.3896058E+04  0.7818609E-02  0.8025850E-01
       -1   -1    0    0    0  501  0.00000000000E+00  0.00000000000E+00  0.16331435487E+04  0.16331435487E+04  0.50400001928E-02 0. -1.
        1   -1    0    0  501    0  0.00000000000E+00  0.00000000000E+00 -0.23236270641E+04  0.23236270641E+04  0.50400001928E-02 0.  1.
    10030    2    1    2    0    0  0.00000000000E+00  0.00000000000E+00 -0.69048351541E+03  0.39567706129E+04  0.38960577765E+04 0.  0.
        4    1    3    3  502    0 -0.18324783993E+04 -0.67181764524E+02 -0.10130017421E+04  0.20949139877E+04  0.12699999809E+01 0.  1.
       -4    1    3    3    0  502  0.18324783993E+04  0.67181764524E+02  0.32251822666E+03  0.18618566252E+04  0.12699999809E+01 0. -1.
</event>
<event>
 5   0  0.8342802E-08  0.3881578E+04  0.7818609E-02  0.8028872E-01
        2   -1    0    0  501    0  0.00000000000E+00  0.00000000000E+00  0.30711367500E+04  0.30711367500E+04  0.25500000920E-02 0.  1.
       -2   -1    0    0    0  501  0.00000000000E+00  0.00000000000E+00 -0.12264713074E+04  0.12264713074E+04  0.25500000920E-02 0. -1.
    10030    2    1    2    0    0  0.00000000000E+00  0.00000000000E+00  0.18446654426E+04  0.42976080574E+04  0.38815775685E+04 0.  0.
        4    1    3    3  502    0 -0.11715474256E+03  0.88605373675E+03  0.28297205181E+04  0.29675134846E+04  0.12699999809E+01 0.  1.
       -4    1    3    3    0  502  0.11715474256E+03 -0.88605373675E+03 -0.98505507542E+03  0.13300945728E+04  0.12699999809E+01 0. -1.
</event>
<event>
 5   0  0.8476262E-08  0.3776042E+04  0.7818609E-02  0.8051316E-01
        2   -1    0    0  501    0  0.00000000000E+00  0.00000000000E+00  0.27938034392E+04  0.27938034392E+04  0.25500000920E-02 0.  1.
       -2   -1    0    0    0  501  0.00000000000E+00  0.00000000000E+00 -0.12759032397E+04  0.12759032397E+04  0.25500000920E-02 0. -1.
    10030    2    1    2    0    0  0.00000000000E+00  0.00000000000E+00  0.15179001995E+04  0.40697066790E+04  0.37760417685E+04 0.  0.
        2    1    3    3  502    0 -0.18606696775E+04 -0.21917831764E+03  0.50736032037E+03  0.19410165580E+04  0.25500000920E-02 0. -1.
       -2    1    3    3    0  502  0.18606696775E+04  0.21917831764E+03  0.10105398791E+04  0.21286901210E+04  0.25500000920E-02 0.  1.
</event>
<event>
 5   0  0.2632875E-08  0.3901968E+04  0.7818609E-02  0.8024620E-01
       -1   -1    0    0    0  501  0.00000000000E+00  0.00000000000E+00  0.31864288411E+04  0.31864288411E+04  0.50400001928E-02 0.  1.
        1   -1    0    0  501    0  0.00000000000E+00  0.00000000000E+00 -0.11945471374E+04  0.11945471374E+04  0.50400001928E-02 0. -1.
    10030    2    1    2    0    0  0.00000000000E+00  0.00000000000E+00  0.19918817038E+04  0.43809759785E+04  0.39019684523E+04 0.  0.
        1    1    3    3  502    0  0.17136263319E+03  0.17179080746E+04 -0.24330412582E+02  0.17266051297E+04  0.50400001928E-02 0. -1.
       -1    1    3    3    0  502 -0.17136263319E+03 -0.17179080746E+04  0.20162121163E+04  0.26543708488E+04  0.50400001928E-02 0.  1.
</event>
<event>
 5   0  0.2632875E-08  0.3631461E+04  0.7818609E-02  0.8083323E-01
        1   -1    0    0  501    0  0.00000000000E+00  0.00000000000E+00  0.20024945820E+04  0.20024945820E+04  0.50400001928E-02 0. -1.
       -1   -1    0    0    0  501  0.00000000000E+00  0.00000000000E+00 -0.16463851375E+04  0.16463851375E+04  0.50400001928E-02 0.  1.
    10030    2    1    2    0    0  0.00000000000E+00  0.00000000000E+00  0.35610944448E+03  0.36488797195E+04  0.36314610381E+04 0.  0.
        1    1    3    3  502    0  0.65287141825E+03  0.13203006742E+03  0.18752999369E+04  0.19900811242E+04  0.50400001928E-02 0. -1.
       -1    1    3    3    0  502 -0.65287141825E+03 -0.13203006742E+03 -0.15191904924E+04  0.16587985953E+04  0.50400001928E-02 0.  1.
</event>
<event>
 5   0  0.8438211E-08  0.3740212E+04  0.7818609E-02  0.8059108E-01
        2   -1    0    0  501    0  0.00000000000E+00  0.00000000000E+00  0.23331971987E+04  0.23331971987E+04  0.25500000920E-02 0. -1.
       -2   -1    0    0    0  501  0.00000000000E+00  0.00000000000E+00 -0.14989289653E+04  0.14989289653E+04  0.25500000920E-02 0.  1.
    10030    2    1    2    0    0  0.00000000000E+00  0.00000000000E+00  0.83426823346E+03  0.38321261640E+04  0.37402122201E+04 0.  0.
        5    1    3    3  502    0  0.16716790541E+04  0.21862903225E+03 -0.41205326843E+03  0.17355458794E+04  0.46999998093E+01 0.  1.
       -5    1    3    3    0  502 -0.16716790541E+04 -0.21862903225E+03  0.12463215019E+04  0.20965802846E+04  0.46999998093E+01 0. -1.
</event>
<event>
 5   0  0.8676098E-08  0.3879282E+04  0.7818609E-02  0.8029352E-01
        2   -1    0    0  501    0  0.00000000000E+00  0.00000000000E+00  0.25260734437E+04  0.25260734437E+04  0.25500000920E-02 0.  1.
       -2   -1    0    0    0  501  0.00000000000E+00  0.00000000000E+00 -0.14893498841E+04  0.14893498841E+04  0.25500000920E-02 0. -1.
    10030    2    1    2    0    0  0.00000000000E+00  0.00000000000E+00  0.10367235595E+04  0.40154233278E+04  0.38792819906E+04 0.  0.
        3    1    3    3  502    0  0.17112075423E+04  0.88893102949E+03  0.73493548432E+03  0.20636278260E+04  0.10100000352E+00 0. -1.
       -3    1    3    3    0  502 -0.17112075423E+04 -0.88893102949E+03  0.30178807522E+03  0.19517955017E+04  0.10100000352E+00 0.  1.
</event>
<event>
 5   0  0.8438211E-08  0.3879914E+04  0.7818609E-02  0.8029220E-01
        2   -1    0    0  501    0  0.00000000000E+00  0.00000000000E+00  0.23784556982E+04  0.23784556982E+04  0.25500000920E-02 0.  1.
       -2   -1    0    0    0  501  0.00000000000E+00  0.00000000000E+00 -0.15823012337E+04  0.15823012337E+04  0.25500000920E-02 0. -1.
    10030    2    1    2    0    0  0.00000000000E+00  0.00000000000E+00  0.79615446457E+03  0.39607569319E+04  0.38799141153E+04 0.  0.
        5    1    3    3  502    0 -0.26950494999E+03 -0.14966466683E+04  0.16276773963E+04  0.22275412374E+04  0.46999998093E+01 0.  1.
       -5    1    3    3    0  502  0.26950494999E+03  0.14966466683E+04 -0.83152293172E+03  0.17332156945E+04  0.46999998093E+01 0. -1.
</event>
<event>
 5   0  0.2632875E-08  0.3796258E+04  0.7818609E-02  0.8046958E-01
        1   -1    0    0  501    0  0.00000000000E+00  0.00000000000E+00  0.29055768838E+04  0.29055768838E+04  0.50400001928E-02 0. -1.
       -1   -1    0    0    0  501  0.00000000000E+00  0.00000000000E+00 -0.12399922548E+04  0.12399922548E+04  0.50400001928E-02 0.  1.
    10030    2    1    2    0    0  0.00000000000E+00  0.00000000000E+00  0.16655846290E+04  0.41455691386E+04  0.37962575422E+04 0.  0.
        2    1    3    3  502    0  0.41130260068E+03  0.51059593954E+03  0.27779935779E+04  0.28543171445E+04  0.25500000920E-02 0. -1.
       -2    1    3    3    0  502 -0.41130260068E+03 -0.51059593954E+03 -0.11124089489E+04  0.12912519941E+04  0.25500000920E-02 0.  1.
</event>
<event>
 5   0  0.8342802E-08  0.3914108E+04  0.7818609E-02  0.8022101E-01
       -2   -1    0    0    0  501  0.00000000000E+00  0.00000000000E+00  0.31313205963E+04  0.31313205963E+04  0.25500000920E-02 0.  1.
        2   -1    0    0  501    0  0.00000000000E+00  0.00000000000E+00 -0.12231452906E+04  0.12231452906E+04  0.25500000920E-02 0. -1.
    10030    2    1    2    0    0  0.00000000000E+00  0.00000000000E+00  0.19081753057E+04  0.43544658870E+04  0.39141078375E+04 0.  0.
        4    1    3    3  502    0 -0.13470624705E+04 -0.12761369244E+04  0.16461300762E+04  0.24804936181E+04  0.12699999809E+01 0.  1.
       -4    1    3    3    0  502  0.13470624705E+04  0.12761369244E+04  0.26204522953E+03  0.18739722688E+04  0.12699999809E+01 0. -1.
</event>
<event>
 5   0  0.2632875E-08  0.3899727E+04  0.7818609E-02  0.8025086E-01
        1   -1    0    0  501    0  0.00000000000E+00  0.00000000000E+00  0.17695706853E+04  0.17695706853E+04  0.50400001928E-02 0.  1.
       -1   -1    0    0    0  501  0.00000000000E+00  0.00000000000E+00 -0.21485249084E+04  0.21485249084E+04  0.50400001928E-02 0. -1.
    10030    2    1    2    0    0  0.00000000000E+00  0.00000000000E+00 -0.37895422306E+03  0.39180955937E+04  0.38997265004E+04 0.  0.
        3    1    3    3  502    0 -0.10255254473E+04 -0.21498384497E+03 -0.18416212379E+04  0.21188414973E+04  0.10100000352E+00 0. -1.
       -3    1    3    3    0  502  0.10255254473E+04  0.21498384497E+03  0.14626670149E+04  0.17992540963E+04  0.10100000352E+00 0.  1.
</event>
<event>
 5   0  0.8676098E-08  0.3901323E+04  0.7818609E-02  0.8024754E-01
       -2   -1    0    0    0  501  0.00000000000E+00  0.00000000000E+00  0.27462251862E+04  0.27462251862E+04  0.25500000920E-02 0. -1.
        2   -1    0    0  501    0  0.00000000000E+00  0.00000000000E+00 -0.13855674111E+04  0.13855674111E+04  0.25500000920E-02 0.  1.
    10030    2    1    2    0    0  0.00000000000E+00  0.00000000000E+00  0.13606577751E+04  0.41317925973E+04  0.39013229148E+04 0.  0.
        3    1    3    3  502    0  0.41984943544E+03 -0.11511817333E+04 -0.92708953342E+03  0.15365506645E+04  0.10100000352E+00 0.  1.
       -3    1    3    3    0  502 -0.41984943544E+03  0.11511817333E+04  0.22877473085E+04  0.25952419327E+04  0.10100000352E+00 0. -1.
</event>
<event>
 5   0  0.2632875E-08  0.3856669E+04  0.7818609E-02  0.8034102E-01
        1   -1    0    0  501    0  0.00000000000E+00  0.00000000000E+00  0.17226655075E+04  0.17226655075E+04  0.50400001928E-02 0.  1.
       -1   -1    0    0    0  501  0.00000000000E+00  0.00000000000E+00 -0.21585587744E+04  0.21585587744E+04  0.50400001928E-02 0. -1.
    10030    2    1    2    0    0  0.00000000000E+00  0.00000000000E+00 -0.43589326693E+03  0.38812242819E+04  0.38566694162E+04 0.  0.
        1    1    3    3  502    0  0.72942410056E+03 -0.94097911178E+03 -0.17445005159E+04  0.21120566416E+04  0.50400001928E-02 0. -1.
       -1    1    3    3    0  502 -0.72942410056E+03  0.94097911178E+03  0.13086072490E+04  0.17691676403E+04  0.50400001928E-02 0.  1.
</event>
<event>
 5   0  0.8438211E-08  0.3894959E+04  0.7818609E-02  0.8026078E-01
       -2   -1    0    0    0  501  0.00000000000E+00  0.00000000000E+00  0.13300172354E+04  0.13300172354E+04  0.25500000920E-02 0.  1.
        2   -1    0    0  501    0  0.00000000000E+00  0.00000000000E+00 -0.28515993830E+04  0.28515993830E+04  0.25500000920E-02 0. -1.
    10030    2    1    2    0    0  0.00000000000E+00  0.00000000000E+00 -0.15215821476E+04  0.41816166184E+04  0.38949589615E+04 0.  0.
        5    1    3    3  502    0  0.15167637975E+04  0.12007808345E+04 -0.52023054917E+03  0.20032745554E+04  0.46999998093E+01 0.  1.
       -5    1    3    3    0  502 -0.15167637975E+04 -0.12007808345E+04 -0.10013515984E+04  0.21783420630E+04  0.46999998093E+01 0. -1.
</event>
<event>
 5   0  0.2632875E-08  0.3889868E+04  0.7818609E-02  0.8027140E-01
        1   -1    0    0  501    0  0.00000000000E+00  0.00000000000E+00  0.20192922879E+04  0.20192922879E+04  0.50400001928E-02 0. -1.
       -1   -1    0    0    0  501  0.00000000000E+00  0.00000000000E+00 -0.18733136964E+04  0.18733136964E+04  0.50400001928E-02 0.  1.
    10030    2    1    2    0    0  0.00000000000E+00  0.00000000000E+00  0.14597859151E+03  0.38926059843E+04  0.38898678127E+04 0.  0.
        4    1    3    3  502    0 -0.34416851893E+03  0.51478387096E+03  0.19180094266E+04  0.20154940280E+04  0.12699999809E+01 0. -1.
       -4    1    3    3    0  502  0.34416851893E+03 -0.51478387096E+03 -0.17720308351E+04  0.18771119564E+04  0.12699999809E+01 0.  1.
</event>
<event>
 5   0  0.8476262E-08  0.3903631E+04  0.7818609E-02  0.8024275E-01
       -2   -1    0    0    0  501  0.00000000000E+00  0.00000000000E+00  0.21824295706E+04  0.21824295706E+04  0.25500000920E-02 0.  1.
        2   -1    0    0  501    0  0.00000000000E+00  0.00000000000E+00 -0.17455697472E+04  0.17455697472E+04  0.25500000920E-02 0. -1.
    10030    2    1    2    0    0  0.00000000000E+00  0.00000000000E+00  0.43685982332E+03  0.39279993178E+04  0.39036306351E+04 0.  0.
        2    1    3    3  502    0 -0.39173075369E+03 -0.40080217692E+02  0.21420445488E+04  0.21779380745E+04  0.25500000920E-02 0.  1.
       -2    1    3    3    0  502  0.39173075369E+03  0.40080217692E+02 -0.17051847255E+04  0.17500612433E+04  0.25500000920E-02 0. -1.
</event>
<event>
 5   0  0.8676098E-08  0.3866928E+04  0.7818609E-02  0.8031943E-01
       -2   -1    0    0    0  501  0.00000000000E+00  0.00000000000E+00  0.19753324752E+04  0.19753324752E+04  0.25500000920E-02 0. -1.
        2   -1    0    0  501    0  0.00000000000E+00  0.00000000000E+00 -0.18924826392E+04  0.18924826392E+04  0.25500000920E-02 0.  1.
    10030    2    1    2    0    0  0.00000000000E+00  0.00000000000E+00  0.82849836007E+02  0.38678151145E+04  0.38669276777E+04 0.  0.
        3    1    3    3  502    0 -0.10988859013E+04  0.11977683078E+04  0.10886051363E+04  0.19563384922E+04  0.10100000352E+00 0. -1.
       -3    1    3    3    0  502  0.10988859013E+04 -0.11977683078E+04 -0.10057553003E+04  0.19114766223E+04  0.10100000352E+00 0.  1.
</event>
<event>
 5   0  0.2632875E-08  0.3741244E+04  0.7818609E-02  0.8058883E-01
       -1   -1    0    0    0  501  0.00000000000E+00  0.00000000000E+00  0.19880194818E+04  0.19880194818E+04  0.50400001928E-02 0. -1.
        1   -1    0    0  501    0  0.00000000000E+00  0.00000000000E+00 -0.17601568216E+04  0.17601568216E+04  0.50400001928E-02 0.  1.
    10030    2    1    2    0    0  0.00000000000E+00  0.00000000000E+00  0.22786266022E+03  0.37481763034E+04  0.37412436715E+04 0.  0.
        5    1    3    3  502    0 -0.44013225250E+03 -0.17124429077E+03 -0.16994400750E+04  0.17638479712E+04  0.46999998093E+01 0.  1.
       -5    1    3    3    0  502  0.44013225250E+03  0.17124429077E+03  0.19273027352E+04  0.19843283322E+04  0.46999998093E+01 0. -1.
</event>
<event>
 5   0  0.2632875E-08  0.3886422E+04  0.7818609E-02  0.8027859E-01
        1   -1    0    0  501    0  0.00000000000E+00  0.00000000000E+00  0.20795997892E+04  0.20795997892E+04  0.50400001928E-02 0. -1.
       -1   -1    0    0    0  501  0.00000000000E+00  0.00000000000E+00 -0.18157672611E+04  0.18157672611E+04  0.50400001928E-02 0.  1.
    10030    2    1    2    0    0  0.00000000000E+00  0.00000000000E+00  0.26383252811E+03  0.38953670504E+04  0.38864221148E+04 0.  0.
        2    1    3    3  502    0 -0.12652864102E+04 -0.14731701513E+04  0.20200014876E+03  0.19524302944E+04  0.25500000920E-02 0. -1.
       -2    1    3    3    0  502  0.12652864102E+04  0.14731701513E+04  0.61832379342E+02  0.19429367560E+04  0.25500000920E-02 0.  1.
</event>
<event>
 5   0  0.8342802E-08  0.3890284E+04  0.7818609E-02  0.8027053E-01
        2   -1    0    0  501    0  0.00000000000E+00  0.00000000000E+00  0.13769319978E+04  0.13769319978E+04  0.25500000920E-02 0. -1.
       -2   -1    0    0    0  501  0.00000000000E+00  0.00000000000E+00 -0.27478321891E+04  0.27478321891E+04  0.25500000920E-02 0.  1.
    10030    2    1    2    0    0  0.00000000000E+00  0.00000000000E+00 -0.13709001913E+04  0.41247641868E+04  0.38902843421E+04 0.  0.
        4    1    3    3  502    0 -0.17326157644E+04  0.41684194632E+03 -0.15120973472E+04  0.23371252845E+04  0.12699999809E+01 0.  1.
       -4    1    3    3    0  502  0.17326157644E+04 -0.41684194632E+03  0.14119715585E+03  0.17876389023E+04  0.12699999809E+01 0. -1.
</event>
<event>
 5   0  0.8476262E-08  0.3904163E+04  0.7818609E-02  0.8024164E-01
       -2   -1    0    0    0  501  0.00000000000E+00  0.00000000000E+00  0.11632842119E+04  0.11632842119E+04  0.25500000920E-02 0. -1.
        2   -1    0    0  501    0  0.00000000000E+00  0.00000000000E+00 -0.32757441096E+04  0.32757441096E+04  0.25500000920E-02 0.  1.
    10030    2    1    2    0    0  0.00000000000E+00  0.00000000000E+00 -0.21124598977E+04  0.44390283215E+04  0.39041626016E+04 0.  0.
        2    1    3    3  502    0 -0.70370540019E+03  0.12408316062E+04  0.45890665870E+03  0.14984857980E+04  0.25500000920E-02 0. -1.
       -2    1    3    3    0  502  0.70370540019E+03 -0.12408316062E+04 -0.25713665564E+04  0.29405425235E+04  0.25500000920E-02 0.  1.
</event>
<event>
 5   0  0.2632875E-08  0.3905824E+04  0.7818609E-02  0.8023819E-01
        1   -1    0    0  501    0  0.00000000000E+00  0.00000000000E+00  0.27108331596E+04  0.27108331596E+04  0.50400001928E-02 0. -1.
       -1   -1    0    0    0  501  0.00000000000E+00  0.00000000000E+00 -0.14068975839E+04  0.14068975839E+04  0.50400001928E-02 0.  1.
    10030    2    1    2    0    0  0.00000000000E+00  0.00000000000E+00  0.13039355757E+04  0.41177307435E+04  0.39058236635E+04 0.  0.
        2    1    3    3  502    0  0.15349490833E+02 -0.91691767022E+03 -0.11657849435E+04  0.14832491885E+04  0.25500000920E-02 0.  1.
       -2    1    3    3    0  502 -0.15349490833E+02  0.91691767022E+03  0.24697205192E+04  0.26344815550E+04  0.25500000920E-02 0. -1.
</event>
<event>
 5   0  0.8476262E-08  0.3881369E+04  0.7818609E-02  0.8028915E-01
       -2   -1    0    0    0  501  0.00000000000E+00  0.00000000000E+00  0.17059446810E+04  0.17059446810E+04  0.25500000920E-02 0.  1.
        2   -1    0    0  501    0  0.00000000000E+00  0.00000000000E+00 -0.22077244841E+04  0.22077244841E+04  0.25500000920E-02 0. -1.
    10030    2    1    2    0    0  0.00000000000E+00  0.00000000000E+00 -0.50177980308E+03  0.39136691652E+04  0.38813687487E+04 0.  0.
        2    1    3    3  502    0  0.16032466647E+04 -0.35559353451E+03  0.79183841158E+03  0.18231441796E+04  0.25500000920E-02 0.  1.
       -2    1    3    3    0  502 -0.16032466647E+04  0.35559353451E+03 -0.12936182147E+04  0.20905249855E+04  0.25500000920E-02 0. -1.
</event>
<event>
 5   0  0.8438211E-08  0.3886958E+04  0.7818609E-02  0.8027747E-01
        2   -1    0    0  501    0  0.00000000000E+00  0.00000000000E+00  0.11790531671E+04  0.11790531671E+04  0.25500000920E-02 0.  1.
       -2   -1    0    0    0  501  0.00000000000E+00  0.00000000000E+00 -0.32035120954E+04  0.32035120954E+04  0.25500000920E-02 0. -1.
    10030    2    1    2    0    0  0.00000000000E+00  0.00000000000E+00 -0.20244589283E+04  0.43825652625E+04  0.38869582359E+04 0.  0.
        5    1    3    3  502    0  0.10530141539E+04 -0.11105679385E+02 -0.28539416184E+04  0.30420333653E+04  0.46999998093E+01 0. -1.
       -5    1    3    3    0  502 -0.10530141539E+04  0.11105679385E+02  0.82948269006E+03  0.13405318972E+04  0.46999998093E+01 0.  1.
</event>
<event>
 5   0  0.8342802E-08  0.3906729E+04  0.7818609E-02  0.8023631E-01
        2   -1    0    0  501    0  0.00000000000E+00  0.00000000000E+00  0.18262089973E+04  0.18262089973E+04  0.25500000920E-02 0. -1.
       -2   -1    0    0    0  501  0.00000000000E+00  0.00000000000E+00 -0.20893740398E+04  0.20893740398E+04  0.25500000920E-02 0.  1.
    10030    2    1    2    0    0  0.00000000000E+00  0.00000000000E+00 -0.26316504243E+03  0.39155830371E+04  0.39067294097E+04 0.  0.
        4    1    3    3  502    0 -0.85009754785E+03 -0.16843211369E+04  0.37555679750E+03  0.19237068525E+04  0.12699999809E+01 0. -1.
       -4    1    3    3    0  502  0.85009754785E+03  0.16843211369E+04 -0.63872183992E+03  0.19918761846E+04  0.12699999809E+01 0.  1.
</event>
<event>
 5   0  0.8476262E-08  0.3988034E+04  0.7818609E-02  0.8006965E-01
       -2   -1    0    0    0  501  0.00000000000E+00  0.00000000000E+00  0.23505447061E+04  0.23505447061E+04  0.25500000920E-02 0. -1.
        2   -1    0    0  501    0  0.00000000000E+00  0.00000000000E+00 -0.16915668442E+04  0.16915668442E+04  0.25500000920E-02 0.  1.
    10030    2    1    2    0    0  0.00000000000E+00  0.00000000000E+00  0.65897786186E+03  0.40421115503E+04  0.39880338467E+04 0.  0.
        2    1    3    3  502    0 -0.13074591851E+04 -0.14978392948E+04  0.17533643005E+03  0.19959245822E+04  0.25500000920E-02 0.  1.
       -2    1    3    3    0  502  0.13074591851E+04  0.14978392948E+04  0.48364143181E+03  0.20461869681E+04  0.25500000920E-02 0. -1.
</event>
<event>
 5   0  0.8438211E-08  0.3879227E+04  0.7818609E-02  0.8029364E-01
        2   -1    0    0  501    0  0.00000000000E+00  0.00000000000E+00  0.29528132060E+04  0.29528132060E+04  0.25500000920E-02 0.  1.
       -2   -1    0    0    0  501  0.00000000000E+00  0.00000000000E+00 -0.12740733150E+04  0.12740733150E+04  0.25500000920E-02 0. -1.
    10030    2    1    2    0    0  0.00000000000E+00  0.00000000000E+00  0.16787398910E+04  0.42268865210E+04  0.38792269900E+04 0.  0.
        5    1    3    3  502    0 -0.18469873335E+04  0.31791968102E+03  0.29494835344E+03  0.18972221153E+04  0.46999998093E+01 0. -1.
       -5    1    3    3    0  502  0.18469873335E+04 -0.31791968102E+03  0.13837915375E+04  0.23296644057E+04  0.46999998093E+01 0.  1.
</event>
<event>
 5   0  0.2632875E-08  0.3891438E+04  0.7818609E-02  0.8026812E-01
        1   -1    0    0  501    0  0.00000000000E+00  0.00000000000E+00  0.15676616945E+04  0.15676616945E+04  0.50400001928E-02 0.  1.
       -1   -1    0    0    0  501  0.00000000000E+00  0.00000000000E+00 -0.24149491867E+04  0.24149491867E+04  0.50400001928E-02 0. -1.
    10030    2    1    2    0    0  0.00000000000E+00  0.00000000000E+00 -0.84728749221E+03  0.39826108813E+04  0.38914384663E+04 0.  0.
        1    1    3    3  502    0  0.94100144669E+03 -0.85725189066E+03  0.10823829553E+04  0.16709031656E+04  0.50400001928E-02 0.  1.
       -1    1    3    3    0  502 -0.94100144669E+03  0.85725189066E+03 -0.19296704475E+04  0.23117077157E+04  0.50400001928E-02 0. -1.
</event>
<event>
 5   0  0.8676098E-08  0.3885869E+04  0.7818609E-02  0.8027975E-01
       -2   -1    0    0    0  501  0.00000000000E+00  0.00000000000E+00  0.17052517677E+04  0.17052517677E+04  0.25500000920E-02 0. -1.
        2   -1    0    0  501    0  0.00000000000E+00  0.00000000000E+00 -0.22137463071E+04  0.22137463071E+04  0.25500000920E-02 0.  1.
    10030    2    1    2    0    0  0.00000000000E+00  0.00000000000E+00 -0.50849453941E+03  0.39189980749E+04  0.38858691710E+04 0.  0.
        3    1    3    3  502    0  0.18242493629E+04 -0.35277334455E+03  0.31862718303E+03  0.18851679137E+04  0.10100000352E+00 0. -1.
       -3    1    3    3    0  502 -0.18242493629E+04  0.35277334455E+03 -0.82712172244E+03  0.20338301612E+04  0.10100000352E+00 0.  1.
</event>
<event>
 5   0  0.2632875E-08  0.3901348E+04  0.7818609E-02  0.8024749E-01
       -1   -1    0    0    0  501  0.00000000000E+00  0.00000000000E+00  0.16750721249E+04  0.16750721249E+04  0.50400001928E-02 0.  1.
        1   -1    0    0  501    0  0.00000000000E+00  0.00000000000E+00 -0.22716205992E+04  0.22716205992E+04  0.50400001928E-02 0. -1.
    10030    2    1    2    0    0  0.00000000000E+00  0.00000000000E+00 -0.59654847424E+03  0.39466927241E+04  0.39013476359E+04 0.  0.
        1    1    3    3  502    0  0.27862030976E+03  0.15627924357E+04  0.84855947999E+03  0.18000007403E+04  0.50400001928E-02 0. -1.
       -1    1    3    3    0  502 -0.27862030976E+03 -0.15627924357E+04 -0.14451079542E+04  0.21466919838E+04  0.50400001928E-02 0.  1.
</event>
<event>
 5   0  0.8476262E-08  0.3853604E+04  0.7818609E-02  0.8034748E-01
        2   -1    0    0  501    0  0.00000000000E+00  0.00000000000E+00  0.21820272738E+04  0.21820272738E+04  0.25500000920E-02 0. -1.
       -2   -1    0    0    0  501  0.00000000000E+00  0.00000000000E+00 -0.17014296476E+04  0.17014296476E+04  0.25500000920E-02 0.  1.
    10030    2    1    2    0    0  0.00000000000E+00  0.00000000000E+00  0.48059762619E+03  0.38834569214E+04  0.38536039731E+04 0.  0.
        2    1    3    3  502    0  0.44399760022E+03  0.12200628000E+03  0.21257675513E+04  0.21750648458E+04  0.25500000920E-02 0. -1.
       -2    1    3    3    0  502 -0.44399760022E+03 -0.12200628000E+03 -0.16451699251E+04  0.17083920756E+04  0.25500000920E-02 0.  1.
</event>
<event>
 5   0  0.8438211E-08  0.3893434E+04  0.7818609E-02  0.8026396E-01
       -2   -1    0    0    0  501  0.00000000000E+00  0.00000000000E+00  0.12800219169E+04  0.12800219170E+04  0.25500000920E-02 0.  1.
        2   -1    0    0  501    0  0.00000000000E+00  0.00000000000E+00 -0.29606583064E+04  0.29606583064E+04  0.25500000920E-02 0. -1.
    10030    2    1    2    0    0  0.00000000000E+00  0.00000000000E+00 -0.16806363894E+04  0.42406802233E+04  0.38934342274E+04 0.  0.
        5    1    3    3  502    0 -0.45608309837E+03  0.12086883281E+04  0.74584192898E+03  0.14917243512E+04  0.46999998093E+01 0.  1.
       -5    1    3    3    0  502  0.45608309837E+03 -0.12086883281E+04 -0.24264783184E+04  0.27489558721E+04  0.46999998093E+01 0. -1.
</event>
<event>
 5   0  0.2632875E-08  0.3805843E+04  0.7818609E-02  0.8044902E-01
        1   -1    0    0  501    0  0.00000000000E+00  0.00000000000E+00  0.13726619895E+04  0.13726619895E+04  0.50400001928E-02 0. -1.
       -1   -1    0    0    0  501  0.00000000000E+00  0.00000000000E+00 -0.26380206251E+04  0.26380206251E+04  0.50400001928E-02 0.  1.
    10030    2    1    2    0    0  0.00000000000E+00  0.00000000000E+00 -0.12653586356E+04  0.40106826145E+04  0.38058432125E+04 0.  0.
        3    1    3    3  502    0 -0.17579769249E+04 -0.67013817470E+03 -0.93360527258E+03  0.21002825659E+04  0.10100000352E+00 0.  1.
       -3    1    3    3    0  502  0.17579769249E+04  0.67013817470E+03 -0.33175336299E+03  0.19104000486E+04  0.10100000352E+00 0. -1.
</event>
<event>
 5   0  0.2632875E-08  0.3895362E+04  0.7818609E-02  0.8025994E-01
        1   -1    0    0  501    0  0.00000000000E+00  0.00000000000E+00  0.20942385674E+04  0.20942385674E+04  0.50400001928E-02 0.  1.
       -1   -1    0    0    0  501  0.00000000000E+00  0.00000000000E+00 -0.18113800002E+04  0.18113800002E+04  0.50400001928E-02 0. -1.
    10030    2    1    2    0    0  0.00000000000E+00  0.00000000000E+00  0.28285856713E+03  0.39056185676E+04  0.38953622972E+04 0.  0.
        1    1    3    3  502    0 -0.16885807118E+04  0.29902111519E+02  0.11141707755E+04  0.20232586274E+04  0.50400001928E-02 0.  1.
       -1    1    3    3    0  502  0.16885807118E+04 -0.29902111519E+02 -0.83131220839E+03  0.18823599402E+04  0.50400001928E-02 0. -1.
</event>
<event>
 5   0  0.2632875E-08  0.3912437E+04  0.7818609E-02  0.8022447E-01
        1   -1    0    0  501    0  0.00000000000E+00  0.00000000000E+00  0.19736741408E+04  0.19736741408E+04  0.50400001928E-02 0. -1.
       -1   -1    0    0    0  501  0.00000000000E+00  0.00000000000E+00 -0.19389174483E+04  0.19389174483E+04  0.50400001928E-02 0.  1.
    10030    2    1    2    0    0  0.00000000000E+00  0.00000000000E+00  0.34756692514E+02  0.39125915891E+04  0.39124372092E+04 0.  0.
        5    1    3    3  502    0  0.15827932686E+04  0.11304171452E+04  0.22641215658E+03  0.19581527029E+04  0.46999998093E+01 0. -1.
       -5    1    3    3    0  502 -0.15827932686E+04 -0.11304171452E+04 -0.19165546406E+03  0.19544388863E+04  0.46999998093E+01 0.  1.
</event>
<event>
 5   0  0.2632875E-08  0.3799556E+04  0.7818609E-02  0.8046250E-01
       -1   -1    0    0    0  501  0.00000000000E+00  0.00000000000E+00  0.18331372508E+04  0.18331372508E+04  0.50400001928E-02 0.  1.
        1   -1    0    0  501    0  0.00000000000E+00  0.00000000000E+00 -0.19688417545E+04  0.19688417545E+04  0.50400001928E-02 0. -1.
    10030    2    1    2    0    0  0.00000000000E+00  0.00000000000E+00 -0.13570450374E+03  0.38019790053E+04  0.37995563747E+04 0.  0.
        3    1    3    3  502    0 -0.14544768419E+04  0.26455969785E+03  0.11260817881E+04  0.18583742683E+04  0.10100000352E+00 0.  1.
       -3    1    3    3    0  502  0.14544768419E+04 -0.26455969785E+03 -0.12617862918E+04  0.19436047370E+04  0.10100000352E+00 0. -1.
</event>
<event>
 5   0  0.8438211E-08  0.3893900E+04  0.7818609E-02  0.8026299E-01
        2   -1    0    0  501    0  0.00000000000E+00  0.00000000000E+00  0.24964818894E+04  0.24964818894E+04  0.25500000920E-02 0.  1.
       -2   -1    0    0    0  501  0.00000000000E+00  0.00000000000E+00 -0.15183828375E+04  0.15183828375E+04  0.25500000920E-02 0. -1.
    10030    2    1    2    0    0  0.00000000000E+00  0.00000000000E+00  0.97809905186E+03  0.40148647269E+04  0.38939004892E+04 0.  0.
        5    1    3    3  502    0  0.63827850367E+03  0.14271662948E+04 -0.70733702039E+03  0.17159693563E+04  0.46999998093E+01 0. -1.
       -5    1    3    3    0  502 -0.63827850367E+03 -0.14271662948E+04  0.16854360722E+04  0.22988953706E+04  0.46999998093E+01 0.  1.
</event>
<event>
 5   0  0.8438211E-08  0.3933286E+04  0.7818609E-02  0.8018142E-01
        2   -1    0    0  501    0  0.00000000000E+00  0.00000000000E+00  0.21593836328E+04  0.21593836328E+04  0.25500000920E-02 0.  1.
       -2   -1    0    0    0  501  0.00000000000E+00  0.00000000000E+00 -0.17911061959E+04  0.17911061959E+04  0.25500000920E-02 0. -1.
    10030    2    1    2    0    0  0.00000000000E+00  0.00000000000E+00  0.36827743694E+03  0.39504898287E+04  0.39332863634E+04 0.  0.
        5    1    3    3  502    0 -0.19671695520E+03  0.61950717231E+03  0.20483757345E+04  0.21490351176E+04  0.46999998093E+01 0.  1.
       -5    1    3    3    0  502  0.19671695520E+03 -0.61950717231E+03 -0.16800982975E+04  0.18014547111E+04  0.46999998093E+01 0. -1.
</event>
<event>
 5   0  0.2632875E-08  0.3893142E+04  0.7818609E-02  0.8026457E-01
        1   -1    0    0  501    0  0.00000000000E+00  0.00000000000E+00  0.21868224747E+04  0.21868224747E+04  0.50400001928E-02 0.  1.
       -1   -1    0    0    0  501  0.00000000000E+00  0.00000000000E+00 -0.17327144131E+04  0.17327144131E+04  0.50400001928E-02 0. -1.
    10030    2    1    2    0    0  0.00000000000E+00  0.00000000000E+00  0.45410806153E+03  0.39195368878E+04  0.38931420836E+04 0.  0.
        1    1    3    3  502    0  0.12900125045E+04 -0.11875032759E+04  0.10782698642E+04  0.20583882511E+04  0.50400001928E-02 0.  1.
       -1    1    3    3    0  502 -0.12900125045E+04  0.11875032759E+04 -0.62416180263E+03  0.18611486367E+04  0.50400001928E-02 0. -1.
</event>
<event>
 5   0  0.2632875E-08  0.3899664E+04  0.7818609E-02  0.8025099E-01
        3   -1    0    0  501    0  0.00000000000E+00  0.00000000000E+00  0.21724539581E+04  0.21724539604E+04  0.10100000352E+00 0.  1.
       -3   -1    0    0    0  501  0.00000000000E+00  0.00000000000E+00 -0.17500232018E+04  0.17500232047E+04  0.10100000352E+00 0. -1.
    10030    2    1    2    0    0  0.00000000000E+00  0.00000000000E+00  0.42243075625E+03  0.39224771652E+04  0.38996640070E+04 0.  0.
        3    1    3    3  502    0  0.52069477509E+03 -0.12940546100E+04  0.15815894072E+04  0.21088208662E+04  0.10100000352E+00 0.  1.
       -3    1    3    3    0  502 -0.52069477509E+03  0.12940546100E+04 -0.11591586509E+04  0.18136562990E+04  0.10100000352E+00 0. -1.
</event>
<event>
 5   0  0.8676098E-08  0.3902185E+04  0.7818609E-02  0.8024575E-01
       -2   -1    0    0    0  501  0.00000000000E+00  0.00000000000E+00  0.12066792865E+04  0.12066792865E+04  0.25500000920E-02 0.  1.
        2   -1    0    0  501    0  0.00000000000E+00  0.00000000000E+00 -0.31547427597E+04  0.31547427597E+04  0.25500000920E-02 0. -1.
    10030    2    1    2    0    0  0.00000000000E+00  0.00000000000E+00 -0.19480634731E+04  0.43614220462E+04  0.39021854094E+04 0.  0.
        3    1    3    3  502    0 -0.13907386140E+04 -0.13667856072E+04 -0.10490579618E+04  0.22142220769E+04  0.10100000352E+00 0.  1.
       -3    1    3    3    0  502  0.13907386140E+04  0.13667856072E+04 -0.89900551137E+03  0.21471999693E+04  0.10100000352E+00 0. -1.
</event>
<event>
 5   0  0.8438211E-08  0.3900226E+04  0.7818609E-02  0.8024982E-01
       -2   -1    0    0    0  501  0.00000000000E+00  0.00000000000E+00  0.14716649279E+04  0.14716649279E+04  0.25500000920E-02 0. -1.
        2   -1    0    0  501    0  0.00000000000E+00  0.00000000000E+00 -0.25841072572E+04  0.25841072572E+04  0.25500000920E-02 0.  1.
    10030    2    1    2    0    0  0.00000000000E+00  0.00000000000E+00 -0.11124423293E+04  0.40557721850E+04  0.39002256449E+04 0.  0.
        5    1    3    3  502    0 -0.27910888333E+03 -0.19289804141E+04 -0.62240472397E+03  0.20460393293E+04  0.46999998093E+01 0. -1.
       -5    1    3    3    0  502  0.27910888333E+03  0.19289804141E+04 -0.49003760536E+03  0.20097328557E+04  0.46999998093E+01 0.  1.
</event>
<event>
 5   0  0.8342802E-08  0.3903938E+04  0.7818609E-02  0.8024211E-01
       -2   -1    0    0    0  501  0.00000000000E+00  0.00000000000E+00  0.23385635525E+04  0.23385635525E+04  0.25500000920E-02 0. -1.
        2   -1    0    0  501    0  0.00000000000E+00  0.00000000000E+00 -0.16292833929E+04  0.16292833929E+04  0.25500000920E-02 0.  1.
    10030    2    1    2    0    0  0.00000000000E+00  0.00000000000E+00  0.70928015952E+03  0.39678469454E+04  0.39039378885E+04 0.  0.
        4    1    3    3  502    0 -0.51548158171E+03 -0.10135523268E+04 -0.12578922132E+04  0.16956721420E+04  0.12699999809E+01 0.  1.
       -4    1    3    3    0  502  0.51548158171E+03  0.10135523268E+04  0.19671723727E+04  0.22721748034E+04  0.12699999809E+01 0. -1.
</event>
<event>
 5   0  0.2632875E-08  0.3900956E+04  0.7818609E-02  0.8024830E-01
       -1   -1    0    0    0  501  0.00000000000E+00  0.00000000000E+00  0.17758851419E+04  0.17758851419E+04  0.50400001928E-02 0. -1.
        1   -1    0    0  501    0  0.00000000000E+00  0.00000000000E+00 -0.21422358857E+04  0.21422358857E+04  0.50400001928E-02 0.  1.
    10030    2    1    2    0    0  0.00000000000E+00  0.00000000000E+00 -0.36635074379E+03  0.39181210277E+04  0.39009562315E+04 0.  0.
        3    1    3    3  502    0  0.14434719850E+04  0.13116250954E+04 -0.16326119620E+03  0.19571985057E+04  0.10100000352E+00 0. -1.
       -3    1    3    3    0  502 -0.14434719850E+04 -0.13116250954E+04 -0.20308954759E+03  0.19609225219E+04  0.10100000352E+00 0.  1.
</event>
<event>
 5   0  0.2632875E-08  0.3908153E+04  0.7818609E-02  0.8023336E-01
       -1   -1    0    0    0  501  0.00000000000E+00  0.00000000000E+00  0.16395683813E+04  0.16395683813E+04  0.50400001928E-02 0. -1.
        1   -1    0    0  501    0  0.00000000000E+00  0.00000000000E+00 -0.23289143775E+04  0.23289143775E+04  0.50400001928E-02 0.  1.
    10030    2    1    2    0    0  0.00000000000E+00  0.00000000000E+00 -0.68934599620E+03  0.39684827587E+04  0.39081526971E+04 0.  0.
        4    1    3    3  502    0  0.45169813751E+02 -0.63318726044E+03 -0.22212945839E+04  0.23102202623E+04  0.12699999809E+01 0.  1.
       -4    1    3    3    0  502 -0.45169813751E+02  0.63318726044E+03  0.15319485877E+04  0.16582624965E+04  0.12699999809E+01 0. -1.
</event>
<event>
 5   0  0.2632875E-08  0.3907482E+04  0.7818609E-02  0.8023475E-01
       -1   -1    0    0    0  501  0.00000000000E+00  0.00000000000E+00  0.19851601350E+04  0.19851601350E+04  0.50400001928E-02 0.  1.
        1   -1    0    0  501    0  0.00000000000E+00  0.00000000000E+00 -0.19228187376E+04  0.19228187376E+04  0.50400001928E-02 0. -1.
    10030    2    1    2    0    0  0.00000000000E+00  0.00000000000E+00  0.62341397381E+02  0.39079788727E+04  0.39074815955E+04 0.  0.
        4    1    3    3  502    0  0.77428636855E+03  0.11378367943E+04  0.14180373116E+04  0.19761132004E+04  0.12699999809E+01 0.  1.
       -4    1    3    3    0  502 -0.77428636855E+03 -0.11378367943E+04 -0.13556959142E+04  0.19318656722E+04  0.12699999809E+01 0. -1.
</event>
<event>
 5   0  0.2632875E-08  0.3883349E+04  0.7818609E-02  0.8028501E-01
       -1   -1    0    0    0  501  0.00000000000E+00  0.00000000000E+00  0.18809093144E+04  0.18809093144E+04  0.50400001928E-02 0.  1.
        1   -1    0    0  501    0  0.00000000000E+00  0.00000000000E+00 -0.20044028931E+04  0.20044028931E+04  0.50400001928E-02 0. -1.
    10030    2    1    2    0    0  0.00000000000E+00  0.00000000000E+00 -0.12349357870E+03  0.38853122075E+04  0.38833491069E+04 0.  0.
        4    1    3    3  502    0 -0.42126813806E+03 -0.38705755068E+03  0.17946744333E+04  0.18836502664E+04  0.12699999809E+01 0.  1.
       -4    1    3    3    0  502  0.42126813806E+03  0.38705755068E+03 -0.19181680120E+04  0.20016619412E+04  0.12699999809E+01 0. -1.
</event>
<event>
 5   0  0.2632875E-08  0.3928906E+04  0.7818609E-02  0.8019044E-01
       -1   -1    0    0    0  501  0.00000000000E+00  0.00000000000E+00  0.18194511648E+04  0.18194511648E+04  0.50400001928E-02 0.  1.
        1   -1    0    0  501    0  0.00000000000E+00  0.00000000000E+00 -0.21210106827E+04  0.21210106827E+04  0.50400001928E-02 0. -1.
    10030    2    1    2    0    0  0.00000000000E+00  0.00000000000E+00 -0.30155951792E+03  0.39404618475E+04  0.39289058819E+04 0.  0.
        1    1    3    3  502    0  0.32512950474E+03 -0.27311614594E+03  0.17728745962E+04  0.18230156220E+04  0.50400001928E-02 0.  1.
       -1    1    3    3    0  502 -0.32512950474E+03  0.27311614594E+03 -0.20744341141E+04  0.21174462255E+04  0.50400001928E-02 0. -1.
</event>
<event>
 5   0  0.2632875E-08  0.3907864E+04  0.7818609E-02  0.8023396E-01
        1   -1    0    0  501    0  0.00000000000E+00  0.00000000000E+00  0.16112161075E+04  0.16112161075E+04  0.50400001928E-02 0.  1.
       -1   -1    0    0    0  501  0.00000000000E+00  0.00000000000E+00 -0.23695457124E+04  0.23695457124E+04  0.50400001928E-02 0. -1.
    10030    2    1    2    0    0  0.00000000000E+00  0.00000000000E+00 -0.75832960496E+03  0.39807618199E+04  0.39078639789E+04 0.  0.
        5    1    3    3  502    0  0.17546888132E+03  0.80268975468E+03  0.14266788588E+04  0.16463701974E+04  0.46999998093E+01 0.  1.
       -5    1    3    3    0  502 -0.17546888132E+03 -0.80268975468E+03 -0.21850084638E+04  0.23343916226E+04  0.46999998093E+01 0. -1.
</event>
<event>
 5   0  0.8342802E-08  0.3899795E+04  0.7818609E-02  0.8025072E-01
        2   -1    0    0  501    0  0.00000000000E+00  0.00000000000E+00  0.16584262973E+04  0.16584262973E+04  0.25500000920E-02 0. -1.
       -2   -1    0    0    0  501  0.00000000000E+00  0.00000000000E+00 -0.22925948318E+04  0.22925948318E+04  0.25500000920E-02 0.  1.
    10030    2    1    2    0    0  0.00000000000E+00  0.00000000000E+00 -0.63416853443E+03  0.39510211291E+04  0.38997946398E+04 0.  0.
        4    1    3    3  502    0  0.12502511856E+04  0.12050952348E+04  0.58153647331E+03  0.18312751936E+04  0.12699999809E+01 0. -1.
       -4    1    3    3    0  502 -0.12502511856E+04 -0.12050952348E+04 -0.12157050077E+04  0.21197459355E+04  0.12699999809E+01 0.  1.
</event>
<event>
 5   0  0.2632875E-08  0.3890539E+04  0.7818609E-02  0.8027000E-01
       -3   -1    0    0    0  501  0.00000000000E+00  0.00000000000E+00  0.12939352454E+04  0.12939352494E+04  0.10100000352E+00 0. -1.
        3   -1    0    0  501    0  0.00000000000E+00  0.00000000000E+00 -0.29244688271E+04  0.29244688289E+04  0.10100000352E+00 0.  1.
    10030    2    1    2    0    0  0.00000000000E+00  0.00000000000E+00 -0.16305335817E+04  0.42184040782E+04  0.38905389352E+04 0.  0.
        3    1    3    3  502    0 -0.28543192153E+02 -0.54556720529E+03  0.12090483355E+04  0.13267464630E+04  0.10100000352E+00 0. -1.
       -3    1    3    3    0  502  0.28543192153E+02  0.54556720529E+03 -0.28395819172E+04  0.28916576152E+04  0.10100000352E+00 0.  1.
</event>
<event>
 5   0  0.8342802E-08  0.3960130E+04  0.7818609E-02  0.8012638E-01
        2   -1    0    0  501    0  0.00000000000E+00  0.00000000000E+00  0.11738596533E+04  0.11738596533E+04  0.25500000920E-02 0.  1.
       -2   -1    0    0    0  501  0.00000000000E+00  0.00000000000E+00 -0.33399709732E+04  0.33399709732E+04  0.25500000920E-02 0. -1.
    10030    2    1    2    0    0  0.00000000000E+00  0.00000000000E+00 -0.21661113200E+04  0.45138306265E+04  0.39601298810E+04 0.  0.
        4    1    3    3  502    0  0.12049381464E+04 -0.11424525419E+04  0.14646063975E+03  0.16668911419E+04  0.12699999809E+01 0.  1.
       -4    1    3    3    0  502 -0.12049381464E+04  0.11424525419E+04 -0.23125719597E+04  0.28469394846E+04  0.12699999809E+01 0. -1.
</event>
<event>
 5   0  0.2632875E-08  0.3917024E+04  0.7818609E-02  0.8021498E-01
        1   -1    0    0  501    0  0.00000000000E+00  0.00000000000E+00  0.28488691108E+04  0.28488691108E+04  0.50400001928E-02 0. -1.
       -1   -1    0    0    0  501  0.00000000000E+00  0.00000000000E+00 -0.13464182612E+04  0.13464182612E+04  0.50400001928E-02 0.  1.
    10030    2    1    2    0    0  0.00000000000E+00  0.00000000000E+00  0.15024508496E+04  0.41952873720E+04  0.39170240717E+04 0.  0.
        1    1    3    3  502    0 -0.15730839483E+04  0.11368644128E+04  0.47046678880E+03  0.19970960921E+04  0.50400001928E-02 0.  1.
       -1    1    3    3    0  502  0.15730839483E+04 -0.11368644128E+04  0.10319840608E+04  0.21981912800E+04  0.50400001928E-02 0. -1.
</event>
<event>
 5   0  0.8551754E-08  0.3893994E+04  0.7818609E-02  0.8026279E-01
       -2   -1    0    0    0  501  0.00000000000E+00  0.00000000000E+00  0.13275416483E+04  0.13275416483E+04  0.25500000920E-02 0. -1.
        2   -1    0    0  501    0  0.00000000000E+00  0.00000000000E+00 -0.28555016625E+04  0.28555016625E+04  0.25500000920E-02 0.  1.
    10030    2    1    2    0    0  0.00000000000E+00  0.00000000000E+00 -0.15279600141E+04  0.41830433108E+04  0.38939940338E+04 0.  0.
        1    1    3    3  502    0 -0.13462316369E+04  0.13489644256E+04 -0.33596628054E+03  0.19351790572E+04  0.50400001928E-02 0.  1.
       -1    1    3    3    0  502  0.13462316369E+04 -0.13489644256E+04 -0.11919937336E+04  0.22478642536E+04  0.50400001928E-02 0. -1.
</event>
<event>
 5   0  0.2632875E-08  0.3902370E+04  0.7818609E-02  0.8024536E-01
       -1   -1    0    0    0  501  0.00000000000E+00  0.00000000000E+00  0.18827737015E+04  0.18827737015E+04  0.50400001928E-02 0.  1.
        1   -1    0    0  501    0  0.00000000000E+00  0.00000000000E+00 -0.20220824663E+04  0.20220824663E+04  0.50400001928E-02 0. -1.
    10030    2    1    2    0    0  0.00000000000E+00  0.00000000000E+00 -0.13930876487E+03  0.39048561678E+04  0.39023704026E+04 0.  0.
        3    1    3    3  502    0 -0.19479656864E+04  0.22495048794E+02  0.40175896119E+02  0.19485098037E+04  0.10100000352E+00 0. -1.
       -3    1    3    3    0  502  0.19479656864E+04 -0.22495048794E+02 -0.17948466099E+03  0.19563463641E+04  0.10100000352E+00 0.  1.
</event>
<event>
 5   0  0.8476262E-08  0.3914003E+04  0.7818609E-02  0.8022123E-01
       -2   -1    0    0    0  501  0.00000000000E+00  0.00000000000E+00  0.15900440930E+04  0.15900440930E+04  0.25500000920E-02 0.  1.
        2   -1    0    0  501    0  0.00000000000E+00  0.00000000000E+00 -0.24086473462E+04  0.24086473462E+04  0.25500000920E-02 0. -1.
    10030    2    1    2    0    0  0.00000000000E+00  0.00000000000E+00 -0.81860325317E+03  0.39986914393E+04  0.39140033138E+04 0.  0.
        2    1    3    3  502    0  0.14054328766E+04  0.12551456536E+04 -0.94915091564E+03  0.21098624702E+04  0.25500000920E-02 0. -1.
       -2    1    3    3    0  502 -0.14054328766E+04 -0.12551456536E+04  0.13054766246E+03  0.18888289691E+04  0.25500000920E-02 0.  1.
</event>
<event>
 5   0  0.2632875E-08  0.3902037E+04  0.7818609E-02  0.8024606E-01
        1   -1    0    0  501    0  0.00000000000E+00  0.00000000000E+00  0.26813477154E+04  0.26813477154E+04  0.50400001928E-02 0.  1.
       -1   -1    0    0    0  501  0.00000000000E+00  0.00000000000E+00 -0.14196121397E+04  0.14196121397E+04  0.50400001928E-02 0. -1.
    10030    2    1    2    0    0  0.00000000000E+00  0.00000000000E+00  0.12617355757E+04  0.41009598551E+04  0.39020372973E+04 0.  0.
        1    1    3    3  502    0 -0.51441793415E+03  0.85953237007E+03 -0.11287149133E+04  0.15091120110E+04  0.50400001928E-02 0.  1.
       -1    1    3    3    0  502  0.51441793415E+03 -0.85953237007E+03  0.23904504890E+04  0.25918478440E+04  0.50400001928E-02 0. -1.
</event>
<event>
 5   0  0.2632875E-08  0.3928860E+04  0.7818609E-02  0.8019053E-01
       -1   -1    0    0    0  501  0.00000000000E+00  0.00000000000E+00  0.20155738855E+04  0.20155738855E+04  0.50400001928E-02 0. -1.
        1   -1    0    0  501    0  0.00000000000E+00  0.00000000000E+00 -0.19145840813E+04  0.19145840813E+04  0.50400001928E-02 0.  1.
    10030    2    1    2    0    0  0.00000000000E+00  0.00000000000E+00  0.10098980422E+03  0.39301579668E+04  0.39288602296E+04 0.  0.
        5    1    3    3  502    0 -0.11492404719E+04  0.11693611198E+04  0.11328895053E+04  0.19928923232E+04  0.46999998093E+01 0. -1.
       -5    1    3    3    0  502  0.11492404719E+04 -0.11693611198E+04 -0.10318997011E+04  0.19372656436E+04  0.46999998093E+01 0.  1.
</event>
<event>
 5   0  0.2632875E-08  0.3907294E+04  0.7818609E-02  0.8023514E-01
       -1   -1    0    0    0  501  0.00000000000E+00  0.00000000000E+00  0.20411169047E+04  0.20411169047E+04  0.50400001928E-02 0.  1.
        1   -1    0    0  501    0  0.00000000000E+00  0.00000000000E+00 -0.18699252469E+04  0.18699252469E+04  0.50400001928E-02 0. -1.
    10030    2    1    2    0    0  0.00000000000E+00  0.00000000000E+00  0.17119165780E+03  0.39110421516E+04  0.39072937090E+04 0.  0.
        1    1    3    3  502    0 -0.18751814564E+04 -0.53402571514E+03  0.20919332775E+03  0.19609311072E+04  0.50400001928E-02 0.  1.
       -1    1    3    3    0  502  0.18751814564E+04  0.53402571514E+03 -0.38001669950E+02  0.19501110444E+04  0.50400001928E-02 0. -1.
</event>
<event>
 5   0  0.8438211E-08  0.3661930E+04  0.7818609E-02  0.8076451E-01
       -2   -1    0    0    0  501  0.00000000000E+00  0.00000000000E+00  0.18665508364E+04  0.18665508364E+04  0.25500000920E-02 0. -1.
        2   -1    0    0  501    0  0.00000000000E+00  0.00000000000E+00 -0.17960579045E+04  0.17960579045E+04  0.25500000920E-02 0.  1.
    10030    2    1    2    0    0  0.00000000000E+00  0.00000000000E+00  0.70492931931E+02  0.36626087409E+04  0.36619303018E+04 0.  0.
        5    1    3    3  502    0  0.66358550481E+02 -0.18048085087E+04 -0.26593069894E+03  0.18255077203E+04  0.46999998093E+01 0. -1.
       -5    1    3    3    0  502 -0.66358550481E+02  0.18048085087E+04  0.33642363087E+03  0.18371010206E+04  0.46999998093E+01 0.  1.
</event>
<event>
 5   0  0.8676098E-08  0.3911932E+04  0.7818609E-02  0.8022552E-01
        2   -1    0    0  501    0  0.00000000000E+00  0.00000000000E+00  0.20897337572E+04  0.20897337572E+04  0.25500000920E-02 0. -1.
       -2   -1    0    0    0  501  0.00000000000E+00  0.00000000000E+00 -0.18307611330E+04  0.18307611330E+04  0.25500000920E-02 0.  1.
    10030    2    1    2    0    0  0.00000000000E+00  0.00000000000E+00  0.25897262417E+03  0.39204948902E+04  0.39119321779E+04 0.  0.
        3    1    3    3  502    0  0.47592862303E+03  0.16668321403E+04 -0.77856864332E+03  0.19002648712E+04  0.10100000352E+00 0.  1.
       -3    1    3    3    0  502 -0.47592862303E+03 -0.16668321403E+04  0.10375412675E+04  0.20202300191E+04  0.10100000352E+00 0. -1.
</event>
<event>
 5   0  0.8551754E-08  0.3913824E+04  0.7818609E-02  0.8022160E-01
       -2   -1    0    0    0  501  0.00000000000E+00  0.00000000000E+00  0.21165381682E+04  0.21165381682E+04  0.25500000920E-02 0.  1.
        2   -1    0    0  501    0  0.00000000000E+00  0.00000000000E+00 -0.18093244589E+04  0.18093244589E+04  0.25500000920E-02 0. -1.
    10030    2    1    2    0    0  0.00000000000E+00  0.00000000000E+00  0.30721370931E+03  0.39258626271E+04  0.39138238468E+04 0.  0.
        1    1    3    3  502    0  0.10175022848E+04  0.15275399162E+04 -0.52731490460E+03  0.19096465914E+04  0.50400001928E-02 0. -1.
       -1    1    3    3    0  502 -0.10175022848E+04 -0.15275399162E+04  0.83452861390E+03  0.20162160357E+04  0.50400001928E-02 0.  1.
</event>
<event>
 5   0  0.2632875E-08  0.3913583E+04  0.7818609E-02  0.8022210E-01
        1   -1    0    0  501    0  0.00000000000E+00  0.00000000000E+00  0.11443357993E+04  0.11443357993E+04  0.50400001928E-02 0. -1.
       -1   -1    0    0    0  501  0.00000000000E+00  0.00000000000E+00 -0.33460746829E+04  0.33460746829E+04  0.50400001928E-02 0.  1.
    10030    2    1    2    0    0  0.00000000000E+00  0.00000000000E+00 -0.22017388837E+04  0.44904104822E+04  0.39135830370E+04 0.  0.
        2    1    3    3  502    0 -0.15263139353E+04  0.11704626682E+04 -0.15136368601E+04  0.24475934366E+04  0.25500000920E-02 0. -1.
       -2    1    3    3    0  502  0.15263139353E+04 -0.11704626682E+04 -0.68810202358E+03  0.20428170456E+04  0.25500000920E-02 0.  1.
</event>
<event>
 5   0  0.2632875E-08  0.3901441E+04  0.7818609E-02  0.8024730E-01
       -1   -1    0    0    0  501  0.00000000000E+00  0.00000000000E+00  0.16176724933E+04  0.16176724933E+04  0.50400001928E-02 0. -1.
        1   -1    0    0  501    0  0.00000000000E+00  0.00000000000E+00 -0.23523366346E+04  0.23523366346E+04  0.50400001928E-02 0.  1.
    10030    2    1    2    0    0  0.00000000000E+00  0.00000000000E+00 -0.73466414128E+03  0.39700091279E+04  0.39014408973E+04 0.  0.
        1    1    3    3  502    0  0.83727147192E+03  0.10054048297E+03  0.14226106994E+04  0.16537693638E+04  0.50400001928E-02 0. -1.
       -1    1    3    3    0  502 -0.83727147192E+03 -0.10054048297E+03 -0.21572748407E+04  0.23162397641E+04  0.50400001928E-02 0.  1.
</event>
<event>
 5   0  0.8438211E-08  0.3894857E+04  0.7818609E-02  0.8026100E-01
       -2   -1    0    0    0  501  0.00000000000E+00  0.00000000000E+00  0.17073317913E+04  0.17073317913E+04  0.25500000920E-02 0.  1.
        2   -1    0    0  501    0  0.00000000000E+00  0.00000000000E+00 -0.22212898115E+04  0.22212898115E+04  0.25500000920E-02 0. -1.
    10030    2    1    2    0    0  0.00000000000E+00  0.00000000000E+00 -0.51395802013E+03  0.39286216028E+04  0.38948574880E+04 0.  0.
        5    1    3    3  502    0  0.13196412716E+04 -0.52052656197E+03 -0.16027321972E+04  0.21403676258E+04  0.46999998093E+01 0. -1.
       -5    1    3    3    0  502 -0.13196412716E+04  0.52052656197E+03  0.10887741771E+04  0.17882539770E+04  0.46999998093E+01 0.  1.
</event>
<event>
 5   0  0.2632875E-08  0.3899895E+04  0.7818609E-02  0.8025051E-01
        1   -1    0    0  501    0  0.00000000000E+00  0.00000000000E+00  0.21706721387E+04  0.21706721387E+04  0.50400001928E-02 0.  1.
       -1   -1    0    0    0  501  0.00000000000E+00  0.00000000000E+00 -0.17516673921E+04  0.17516673921E+04  0.50400001928E-02 0. -1.
    10030    2    1    2    0    0  0.00000000000E+00  0.00000000000E+00  0.41900474662E+03  0.39223395308E+04  0.38998951803E+04 0.  0.
        5    1    3    3  502    0 -0.97091699531E+03  0.15596597666E+04  0.86675785138E+03  0.20313812203E+04  0.46999998093E+01 0. -1.
       -5    1    3    3    0  502  0.97091699531E+03 -0.15596597666E+04 -0.44775310476E+03  0.18909583105E+04  0.46999998093E+01 0.  1.
</event>
<event>
 5   0  0.2632875E-08  0.3921593E+04  0.7818609E-02  0.8020553E-01
       -1   -1    0    0    0  501  0.00000000000E+00  0.00000000000E+00  0.29167586386E+04  0.29167586386E+04  0.50400001928E-02 0.  1.
        1   -1    0    0  501    0  0.00000000000E+00  0.00000000000E+00 -0.13181489409E+04  0.13181489409E+04  0.50400001928E-02 0. -1.
    10030    2    1    2    0    0  0.00000000000E+00  0.00000000000E+00  0.15986096977E+04  0.42349075795E+04  0.39215926919E+04 0.  0.
        4    1    3    3  502    0  0.46028952553E+02 -0.20109185907E+03 -0.13063970107E+04  0.13225851060E+04  0.12699999809E+01 0. -1.
       -4    1    3    3    0  502 -0.46028952553E+02  0.20109185907E+03  0.29050067084E+04  0.29123224734E+04  0.12699999809E+01 0.  1.
</event>
<event>
 5   0  0.8438211E-08  0.3909080E+04  0.7818609E-02  0.8023143E-01
       -2   -1    0    0    0  501  0.00000000000E+00  0.00000000000E+00  0.19958428559E+04  0.19958428559E+04  0.25500000920E-02 0.  1.
        2   -1    0    0  501    0  0.00000000000E+00  0.00000000000E+00 -0.19140914827E+04  0.19140914827E+04  0.25500000920E-02 0. -1.
    10030    2    1    2    0    0  0.00000000000E+00  0.00000000000E+00  0.81751373246E+02  0.39099343386E+04  0.39090795905E+04 0.  0.
        5    1    3    3  502    0 -0.95914392438E+03 -0.37272012754E+03 -0.16212115733E+04  0.19202152005E+04  0.46999998093E+01 0. -1.
       -5    1    3    3    0  502  0.95914392438E+03  0.37272012754E+03  0.17029629465E+04  0.19897191380E+04  0.46999998093E+01 0.  1.
</event>
<event>
 5   0  0.8438211E-08  0.3887113E+04  0.7818609E-02  0.8027715E-01
        2   -1    0    0  501    0  0.00000000000E+00  0.00000000000E+00  0.12559613797E+04  0.12559613797E+04  0.25500000920E-02 0.  1.
       -2   -1    0    0    0  501  0.00000000000E+00  0.00000000000E+00 -0.30075865191E+04  0.30075865191E+04  0.25500000920E-02 0. -1.
    10030    2    1    2    0    0  0.00000000000E+00  0.00000000000E+00 -0.17516251394E+04  0.42635478988E+04  0.38871133321E+04 0.  0.
        5    1    3    3  502    0  0.71340434690E+03 -0.26584802450E+03  0.10855935260E+04  0.13259548740E+04  0.46999998093E+01 0.  1.
       -5    1    3    3    0  502 -0.71340434690E+03  0.26584802450E+03 -0.28372186653E+04  0.29375930248E+04  0.46999998093E+01 0. -1.
</event>
<event>
 5   0  0.8342802E-08  0.3913640E+04  0.7818609E-02  0.8022198E-01
       -2   -1    0    0    0  501  0.00000000000E+00  0.00000000000E+00  0.29871136715E+04  0.29871136715E+04  0.25500000920E-02 0.  1.
        2   -1    0    0  501    0  0.00000000000E+00  0.00000000000E+00 -0.12818874798E+04  0.12818874798E+04  0.25500000920E-02 0. -1.
    10030    2    1    2    0    0  0.00000000000E+00  0.00000000000E+00  0.17052261917E+04  0.42690011513E+04  0.39136395420E+04 0.  0.
        4    1    3    3  502    0  0.96583981050E+02  0.84509854325E+03 -0.10696806155E+04  0.13666522035E+04  0.12699999809E+01 0. -1.
       -4    1    3    3    0  502 -0.96583981050E+02 -0.84509854325E+03  0.27749068072E+04  0.29023489478E+04  0.12699999809E+01 0.  1.
</event>
<event>
 5   0  0.8551754E-08  0.3887403E+04  0.7818609E-02  0.8027654E-01
        2   -1    0    0  501    0  0.00000000000E+00  0.00000000000E+00  0.21417963456E+04  0.21417963456E+04  0.25500000920E-02 0. -1.
       -2   -1    0    0    0  501  0.00000000000E+00  0.00000000000E+00 -0.17639283796E+04  0.17639283796E+04  0.25500000920E-02 0.  1.
    10030    2    1    2    0    0  0.00000000000E+00  0.00000000000E+00  0.37786796597E+03  0.39057247252E+04  0.38874029157E+04 0.  0.
        1    1    3    3  502    0 -0.25095674547E+03  0.13788164590E+04 -0.11642102951E+04  0.18219494304E+04  0.50400001928E-02 0.  1.
       -1    1    3    3    0  502  0.25095674547E+03 -0.13788164590E+04  0.15420782611E+04  0.20837752948E+04  0.50400001928E-02 0. -1.
</event>
<event>
 5   0  0.8551754E-08  0.3897357E+04  0.7818609E-02  0.8025579E-01
        2   -1    0    0  501    0  0.00000000000E+00  0.00000000000E+00  0.23621092887E+04  0.23621092887E+04  0.25500000920E-02 0.  1.
       -2   -1    0    0    0  501  0.00000000000E+00  0.00000000000E+00 -0.16076089884E+04  0.16076089884E+04  0.25500000920E-02 0. -1.
    10030    2    1    2    0    0  0.00000000000E+00  0.00000000000E+00  0.75450030027E+03  0.39697182772E+04  0.38973571169E+04 0.  0.
        1    1    3    3  502    0 -0.60813143884E+03  0.54545580016E+03  0.21792792892E+04  0.23273598985E+04  0.50400001928E-02 0.  1.
       -1    1    3    3    0  502  0.60813143884E+03 -0.54545580016E+03 -0.14247789889E+04  0.16423583787E+04  0.50400001928E-02 0. -1.
</event>
<event>
 5   0  0.2632875E-08  0.3800739E+04  0.7818609E-02  0.8045996E-01
        1   -1    0    0  501    0  0.00000000000E+00  0.00000000000E+00  0.16458135328E+04  0.16458135328E+04  0.50400001928E-02 0.  1.
       -1   -1    0    0    0  501  0.00000000000E+00  0.00000000000E+00 -0.21942972861E+04  0.21942972861E+04  0.50400001928E-02 0. -1.
    10030    2    1    2    0    0  0.00000000000E+00  0.00000000000E+00 -0.54848375331E+03  0.38401108190E+04  0.38007389642E+04 0.  0.
        2    1    3    3  502    0  0.26582718611E+03 -0.17907936607E+04  0.30949572685E+03  0.18366800574E+04  0.25500000920E-02 0.  1.
       -2    1    3    3    0  502 -0.26582718611E+03  0.17907936607E+04 -0.85797948016E+03  0.20034307616E+04  0.25500000920E-02 0. -1.
</event>
<event>
 5   0  0.8551754E-08  0.3905723E+04  0.7818609E-02  0.8023840E-01
       -2   -1    0    0    0  501  0.00000000000E+00  0.00000000000E+00  0.27326599888E+04  0.27326599888E+04  0.25500000920E-02 0.  1.
        2   -1    0    0  501    0  0.00000000000E+00  0.00000000000E+00 -0.13955883016E+04  0.13955883016E+04  0.25500000920E-02 0. -1.
    10030    2    1    2    0    0  0.00000000000E+00  0.00000000000E+00  0.13370716872E+04  0.41282482904E+04  0.39057231405E+04 0.  0.
        1    1    3    3  502    0 -0.14146118069E+04  0.10356156450E+04  0.15778051567E+04  0.23586215128E+04  0.50400001928E-02 0.  1.
       -1    1    3    3    0  502  0.14146118069E+04 -0.10356156450E+04 -0.24073346945E+03  0.17696267775E+04  0.50400001928E-02 0. -1.
</event>
<event>
 5   0  0.2632875E-08  0.3901827E+04  0.7818609E-02  0.8024649E-01
       -1   -1    0    0    0  501  0.00000000000E+00  0.00000000000E+00  0.14814521406E+04  0.14814521406E+04  0.50400001928E-02 0.  1.
        1   -1    0    0  501    0  0.00000000000E+00  0.00000000000E+00 -0.25691437378E+04  0.25691437378E+04  0.50400001928E-02 0. -1.
    10030    2    1    2    0    0  0.00000000000E+00  0.00000000000E+00 -0.10876915972E+04  0.40505958784E+04  0.39018270028E+04 0.  0.
        5    1    3    3  502    0 -0.17358313441E+04 -0.84352276950E+03 -0.24766025237E+03  0.19457643250E+04  0.46999998093E+01 0.  1.
       -5    1    3    3    0  502  0.17358313441E+04  0.84352276950E+03 -0.84003134484E+03  0.21048315534E+04  0.46999998093E+01 0. -1.
</event>
<event>
 5   0  0.2632875E-08  0.3893838E+04  0.7818609E-02  0.8026312E-01
       -1   -1    0    0    0  501  0.00000000000E+00  0.00000000000E+00  0.13739159815E+04  0.13739159815E+04  0.50400001928E-02 0.  1.
        1   -1    0    0  501    0  0.00000000000E+00  0.00000000000E+00 -0.27588980958E+04  0.27588980958E+04  0.50400001928E-02 0. -1.
    10030    2    1    2    0    0  0.00000000000E+00  0.00000000000E+00 -0.13849821143E+04  0.41328140773E+04  0.38938383043E+04 0.  0.
        5    1    3    3  502    0  0.10952017531E+04  0.13255174932E+04 -0.16617799073E+04  0.23912335844E+04  0.46999998093E+01 0. -1.
       -5    1    3    3    0  502 -0.10952017531E+04 -0.13255174932E+04  0.27679779302E+03  0.17415804929E+04  0.46999998093E+01 0.  1.
</event>
<event>
 5   0  0.8342802E-08  0.3891331E+04  0.7818609E-02  0.8026835E-01
       -2   -1    0    0    0  501  0.00000000000E+00  0.00000000000E+00  0.22685579465E+04  0.22685579465E+04  0.25500000920E-02 0.  1.
        2   -1    0    0  501    0  0.00000000000E+00  0.00000000000E+00 -0.16687318104E+04  0.16687318104E+04  0.25500000920E-02 0. -1.
    10030    2    1    2    0    0  0.00000000000E+00  0.00000000000E+00  0.59982613610E+03  0.39372897569E+04  0.38913312935E+04 0.  0.
        4    1    3    3  502    0 -0.38831610777E+03  0.18741676030E+04 -0.53959732249E+02  0.19147341511E+04  0.12699999809E+01 0.  1.
       -4    1    3    3    0  502  0.38831610777E+03 -0.18741676030E+04  0.65378586834E+03  0.20225556057E+04  0.12699999809E+01 0. -1.
</event>
<event>
 5   0  0.2632875E-08  0.3888337E+04  0.7818609E-02  0.8027459E-01
       -1   -1    0    0    0  501  0.00000000000E+00  0.00000000000E+00  0.16181220080E+04  0.16181220081E+04  0.50400001928E-02 0. -1.
        1   -1    0    0  501    0  0.00000000000E+00  0.00000000000E+00 -0.23359126041E+04  0.23359126041E+04  0.50400001928E-02 0.  1.
    10030    2    1    2    0    0  0.00000000000E+00  0.00000000000E+00 -0.71779059608E+03  0.39540346122E+04  0.38883372249E+04 0.  0.
        1    1    3    3  502    0  0.16031034579E+04  0.18332396838E+03  0.74397669989E+03  0.17768088541E+04  0.50400001928E-02 0. -1.
       -1    1    3    3    0  502 -0.16031034579E+04 -0.18332396838E+03 -0.14617672960E+04  0.21772257581E+04  0.50400001928E-02 0.  1.
</event>
<event>
 5   0  0.8676098E-08  0.3900306E+04  0.7818609E-02  0.8024966E-01
        2   -1    0    0  501    0  0.00000000000E+00  0.00000000000E+00  0.20355021455E+04  0.20355021455E+04  0.25500000920E-02 0.  1.
       -2   -1    0    0    0  501  0.00000000000E+00  0.00000000000E+00 -0.18683825943E+04  0.18683825943E+04  0.25500000920E-02 0. -1.
    10030    2    1    2    0    0  0.00000000000E+00  0.00000000000E+00  0.16711955123E+03  0.39038847397E+04  0.39003060286E+04 0.  0.
        3    1    3    3  502    0 -0.11286678817E+04  0.12746686324E+04 -0.86832568238E+03  0.19111935565E+04  0.10100000352E+00 0. -1.
       -3    1    3    3    0  502  0.11286678817E+04 -0.12746686324E+04  0.10354452336E+04  0.19926911832E+04  0.10100000352E+00 0.  1.
</event>
<event>
 5   0  0.8676098E-08  0.3894655E+04  0.7818609E-02  0.8026142E-01
       -2   -1    0    0    0  501  0.00000000000E+00  0.00000000000E+00  0.23827233002E+04  0.23827233002E+04  0.25500000920E-02 0.  1.
        2   -1    0    0  501    0  0.00000000000E+00  0.00000000000E+00 -0.15914913774E+04  0.15914913774E+04  0.25500000920E-02 0. -1.
    10030    2    1    2    0    0  0.00000000000E+00  0.00000000000E+00  0.79123192276E+03  0.39742146775E+04  0.38946545864E+04 0.  0.
        3    1    3    3  502    0 -0.19040747478E+04  0.15826384391E+03  0.11718669487E+02  0.19106766935E+04  0.10100000352E+00 0. -1.
       -3    1    3    3    0  502  0.19040747478E+04 -0.15826384391E+03  0.77951325328E+03  0.20635379841E+04  0.10100000352E+00 0.  1.
</event>
<event>
 5   0  0.8676098E-08  0.3874968E+04  0.7818609E-02  0.8030256E-01
        2   -1    0    0  501    0  0.00000000000E+00  0.00000000000E+00  0.28646663997E+04  0.28646663997E+04  0.25500000920E-02 0.  1.
       -2   -1    0    0    0  501  0.00000000000E+00  0.00000000000E+00 -0.13103946851E+04  0.13103946851E+04  0.25500000920E-02 0. -1.
    10030    2    1    2    0    0  0.00000000000E+00  0.00000000000E+00  0.15542717146E+04  0.41750610848E+04  0.38749676772E+04 0.  0.
        3    1    3    3  502    0  0.12244827057E+04  0.13053635362E+04 -0.22289737456E+02  0.17899242165E+04  0.10100000352E+00 0.  1.
       -3    1    3    3    0  502 -0.12244827057E+04 -0.13053635362E+04  0.15765614521E+04  0.23851368683E+04  0.10100000352E+00 0. -1.
</event>
<event>
 5   0  0.2632875E-08  0.3887483E+04  0.7818609E-02  0.8027638E-01
        1   -1    0    0  501    0  0.00000000000E+00  0.00000000000E+00  0.26168770544E+04  0.26168770544E+04  0.50400001928E-02 0. -1.
       -1   -1    0    0    0  501  0.00000000000E+00  0.00000000000E+00 -0.14437554701E+04  0.14437554701E+04  0.50400001928E-02 0.  1.
    10030    2    1    2    0    0  0.00000000000E+00  0.00000000000E+00  0.11731215843E+04  0.40606325245E+04  0.38874827649E+04 0.  0.
        2    1    3    3  502    0 -0.18683663307E+04 -0.37897946456E+03  0.98253992979E+03  0.21447151079E+04  0.25500000920E-02 0. -1.
       -2    1    3    3    0  502  0.18683663307E+04  0.37897946456E+03  0.19058165455E+03  0.19159174166E+04  0.25500000920E-02 0.  1.
</event>
<event>
 5   0  0.8438211E-08  0.3894054E+04  0.7818609E-02  0.8026267E-01
        2   -1    0    0  501    0  0.00000000000E+00  0.00000000000E+00  0.17894199357E+04  0.17894199357E+04  0.25500000920E-02 0.  1.
       -2   -1    0    0    0  501  0.00000000000E+00  0.00000000000E+00 -0.21185152426E+04  0.21185152426E+04  0.25500000920E-02 0. -1.
    10030    2    1    2    0    0  0.00000000000E+00  0.00000000000E+00 -0.32909530691E+03  0.39079351783E+04  0.38940536253E+04 0.  0.
        5    1    3    3  502    0  0.42028278657E+03  0.65778244818E+03  0.16255081541E+04  0.18032232859E+04  0.46999998093E+01 0.  1.
       -5    1    3    3    0  502 -0.42028278657E+03 -0.65778244818E+03 -0.19546034610E+04  0.21047118923E+04  0.46999998093E+01 0. -1.
</event>
<event>
 5   0  0.8438211E-08  0.3907402E+04  0.7818609E-02  0.8023491E-01
       -2   -1    0    0    0  501  0.00000000000E+00  0.00000000000E+00  0.16334264715E+04  0.16334264715E+04  0.25500000920E-02 0.  1.
        2   -1    0    0  501    0  0.00000000000E+00  0.00000000000E+00 -0.23367740309E+04  0.23367740309E+04  0.25500000920E-02 0. -1.
    10030    2    1    2    0    0  0.00000000000E+00  0.00000000000E+00 -0.70334755948E+03  0.39702005024E+04  0.39074024927E+04 0.  0.
        5    1    3    3  502    0  0.63594301465E+03  0.16858459839E+04  0.41573020507E+03  0.18491495053E+04  0.46999998093E+01 0.  1.
       -5    1    3    3    0  502 -0.63594301465E+03 -0.16858459839E+04 -0.11190777645E+04  0.21210509972E+04  0.46999998093E+01 0. -1.
</event>
<event>
 5   0  0.8342802E-08  0.3879994E+04  0.7818609E-02  0.8029203E-01
       -2   -1    0    0    0  501  0.00000000000E+00  0.00000000000E+00  0.14122728892E+04  0.14122728892E+04  0.25500000920E-02 0. -1.
        2   -1    0    0  501    0  0.00000000000E+00  0.00000000000E+00 -0.26649157963E+04  0.26649157964E+04  0.25500000920E-02 0.  1.
    10030    2    1    2    0    0  0.00000000000E+00  0.00000000000E+00 -0.12526429071E+04  0.40771886856E+04  0.38799939852E+04 0.  0.
        4    1    3    3  502    0 -0.55973149164E+03  0.17531517469E+03 -0.25695074047E+04  0.26356032837E+04  0.12699999809E+01 0.  1.
       -4    1    3    3    0  502  0.55973149164E+03 -0.17531517469E+03  0.13168644975E+04  0.14415854019E+04  0.12699999809E+01 0. -1.
</event>
<event>
 5   0  0.8342802E-08  0.3891609E+04  0.7818609E-02  0.8026777E-01
       -2   -1    0    0    0  501  0.00000000000E+00  0.00000000000E+00  0.12154840194E+04  0.12154840194E+04  0.25500000920E-02 0. -1.
        2   -1    0    0  501    0  0.00000000000E+00  0.00000000000E+00 -0.31149358662E+04  0.31149358662E+04  0.25500000920E-02 0.  1.
    10030    2    1    2    0    0  0.00000000000E+00  0.00000000000E+00 -0.18994518468E+04  0.43304198855E+04  0.38916088019E+04 0.  0.
        4    1    3    3  502    0 -0.18112144586E+04 -0.23322513544E+02 -0.17405764646E+04  0.25121006741E+04  0.12699999809E+01 0.  1.
       -4    1    3    3    0  502  0.18112144586E+04  0.23322513544E+02 -0.15887538226E+03  0.18183192115E+04  0.12699999809E+01 0. -1.
</event>
<event>
 5   0  0.2632875E-08  0.3902862E+04  0.7818609E-02  0.8024434E-01
       -1   -1    0    0    0  501  0.00000000000E+00  0.00000000000E+00  0.15998761732E+04  0.15998761732E+04  0.50400001928E-02 0.  1.
        1   -1    0    0  501    0  0.00000000000E+00  0.00000000000E+00 -0.23802364609E+04  0.23802364609E+04  0.50400001928E-02 0. -1.
    10030    2    1    2    0    0  0.00000000000E+00  0.00000000000E+00 -0.78036028771E+03  0.39801126342E+04  0.39028623345E+04 0.  0.
        4    1    3    3  502    0  0.18445494452E+04 -0.10538194271E+03  0.25043671269E+03  0.18644538529E+04  0.12699999809E+01 0.  1.
       -4    1    3    3    0  502 -0.18445494452E+04  0.10538194271E+03 -0.10307970004E+04  0.21156587812E+04  0.12699999809E+01 0. -1.
</event>
<event>
 5   0  0.8676098E-08  0.3912445E+04  0.7818609E-02  0.8022446E-01
       -2   -1    0    0    0  501  0.00000000000E+00  0.00000000000E+00  0.16151301411E+04  0.16151301411E+04  0.25500000920E-02 0.  1.
        2   -1    0    0  501    0  0.00000000000E+00  0.00000000000E+00 -0.23693491729E+04  0.23693491729E+04  0.25500000920E-02 0. -1.
    10030    2    1    2    0    0  0.00000000000E+00  0.00000000000E+00 -0.75421903175E+03  0.39844793140E+04  0.39124454062E+04 0.  0.
        3    1    3    3  502    0 -0.92724324486E+03 -0.97385906841E+03 -0.18240517347E+04  0.22661302393E+04  0.10100000352E+00 0. -1.
       -3    1    3    3    0  502  0.92724324486E+03  0.97385906841E+03  0.10698327030E+04  0.17183490748E+04  0.10100000352E+00 0.  1.
</event>
<event>
 5   0  0.2632875E-08  0.3904229E+04  0.7818609E-02  0.8024150E-01
       -1   -1    0    0    0  501  0.00000000000E+00  0.00000000000E+00  0.19448121190E+04  0.19448121190E+04  0.50400001928E-02 0.  1.
        1   -1    0    0  501    0  0.00000000000E+00  0.00000000000E+00 -0.19594440801E+04  0.19594440801E+04  0.50400001928E-02 0. -1.
    10030    2    1    2    0    0  0.00000000000E+00  0.00000000000E+00 -0.14631961056E+02  0.39042561991E+04  0.39042287810E+04 0.  0.
        4    1    3    3  502    0  0.98550187614E+03 -0.54930719491E+03  0.15857415460E+04  0.19461578060E+04  0.12699999809E+01 0.  1.
       -4    1    3    3    0  502 -0.98550187614E+03  0.54930719491E+03 -0.16003735070E+04  0.19580983931E+04  0.12699999809E+01 0. -1.
</event>
<event>
 5   0  0.8551754E-08  0.3901992E+04  0.7818609E-02  0.8024615E-01
        2   -1    0    0  501    0  0.00000000000E+00  0.00000000000E+00  0.26586960198E+04  0.26586960198E+04  0.25500000920E-02 0.  1.
       -2   -1    0    0    0  501  0.00000000000E+00  0.00000000000E+00 -0.14316736167E+04  0.14316736167E+04  0.25500000920E-02 0. -1.
    10030    2    1    2    0    0  0.00000000000E+00  0.00000000000E+00  0.12270224031E+04  0.40903696365E+04  0.39019917716E+04 0.  0.
        1    1    3    3  502    0 -0.10816948389E+04 -0.16120639898E+04  0.81670108918E+03  0.21061373889E+04  0.50400001928E-02 0.  1.
       -1    1    3    3    0  502  0.10816948389E+04  0.16120639898E+04  0.41032131394E+03  0.19842322476E+04  0.50400001928E-02 0. -1.
</event>
<event>
 5   0  0.8476262E-08  0.3895704E+04  0.7818609E-02  0.8025923E-01
       -2   -1    0    0    0  501  0.00000000000E+00  0.00000000000E+00  0.22438679654E+04  0.22438679654E+04  0.25500000920E-02 0.  1.
        2   -1    0    0  501    0  0.00000000000E+00  0.00000000000E+00 -0.16908868907E+04  0.16908868907E+04  0.25500000920E-02 0. -1.
    10030    2    1    2    0    0  0.00000000000E+00  0.00000000000E+00  0.55298107468E+03  0.39347548561E+04  0.38957037501E+04 0.  0.
        2    1    3    3  502    0  0.70315270304E+03  0.93281544569E+03  0.18508193406E+04  0.21886298479E+04  0.25500000920E-02 0.  1.
       -2    1    3    3    0  502 -0.70315270304E+03 -0.93281544569E+03 -0.12978382659E+04  0.17461250081E+04  0.25500000920E-02 0. -1.
</event>
<event>
 5   0  0.2632875E-08  0.3908157E+04  0.7818609E-02  0.8023335E-01
        1   -1    0    0  501    0  0.00000000000E+00  0.00000000000E+00  0.18254390825E+04  0.18254390825E+04  0.50400001928E-02 0.  1.
       -1   -1    0    0    0  501  0.00000000000E+00  0.00000000000E+00 -0.20917830224E+04  0.20917830224E+04  0.50400001928E-02 0. -1.
    10030    2    1    2    0    0  0.00000000000E+00  0.00000000000E+00 -0.26634393994E+03  0.39172221049E+04  0.39081568450E+04 0.  0.
        1    1    3    3  502    0  0.11617367579E+04 -0.14168863124E+04  0.54753760787E+03  0.19123275214E+04  0.50400001928E-02 0. -1.
       -1    1    3    3    0  502 -0.11617367579E+04  0.14168863124E+04 -0.81388154781E+03  0.20048945835E+04  0.50400001928E-02 0.  1.
</event>
<event>
 5   0  0.2632875E-08  0.3871023E+04  0.7818609E-02  0.8031083E-01
       -1   -1    0    0    0  501  0.00000000000E+00  0.00000000000E+00  0.19932379187E+04  0.19932379187E+04  0.50400001928E-02 0.  1.
        1   -1    0    0  501    0  0.00000000000E+00  0.00000000000E+00 -0.18794569751E+04  0.18794569751E+04  0.50400001928E-02 0. -1.
    10030    2    1    2    0    0  0.00000000000E+00  0.00000000000E+00  0.11378094352E+03  0.38726948938E+04  0.38710230737E+04 0.  0.
        2    1    3    3  502    0 -0.62340506350E+03 -0.44965392785E+03  0.18339972404E+04  0.19885593795E+04  0.25500000920E-02 0.  1.
       -2    1    3    3    0  502  0.62340506350E+03  0.44965392785E+03 -0.17202162969E+04  0.18841355143E+04  0.25500000920E-02 0. -1.
</event>
<event>
 5   0  0.8342802E-08  0.3883526E+04  0.7818609E-02  0.8028464E-01
       -2   -1    0    0    0  501  0.00000000000E+00  0.00000000000E+00  0.21476413733E+04  0.21476413733E+04  0.25500000920E-02 0.  1.
        2   -1    0    0  501    0  0.00000000000E+00  0.00000000000E+00 -0.17556210001E+04  0.17556210001E+04  0.25500000920E-02 0. -1.
    10030    2    1    2    0    0  0.00000000000E+00  0.00000000000E+00  0.39202037317E+03  0.39032623733E+04  0.38835263849E+04 0.  0.
        4    1    3    3  502    0  0.16300368268E+04  0.82682153096E+02  0.12533001926E+04  0.20578190836E+04  0.12699999809E+01 0.  1.
       -4    1    3    3    0  502 -0.16300368268E+04 -0.82682153096E+02 -0.86127981942E+03  0.18454432897E+04  0.12699999809E+01 0. -1.
</event>
<event>
 5   0  0.8342802E-08  0.3935641E+04  0.7818609E-02  0.8017657E-01
        2   -1    0    0  501    0  0.00000000000E+00  0.00000000000E+00  0.29213544823E+04  0.29213544823E+04  0.25500000920E-02 0. -1.
       -2   -1    0    0    0  501  0.00000000000E+00  0.00000000000E+00 -0.13255210619E+04  0.13255210619E+04  0.25500000920E-02 0.  1.
    10030    2    1    2    0    0  0.00000000000E+00  0.00000000000E+00  0.15958334204E+04  0.42468755443E+04  0.39356406826E+04 0.  0.
        4    1    3    3  502    0 -0.13140651399E+04  0.63133816224E+03  0.22241665224E+04  0.26593746256E+04  0.12699999809E+01 0. -1.
       -4    1    3    3    0  502  0.13140651399E+04 -0.63133816224E+03 -0.62833310193E+03  0.15875009187E+04  0.12699999809E+01 0.  1.
</event>
<event>
 5   0  0.2632875E-08  0.4146121E+04  0.7818609E-02  0.7975701E-01
       -1   -1    0    0    0  501  0.00000000000E+00  0.00000000000E+00  0.21689930811E+04  0.21689930811E+04  0.50400001928E-02 0. -1.
        1   -1    0    0  501    0  0.00000000000E+00  0.00000000000E+00 -0.19813709712E+04  0.19813709712E+04  0.50400001928E-02 0.  1.
    10030    2    1    2    0    0  0.00000000000E+00  0.00000000000E+00  0.18762210991E+03  0.41503640523E+04  0.41461210439E+04 0.  0.
        4    1    3    3  502    0  0.13217481903E+04 -0.15314260409E+03 -0.14975036054E+04  0.20032447671E+04  0.12699999809E+01 0.  1.
       -4    1    3    3    0  502 -0.13217481903E+04  0.15314260409E+03  0.16851257153E+04  0.21471192852E+04  0.12699999809E+01 0. -1.
</event>
<event>
 5   0  0.2632875E-08  0.3895920E+04  0.7818609E-02  0.8025878E-01
        1   -1    0    0  501    0  0.00000000000E+00  0.00000000000E+00  0.24744812809E+04  0.24744812809E+04  0.50400001928E-02 0.  1.
       -1   -1    0    0    0  501  0.00000000000E+00  0.00000000000E+00 -0.15334724882E+04  0.15334724882E+04  0.50400001928E-02 0. -1.
    10030    2    1    2    0    0  0.00000000000E+00  0.00000000000E+00  0.94100879272E+03  0.40079537691E+04  0.38959204133E+04 0.  0.
        2    1    3    3  502    0 -0.17030033773E+04  0.68889619223E+03  0.11370168032E+04  0.21604642273E+04  0.25500000920E-02 0.  1.
       -2    1    3    3    0  502  0.17030033773E+04 -0.68889619223E+03 -0.19600801050E+03  0.18474895417E+04  0.25500000920E-02 0. -1.
</event>
<event>
 5   0  0.8438211E-08  0.3741077E+04  0.7818609E-02  0.8058919E-01
       -2   -1    0    0    0  501  0.00000000000E+00  0.00000000000E+00  0.19020867455E+04  0.19020867455E+04  0.25500000920E-02 0. -1.
        2   -1    0    0  501    0  0.00000000000E+00  0.00000000000E+00 -0.18395135840E+04  0.18395135840E+04  0.25500000920E-02 0.  1.
    10030    2    1    2    0    0  0.00000000000E+00  0.00000000000E+00  0.62573161544E+02  0.37416003295E+04  0.37410770675E+04 0.  0.
        5    1    3    3  502    0 -0.12976779919E+04  0.91921031743E+03  0.10162982035E+04  0.18872731405E+04  0.46999998093E+01 0. -1.
       -5    1    3    3    0  502  0.12976779919E+04 -0.91921031743E+03 -0.95372504197E+03  0.18543271890E+04  0.46999998093E+01 0.  1.
</event>
<event>
 5   0  0.2632875E-08  0.3902848E+04  0.7818609E-02  0.8024437E-01
        4   -1    0    0  501    0  0.00000000000E+00  0.00000000000E+00  0.19187829741E+04  0.19187833944E+04  0.12699999809E+01 0. -1.
       -4   -1    0    0    0  501  0.00000000000E+00  0.00000000000E+00 -0.19846194988E+04  0.19846199051E+04  0.12699999809E+01 0.  1.
    10030    2    1    2    0    0  0.00000000000E+00  0.00000000000E+00 -0.65836524663E+02  0.39034032995E+04  0.39028480461E+04 0.  0.
        2    1    3    3  502    0 -0.91513654658E+03 -0.16927271452E+04 -0.35739566066E+03  0.19571744289E+04  0.25500000920E-02 0. -1.
       -2    1    3    3    0  502  0.91513654658E+03  0.16927271452E+04  0.29155913600E+03  0.19462288706E+04  0.25500000920E-02 0.  1.
</event>
<event>
 5   0  0.2632875E-08  0.3880793E+04  0.7818609E-02  0.8029036E-01
       -1   -1    0    0    0  501  0.00000000000E+00  0.00000000000E+00  0.15891727415E+04  0.15891727415E+04  0.50400001928E-02 0.  1.
        1   -1    0    0  501    0  0.00000000000E+00  0.00000000000E+00 -0.23692443882E+04  0.23692443882E+04  0.50400001928E-02 0. -1.
    10030    2    1    2    0    0  0.00000000000E+00  0.00000000000E+00 -0.78007164669E+03  0.39584171297E+04  0.38807930116E+04 0.  0.
        5    1    3    3  502    0  0.15325826178E+04  0.27532097153E+02 -0.16036021948E+04  0.22183619150E+04  0.46999998093E+01 0. -1.
       -5    1    3    3    0  502 -0.15325826178E+04 -0.27532097153E+02  0.82353054807E+03  0.17400552147E+04  0.46999998093E+01 0.  1.
</event>
<event>
 5   0  0.8476262E-08  0.3916322E+04  0.7818609E-02  0.8021643E-01
       -2   -1    0    0    0  501  0.00000000000E+00  0.00000000000E+00  0.23126982273E+04  0.23126982273E+04  0.25500000920E-02 0.  1.
        2   -1    0    0  501    0  0.00000000000E+00  0.00000000000E+00 -0.16579743430E+04  0.16579743430E+04  0.25500000920E-02 0. -1.
    10030    2    1    2    0    0  0.00000000000E+00  0.00000000000E+00  0.65472388427E+03  0.39706725703E+04  0.39163219092E+04 0.  0.
        2    1    3    3  502    0  0.10669464572E+04 -0.43584535152E+02  0.19915184169E+04  0.22597389139E+04  0.25500000920E-02 0.  1.
       -2    1    3    3    0  502 -0.10669464572E+04  0.43584535152E+02 -0.13367945326E+04  0.17109336564E+04  0.25500000920E-02 0. -1.
</event>
<event>
 5   0  0.2632875E-08  0.3875105E+04  0.7818609E-02  0.8030227E-01
        1   -1    0    0  501    0  0.00000000000E+00  0.00000000000E+00  0.26211010602E+04  0.26211010602E+04  0.50400001928E-02 0. -1.
       -1   -1    0    0    0  501  0.00000000000E+00  0.00000000000E+00 -0.14322641965E+04  0.14322641965E+04  0.50400001928E-02 0.  1.
    10030    2    1    2    0    0  0.00000000000E+00  0.00000000000E+00  0.11888368637E+04  0.40533652567E+04  0.38751047491E+04 0.  0.
        1    1    3    3  502    0  0.14391358911E+04  0.12950028187E+04  0.67520327627E+03  0.20503765210E+04  0.50400001928E-02 0. -1.
       -1    1    3    3    0  502 -0.14391358911E+04 -0.12950028187E+04  0.51363358740E+03  0.20029887358E+04  0.50400001928E-02 0.  1.
</event>
<event>
 5   0  0.8676098E-08  0.3898030E+04  0.7818609E-02  0.8025439E-01
       -2   -1    0    0    0  501  0.00000000000E+00  0.00000000000E+00  0.32398268604E+04  0.32398268604E+04  0.25500000920E-02 0. -1.
        2   -1    0    0  501    0  0.00000000000E+00  0.00000000000E+00 -0.11724883124E+04  0.11724883124E+04  0.25500000920E-02 0.  1.
    10030    2    1    2    0    0  0.00000000000E+00  0.00000000000E+00  0.20673385480E+04  0.44123151728E+04  0.38980298244E+04 0.  0.
        3    1    3    3  502    0 -0.91319697895E+02 -0.16487259749E+04  0.22056576852E+04  0.27552790171E+04  0.10100000352E+00 0. -1.
       -3    1    3    3    0  502  0.91319697895E+02  0.16487259749E+04 -0.13831913715E+03  0.16570361557E+04  0.10100000352E+00 0.  1.
</event>
<event>
 5   0  0.2632875E-08  0.3906493E+04  0.7818609E-02  0.8023680E-01
       -1   -1    0    0    0  501  0.00000000000E+00  0.00000000000E+00  0.14883480184E+04  0.14883480185E+04  0.50400001928E-02 0. -1.
        1   -1    0    0  501    0  0.00000000000E+00  0.00000000000E+00 -0.25633601038E+04  0.25633601038E+04  0.50400001928E-02 0.  1.
    10030    2    1    2    0    0  0.00000000000E+00  0.00000000000E+00 -0.10750120853E+04  0.40517081222E+04  0.39064930211E+04 0.  0.
        2    1    3    3  502    0 -0.10293149894E+04  0.34350942947E+03 -0.22219728975E+04  0.24727821644E+04  0.25500000920E-02 0.  1.
       -2    1    3    3    0  502  0.10293149894E+04 -0.34350942947E+03  0.11469608122E+04  0.15789259578E+04  0.25500000920E-02 0. -1.
</event>
<event>
 5   0  0.8476262E-08  0.3904290E+04  0.7818609E-02  0.8024138E-01
       -2   -1    0    0    0  501  0.00000000000E+00  0.00000000000E+00  0.14143883416E+04  0.14143883416E+04  0.25500000920E-02 0. -1.
        2   -1    0    0  501    0  0.00000000000E+00  0.00000000000E+00 -0.26943585059E+04  0.26943585059E+04  0.25500000920E-02 0.  1.
    10030    2    1    2    0    0  0.00000000000E+00  0.00000000000E+00 -0.12799701644E+04  0.41087468475E+04  0.39042895686E+04 0.  0.
        2    1    3    3  502    0  0.10231681367E+04 -0.15323384790E+04 -0.13186886019E+04  0.22658053489E+04  0.25500000920E-02 0. -1.
       -2    1    3    3    0  502 -0.10231681367E+04  0.15323384790E+04  0.38718437565E+02  0.18429414987E+04  0.25500000920E-02 0.  1.
</event>
<event>
 5   0  0.2632875E-08  0.3952081E+04  0.7818609E-02  0.8014284E-01
        1   -1    0    0  501    0  0.00000000000E+00  0.00000000000E+00  0.12358852314E+04  0.12358852314E+04  0.50400001928E-02 0. -1.
       -1   -1    0    0    0  501  0.00000000000E+00  0.00000000000E+00 -0.31594656032E+04  0.31594656032E+04  0.50400001928E-02 0.  1.
    10030    2    1    2    0    0  0.00000000000E+00  0.00000000000E+00 -0.19235803717E+04  0.43953508346E+04  0.39520814152E+04 0.  0.
        3    1    3    3  502    0 -0.19517412425E+04  0.29554359950E+03 -0.86171441175E+03  0.21538782775E+04  0.10100000352E+00 0.  1.
       -3    1    3    3    0  502  0.19517412425E+04 -0.29554359950E+03 -0.10618659600E+04  0.22414725570E+04  0.10100000352E+00 0. -1.
</event>
<event>
 5   0  0.8476262E-08  0.3907122E+04  0.7818609E-02  0.8023550E-01
       -2   -1    0    0    0  501  0.00000000000E+00  0.00000000000E+00  0.32840143110E+04  0.32840143110E+04  0.25500000920E-02 0.  1.
        2   -1    0    0  501    0  0.00000000000E+00  0.00000000000E+00 -0.11621143160E+04  0.11621143160E+04  0.25500000920E-02 0. -1.
    10030    2    1    2    0    0  0.00000000000E+00  0.00000000000E+00  0.21218999950E+04  0.44461286270E+04  0.39071217256E+04 0.  0.
        2    1    3    3  502    0  0.94129915875E+03  0.17095576929E+04  0.96065210762E+03  0.21751974815E+04  0.25500000920E-02 0. -1.
       -2    1    3    3    0  502 -0.94129915875E+03 -0.17095576929E+04  0.11612478874E+04  0.22709311455E+04  0.25500000920E-02 0.  1.
</event>
<event>
 5   0  0.2632875E-08  0.3829051E+04  0.7818609E-02  0.8039949E-01
        1   -1    0    0  501    0  0.00000000000E+00  0.00000000000E+00  0.16490818662E+04  0.16490818662E+04  0.50400001928E-02 0.  1.
       -1   -1    0    0    0  501  0.00000000000E+00  0.00000000000E+00 -0.22226957350E+04  0.22226957350E+04  0.50400001928E-02 0. -1.
    10030    2    1    2    0    0  0.00000000000E+00  0.00000000000E+00 -0.57361386883E+03  0.38717776013E+04  0.38290506556E+04 0.  0.
        5    1    3    3  502    0  0.10361712520E+04  0.60614055421E+03  0.12212533283E+04  0.17124657710E+04  0.46999998093E+01 0.  1.
       -5    1    3    3    0  502 -0.10361712520E+04 -0.60614055421E+03 -0.17948671972E+04  0.21593118303E+04  0.46999998093E+01 0. -1.
</event>
<event>
 5   0  0.2632875E-08  0.3909931E+04  0.7818609E-02  0.8022967E-01
       -1   -1    0    0    0  501  0.00000000000E+00  0.00000000000E+00  0.27207077803E+04  0.27207077803E+04  0.50400001928E-02 0. -1.
        1   -1    0    0  501    0  0.00000000000E+00  0.00000000000E+00 -0.14047407996E+04  0.14047407996E+04  0.50400001928E-02 0.  1.
    10030    2    1    2    0    0  0.00000000000E+00  0.00000000000E+00  0.13159669808E+04  0.41254485799E+04  0.39099305481E+04 0.  0.
        4    1    3    3  502    0  0.57294004789E+03  0.18561201513E+04  0.42574834753E+03  0.19886441569E+04  0.12699999809E+01 0. -1.
       -4    1    3    3    0  502 -0.57294004789E+03 -0.18561201513E+04  0.89021863324E+03  0.21368044230E+04  0.12699999809E+01 0.  1.
</event>
<event>
 5   0  0.8676098E-08  0.3896409E+04  0.7818609E-02  0.8025776E-01
        2   -1    0    0  501    0  0.00000000000E+00  0.00000000000E+00  0.20107747278E+04  0.20107747278E+04  0.25500000920E-02 0.  1.
       -2   -1    0    0    0  501  0.00000000000E+00  0.00000000000E+00 -0.18875813125E+04  0.18875813125E+04  0.25500000920E-02 0. -1.
    10030    2    1    2    0    0  0.00000000000E+00  0.00000000000E+00  0.12319341534E+03  0.38983560403E+04  0.38964090134E+04 0.  0.
        3    1    3    3  502    0 -0.13302408447E+04 -0.11399524063E+04  0.91435388712E+03  0.19761263205E+04  0.10100000352E+00 0.  1.
       -3    1    3    3    0  502  0.13302408447E+04  0.11399524063E+04 -0.79116047178E+03  0.19222297198E+04  0.10100000352E+00 0. -1.
</event>
<event>
 5   0  0.2632875E-08  0.3895212E+04  0.7818609E-02  0.8026026E-01
       -1   -1    0    0    0  501  0.00000000000E+00  0.00000000000E+00  0.13418698855E+04  0.13418698855E+04  0.50400001928E-02 0. -1.
        1   -1    0    0  501    0  0.00000000000E+00  0.00000000000E+00 -0.28267782775E+04  0.28267782775E+04  0.50400001928E-02 0.  1.
    10030    2    1    2    0    0  0.00000000000E+00  0.00000000000E+00 -0.14849083920E+04  0.41686481630E+04  0.38952117496E+04 0.  0.
        3    1    3    3  502    0 -0.89874969580E+03  0.13699120146E+04  0.38443882342E+03  0.16829150789E+04  0.10100000352E+00 0. -1.
       -3    1    3    3    0  502  0.89874969580E+03 -0.13699120146E+04 -0.18693472154E+04  0.24857330841E+04  0.10100000352E+00 0.  1.
</event>
<event>
 5   0  0.2632875E-08  0.3890426E+04  0.7818609E-02  0.8027023E-01
       -1   -1    0    0    0  501  0.00000000000E+00  0.00000000000E+00  0.21350251633E+04  0.21350251633E+04  0.50400001928E-02 0. -1.
        1   -1    0    0  501    0  0.00000000000E+00  0.00000000000E+00 -0.17722759303E+04  0.17722759304E+04  0.50400001928E-02 0.  1.
    10030    2    1    2    0    0  0.00000000000E+00  0.00000000000E+00  0.36274923293E+03  0.39073010936E+04  0.38904260474E+04 0.  0.
        2    1    3    3  502    0  0.18299461455E+03 -0.14191635489E+04  0.15047933785E+04  0.20765151864E+04  0.25500000920E-02 0. -1.
       -2    1    3    3    0  502 -0.18299461455E+03  0.14191635489E+04 -0.11420441456E+04  0.18307859072E+04  0.25500000920E-02 0.  1.
</event>
<event>
 5   0  0.2632875E-08  0.3903219E+04  0.7818609E-02  0.8024360E-01
       -1   -1    0    0    0  501  0.00000000000E+00  0.00000000000E+00  0.16177418472E+04  0.16177418472E+04  0.50400001928E-02 0. -1.
        1   -1    0    0  501    0  0.00000000000E+00  0.00000000000E+00 -0.23543802745E+04  0.23543802745E+04  0.50400001928E-02 0.  1.
    10030    2    1    2    0    0  0.00000000000E+00  0.00000000000E+00 -0.73663842726E+03  0.39721221217E+04  0.39032189251E+04 0.  0.
        2    1    3    3  502    0 -0.17218039904E+04  0.58635409992E+03  0.35152862574E+03  0.18525637604E+04  0.25500000920E-02 0. -1.
       -2    1    3    3    0  502  0.17218039904E+04 -0.58635409992E+03 -0.10881670530E+04  0.21195583613E+04  0.25500000920E-02 0.  1.
</event>
<event>
 5   0  0.8342802E-08  0.3905980E+04  0.7818609E-02  0.8023787E-01
        2   -1    0    0  501    0  0.00000000000E+00  0.00000000000E+00  0.22004613821E+04  0.22004613821E+04  0.25500000920E-02 0.  1.
       -2   -1    0    0    0  501  0.00000000000E+00  0.00000000000E+00 -0.17333496652E+04  0.17333496652E+04  0.25500000920E-02 0. -1.
    10030    2    1    2    0    0  0.00000000000E+00  0.00000000000E+00  0.46711171686E+03  0.39338110473E+04  0.39059795186E+04 0.  0.
        4    1    3    3  502    0 -0.70634896787E+03 -0.18077289388E+04  0.14394164193E+02  0.19408816516E+04  0.12699999809E+01 0.  1.
       -4    1    3    3    0  502  0.70634896787E+03  0.18077289388E+04  0.45271755267E+03  0.19929293957E+04  0.12699999809E+01 0. -1.
</event>
<event>
 5   0  0.2632875E-08  0.3939062E+04  0.7818609E-02  0.8016954E-01
       -1   -1    0    0    0  501  0.00000000000E+00  0.00000000000E+00  0.18921299572E+04  0.18921299572E+04  0.50400001928E-02 0. -1.
        1   -1    0    0  501    0  0.00000000000E+00  0.00000000000E+00 -0.20500984230E+04  0.20500984230E+04  0.50400001928E-02 0.  1.
    10030    2    1    2    0    0  0.00000000000E+00  0.00000000000E+00 -0.15796846584E+03  0.39422283802E+04  0.39390621428E+04 0.  0.
        1    1    3    3  502    0  0.52282865404E+03  0.15187319410E+04  0.10617372522E+04  0.19254045037E+04  0.50400001928E-02 0. -1.
       -1    1    3    3    0  502 -0.52282865404E+03 -0.15187319410E+04 -0.12197057180E+04  0.20168238765E+04  0.50400001928E-02 0.  1.
</event>
<event>
 5   0  0.2632875E-08  0.3906373E+04  0.7818609E-02  0.8023705E-01
       -1   -1    0    0    0  501  0.00000000000E+00  0.00000000000E+00  0.19348820598E+04  0.19348820598E+04  0.50400001928E-02 0. -1.
        1   -1    0    0  501    0  0.00000000000E+00  0.00000000000E+00 -0.19716641245E+04  0.19716641245E+04  0.50400001928E-02 0.  1.
    10030    2    1    2    0    0  0.00000000000E+00  0.00000000000E+00 -0.36782064740E+02  0.39065461843E+04  0.39063730198E+04 0.  0.
        1    1    3    3  502    0  0.61472139499E+02  0.42617135154E+02 -0.19702312493E+04  0.19716506333E+04  0.50400001928E-02 0.  1.
       -1    1    3    3    0  502 -0.61472139499E+02 -0.42617135154E+02  0.19334491845E+04  0.19348955510E+04  0.50400001928E-02 0. -1.
</event>
<event>
 5   0  0.8438211E-08  0.3897476E+04  0.7818609E-02  0.8025554E-01
        2   -1    0    0  501    0  0.00000000000E+00  0.00000000000E+00  0.30445215572E+04  0.30445215572E+04  0.25500000920E-02 0.  1.
       -2   -1    0    0    0  501  0.00000000000E+00  0.00000000000E+00 -0.12473487842E+04  0.12473487842E+04  0.25500000920E-02 0. -1.
    10030    2    1    2    0    0  0.00000000000E+00  0.00000000000E+00  0.17971727731E+04  0.42918703414E+04  0.38974762413E+04 0.  0.
        5    1    3    3  502    0  0.16304418833E+04  0.54850017550E+03  0.19068629797E+04  0.25681397335E+04  0.46999998093E+01 0.  1.
       -5    1    3    3    0  502 -0.16304418833E+04 -0.54850017550E+03 -0.10969020665E+03  0.17237306079E+04  0.46999998093E+01 0. -1.
</event>
<event>
 5   0  0.8551754E-08  0.3893968E+04  0.7818609E-02  0.8026285E-01
        2   -1    0    0  501    0  0.00000000000E+00  0.00000000000E+00  0.22557832979E+04  0.22557832979E+04  0.25500000920E-02 0. -1.
       -2   -1    0    0    0  501  0.00000000000E+00  0.00000000000E+00 -0.16804568736E+04  0.16804568736E+04  0.25500000920E-02 0.  1.
    10030    2    1    2    0    0  0.00000000000E+00  0.00000000000E+00  0.57532642429E+03  0.39362401715E+04  0.38939679240E+04 0.  0.
        1    1    3    3  502    0  0.61346340110E+03  0.11755037272E+04  0.17288331705E+04  0.21787635229E+04  0.50400001928E-02 0. -1.
       -1    1    3    3    0  502 -0.61346340110E+03 -0.11755037272E+04 -0.11535067462E+04  0.17574766487E+04  0.50400001928E-02 0.  1.
</event>
<event>
 5   0  0.8551754E-08  0.3965565E+04  0.7818609E-02  0.8011530E-01
        2   -1    0    0  501    0  0.00000000000E+00  0.00000000000E+00  0.17032048156E+04  0.17032048156E+04  0.25500000920E-02 0. -1.
       -2   -1    0    0    0  501  0.00000000000E+00  0.00000000000E+00 -0.23082517509E+04  0.23082517509E+04  0.25500000920E-02 0.  1.
    10030    2    1    2    0    0  0.00000000000E+00  0.00000000000E+00 -0.60504693527E+03  0.40114565665E+04  0.39655645236E+04 0.  0.
        1    1    3    3  502    0  0.92769917458E+02 -0.41037481362E+03 -0.22625774113E+04  0.23013627023E+04  0.50400001928E-02 0.  1.
       -1    1    3    3    0  502 -0.92769917458E+02  0.41037481362E+03  0.16575304761E+04  0.17100938642E+04  0.50400001928E-02 0. -1.
</event>
<event>
 5   0  0.2632875E-08  0.3887951E+04  0.7818609E-02  0.8027540E-01
        1   -1    0    0  501    0  0.00000000000E+00  0.00000000000E+00  0.21051769307E+04  0.21051769307E+04  0.50400001928E-02 0.  1.
       -1   -1    0    0    0  501  0.00000000000E+00  0.00000000000E+00 -0.17951179545E+04  0.17951179545E+04  0.50400001928E-02 0. -1.
    10030    2    1    2    0    0  0.00000000000E+00  0.00000000000E+00  0.31005897619E+03  0.39002948852E+04  0.38879510828E+04 0.  0.
        3    1    3    3  502    0  0.14593047328E+04  0.10182113463E+04  0.94027660303E+03  0.20125716755E+04  0.10100000352E+00 0.  1.
       -3    1    3    3    0  502 -0.14593047328E+04 -0.10182113463E+04 -0.63021762684E+03  0.18877232096E+04  0.10100000352E+00 0. -1.
</event>
<event>
 5   0  0.8438211E-08  0.3903410E+04  0.7818609E-02  0.8024320E-01
        2   -1    0    0  501    0  0.00000000000E+00  0.00000000000E+00  0.21567065985E+04  0.21567065985E+04  0.25500000920E-02 0.  1.
       -2   -1    0    0    0  501  0.00000000000E+00  0.00000000000E+00 -0.17661889988E+04  0.17661889988E+04  0.25500000920E-02 0. -1.
    10030    2    1    2    0    0  0.00000000000E+00  0.00000000000E+00  0.39051759967E+03  0.39228955973E+04  0.39034095188E+04 0.  0.
        5    1    3    3  502    0 -0.50529945178E+03 -0.85277569019E+03 -0.14943763110E+04  0.17932474906E+04  0.46999998093E+01 0. -1.
       -5    1    3    3    0  502  0.50529945178E+03  0.85277569019E+03  0.18848939107E+04  0.21296481067E+04  0.46999998093E+01 0.  1.
</event>
<event>
 5   0  0.8476262E-08  0.3903502E+04  0.7818609E-02  0.8024301E-01
       -2   -1    0    0    0  501  0.00000000000E+00  0.00000000000E+00  0.15460568255E+04  0.15460568255E+04  0.25500000920E-02 0.  1.
        2   -1    0    0  501    0  0.00000000000E+00  0.00000000000E+00 -0.24639021642E+04  0.24639021642E+04  0.25500000920E-02 0. -1.
    10030    2    1    2    0    0  0.00000000000E+00  0.00000000000E+00 -0.91784533871E+03  0.40099589897E+04  0.39035024059E+04 0.  0.
        2    1    3    3  502    0 -0.13351373973E+04 -0.61853142429E+03  0.85829481835E+03  0.17034796705E+04  0.25500000920E-02 0.  1.
       -2    1    3    3    0  502  0.13351373973E+04  0.61853142429E+03 -0.17761401571E+04  0.23064793192E+04  0.25500000920E-02 0. -1.
</event>
<event>
 5   0  0.2632875E-08  0.3875763E+04  0.7818609E-02  0.8030089E-01
        3   -1    0    0  501    0  0.00000000000E+00  0.00000000000E+00  0.24177357460E+04  0.24177357481E+04  0.10100000352E+00 0. -1.
       -3   -1    0    0    0  501  0.00000000000E+00  0.00000000000E+00 -0.15532648216E+04  0.15532648249E+04  0.10100000352E+00 0.  1.
    10030    2    1    2    0    0  0.00000000000E+00  0.00000000000E+00  0.86447092441E+03  0.39710005729E+04  0.38757625793E+04 0.  0.
        4    1    3    3  502    0 -0.14706831647E+04  0.59189753948E+03  0.15741311079E+04  0.22340863963E+04  0.12699999809E+01 0. -1.
       -4    1    3    3    0  502  0.14706831647E+04 -0.59189753948E+03 -0.70966018346E+03  0.17369141767E+04  0.12699999809E+01 0.  1.
</event>
<event>
 5   0  0.8551754E-08  0.3909522E+04  0.7818609E-02  0.8023052E-01
        2   -1    0    0  501    0  0.00000000000E+00  0.00000000000E+00  0.30921318439E+04  0.30921318439E+04  0.25500000920E-02 0.  1.
       -2   -1    0    0    0  501  0.00000000000E+00  0.00000000000E+00 -0.12357460498E+04  0.12357460498E+04  0.25500000920E-02 0. -1.
    10030    2    1    2    0    0  0.00000000000E+00  0.00000000000E+00  0.18563857942E+04  0.43278778937E+04  0.39095215623E+04 0.  0.
        1    1    3    3  502    0 -0.18168951546E+04  0.48898486527E+03  0.15148824075E+04  0.24155916273E+04  0.50400001928E-02 0.  1.
       -1    1    3    3    0  502  0.18168951546E+04 -0.48898486527E+03  0.34150338665E+03  0.19122862664E+04  0.50400001928E-02 0. -1.
</event>
<event>
 5   0  0.8342802E-08  0.3895681E+04  0.7818609E-02  0.8025928E-01
        2   -1    0    0  501    0  0.00000000000E+00  0.00000000000E+00  0.19793395989E+04  0.19793395989E+04  0.25500000920E-02 0. -1.
       -2   -1    0    0    0  501  0.00000000000E+00  0.00000000000E+00 -0.19168422728E+04  0.19168422728E+04  0.25500000920E-02 0.  1.
    10030    2    1    2    0    0  0.00000000000E+00  0.00000000000E+00  0.62497326155E+02  0.38961818717E+04  0.38956805903E+04 0.  0.
        4    1    3    3  502    0 -0.13363016628E+04  0.12420434484E+03  0.14431496062E+04  0.19707387579E+04  0.12699999809E+01 0. -1.
       -4    1    3    3    0  502  0.13363016628E+04 -0.12420434484E+03 -0.13806522800E+04  0.19254431138E+04  0.12699999809E+01 0.  1.
</event>
<event>
 5   0  0.8551754E-08  0.3900412E+04  0.7818609E-02  0.8024944E-01
       -2   -1    0    0    0  501  0.00000000000E+00  0.00000000000E+00  0.13390457958E+04  0.13390457958E+04  0.25500000920E-02 0.  1.
        2   -1    0    0  501    0  0.00000000000E+00  0.00000000000E+00 -0.28403087131E+04  0.28403087131E+04  0.25500000920E-02 0. -1.
    10030    2    1    2    0    0  0.00000000000E+00  0.00000000000E+00 -0.15012629173E+04  0.41793545089E+04  0.39004119993E+04 0.  0.
        1    1    3    3  502    0  0.98262829363E+03  0.16404337467E+04 -0.34019432772E+03  0.19422444288E+04  0.50400001928E-02 0.  1.
       -1    1    3    3    0  502 -0.98262829363E+03 -0.16404337467E+04 -0.11610685896E+04  0.22371100801E+04  0.50400001928E-02 0. -1.
</event>
<event>
 5   0  0.8476262E-08  0.3919733E+04  0.7818609E-02  0.8020938E-01
        2   -1    0    0  501    0  0.00000000000E+00  0.00000000000E+00  0.15783668128E+04  0.15783668128E+04  0.25500000920E-02 0.  1.
       -2   -1    0    0    0  501  0.00000000000E+00  0.00000000000E+00 -0.24335769185E+04  0.24335769185E+04  0.25500000920E-02 0. -1.
    10030    2    1    2    0    0  0.00000000000E+00  0.00000000000E+00 -0.85521010571E+03  0.40119437313E+04  0.39197331769E+04 0.  0.
        2    1    3    3  502    0 -0.19054128533E+04  0.22807722754E+03 -0.20170630729E+02  0.19191206886E+04  0.25500000920E-02 0. -1.
       -2    1    3    3    0  502  0.19054128533E+04 -0.22807722754E+03 -0.83503947498E+03  0.20928230427E+04  0.25500000920E-02 0.  1.
</event>
<event>
 5   0  0.2632875E-08  0.3869394E+04  0.7818609E-02  0.8031425E-01
        1   -1    0    0  501    0  0.00000000000E+00  0.00000000000E+00  0.18359153293E+04  0.18359153294E+04  0.50400001928E-02 0. -1.
       -1   -1    0    0    0  501  0.00000000000E+00  0.00000000000E+00 -0.20387937958E+04  0.20387937958E+04  0.50400001928E-02 0.  1.
    10030    2    1    2    0    0  0.00000000000E+00  0.00000000000E+00 -0.20287846641E+03  0.38747091251E+04  0.38693941557E+04 0.  0.
        2    1    3    3  502    0  0.17965869559E+04  0.49728071966E+03  0.41699768647E+03  0.19102093798E+04  0.25500000920E-02 0. -1.
       -2    1    3    3    0  502 -0.17965869559E+04 -0.49728071966E+03 -0.61987615288E+03  0.19644997453E+04  0.25500000920E-02 0.  1.
</event>
<event>
 5   0  0.2632875E-08  0.3887487E+04  0.7818609E-02  0.8027637E-01
       -1   -1    0    0    0  501  0.00000000000E+00  0.00000000000E+00  0.25270267195E+04  0.25270267195E+04  0.50400001928E-02 0. -1.
        1   -1    0    0  501    0  0.00000000000E+00  0.00000000000E+00 -0.14950922005E+04  0.14950922005E+04  0.50400001928E-02 0.  1.
    10030    2    1    2    0    0  0.00000000000E+00  0.00000000000E+00  0.10319345190E+04  0.40221189200E+04  0.38874865601E+04 0.  0.
        2    1    3    3  502    0  0.18670047229E+04  0.50533082821E+03  0.31675807730E+03  0.19599493771E+04  0.25500000920E-02 0.  1.
       -2    1    3    3    0  502 -0.18670047229E+04 -0.50533082821E+03  0.71517644173E+03  0.20621695430E+04  0.25500000920E-02 0. -1.
</event>
<event>
 5   0  0.8551754E-08  0.3892838E+04  0.7818609E-02  0.8026520E-01
       -2   -1    0    0    0  501  0.00000000000E+00  0.00000000000E+00  0.17398132365E+04  0.17398132365E+04  0.25500000920E-02 0. -1.
        2   -1    0    0  501    0  0.00000000000E+00  0.00000000000E+00 -0.21775594421E+04  0.21775594421E+04  0.25500000920E-02 0.  1.
    10030    2    1    2    0    0  0.00000000000E+00  0.00000000000E+00 -0.43774620559E+03  0.39173726787E+04  0.38928379061E+04 0.  0.
        1    1    3    3  502    0  0.11684290588E+04 -0.15208249911E+04 -0.55324976933E+03  0.19960512083E+04  0.50400001928E-02 0. -1.
       -1    1    3    3    0  502 -0.11684290588E+04  0.15208249911E+04  0.11550356375E+03  0.19213214703E+04  0.50400001928E-02 0.  1.
</event>
<event>
 5   0  0.2632875E-08  0.3879516E+04  0.7818609E-02  0.8029303E-01
       -1   -1    0    0    0  501  0.00000000000E+00  0.00000000000E+00  0.11434944082E+04  0.11434944082E+04  0.50400001928E-02 0.  1.
        1   -1    0    0  501    0  0.00000000000E+00  0.00000000000E+00 -0.32904944033E+04  0.32904944033E+04  0.50400001928E-02 0. -1.
    10030    2    1    2    0    0  0.00000000000E+00  0.00000000000E+00 -0.21469999951E+04  0.44339888115E+04  0.38795164391E+04 0.  0.
        3    1    3    3  502    0  0.15281046258E+04  0.80057454676E+03 -0.59811263905E+02  0.17261520066E+04  0.10100000352E+00 0.  1.
       -3    1    3    3    0  502 -0.15281046258E+04 -0.80057454676E+03 -0.20871887312E+04  0.27078368049E+04  0.10100000352E+00 0. -1.
</event>
<event>
 5   0  0.2632875E-08  0.3904116E+04  0.7818609E-02  0.8024174E-01
        1   -1    0    0  501    0  0.00000000000E+00  0.00000000000E+00  0.26335124816E+04  0.26335124816E+04  0.50400001928E-02 0. -1.
       -1   -1    0    0    0  501  0.00000000000E+00  0.00000000000E+00 -0.14469381069E+04  0.14469381069E+04  0.50400001928E-02 0.  1.
    10030    2    1    2    0    0  0.00000000000E+00  0.00000000000E+00  0.11865743748E+04  0.40804505885E+04  0.39041155540E+04 0.  0.
        5    1    3    3  502    0 -0.90258813056E+03 -0.70949233943E+03  0.22433474251E+04  0.25200544583E+04  0.46999998093E+01 0. -1.
       -5    1    3    3    0  502  0.90258813056E+03  0.70949233943E+03 -0.10567730504E+04  0.15603961302E+04  0.46999998093E+01 0.  1.
</event>
<event>
 5   0  0.8676098E-08  0.3853976E+04  0.7818609E-02  0.8034670E-01
        2   -1    0    0  501    0  0.00000000000E+00  0.00000000000E+00  0.26214992996E+04  0.26214992996E+04  0.25500000920E-02 0.  1.
       -2   -1    0    0    0  501  0.00000000000E+00  0.00000000000E+00 -0.14164726954E+04  0.14164726954E+04  0.25500000920E-02 0. -1.
    10030    2    1    2    0    0  0.00000000000E+00  0.00000000000E+00  0.12050266042E+04  0.40379719949E+04  0.38539757025E+04 0.  0.
        3    1    3    3  502    0 -0.36807353461E+03  0.11220555938E+04 -0.99294528098E+03  0.15428633198E+04  0.10100000352E+00 0. -1.
       -3    1    3    3    0  502  0.36807353461E+03 -0.11220555938E+04  0.21979718851E+04  0.24951086751E+04  0.10100000352E+00 0.  1.
</event>
<event>
 5   0  0.2632875E-08  0.4009816E+04  0.7818609E-02  0.8002569E-01
        1   -1    0    0  501    0  0.00000000000E+00  0.00000000000E+00  0.25982676254E+04  0.25982676254E+04  0.50400001928E-02 0. -1.
       -1   -1    0    0    0  501  0.00000000000E+00  0.00000000000E+00 -0.15470526657E+04  0.15470526657E+04  0.50400001928E-02 0.  1.
    10030    2    1    2    0    0  0.00000000000E+00  0.00000000000E+00  0.10512149597E+04  0.41453202912E+04  0.40098163830E+04 0.  0.
        4    1    3    3  502    0  0.83390984254E+03 -0.52431265194E+02 -0.13584787379E+04  0.15948732731E+04  0.12699999809E+01 0.  1.
       -4    1    3    3    0  502 -0.83390984254E+03  0.52431265194E+02  0.24096936976E+04  0.25504470181E+04  0.12699999809E+01 0. -1.
</event>
<event>
 5   0  0.8476262E-08  0.3886935E+04  0.7818609E-02  0.8027752E-01
        2   -1    0    0  501    0  0.00000000000E+00  0.00000000000E+00  0.22070128835E+04  0.22070128835E+04  0.25500000920E-02 0. -1.
       -2   -1    0    0    0  501  0.00000000000E+00  0.00000000000E+00 -0.17113926726E+04  0.17113926726E+04  0.25500000920E-02 0.  1.
    10030    2    1    2    0    0  0.00000000000E+00  0.00000000000E+00  0.49562021090E+03  0.39184055561E+04  0.38869348732E+04 0.  0.
        2    1    3    3  502    0 -0.13941263122E+04 -0.57611715510E+03  0.14831157012E+04  0.21154506220E+04  0.25500000920E-02 0. -1.
       -2    1    3    3    0  502  0.13941263122E+04  0.57611715510E+03 -0.98749549033E+03  0.18029549341E+04  0.25500000920E-02 0.  1.
</event>
<event>
 5   0  0.2632875E-08  0.3886705E+04  0.7818609E-02  0.8027800E-01
        1   -1    0    0  501    0  0.00000000000E+00  0.00000000000E+00  0.27573603588E+04  0.27573603588E+04  0.50400001928E-02 0. -1.
       -1   -1    0    0    0  501  0.00000000000E+00  0.00000000000E+00 -0.13696498581E+04  0.13696498582E+04  0.50400001928E-02 0.  1.
    10030    2    1    2    0    0  0.00000000000E+00  0.00000000000E+00  0.13877105007E+04  0.41270102170E+04  0.38867046321E+04 0.  0.
        1    1    3    3  502    0  0.11935981887E+03 -0.14897632416E+04 -0.62511112506E+03  0.16200016052E+04  0.50400001928E-02 0.  1.
       -1    1    3    3    0  502 -0.11935981887E+03  0.14897632416E+04  0.20128216257E+04  0.25070086117E+04  0.50400001928E-02 0. -1.
</event>
<event>
 5   0  0.2632875E-08  0.3965378E+04  0.7818609E-02  0.8011568E-01
        1   -1    0    0  501    0  0.00000000000E+00  0.00000000000E+00  0.23116352937E+04  0.23116352937E+04  0.50400001928E-02 0. -1.
       -1   -1    0    0    0  501  0.00000000000E+00  0.00000000000E+00 -0.17005519050E+04  0.17005519050E+04  0.50400001928E-02 0.  1.
    10030    2    1    2    0    0  0.00000000000E+00  0.00000000000E+00  0.61108338869E+03  0.40121871987E+04  0.39653780664E+04 0.  0.
        1    1    3    3  502    0 -0.10109801481E+04 -0.16816251631E+04  0.17378518265E+02  0.19622043885E+04  0.50400001928E-02 0.  1.
       -1    1    3    3    0  502  0.10109801481E+04  0.16816251631E+04  0.59370487042E+03  0.20499828103E+04  0.50400001928E-02 0. -1.
</event>
<event>
 5   0  0.8438211E-08  0.3843476E+04  0.7818609E-02  0.8036889E-01
       -2   -1    0    0    0  501  0.00000000000E+00  0.00000000000E+00  0.21130166555E+04  0.21130166555E+04  0.25500000920E-02 0.  1.
        2   -1    0    0  501    0  0.00000000000E+00  0.00000000000E+00 -0.17477748014E+04  0.17477748014E+04  0.25500000920E-02 0. -1.
    10030    2    1    2    0    0  0.00000000000E+00  0.00000000000E+00  0.36524185411E+03  0.38607914568E+04  0.38434761689E+04 0.  0.
        5    1    3    3  502    0 -0.47786705521E+03 -0.22290479676E+03  0.20389212883E+04  0.21060070230E+04  0.46999998093E+01 0.  1.
       -5    1    3    3    0  502  0.47786705521E+03  0.22290479676E+03 -0.16736794342E+04  0.17547844339E+04  0.46999998093E+01 0. -1.
</event>
<event>
 5   0  0.2632875E-08  0.3895857E+04  0.7818609E-02  0.8025891E-01
        1   -1    0    0  501    0  0.00000000000E+00  0.00000000000E+00  0.23325344667E+04  0.23325344667E+04  0.50400001928E-02 0.  1.
       -1   -1    0    0    0  501  0.00000000000E+00  0.00000000000E+00 -0.16267391879E+04  0.16267391879E+04  0.50400001928E-02 0. -1.
    10030    2    1    2    0    0  0.00000000000E+00  0.00000000000E+00  0.70579527877E+03  0.39592736546E+04  0.38958568886E+04 0.  0.
        3    1    3    3  502    0 -0.29918155452E+03 -0.65354775781E+03  0.21928354757E+04  0.23076311898E+04  0.10100000352E+00 0.  1.
       -3    1    3    3    0  502  0.29918155452E+03  0.65354775781E+03 -0.14870401969E+04  0.16516424649E+04  0.10100000352E+00 0. -1.
</event>
<event>
 5   0  0.2632875E-08  0.3906635E+04  0.7818609E-02  0.8023651E-01
        1   -1    0    0  501    0  0.00000000000E+00  0.00000000000E+00  0.19242923884E+04  0.19242923884E+04  0.50400001928E-02 0.  1.
       -1   -1    0    0    0  501  0.00000000000E+00  0.00000000000E+00 -0.19827803160E+04  0.19827803160E+04  0.50400001928E-02 0. -1.
    10030    2    1    2    0    0  0.00000000000E+00  0.00000000000E+00 -0.58487927668E+02  0.39070727044E+04  0.39066349048E+04 0.  0.
        5    1    3    3  502    0 -0.18707219181E+04  0.55263436149E+02  0.53007932717E+03  0.19451634186E+04  0.46999998093E+01 0. -1.
       -5    1    3    3    0  502  0.18707219181E+04 -0.55263436149E+02 -0.58856725484E+03  0.19619092858E+04  0.46999998093E+01 0.  1.
</event>
<event>
 5   0  0.8476262E-08  0.3912634E+04  0.7818609E-02  0.8022407E-01
       -2   -1    0    0    0  501  0.00000000000E+00  0.00000000000E+00  0.15862113187E+04  0.15862113187E+04  0.25500000920E-02 0. -1.
        2   -1    0    0  501    0  0.00000000000E+00  0.00000000000E+00 -0.24127777823E+04  0.24127777823E+04  0.25500000920E-02 0.  1.
    10030    2    1    2    0    0  0.00000000000E+00  0.00000000000E+00 -0.82656646363E+03  0.39989891010E+04  0.39126336029E+04 0.  0.
        2    1    3    3  502    0 -0.15066739361E+04 -0.12315135057E+04 -0.61892929768E+03  0.20420003281E+04  0.25500000920E-02 0.  1.
       -2    1    3    3    0  502  0.15066739361E+04  0.12315135057E+04 -0.20763716595E+03  0.19569887729E+04  0.25500000920E-02 0. -1.
</event>
<event>
 5   0  0.8342802E-08  0.3914819E+04  0.7818609E-02  0.8021954E-01
       -2   -1    0    0    0  501  0.00000000000E+00  0.00000000000E+00  0.13998110204E+04  0.13998110204E+04  0.25500000920E-02 0.  1.
        2   -1    0    0  501    0  0.00000000000E+00  0.00000000000E+00 -0.27371210894E+04  0.27371210894E+04  0.25500000920E-02 0. -1.
    10030    2    1    2    0    0  0.00000000000E+00  0.00000000000E+00 -0.13373100690E+04  0.41369321098E+04  0.39148191606E+04 0.  0.
        4    1    3    3  502    0  0.10216222161E+04 -0.14210581177E+04  0.25762285587E+03  0.17690362560E+04  0.12699999809E+01 0.  1.
       -4    1    3    3    0  502 -0.10216222161E+04  0.14210581177E+04 -0.15949329249E+04  0.23678958537E+04  0.12699999809E+01 0. -1.
</event>
<event>
 5   0  0.2632875E-08  0.3881012E+04  0.7818609E-02  0.8028990E-01
       -1   -1    0    0    0  501  0.00000000000E+00  0.00000000000E+00  0.19864069629E+04  0.19864069629E+04  0.50400001928E-02 0. -1.
        1   -1    0    0  501    0  0.00000000000E+00  0.00000000000E+00 -0.18956658084E+04  0.18956658084E+04  0.50400001928E-02 0.  1.
    10030    2    1    2    0    0  0.00000000000E+00  0.00000000000E+00  0.90741154480E+02  0.38820727713E+04  0.38810121160E+04 0.  0.
        3    1    3    3  502    0  0.45486884536E+03  0.16287687386E+04  0.99735042494E+03  0.19632883514E+04  0.10100000352E+00 0.  1.
       -3    1    3    3    0  502 -0.45486884536E+03 -0.16287687386E+04 -0.90660927046E+03  0.19187844199E+04  0.10100000352E+00 0. -1.
</event>
<event>
 5   0  0.8476262E-08  0.3983811E+04  0.7818609E-02  0.8007820E-01
       -2   -1    0    0    0  501  0.00000000000E+00  0.00000000000E+00  0.20167007402E+04  0.20167007402E+04  0.25500000920E-02 0. -1.
        2   -1    0    0  501    0  0.00000000000E+00  0.00000000000E+00 -0.19674146230E+04  0.19674146230E+04  0.25500000920E-02 0.  1.
    10030    2    1    2    0    0  0.00000000000E+00  0.00000000000E+00  0.49286117215E+02  0.39841153632E+04  0.39838105008E+04 0.  0.
        2    1    3    3  502    0 -0.63149329565E+03 -0.18706223513E+04 -0.23933691585E+03  0.19887920764E+04  0.25500000920E-02 0.  1.
       -2    1    3    3    0  502  0.63149329565E+03  0.18706223513E+04  0.28862303306E+03  0.19953232868E+04  0.25500000920E-02 0. -1.
</event>
<event>
 5   0  0.8342802E-08  0.3902448E+04  0.7818609E-02  0.8024520E-01
       -2   -1    0    0    0  501  0.00000000000E+00  0.00000000000E+00  0.20994714138E+04  0.20994714138E+04  0.25500000920E-02 0. -1.
        2   -1    0    0  501    0  0.00000000000E+00  0.00000000000E+00 -0.18134449214E+04  0.18134449214E+04  0.25500000920E-02 0.  1.
    10030    2    1    2    0    0  0.00000000000E+00  0.00000000000E+00  0.28602649238E+03  0.39129163353E+04  0.39024483459E+04 0.  0.
        4    1    3    3  502    0  0.88528533783E+03  0.67100797818E+03 -0.14654382203E+04  0.18388835272E+04  0.12699999809E+01 0.  1.
       -4    1    3    3    0  502 -0.88528533783E+03 -0.67100797818E+03  0.17514647127E+04  0.20740328081E+04  0.12699999809E+01 0. -1.
</event>
<event>
 5   0  0.8676098E-08  0.3907362E+04  0.7818609E-02  0.8023500E-01
        2   -1    0    0  501    0  0.00000000000E+00  0.00000000000E+00  0.22078752005E+04  0.22078752005E+04  0.25500000920E-02 0. -1.
       -2   -1    0    0    0  501  0.00000000000E+00  0.00000000000E+00 -0.17287524974E+04  0.17287524974E+04  0.25500000920E-02 0.  1.
    10030    2    1    2    0    0  0.00000000000E+00  0.00000000000E+00  0.47912270307E+03  0.39366276979E+04  0.39073621623E+04 0.  0.
        3    1    3    3  502    0 -0.16543348778E+04 -0.60608933911E+03  0.10901009515E+04  0.20718321045E+04  0.10100000352E+00 0. -1.
       -3    1    3    3    0  502  0.16543348778E+04  0.60608933911E+03 -0.61097824838E+03  0.18647955933E+04  0.10100000352E+00 0.  1.
</event>
<event>
 5   0  0.2632875E-08  0.3898084E+04  0.7818609E-02  0.8025428E-01
       -1   -1    0    0    0  501  0.00000000000E+00  0.00000000000E+00  0.15861604218E+04  0.15861604218E+04  0.50400001928E-02 0.  1.
        1   -1    0    0  501    0  0.00000000000E+00  0.00000000000E+00 -0.23949437971E+04  0.23949437971E+04  0.50400001928E-02 0. -1.
    10030    2    1    2    0    0  0.00000000000E+00  0.00000000000E+00 -0.80878337532E+03  0.39811042189E+04  0.38980841773E+04 0.  0.
        5    1    3    3  502    0  0.19559521557E+03  0.18767596400E+04 -0.90290499125E+03  0.20918278486E+04  0.46999998093E+01 0. -1.
       -5    1    3    3    0  502 -0.19559521557E+03 -0.18767596400E+04  0.94121615923E+02  0.18892763703E+04  0.46999998093E+01 0.  1.
</event>
<event>
 5   0  0.8476262E-08  0.3898569E+04  0.7818609E-02  0.8025327E-01
        2   -1    0    0  501    0  0.00000000000E+00  0.00000000000E+00  0.22838158186E+04  0.22838158186E+04  0.25500000920E-02 0.  1.
       -2   -1    0    0    0  501  0.00000000000E+00  0.00000000000E+00 -0.16637551151E+04  0.16637551151E+04  0.25500000920E-02 0. -1.
    10030    2    1    2    0    0  0.00000000000E+00  0.00000000000E+00  0.62006070355E+03  0.39475709337E+04  0.38985690965E+04 0.  0.
        2    1    3    3  502    0 -0.64927440774E+03  0.15815870774E+04 -0.63808014699E+03  0.18248619712E+04  0.25500000920E-02 0. -1.
       -2    1    3    3    0  502  0.64927440774E+03 -0.15815870774E+04  0.12581408505E+04  0.21227089625E+04  0.25500000920E-02 0.  1.
</event>
<event>
 5   0  0.2632875E-08  0.3899589E+04  0.7818609E-02  0.8025115E-01
       -1   -1    0    0    0  501  0.00000000000E+00  0.00000000000E+00  0.14997148857E+04  0.14997148857E+04  0.50400001928E-02 0. -1.
        1   -1    0    0  501    0  0.00000000000E+00  0.00000000000E+00 -0.25349471045E+04  0.25349471045E+04  0.50400001928E-02 0.  1.
    10030    2    1    2    0    0  0.00000000000E+00  0.00000000000E+00 -0.10352322188E+04  0.40346619902E+04  0.38995886486E+04 0.  0.
        4    1    3    3  502    0 -0.16029713137E+04 -0.84852306709E+03  0.22284627681E+03  0.18273397342E+04  0.12699999809E+01 0. -1.
       -4    1    3    3    0  502  0.16029713137E+04  0.84852306709E+03 -0.12580784956E+04  0.22073222561E+04  0.12699999809E+01 0.  1.
</event>
<event>
 5   0  0.8476262E-08  0.3900655E+04  0.7818609E-02  0.8024893E-01
        2   -1    0    0  501    0  0.00000000000E+00  0.00000000000E+00  0.27246062994E+04  0.27246062994E+04  0.25500000920E-02 0.  1.
       -2   -1    0    0    0  501  0.00000000000E+00  0.00000000000E+00 -0.13960835396E+04  0.13960835396E+04  0.25500000920E-02 0. -1.
    10030    2    1    2    0    0  0.00000000000E+00  0.00000000000E+00  0.13285227598E+04  0.41206898391E+04  0.39006553329E+04 0.  0.
        2    1    3    3  502    0 -0.75738826865E+03  0.25266433878E+03  0.25440477660E+04  0.26663936869E+04  0.25500000920E-02 0.  1.
       -2    1    3    3    0  502  0.75738826865E+03 -0.25266433878E+03 -0.12155250062E+04  0.14542961522E+04  0.25500000920E-02 0. -1.
</event>
<event>
 5   0  0.2632875E-08  0.3902084E+04  0.7818609E-02  0.8024596E-01
        1   -1    0    0  501    0  0.00000000000E+00  0.00000000000E+00  0.27765950327E+04  0.27765950327E+04  0.50400001928E-02 0.  1.
       -1   -1    0    0    0  501  0.00000000000E+00  0.00000000000E+00 -0.13709470709E+04  0.13709470709E+04  0.50400001928E-02 0. -1.
    10030    2    1    2    0    0  0.00000000000E+00  0.00000000000E+00  0.14056479618E+04  0.41475421037E+04  0.39020839700E+04 0.  0.
        5    1    3    3  502    0  0.15551339118E+04  0.11452403527E+04  0.40878961126E+03  0.19741195469E+04  0.46999998093E+01 0. -1.
       -5    1    3    3    0  502 -0.15551339118E+04 -0.11452403527E+04  0.99685835051E+03  0.21734225568E+04  0.46999998093E+01 0.  1.
</event>
<event>
 5   0  0.2632875E-08  0.3903752E+04  0.7818609E-02  0.8024249E-01
        1   -1    0    0  501    0  0.00000000000E+00  0.00000000000E+00  0.22738763425E+04  0.22738763425E+04  0.50400001928E-02 0.  1.
       -1   -1    0    0    0  501  0.00000000000E+00  0.00000000000E+00 -0.16754737270E+04  0.16754737271E+04  0.50400001928E-02 0. -1.
    10030    2    1    2    0    0  0.00000000000E+00  0.00000000000E+00  0.59840261548E+03  0.39493500696E+04  0.39037520774E+04 0.  0.
        5    1    3    3  502    0 -0.44321701367E+02  0.15499010714E+04  0.14986467347E+04  0.21564141230E+04  0.46999998093E+01 0.  1.
       -5    1    3    3    0  502  0.44321701367E+02 -0.15499010714E+04 -0.90024411921E+03  0.17929359466E+04  0.46999998093E+01 0. -1.
</event>
<event>
 5   0  0.2632875E-08  0.3947640E+04  0.7818609E-02  0.8015193E-01
       -1   -1    0    0    0  501  0.00000000000E+00  0.00000000000E+00  0.14493786717E+04  0.14493786717E+04  0.50400001928E-02 0.  1.
        1   -1    0    0  501    0  0.00000000000E+00  0.00000000000E+00 -0.26880250335E+04  0.26880250335E+04  0.50400001928E-02 0. -1.
    10030    2    1    2    0    0  0.00000000000E+00  0.00000000000E+00 -0.12386463618E+04  0.41374037053E+04  0.39476403852E+04 0.  0.
        3    1    3    3  502    0 -0.14694830057E+04 -0.12975205963E+04 -0.86066652458E+03  0.21409546652E+04  0.10100000352E+00 0. -1.
       -3    1    3    3    0  502  0.14694830057E+04  0.12975205963E+04 -0.37797983726E+03  0.19964490400E+04  0.10100000352E+00 0.  1.
</event>
<event>
 5   0  0.2632875E-08  0.3894547E+04  0.7818609E-02  0.8026164E-01
        1   -1    0    0  501    0  0.00000000000E+00  0.00000000000E+00  0.14170051181E+04  0.14170051181E+04  0.50400001928E-02 0.  1.
       -1   -1    0    0    0  501  0.00000000000E+00  0.00000000000E+00 -0.26759777610E+04  0.26759777610E+04  0.50400001928E-02 0. -1.
    10030    2    1    2    0    0  0.00000000000E+00  0.00000000000E+00 -0.12589726429E+04  0.40929828791E+04  0.38945470511E+04 0.  0.
        2    1    3    3  502    0 -0.55553588434E+03 -0.21113046574E+03 -0.25783377306E+04  0.26459443768E+04  0.25500000920E-02 0. -1.
       -2    1    3    3    0  502  0.55553588434E+03  0.21113046574E+03  0.13193650877E+04  0.14470385022E+04  0.25500000920E-02 0.  1.
</event>
<event>
 5   0  0.8438211E-08  0.3889850E+04  0.7818609E-02  0.8027143E-01
       -2   -1    0    0    0  501  0.00000000000E+00  0.00000000000E+00  0.17422398300E+04  0.17422398300E+04  0.25500000920E-02 0. -1.
        2   -1    0    0  501    0  0.00000000000E+00  0.00000000000E+00 -0.21711901628E+04  0.21711901628E+04  0.25500000920E-02 0.  1.
    10030    2    1    2    0    0  0.00000000000E+00  0.00000000000E+00 -0.42895033281E+03  0.39134299928E+04  0.38898503725E+04 0.  0.
        5    1    3    3  502    0 -0.90219769690E+03 -0.14794537787E+04 -0.11029865338E+04  0.20541045619E+04  0.46999998093E+01 0.  1.
       -5    1    3    3    0  502  0.90219769690E+03  0.14794537787E+04  0.67403620095E+03  0.18593254309E+04  0.46999998093E+01 0. -1.
</event>
<event>
 5   0  0.2632875E-08  0.3891835E+04  0.7818609E-02  0.8026729E-01
       -1   -1    0    0    0  501  0.00000000000E+00  0.00000000000E+00  0.17813669035E+04  0.17813669035E+04  0.50400001928E-02 0. -1.
        1   -1    0    0  501    0  0.00000000000E+00  0.00000000000E+00 -0.21256684520E+04  0.21256684520E+04  0.50400001928E-02 0.  1.
    10030    2    1    2    0    0  0.00000000000E+00  0.00000000000E+00 -0.34430154850E+03  0.39070353555E+04  0.38918352628E+04 0.  0.
        1    1    3    3  502    0  0.15241648861E+04 -0.39553293408E+03  0.97558628105E+03  0.18523750953E+04  0.50400001928E-02 0.  1.
       -1    1    3    3    0  502 -0.15241648861E+04  0.39553293408E+03 -0.13198878296E+04  0.20546602602E+04  0.50400001928E-02 0. -1.
</event>
<event>
 5   0  0.2632875E-08  0.3887789E+04  0.7818609E-02  0.8027574E-01
        1   -1    0    0  501    0  0.00000000000E+00  0.00000000000E+00  0.17527774336E+04  0.17527774336E+04  0.50400001928E-02 0. -1.
       -1   -1    0    0    0  501  0.00000000000E+00  0.00000000000E+00 -0.21558504994E+04  0.21558504994E+04  0.50400001928E-02 0.  1.
    10030    2    1    2    0    0  0.00000000000E+00  0.00000000000E+00 -0.40307306579E+03  0.39086279331E+04  0.38877891433E+04 0.  0.
        5    1    3    3  502    0 -0.19163862082E+04  0.61426080762E+02 -0.52324351069E+03  0.19874896538E+04  0.46999998093E+01 0. -1.
       -5    1    3    3    0  502  0.19163862082E+04 -0.61426080762E+02  0.12017044490E+03  0.19211382793E+04  0.46999998093E+01 0.  1.
</event>
<event>
 5   0  0.8476262E-08  0.3802580E+04  0.7818609E-02  0.8045601E-01
        2   -1    0    0  501    0  0.00000000000E+00  0.00000000000E+00  0.18300518472E+04  0.18300518472E+04  0.25500000920E-02 0.  1.
       -2   -1    0    0    0  501  0.00000000000E+00  0.00000000000E+00 -0.19753010586E+04  0.19753010586E+04  0.25500000920E-02 0. -1.
    10030    2    1    2    0    0  0.00000000000E+00  0.00000000000E+00 -0.14524921142E+03  0.38053529057E+04  0.38025798353E+04 0.  0.
        2    1    3    3  502    0  0.13444873714E+04  0.24680154752E+03  0.12498329799E+04  0.18521986322E+04  0.25500000920E-02 0.  1.
       -2    1    3    3    0  502 -0.13444873714E+04 -0.24680154752E+03 -0.13950821913E+04  0.19531542735E+04  0.25500000920E-02 0. -1.
</event>
<event>
 5   0  0.2632875E-08  0.3863307E+04  0.7818609E-02  0.8032704E-01
       -1   -1    0    0    0  501  0.00000000000E+00  0.00000000000E+00  0.19126044981E+04  0.19126044981E+04  0.50400001928E-02 0.  1.
        1   -1    0    0  501    0  0.00000000000E+00  0.00000000000E+00 -0.19508926194E+04  0.19508926194E+04  0.50400001928E-02 0. -1.
    10030    2    1    2    0    0  0.00000000000E+00  0.00000000000E+00 -0.38288121270E+02  0.38634971175E+04  0.38633073909E+04 0.  0.
        2    1    3    3  502    0  0.47076981734E+03 -0.47920998390E+03  0.17920273118E+04  0.19137994450E+04  0.25500000920E-02 0.  1.
       -2    1    3    3    0  502 -0.47076981734E+03  0.47920998390E+03 -0.18303154330E+04  0.19496976725E+04  0.25500000920E-02 0. -1.
</event>
<event>
 5   0  0.8438211E-08  0.3894927E+04  0.7818609E-02  0.8026085E-01
       -2   -1    0    0    0  501  0.00000000000E+00  0.00000000000E+00  0.16518913945E+04  0.16518913945E+04  0.25500000920E-02 0. -1.
        2   -1    0    0  501    0  0.00000000000E+00  0.00000000000E+00 -0.22959221630E+04  0.22959221630E+04  0.25500000920E-02 0.  1.
    10030    2    1    2    0    0  0.00000000000E+00  0.00000000000E+00 -0.64403076849E+03  0.39478135575E+04  0.38949269895E+04 0.  0.
        5    1    3    3  502    0  0.15665638073E+04  0.36010090733E+03  0.79236645570E+03  0.17921109106E+04  0.46999998093E+01 0. -1.
       -5    1    3    3    0  502 -0.15665638073E+04 -0.36010090733E+03 -0.14363972242E+04  0.21557026468E+04  0.46999998093E+01 0.  1.
</event>
<event>
 5   0  0.2632875E-08  0.3888279E+04  0.7818609E-02  0.8027471E-01
       -1   -1    0    0    0  501  0.00000000000E+00  0.00000000000E+00  0.17410840253E+04  0.17410840253E+04  0.50400001928E-02 0. -1.
        1   -1    0    0  501    0  0.00000000000E+00  0.00000000000E+00 -0.21708769859E+04  0.21708769859E+04  0.50400001928E-02 0.  1.
    10030    2    1    2    0    0  0.00000000000E+00  0.00000000000E+00 -0.42979296060E+03  0.39119610112E+04  0.38882794349E+04 0.  0.
        1    1    3    3  502    0  0.53648020193E+03  0.23241648944E+03  0.16505404156E+04  0.17510317231E+04  0.50400001928E-02 0. -1.
       -1    1    3    3    0  502 -0.53648020193E+03 -0.23241648944E+03 -0.20803333762E+04  0.21609292880E+04  0.50400001928E-02 0.  1.
</event>
<event>
 5   0  0.8676098E-08  0.3907197E+04  0.7818609E-02  0.8023534E-01
        2   -1    0    0  501    0  0.00000000000E+00  0.00000000000E+00  0.16066568306E+04  0.16066568306E+04  0.25500000920E-02 0.  1.
       -2   -1    0    0    0  501  0.00000000000E+00  0.00000000000E+00 -0.23754587172E+04  0.23754587172E+04  0.25500000920E-02 0. -1.
    10030    2    1    2    0    0  0.00000000000E+00  0.00000000000E+00 -0.76880188661E+03  0.39821155478E+04  0.39071969358E+04 0.  0.
        3    1    3    3  502    0 -0.27315215355E+03  0.15067960478E+04 -0.16207148890E+04  0.22297450954E+04  0.10100000352E+00 0. -1.
       -3    1    3    3    0  502  0.27315215355E+03 -0.15067960478E+04  0.85191300238E+03  0.17523704524E+04  0.10100000352E+00 0.  1.
</event>
<event>
 5   0  0.8438211E-08  0.3915808E+04  0.7818609E-02  0.8021749E-01
       -2   -1    0    0    0  501  0.00000000000E+00  0.00000000000E+00  0.18399736471E+04  0.18399736471E+04  0.25500000920E-02 0.  1.
        2   -1    0    0  501    0  0.00000000000E+00  0.00000000000E+00 -0.20833930244E+04  0.20833930244E+04  0.25500000920E-02 0. -1.
    10030    2    1    2    0    0  0.00000000000E+00  0.00000000000E+00 -0.24341937729E+03  0.39233666715E+04  0.39158080962E+04 0.  0.
        5    1    3    3  502    0  0.18358975135E+04 -0.53698328498E+03 -0.54024253170E+03  0.19876505758E+04  0.46999998093E+01 0.  1.
       -5    1    3    3    0  502 -0.18358975135E+04  0.53698328498E+03  0.29682315441E+03  0.19357160957E+04  0.46999998093E+01 0. -1.
</event>
<event>
 5   0  0.2632875E-08  0.3914250E+04  0.7818609E-02  0.8022072E-01
       -1   -1    0    0    0  501  0.00000000000E+00  0.00000000000E+00  0.22209810007E+04  0.22209810007E+04  0.50400001928E-02 0.  1.
        1   -1    0    0  501    0  0.00000000000E+00  0.00000000000E+00 -0.17246151171E+04  0.17246151171E+04  0.50400001928E-02 0. -1.
    10030    2    1    2    0    0  0.00000000000E+00  0.00000000000E+00  0.49636588359E+03  0.39455961179E+04  0.39142495622E+04 0.  0.
        1    1    3    3  502    0  0.15871092174E+04  0.85529624343E+03 -0.51942057254E+03  0.18762316124E+04  0.50400001928E-02 0. -1.
       -1    1    3    3    0  502 -0.15871092174E+04 -0.85529624343E+03  0.10157864561E+04  0.20693645055E+04  0.50400001928E-02 0.  1.
</event>
<event>
 5   0  0.8476262E-08  0.3898390E+04  0.7818609E-02  0.8025364E-01
       -2   -1    0    0    0  501  0.00000000000E+00  0.00000000000E+00  0.15465233612E+04  0.15465233612E+04  0.25500000920E-02 0.  1.
        2   -1    0    0  501    0  0.00000000000E+00  0.00000000000E+00 -0.24567107463E+04  0.24567107463E+04  0.25500000920E-02 0. -1.
    10030    2    1    2    0    0  0.00000000000E+00  0.00000000000E+00 -0.91018738518E+03  0.40032341075E+04  0.38983896987E+04 0.  0.
        2    1    3    3  502    0  0.67255581083E+03  0.77643605893E+03  0.12460137361E+04  0.16148481362E+04  0.25500000920E-02 0.  1.
       -2    1    3    3    0  502 -0.67255581083E+03 -0.77643605893E+03 -0.21562011213E+04  0.23883859713E+04  0.25500000920E-02 0. -1.
</event>
<event>
 5   0  0.8438211E-08  0.3861998E+04  0.7818609E-02  0.8032980E-01
        2   -1    0    0  501    0  0.00000000000E+00  0.00000000000E+00  0.21836656131E+04  0.21836656131E+04  0.25500000920E-02 0. -1.
       -2   -1    0    0    0  501  0.00000000000E+00  0.00000000000E+00 -0.17075678303E+04  0.17075678303E+04  0.25500000920E-02 0.  1.
    10030    2    1    2    0    0  0.00000000000E+00  0.00000000000E+00  0.47609778287E+03  0.38912334434E+04  0.38619980078E+04 0.  0.
        5    1    3    3  502    0  0.93843512953E+03 -0.15627041625E+04  0.88007759829E+03  0.20241698202E+04  0.46999998093E+01 0.  1.
       -5    1    3    3    0  502 -0.93843512953E+03  0.15627041625E+04 -0.40397981542E+03  0.18670636232E+04  0.46999998093E+01 0. -1.
</event>
<event>
 5   0  0.2632875E-08  0.3897405E+04  0.7818609E-02  0.8025569E-01
       -1   -1    0    0    0  501  0.00000000000E+00  0.00000000000E+00  0.20391919932E+04  0.20391919932E+04  0.50400001928E-02 0.  1.
        1   -1    0    0  501    0  0.00000000000E+00  0.00000000000E+00 -0.18622285453E+04  0.18622285453E+04  0.50400001928E-02 0. -1.
    10030    2    1    2    0    0  0.00000000000E+00  0.00000000000E+00  0.17696344791E+03  0.39014205385E+04  0.38974050542E+04 0.  0.
        4    1    3    3  502    0  0.19106289071E+04 -0.37911441378E+03  0.31772083137E+02  0.19481379925E+04  0.12699999809E+01 0.  1.
       -4    1    3    3    0  502 -0.19106289071E+04  0.37911441378E+03  0.14519136478E+03  0.19532825461E+04  0.12699999809E+01 0. -1.
</event>
<event>
 5   0  0.8438211E-08  0.3900405E+04  0.7818609E-02  0.8024945E-01
       -2   -1    0    0    0  501  0.00000000000E+00  0.00000000000E+00  0.16656722185E+04  0.16656722185E+04  0.25500000920E-02 0. -1.
        2   -1    0    0  501    0  0.00000000000E+00  0.00000000000E+00 -0.22833364029E+04  0.22833364029E+04  0.25500000920E-02 0.  1.
    10030    2    1    2    0    0  0.00000000000E+00  0.00000000000E+00 -0.61766418444E+03  0.39490086214E+04  0.39004051132E+04 0.  0.
        5    1    3    3  502    0  0.29217439605E+02 -0.17043253054E+04 -0.12681033707E+04  0.21245438697E+04  0.46999998093E+01 0.  1.
       -5    1    3    3    0  502 -0.29217439605E+02  0.17043253054E+04  0.65043918627E+03  0.18244647517E+04  0.46999998093E+01 0. -1.
</event>
<event>
 5   0  0.2632875E-08  0.3883596E+04  0.7818609E-02  0.8028450E-01
       -1   -1    0    0    0  501  0.00000000000E+00  0.00000000000E+00  0.17569649032E+04  0.17569649032E+04  0.50400001928E-02 0.  1.
        1   -1    0    0  501    0  0.00000000000E+00  0.00000000000E+00 -0.21460754358E+04  0.21460754358E+04  0.50400001928E-02 0. -1.
    10030    2    1    2    0    0  0.00000000000E+00  0.00000000000E+00 -0.38911053260E+03  0.39030403390E+04  0.38835958700E+04 0.  0.
        4    1    3    3  502    0 -0.87743280423E+03 -0.82341871857E+03 -0.17262169506E+04  0.21042179748E+04  0.12699999809E+01 0. -1.
       -4    1    3    3    0  502  0.87743280423E+03  0.82341871857E+03  0.13371064180E+04  0.17988223642E+04  0.12699999809E+01 0.  1.
</event>
<event>
 5   0  0.2632875E-08  0.3851207E+04  0.7818609E-02  0.8035255E-01
       -1   -1    0    0    0  501  0.00000000000E+00  0.00000000000E+00  0.21642460045E+04  0.21642460045E+04  0.50400001928E-02 0.  1.
        1   -1    0    0  501    0  0.00000000000E+00  0.00000000000E+00 -0.17132747141E+04  0.17132747141E+04  0.50400001928E-02 0. -1.
    10030    2    1    2    0    0  0.00000000000E+00  0.00000000000E+00  0.45097129039E+03  0.38775207186E+04  0.38512065406E+04 0.  0.
        5    1    3    3  502    0 -0.10606711822E+04  0.21686489929E+03  0.18288085294E+04  0.21252332739E+04  0.46999998093E+01 0.  1.
       -5    1    3    3    0  502  0.10606711822E+04 -0.21686489929E+03 -0.13778372391E+04  0.17522874446E+04  0.46999998093E+01 0. -1.
</event>
<event>
 5   0  0.2632875E-08  0.3903840E+04  0.7818609E-02  0.8024231E-01
       -1   -1    0    0    0  501  0.00000000000E+00  0.00000000000E+00  0.25853567017E+04  0.25853567017E+04  0.50400001928E-02 0.  1.
        1   -1    0    0  501    0  0.00000000000E+00  0.00000000000E+00 -0.14736812930E+04  0.14736812930E+04  0.50400001928E-02 0. -1.
    10030    2    1    2    0    0  0.00000000000E+00  0.00000000000E+00  0.11116754086E+04  0.40590379947E+04  0.39038400618E+04 0.  0.
        5    1    3    3  502    0 -0.19059002202E+04 -0.32493880995E+03  0.27698001725E+03  0.19531464101E+04  0.46999998093E+01 0. -1.
       -5    1    3    3    0  502  0.19059002202E+04  0.32493880995E+03  0.83469539140E+03  0.21058915846E+04  0.46999998093E+01 0.  1.
</event>
<event>
 5   0  0.8676098E-08  0.3896011E+04  0.7818609E-02  0.8025859E-01
       -2   -1    0    0    0  501  0.00000000000E+00  0.00000000000E+00  0.18649182577E+04  0.18649182577E+04  0.25500000920E-02 0.  1.
        2   -1    0    0  501    0  0.00000000000E+00  0.00000000000E+00 -0.20347943895E+04  0.20347943895E+04  0.25500000920E-02 0. -1.
    10030    2    1    2    0    0  0.00000000000E+00  0.00000000000E+00 -0.16987613183E+03  0.38997126471E+04  0.38960108868E+04 0.  0.
        3    1    3    3  502    0 -0.16082695473E+04 -0.34942786882E+03 -0.11280868049E+04  0.19952971262E+04  0.10100000352E+00 0. -1.
       -3    1    3    3    0  502  0.16082695473E+04  0.34942786882E+03  0.95821067309E+03  0.19044155209E+04  0.10100000352E+00 0.  1.
</event>
<event>
 5   0  0.2632875E-08  0.3907710E+04  0.7818609E-02  0.8023428E-01
        1   -1    0    0  501    0  0.00000000000E+00  0.00000000000E+00  0.15911024375E+04  0.15911024376E+04  0.50400001928E-02 0.  1.
       -1   -1    0    0    0  501  0.00000000000E+00  0.00000000000E+00 -0.23993108471E+04  0.23993108471E+04  0.50400001928E-02 0. -1.
    10030    2    1    2    0    0  0.00000000000E+00  0.00000000000E+00 -0.80820840957E+03  0.39904132847E+04  0.39077099879E+04 0.  0.
        5    1    3    3  502    0  0.16328162681E+04 -0.17708927110E+03  0.67663180609E+03  0.17763170512E+04  0.46999998093E+01 0.  1.
       -5    1    3    3    0  502 -0.16328162681E+04  0.17708927110E+03 -0.14848402157E+04  0.22140962335E+04  0.46999998093E+01 0. -1.
</event>
<event>
 5   0  0.2632875E-08  0.3904367E+04  0.7818609E-02  0.8024122E-01
        1   -1    0    0  501    0  0.00000000000E+00  0.00000000000E+00  0.15980766506E+04  0.15980766506E+04  0.50400001928E-02 0.  1.
       -1   -1    0    0    0  501  0.00000000000E+00  0.00000000000E+00 -0.23847542999E+04  0.23847542999E+04  0.50400001928E-02 0. -1.
    10030    2    1    2    0    0  0.00000000000E+00  0.00000000000E+00 -0.78667764925E+03  0.39828309505E+04  0.39043668701E+04 0.  0.
        5    1    3    3  502    0 -0.12404967374E+04 -0.11551055955E+04  0.59457445551E+03  0.17962856024E+04  0.46999998093E+01 0.  1.
       -5    1    3    3    0  502  0.12404967374E+04  0.11551055955E+04 -0.13812521048E+04  0.21865453481E+04  0.46999998093E+01 0. -1.
</event>
<event>
 5   0  0.8676098E-08  0.3897756E+04  0.7818609E-02  0.8025496E-01
        2   -1    0    0  501    0  0.00000000000E+00  0.00000000000E+00  0.13480218954E+04  0.13480218954E+04  0.25500000920E-02 0. -1.
       -2   -1    0    0    0  501  0.00000000000E+00  0.00000000000E+00 -0.28175547485E+04  0.28175547485E+04  0.25500000920E-02 0.  1.
    10030    2    1    2    0    0  0.00000000000E+00  0.00000000000E+00 -0.14695328530E+04  0.41655766439E+04  0.38977560173E+04 0.  0.
        3    1    3    3  502    0 -0.10272795637E+04 -0.15384573463E+04 -0.13900627830E+04  0.23139638846E+04  0.10100000352E+00 0. -1.
       -3    1    3    3    0  502  0.10272795637E+04  0.15384573463E+04 -0.79470070086E+02  0.18516127593E+04  0.10100000352E+00 0.  1.
</event>
<event>
 5   0  0.8551754E-08  0.3817984E+04  0.7818609E-02  0.8042306E-01
       -2   -1    0    0    0  501  0.00000000000E+00  0.00000000000E+00  0.19494908725E+04  0.19494908725E+04  0.25500000920E-02 0.  1.
        2   -1    0    0  501    0  0.00000000000E+00  0.00000000000E+00 -0.18693349092E+04  0.18693349092E+04  0.25500000920E-02 0. -1.
    10030    2    1    2    0    0  0.00000000000E+00  0.00000000000E+00  0.80155963231E+02  0.38188257817E+04  0.38179844647E+04 0.  0.
        1    1    3    3  502    0  0.13610431354E+04 -0.99761820931E+03  0.93278282233E+03  0.19281504873E+04  0.50400001928E-02 0.  1.
       -1    1    3    3    0  502 -0.13610431354E+04  0.99761820931E+03 -0.85262685910E+03  0.18906752944E+04  0.50400001928E-02 0. -1.
</event>
<event>
 5   0  0.8342802E-08  0.3966232E+04  0.7818609E-02  0.8011393E-01
       -2   -1    0    0    0  501  0.00000000000E+00  0.00000000000E+00  0.14684280313E+04  0.14684280313E+04  0.25500000920E-02 0.  1.
        2   -1    0    0  501    0  0.00000000000E+00  0.00000000000E+00 -0.26782039561E+04  0.26782039561E+04  0.25500000920E-02 0. -1.
    10030    2    1    2    0    0  0.00000000000E+00  0.00000000000E+00 -0.12097759248E+04  0.41466319874E+04  0.39662323495E+04 0.  0.
        4    1    3    3  502    0  0.12809907349E+04 -0.13762251654E+04  0.54525815706E+02  0.18809326533E+04  0.12699999809E+01 0.  1.
       -4    1    3    3    0  502 -0.12809907349E+04  0.13762251654E+04 -0.12643017405E+04  0.22656993341E+04  0.12699999809E+01 0. -1.
</event>
<event>
 5   0  0.2632875E-08  0.3925412E+04  0.7818609E-02  0.8019765E-01
       -1   -1    0    0    0  501  0.00000000000E+00  0.00000000000E+00  0.15898136778E+04  0.15898136778E+04  0.50400001928E-02 0. -1.
        1   -1    0    0  501    0  0.00000000000E+00  0.00000000000E+00 -0.24230601790E+04  0.24230601790E+04  0.50400001928E-02 0.  1.
    10030    2    1    2    0    0  0.00000000000E+00  0.00000000000E+00 -0.83324650113E+03  0.40128738568E+04  0.39254116802E+04 0.  0.
        2    1    3    3  502    0  0.14100142555E+04  0.98635626265E+03  0.54843133188E+03  0.18060497787E+04  0.25500000920E-02 0. -1.
       -2    1    3    3    0  502 -0.14100142555E+04 -0.98635626265E+03 -0.13816778330E+04  0.22068240781E+04  0.25500000920E-02 0.  1.
</event>
<event>
 5   0  0.8438211E-08  0.3914769E+04  0.7818609E-02  0.8021965E-01
       -2   -1    0    0    0  501  0.00000000000E+00  0.00000000000E+00  0.15035867329E+04  0.15035867329E+04  0.25500000920E-02 0. -1.
        2   -1    0    0  501    0  0.00000000000E+00  0.00000000000E+00 -0.25481431824E+04  0.25481431824E+04  0.25500000920E-02 0.  1.
    10030    2    1    2    0    0  0.00000000000E+00  0.00000000000E+00 -0.10445564494E+04  0.40517299153E+04  0.39147691031E+04 0.  0.
        5    1    3    3  502    0  0.29482067207E+03 -0.19070647658E+04 -0.86164771025E+03  0.21133561262E+04  0.46999998093E+01 0.  1.
       -5    1    3    3    0  502 -0.29482067207E+03  0.19070647658E+04 -0.18290873917E+03  0.19383737891E+04  0.46999998093E+01 0. -1.
</event>
<event>
 5   0  0.2632875E-08  0.3877853E+04  0.7818609E-02  0.8029651E-01
        1   -1    0    0  501    0  0.00000000000E+00  0.00000000000E+00  0.25584514996E+04  0.25584514996E+04  0.50400001928E-02 0. -1.
       -1   -1    0    0    0  501  0.00000000000E+00  0.00000000000E+00 -0.14694181542E+04  0.14694181542E+04  0.50400001928E-02 0.  1.
    10030    2    1    2    0    0  0.00000000000E+00  0.00000000000E+00  0.10890333454E+04  0.40278696539E+04  0.38778525399E+04 0.  0.
        4    1    3    3  502    0 -0.18181879597E+04 -0.32098062992E+03  0.11595356140E+04  0.21802202812E+04  0.12699999809E+01 0. -1.
       -4    1    3    3    0  502  0.18181879597E+04  0.32098062992E+03 -0.70502268562E+02  0.18476493727E+04  0.12699999809E+01 0.  1.
</event>
<event>
 5   0  0.8551754E-08  0.3888394E+04  0.7818609E-02  0.8027447E-01
       -2   -1    0    0    0  501  0.00000000000E+00  0.00000000000E+00  0.30052543674E+04  0.30052543674E+04  0.25500000920E-02 0. -1.
        2   -1    0    0  501    0  0.00000000000E+00  0.00000000000E+00 -0.12577642907E+04  0.12577642907E+04  0.25500000920E-02 0.  1.
    10030    2    1    2    0    0  0.00000000000E+00  0.00000000000E+00  0.17474900767E+04  0.42630186580E+04  0.38883938215E+04 0.  0.
        1    1    3    3  502    0 -0.18490577587E+03 -0.15275566649E+04 -0.42914486653E+03  0.15974306955E+04  0.50400001928E-02 0.  1.
       -1    1    3    3    0  502  0.18490577587E+03  0.15275566649E+04  0.21766349432E+04  0.26655879626E+04  0.50400001928E-02 0. -1.
</event>
<event>
 5   0  0.8438211E-08  0.3897654E+04  0.7818609E-02  0.8025517E-01
       -2   -1    0    0    0  501  0.00000000000E+00  0.00000000000E+00  0.19289200559E+04  0.19289200559E+04  0.25500000920E-02 0. -1.
        2   -1    0    0  501    0  0.00000000000E+00  0.00000000000E+00 -0.19689393282E+04  0.19689393282E+04  0.25500000920E-02 0.  1.
    10030    2    1    2    0    0  0.00000000000E+00  0.00000000000E+00 -0.40019272291E+02  0.38978593842E+04  0.38976539401E+04 0.  0.
        5    1    3    3  502    0  0.22462291899E+03 -0.12182376282E+04 -0.15245310555E+04  0.19643765942E+04  0.46999998093E+01 0.  1.
       -5    1    3    3    0  502 -0.22462291899E+03  0.12182376282E+04  0.14845117832E+04  0.19334827900E+04  0.46999998093E+01 0. -1.
</event>
<event>
 5   0  0.8476262E-08  0.3887527E+04  0.7818609E-02  0.8027628E-01
       -2   -1    0    0    0  501  0.00000000000E+00  0.00000000000E+00  0.13546475397E+04  0.13546475397E+04  0.25500000920E-02 0. -1.
        2   -1    0    0  501    0  0.00000000000E+00  0.00000000000E+00 -0.27890767749E+04  0.27890767749E+04  0.25500000920E-02 0.  1.
    10030    2    1    2    0    0  0.00000000000E+00  0.00000000000E+00 -0.14344292352E+04  0.41437243146E+04  0.38875267156E+04 0.  0.
        2    1    3    3  502    0  0.13702246814E+04 -0.12268522102E+04 -0.46852660398E+02  0.18398035751E+04  0.25500000920E-02 0. -1.
       -2    1    3    3    0  502 -0.13702246814E+04  0.12268522102E+04 -0.13875765748E+04  0.23039207395E+04  0.25500000920E-02 0.  1.
</event>
<event>
 5   0  0.2632875E-08  0.3876029E+04  0.7818609E-02  0.8030033E-01
       -1   -1    0    0    0  501  0.00000000000E+00  0.00000000000E+00  0.33781240892E+04  0.33781240892E+04  0.50400001928E-02 0.  1.
        1   -1    0    0  501    0  0.00000000000E+00  0.00000000000E+00 -0.11118303221E+04  0.11118303221E+04  0.50400001928E-02 0. -1.
    10030    2    1    2    0    0  0.00000000000E+00  0.00000000000E+00  0.22662937671E+04  0.44899544113E+04  0.38760293054E+04 0.  0.
        3    1    3    3  502    0 -0.61571999769E+03 -0.12620536963E+04  0.26803721120E+04  0.30259354449E+04  0.10100000352E+00 0.  1.
       -3    1    3    3    0  502  0.61571999769E+03  0.12620536963E+04 -0.41407834490E+03  0.14640189663E+04  0.10100000352E+00 0. -1.
</event>
<event>
 5   0  0.2632875E-08  0.3907998E+04  0.7818609E-02  0.8023368E-01
       -1   -1    0    0    0  501  0.00000000000E+00  0.00000000000E+00  0.22754906716E+04  0.22754906716E+04  0.50400001928E-02 0.  1.
        1   -1    0    0  501    0  0.00000000000E+00  0.00000000000E+00 -0.16779291367E+04  0.16779291367E+04  0.50400001928E-02 0. -1.
    10030    2    1    2    0    0  0.00000000000E+00  0.00000000000E+00  0.59756153485E+03  0.39534198083E+04  0.39079980032E+04 0.  0.
        4    1    3    3  502    0  0.11757628578E+04 -0.25487771332E+01  0.18775884215E+04  0.22153475320E+04  0.12699999809E+01 0.  1.
       -4    1    3    3    0  502 -0.11757628578E+04  0.25487771332E+01 -0.12800268866E+04  0.17380722763E+04  0.12699999809E+01 0. -1.
</event>
<event>
 5   0  0.8476262E-08  0.3909850E+04  0.7818609E-02  0.8022984E-01
       -2   -1    0    0    0  501  0.00000000000E+00  0.00000000000E+00  0.19937095300E+04  0.19937095300E+04  0.25500000920E-02 0. -1.
        2   -1    0    0  501    0  0.00000000000E+00  0.00000000000E+00 -0.19168950795E+04  0.19168950795E+04  0.25500000920E-02 0.  1.
    10030    2    1    2    0    0  0.00000000000E+00  0.00000000000E+00  0.76814450449E+02  0.39106046095E+04  0.39098501189E+04 0.  0.
        2    1    3    3  502    0 -0.11898657795E+04  0.44021581676E+00  0.15898194437E+04  0.19857760777E+04  0.25500000920E-02 0. -1.
       -2    1    3    3    0  502  0.11898657795E+04 -0.44021581676E+00 -0.15130049933E+04  0.19248285318E+04  0.25500000920E-02 0.  1.
</event>
<event>
 5   0  0.8438211E-08  0.3799206E+04  0.7818609E-02  0.8046325E-01
       -2   -1    0    0    0  501  0.00000000000E+00  0.00000000000E+00  0.16360613765E+04  0.16360613765E+04  0.25500000920E-02 0. -1.
        2   -1    0    0  501    0  0.00000000000E+00  0.00000000000E+00 -0.22055965789E+04  0.22055965789E+04  0.25500000920E-02 0.  1.
    10030    2    1    2    0    0  0.00000000000E+00  0.00000000000E+00 -0.56953520240E+03  0.38416579553E+04  0.37992059037E+04 0.  0.
        5    1    3    3  502    0  0.96814425730E+03  0.64157867421E+03 -0.18047415617E+04  0.21461688406E+04  0.46999998093E+01 0.  1.
       -5    1    3    3    0  502 -0.96814425730E+03 -0.64157867421E+03  0.12352063593E+04  0.16954891147E+04  0.46999998093E+01 0. -1.
</event>
<event>
 5   0  0.2632875E-08  0.3898439E+04  0.7818609E-02  0.8025354E-01
        1   -1    0    0  501    0  0.00000000000E+00  0.00000000000E+00  0.23541767389E+04  0.23541767389E+04  0.50400001928E-02 0. -1.
       -1   -1    0    0    0  501  0.00000000000E+00  0.00000000000E+00 -0.16139212076E+04  0.16139212076E+04  0.50400001928E-02 0.  1.
    10030    2    1    2    0    0  0.00000000000E+00  0.00000000000E+00  0.74025553129E+03  0.39680979465E+04  0.38984385414E+04 0.  0.
        1    1    3    3  502    0  0.17628449742E+04 -0.56126863494E+03  0.99494558881E+03  0.21006098182E+04  0.50400001928E-02 0. -1.
       -1    1    3    3    0  502 -0.17628449742E+04  0.56126863494E+03 -0.25469005752E+03  0.18674881282E+04  0.50400001928E-02 0.  1.
</event>
<event>
 5   0  0.2632875E-08  0.3889782E+04  0.7818609E-02  0.8027158E-01
       -1   -1    0    0    0  501  0.00000000000E+00  0.00000000000E+00  0.24344833376E+04  0.24344833376E+04  0.50400001928E-02 0. -1.
        1   -1    0    0  501    0  0.00000000000E+00  0.00000000000E+00 -0.15537593182E+04  0.15537593183E+04  0.50400001928E-02 0.  1.
    10030    2    1    2    0    0  0.00000000000E+00  0.00000000000E+00  0.88072401932E+03  0.39882426558E+04  0.38897820869E+04 0.  0.
        2    1    3    3  502    0 -0.12818953904E+04  0.22194368593E+02  0.19398629738E+04  0.23252562738E+04  0.25500000920E-02 0. -1.
       -2    1    3    3    0  502  0.12818953904E+04 -0.22194368593E+02 -0.10591389545E+04  0.16629863820E+04  0.25500000920E-02 0.  1.
</event>
<event>
 5   0  0.8342802E-08  0.3871128E+04  0.7818609E-02  0.8031061E-01
       -2   -1    0    0    0  501  0.00000000000E+00  0.00000000000E+00  0.20260852047E+04  0.20260852048E+04  0.25500000920E-02 0.  1.
        2   -1    0    0  501    0  0.00000000000E+00  0.00000000000E+00 -0.18490867192E+04  0.18490867192E+04  0.25500000920E-02 0. -1.
    10030    2    1    2    0    0  0.00000000000E+00  0.00000000000E+00  0.17699848551E+03  0.38751719240E+04  0.38711276105E+04 0.  0.
        4    1    3    3  502    0 -0.12830979962E+03 -0.26936934668E+03  0.20029256282E+04  0.20250273910E+04  0.12699999809E+01 0.  1.
       -4    1    3    3    0  502  0.12830979962E+03  0.26936934668E+03 -0.18259271427E+04  0.18501445329E+04  0.12699999809E+01 0. -1.
</event>
<event>
 5   0  0.8342802E-08  0.3923335E+04  0.7818609E-02  0.8020193E-01
       -2   -1    0    0    0  501  0.00000000000E+00  0.00000000000E+00  0.15044615154E+04  0.15044615154E+04  0.25500000920E-02 0. -1.
        2   -1    0    0  501    0  0.00000000000E+00  0.00000000000E+00 -0.25578183299E+04  0.25578183300E+04  0.25500000920E-02 0.  1.
    10030    2    1    2    0    0  0.00000000000E+00  0.00000000000E+00 -0.10533568145E+04  0.40622798454E+04  0.39233349288E+04 0.  0.
        4    1    3    3  502    0  0.23709975390E+03 -0.19202337173E+03 -0.25331001276E+04  0.25514088535E+04  0.12699999809E+01 0.  1.
       -4    1    3    3    0  502 -0.23709975390E+03  0.19202337173E+03  0.14797433131E+04  0.15108709919E+04  0.12699999809E+01 0. -1.
</event>
<event>
 5   0  0.8342802E-08  0.3907808E+04  0.7818609E-02  0.8023407E-01
        2   -1    0    0  501    0  0.00000000000E+00  0.00000000000E+00  0.29269625259E+04  0.29269625259E+04  0.25500000920E-02 0.  1.
       -2   -1    0    0    0  501  0.00000000000E+00  0.00000000000E+00 -0.13043353590E+04  0.13043353590E+04  0.25500000920E-02 0. -1.
    10030    2    1    2    0    0  0.00000000000E+00  0.00000000000E+00  0.16226271669E+04  0.42312978849E+04  0.39078079364E+04 0.  0.
        4    1    3    3  502    0 -0.15376003789E+02 -0.19297334683E+04  0.11426362929E+04  0.22427052840E+04  0.12699999809E+01 0.  1.
       -4    1    3    3    0  502  0.15376003789E+02  0.19297334683E+04  0.47999087402E+03  0.19885926009E+04  0.12699999809E+01 0. -1.
</event>
<event>
 5   0  0.8676098E-08  0.3860835E+04  0.7818609E-02  0.8033224E-01
       -2   -1    0    0    0  501  0.00000000000E+00  0.00000000000E+00  0.14076707730E+04  0.14076707730E+04  0.25500000920E-02 0. -1.
        2   -1    0    0  501    0  0.00000000000E+00  0.00000000000E+00 -0.26472891097E+04  0.26472891097E+04  0.25500000920E-02 0.  1.
    10030    2    1    2    0    0  0.00000000000E+00  0.00000000000E+00 -0.12396183367E+04  0.40549598828E+04  0.38608348877E+04 0.  0.
        3    1    3    3  502    0 -0.25600581713E+03 -0.13949607520E+04  0.75564022016E+03  0.16069992628E+04  0.10100000352E+00 0. -1.
       -3    1    3    3    0  502  0.25600581713E+03  0.13949607520E+04 -0.19952585569E+04  0.24479606200E+04  0.10100000352E+00 0.  1.
</event>
<event>
 5   0  0.2632875E-08  0.3999332E+04  0.7818609E-02  0.8004681E-01
        1   -1    0    0  501    0  0.00000000000E+00  0.00000000000E+00  0.14777672521E+04  0.14777672521E+04  0.50400001928E-02 0.  1.
       -1   -1    0    0    0  501  0.00000000000E+00  0.00000000000E+00 -0.27058819706E+04  0.27058819706E+04  0.50400001928E-02 0. -1.
    10030    2    1    2    0    0  0.00000000000E+00  0.00000000000E+00 -0.12281147184E+04  0.41836492227E+04  0.39993318263E+04 0.  0.
        2    1    3    3  502    0  0.15365580941E+04  0.45209922607E+03  0.63830557551E+03  0.17241921281E+04  0.25500000920E-02 0.  1.
       -2    1    3    3    0  502 -0.15365580941E+04 -0.45209922607E+03 -0.18664202939E+04  0.24594570946E+04  0.25500000920E-02 0. -1.
</event>
<event>
 5   0  0.2632875E-08  0.3908700E+04  0.7818609E-02  0.8023222E-01
       -1   -1    0    0    0  501  0.00000000000E+00  0.00000000000E+00  0.17725987946E+04  0.17725987946E+04  0.50400001928E-02 0. -1.
        1   -1    0    0  501    0  0.00000000000E+00  0.00000000000E+00 -0.21547372456E+04  0.21547372456E+04  0.50400001928E-02 0.  1.
    10030    2    1    2    0    0  0.00000000000E+00  0.00000000000E+00 -0.38213845096E+03  0.39273360402E+04  0.39087003693E+04 0.  0.
        1    1    3    3  502    0 -0.13600122424E+04 -0.62629366219E+03  0.10709476933E+04  0.18408709929E+04  0.50400001928E-02 0. -1.
       -1    1    3    3    0  502  0.13600122424E+04  0.62629366219E+03 -0.14530861443E+04  0.20864650473E+04  0.50400001928E-02 0.  1.
</event>
<event>
 5   0  0.2632875E-08  0.3894850E+04  0.7818609E-02  0.8026101E-01
       -3   -1    0    0    0  501  0.00000000000E+00  0.00000000000E+00  0.18602191830E+04  0.18602191858E+04  0.10100000352E+00 0.  1.
        3   -1    0    0  501    0  0.00000000000E+00  0.00000000000E+00 -0.20387193062E+04  0.20387193087E+04  0.10100000352E+00 0. -1.
    10030    2    1    2    0    0  0.00000000000E+00  0.00000000000E+00 -0.17850012321E+03  0.38989384945E+04  0.38948503296E+04 0.  0.
        5    1    3    3  502    0  0.63652106858E+03 -0.13050145917E+04 -0.13883874719E+04  0.20089459966E+04  0.46999998093E+01 0. -1.
       -5    1    3    3    0  502 -0.63652106858E+03  0.13050145917E+04  0.12098873487E+04  0.18899924978E+04  0.46999998093E+01 0.  1.
</event>
<event>
 5   0  0.8551754E-08  0.3916096E+04  0.7818609E-02  0.8021690E-01
        2   -1    0    0  501    0  0.00000000000E+00  0.00000000000E+00  0.16437941000E+04  0.16437941000E+04  0.25500000920E-02 0. -1.
       -2   -1    0    0    0  501  0.00000000000E+00  0.00000000000E+00 -0.23323801976E+04  0.23323801976E+04  0.25500000920E-02 0.  1.
    10030    2    1    2    0    0  0.00000000000E+00  0.00000000000E+00 -0.68858609768E+03  0.39761742976E+04  0.39160964277E+04 0.  0.
        1    1    3    3  502    0  0.49688960813E+02  0.12428031666E+04 -0.18797509464E+04  0.22539947481E+04  0.50400001928E-02 0.  1.
       -1    1    3    3    0  502 -0.49688960813E+02 -0.12428031666E+04  0.11911648488E+04  0.17221795495E+04  0.50400001928E-02 0. -1.
</event>
<event>
 5   0  0.8438211E-08  0.3924108E+04  0.7818609E-02  0.8020034E-01
        2   -1    0    0  501    0  0.00000000000E+00  0.00000000000E+00  0.15228959057E+04  0.15228959057E+04  0.25500000920E-02 0. -1.
       -2   -1    0    0    0  501  0.00000000000E+00  0.00000000000E+00 -0.25278518728E+04  0.25278518728E+04  0.25500000920E-02 0.  1.
    10030    2    1    2    0    0  0.00000000000E+00  0.00000000000E+00 -0.10049559671E+04  0.40507477785E+04  0.39241076781E+04 0.  0.
        5    1    3    3  502    0  0.17732630181E+04  0.78044873011E+03 -0.82243449451E+03  0.21047523701E+04  0.46999998093E+01 0.  1.
       -5    1    3    3    0  502 -0.17732630181E+04 -0.78044873011E+03 -0.18252147263E+03  0.19459954084E+04  0.46999998093E+01 0. -1.
</event>
<event>
 5   0  0.8342802E-08  0.3878805E+04  0.7818609E-02  0.8029452E-01
        2   -1    0    0  501    0  0.00000000000E+00  0.00000000000E+00  0.18385436298E+04  0.18385436298E+04  0.25500000920E-02 0.  1.
       -2   -1    0    0    0  501  0.00000000000E+00  0.00000000000E+00 -0.20457943587E+04  0.20457943587E+04  0.25500000920E-02 0. -1.
    10030    2    1    2    0    0  0.00000000000E+00  0.00000000000E+00 -0.20725072891E+03  0.38843379884E+04  0.38788050665E+04 0.  0.
        4    1    3    3  502    0  0.97041485926E+03 -0.14869887076E+04  0.67751304495E+03  0.19004909772E+04  0.12699999809E+01 0.  1.
       -4    1    3    3    0  502 -0.97041485926E+03  0.14869887076E+04 -0.88476377386E+03  0.19838470112E+04  0.12699999809E+01 0. -1.
</event>
<event>
 5   0  0.2632875E-08  0.3901723E+04  0.7818609E-02  0.8024671E-01
        3   -1    0    0  501    0  0.00000000000E+00  0.00000000000E+00  0.20434099886E+04  0.20434099911E+04  0.10100000352E+00 0.  1.
       -3   -1    0    0    0  501  0.00000000000E+00  0.00000000000E+00 -0.18625043790E+04  0.18625043817E+04  0.10100000352E+00 0. -1.
    10030    2    1    2    0    0  0.00000000000E+00  0.00000000000E+00  0.18090560963E+03  0.39059143728E+04  0.39017227282E+04 0.  0.
        3    1    3    3  502    0 -0.80483327234E+03 -0.38399835170E+03 -0.16465333531E+04  0.18725072559E+04  0.10100000352E+00 0. -1.
       -3    1    3    3    0  502  0.80483327234E+03  0.38399835170E+03  0.18274389627E+04  0.20334071169E+04  0.10100000352E+00 0.  1.
</event>
<event>
 5   0  0.2632875E-08  0.3891403E+04  0.7818609E-02  0.8026820E-01
       -1   -1    0    0    0  501  0.00000000000E+00  0.00000000000E+00  0.13388432948E+04  0.13388432948E+04  0.50400001928E-02 0. -1.
        1   -1    0    0  501    0  0.00000000000E+00  0.00000000000E+00 -0.28276301695E+04  0.28276301695E+04  0.50400001928E-02 0.  1.
    10030    2    1    2    0    0  0.00000000000E+00  0.00000000000E+00 -0.14887868747E+04  0.41664734643E+04  0.38914026739E+04 0.  0.
        3    1    3    3  502    0  0.16638360197E+04 -0.84657467670E+03 -0.15725599637E+03  0.18734376003E+04  0.10100000352E+00 0. -1.
       -3    1    3    3    0  502 -0.16638360197E+04  0.84657467670E+03 -0.13315308783E+04  0.22930358640E+04  0.10100000352E+00 0.  1.
</event>
<event>
 5   0  0.2632875E-08  0.3911810E+04  0.7818609E-02  0.8022577E-01
       -1   -1    0    0    0  501  0.00000000000E+00  0.00000000000E+00  0.16462558254E+04  0.16462558254E+04  0.50400001928E-02 0.  1.
        1   -1    0    0  501    0  0.00000000000E+00  0.00000000000E+00 -0.23237972080E+04  0.23237972080E+04  0.50400001928E-02 0. -1.
    10030    2    1    2    0    0  0.00000000000E+00  0.00000000000E+00 -0.67754138261E+03  0.39700530333E+04  0.39118101644E+04 0.  0.
        2    1    3    3  502    0 -0.57889975302E+03  0.59476698504E+03  0.14586696124E+04  0.16782698617E+04  0.25500000920E-02 0.  1.
       -2    1    3    3    0  502  0.57889975302E+03 -0.59476698504E+03 -0.21362109950E+04  0.22917831716E+04  0.25500000920E-02 0. -1.
</event>
<event>
 5   0  0.2632875E-08  0.3893611E+04  0.7818609E-02  0.8026359E-01
        1   -1    0    0  501    0  0.00000000000E+00  0.00000000000E+00  0.14297411945E+04  0.14297411945E+04  0.50400001928E-02 0. -1.
       -1   -1    0    0    0  501  0.00000000000E+00  0.00000000000E+00 -0.26508659533E+04  0.26508659533E+04  0.50400001928E-02 0.  1.
    10030    2    1    2    0    0  0.00000000000E+00  0.00000000000E+00 -0.12211247588E+04  0.40806071478E+04  0.38936113080E+04 0.  0.
        2    1    3    3  502    0 -0.73218142261E+03 -0.18028911307E+04 -0.54815252476E+03  0.20216273779E+04  0.25500000920E-02 0.  1.
       -2    1    3    3    0  502  0.73218142261E+03  0.18028911307E+04 -0.67297223403E+03  0.20589797698E+04  0.25500000920E-02 0. -1.
</event>
<event>
 5   0  0.2632875E-08  0.3899440E+04  0.7818609E-02  0.8025146E-01
       -1   -1    0    0    0  501  0.00000000000E+00  0.00000000000E+00  0.15183797369E+04  0.15183797369E+04  0.50400001928E-02 0.  1.
        1   -1    0    0  501    0  0.00000000000E+00  0.00000000000E+00 -0.25035956267E+04  0.25035956268E+04  0.50400001928E-02 0. -1.
    10030    2    1    2    0    0  0.00000000000E+00  0.00000000000E+00 -0.98521588981E+03  0.40219753637E+04  0.38994404056E+04 0.  0.
        5    1    3    3  502    0 -0.65714066611E+03 -0.15218573389E+03 -0.23794065778E+04  0.24731744995E+04  0.46999998093E+01 0. -1.
       -5    1    3    3    0  502  0.65714066611E+03  0.15218573389E+03  0.13941906879E+04  0.15488008642E+04  0.46999998093E+01 0.  1.
</event>
<event>
 5   0  0.8551754E-08  0.3897944E+04  0.7818609E-02  0.8025457E-01
       -2   -1    0    0    0  501  0.00000000000E+00  0.00000000000E+00  0.19916367752E+04  0.19916367752E+04  0.25500000920E-02 0.  1.
        2   -1    0    0  501    0  0.00000000000E+00  0.00000000000E+00 -0.19072216310E+04  0.19072216310E+04  0.25500000920E-02 0. -1.
    10030    2    1    2    0    0  0.00000000000E+00  0.00000000000E+00  0.84415144157E+02  0.38988584062E+04  0.38979444526E+04 0.  0.
        1    1    3    3  502    0 -0.11690073526E+04 -0.31965143224E+03 -0.14844980801E+04  0.19163741228E+04  0.50400001928E-02 0. -1.
       -1    1    3    3    0  502  0.11690073526E+04  0.31965143224E+03  0.15689132243E+04  0.19824842834E+04  0.50400001928E-02 0.  1.
</event>
<event>
 5   0  0.2632875E-08  0.3898450E+04  0.7818609E-02  0.8025352E-01
        1   -1    0    0  501    0  0.00000000000E+00  0.00000000000E+00  0.22077986564E+04  0.22077986564E+04  0.50400001928E-02 0.  1.
       -1   -1    0    0    0  501  0.00000000000E+00  0.00000000000E+00 -0.17209353350E+04  0.17209353351E+04  0.50400001928E-02 0. -1.
    10030    2    1    2    0    0  0.00000000000E+00  0.00000000000E+00  0.48686332135E+03  0.39287339915E+04  0.38984503180E+04 0.  0.
        4    1    3    3  502    0  0.13232681862E+04 -0.32653376459E+03 -0.11608830568E+04  0.17903390954E+04  0.12699999809E+01 0. -1.
       -4    1    3    3    0  502 -0.13232681862E+04  0.32653376459E+03  0.16477463781E+04  0.21383948961E+04  0.12699999809E+01 0.  1.
</event>
<event>
 5   0  0.2632875E-08  0.3893571E+04  0.7818609E-02  0.8026368E-01
       -1   -1    0    0    0  501  0.00000000000E+00  0.00000000000E+00  0.14770626595E+04  0.14770626596E+04  0.50400001928E-02 0. -1.
        1   -1    0    0  501    0  0.00000000000E+00  0.00000000000E+00 -0.25658862096E+04  0.25658862096E+04  0.50400001928E-02 0.  1.
    10030    2    1    2    0    0  0.00000000000E+00  0.00000000000E+00 -0.10888235501E+04  0.40429488692E+04  0.38935714756E+04 0.  0.
        1    1    3    3  502    0  0.19049544552E+04 -0.20364374064E+03 -0.18523279580E+03  0.19247424343E+04  0.50400001928E-02 0.  1.
       -1    1    3    3    0  502 -0.19049544552E+04  0.20364374064E+03 -0.90359075430E+03  0.21182064349E+04  0.50400001928E-02 0. -1.
</event>
<event>
 5   0  0.8342802E-08  0.3951773E+04  0.7818609E-02  0.8014347E-01
        2   -1    0    0  501    0  0.00000000000E+00  0.00000000000E+00  0.14490711708E+04  0.14490711708E+04  0.25500000920E-02 0.  1.
       -2   -1    0    0    0  501  0.00000000000E+00  0.00000000000E+00 -0.26942270427E+04  0.26942270427E+04  0.25500000920E-02 0. -1.
    10030    2    1    2    0    0  0.00000000000E+00  0.00000000000E+00 -0.12451558718E+04  0.41432982135E+04  0.39517726327E+04 0.  0.
        4    1    3    3  502    0 -0.10025071933E+04  0.10747555476E+04 -0.20071899693E+04  0.24877566893E+04  0.12699999809E+01 0. -1.
       -4    1    3    3    0  502  0.10025071933E+04 -0.10747555476E+04  0.76203409743E+03  0.16555415242E+04  0.12699999809E+01 0.  1.
</event>
<event>
 5   0  0.2632875E-08  0.3876088E+04  0.7818609E-02  0.8030021E-01
        1   -1    0    0  501    0  0.00000000000E+00  0.00000000000E+00  0.27230416683E+04  0.27230416683E+04  0.50400001928E-02 0. -1.
       -1   -1    0    0    0  501  0.00000000000E+00  0.00000000000E+00 -0.13793455830E+04  0.13793455830E+04  0.50400001928E-02 0.  1.
    10030    2    1    2    0    0  0.00000000000E+00  0.00000000000E+00  0.13436960853E+04  0.41023872513E+04  0.38760884910E+04 0.  0.
        5    1    3    3  502    0  0.26559468516E+03  0.34218526016E+03 -0.13274494926E+04  0.13963436305E+04  0.46999998093E+01 0.  1.
       -5    1    3    3    0  502 -0.26559468516E+03 -0.34218526016E+03  0.26711455779E+04  0.27060436208E+04  0.46999998093E+01 0. -1.
</event>
<event>
 5   0  0.2632875E-08  0.3894189E+04  0.7818609E-02  0.8026239E-01
       -3   -1    0    0    0  501  0.00000000000E+00  0.00000000000E+00  0.17606341007E+04  0.17606341036E+04  0.10100000352E+00 0. -1.
        3   -1    0    0  501    0  0.00000000000E+00  0.00000000000E+00 -0.21533021302E+04  0.21533021326E+04  0.10100000352E+00 0.  1.
    10030    2    1    2    0    0  0.00000000000E+00  0.00000000000E+00 -0.39266802959E+03  0.39139362362E+04  0.38941890914E+04 0.  0.
        5    1    3    3  502    0  0.86131763200E+03  0.16981398483E+04 -0.60534734381E+03  0.19980026287E+04  0.46999998093E+01 0.  1.
       -5    1    3    3    0  502 -0.86131763200E+03 -0.16981398483E+04  0.21267931422E+03  0.19159336075E+04  0.46999998093E+01 0. -1.
</event>
<event>
 5   0  0.2632875E-08  0.3908922E+04  0.7818609E-02  0.8023176E-01
        1   -1    0    0  501    0  0.00000000000E+00  0.00000000000E+00  0.16582950307E+04  0.16582950307E+04  0.50400001928E-02 0.  1.
       -1   -1    0    0    0  501  0.00000000000E+00  0.00000000000E+00 -0.23035208500E+04  0.23035208500E+04  0.50400001928E-02 0. -1.
    10030    2    1    2    0    0  0.00000000000E+00  0.00000000000E+00 -0.64522581930E+03  0.39618158807E+04  0.39089216819E+04 0.  0.
        4    1    3    3  502    0 -0.43103918156E+03  0.62318592478E+03 -0.21485908542E+04  0.22782887755E+04  0.12699999809E+01 0. -1.
       -4    1    3    3    0  502  0.43103918156E+03 -0.62318592478E+03  0.15033650349E+04  0.16835271052E+04  0.12699999809E+01 0.  1.
</event>
<event>
 5   0  0.8551754E-08  0.3955564E+04  0.7818609E-02  0.8013571E-01
       -2   -1    0    0    0  501  0.00000000000E+00  0.00000000000E+00  0.13543289511E+04  0.13543289511E+04  0.25500000920E-02 0. -1.
        2   -1    0    0  501    0  0.00000000000E+00  0.00000000000E+00 -0.28882361293E+04  0.28882361293E+04  0.25500000920E-02 0.  1.
    10030    2    1    2    0    0  0.00000000000E+00  0.00000000000E+00 -0.15339071783E+04  0.42425650804E+04  0.39555640850E+04 0.  0.
        1    1    3    3  502    0  0.16818158009E+04  0.73667736222E+03  0.21520370962E+02  0.18362083353E+04  0.50400001928E-02 0. -1.
       -1    1    3    3    0  502 -0.16818158009E+04 -0.73667736222E+03 -0.15554275492E+04  0.24063567452E+04  0.50400001928E-02 0.  1.
</event>
<event>
 5   0  0.2632875E-08  0.3870846E+04  0.7818609E-02  0.8031120E-01
        1   -1    0    0  501    0  0.00000000000E+00  0.00000000000E+00  0.27889791895E+04  0.27889791895E+04  0.50400001928E-02 0. -1.
       -1   -1    0    0    0  501  0.00000000000E+00  0.00000000000E+00 -0.13430945520E+04  0.13430945520E+04  0.50400001928E-02 0.  1.
    10030    2    1    2    0    0  0.00000000000E+00  0.00000000000E+00  0.14458846375E+04  0.41320737415E+04  0.38708462925E+04 0.  0.
        4    1    3    3  502    0 -0.27441473866E+03  0.76133286555E+03 -0.11538089549E+04  0.14093288822E+04  0.12699999809E+01 0.  1.
       -4    1    3    3    0  502  0.27441473866E+03 -0.76133286555E+03  0.25996935925E+04  0.27227448592E+04  0.12699999809E+01 0. -1.
</event>
<event>
 5   0  0.8551754E-08  0.3865887E+04  0.7818609E-02  0.8032162E-01
        2   -1    0    0  501    0  0.00000000000E+00  0.00000000000E+00  0.21998297678E+04  0.21998297678E+04  0.25500000920E-02 0. -1.
       -2   -1    0    0    0  501  0.00000000000E+00  0.00000000000E+00 -0.16984363609E+04  0.16984363609E+04  0.25500000920E-02 0.  1.
    10030    2    1    2    0    0  0.00000000000E+00  0.00000000000E+00  0.50139340687E+03  0.38982661286E+04  0.38658871506E+04 0.  0.
        1    1    3    3  502    0  0.79325580838E+03 -0.53842139473E+02  0.20273036710E+04  0.21776395312E+04  0.50400001928E-02 0. -1.
       -1    1    3    3    0  502 -0.79325580838E+03  0.53842139473E+02 -0.15259102641E+04  0.17206265974E+04  0.50400001928E-02 0.  1.
</event>
<event>
 5   0  0.8676098E-08  0.3902718E+04  0.7818609E-02  0.8024464E-01
        2   -1    0    0  501    0  0.00000000000E+00  0.00000000000E+00  0.15879853704E+04  0.15879853704E+04  0.25500000920E-02 0.  1.
       -2   -1    0    0    0  501  0.00000000000E+00  0.00000000000E+00 -0.23978827411E+04  0.23978827411E+04  0.25500000920E-02 0. -1.
    10030    2    1    2    0    0  0.00000000000E+00  0.00000000000E+00 -0.80989737065E+03  0.39858681115E+04  0.39027183925E+04 0.  0.
        3    1    3    3  502    0 -0.21935440921E+03 -0.15933335493E+04 -0.15334680462E+04  0.22222404044E+04  0.10100000352E+00 0.  1.
       -3    1    3    3    0  502  0.21935440921E+03  0.15933335493E+04  0.72357067554E+03  0.17636277070E+04  0.10100000352E+00 0. -1.
</event>
<event>
 5   0  0.8676098E-08  0.3903525E+04  0.7818609E-02  0.8024297E-01
        2   -1    0    0  501    0  0.00000000000E+00  0.00000000000E+00  0.21644620949E+04  0.21644620949E+04  0.25500000920E-02 0. -1.
       -2   -1    0    0    0  501  0.00000000000E+00  0.00000000000E+00 -0.17599643385E+04  0.17599643385E+04  0.25500000920E-02 0.  1.
    10030    2    1    2    0    0  0.00000000000E+00  0.00000000000E+00  0.40449775637E+03  0.39244264334E+04  0.39035246120E+04 0.  0.
        3    1    3    3  502    0 -0.18313036328E+04  0.62203561372E+03  0.46590259765E+03  0.19893884842E+04  0.10100000352E+00 0. -1.
       -3    1    3    3    0  502  0.18313036328E+04 -0.62203561372E+03 -0.61404841278E+02  0.19350379492E+04  0.10100000352E+00 0.  1.
</event>
<event>
 5   0  0.2632875E-08  0.3886709E+04  0.7818609E-02  0.8027799E-01
        1   -1    0    0  501    0  0.00000000000E+00  0.00000000000E+00  0.22234502718E+04  0.22234502718E+04  0.50400001928E-02 0.  1.
       -1   -1    0    0    0  501  0.00000000000E+00  0.00000000000E+00 -0.16985436794E+04  0.16985436794E+04  0.50400001928E-02 0. -1.
    10030    2    1    2    0    0  0.00000000000E+00  0.00000000000E+00  0.52490659246E+03  0.39219939512E+04  0.38867093566E+04 0.  0.
        1    1    3    3  502    0  0.73583834572E+03  0.73367136089E+03  0.19195846200E+04  0.21827819062E+04  0.50400001928E-02 0.  1.
       -1    1    3    3    0  502 -0.73583834572E+03 -0.73367136089E+03 -0.13946780275E+04  0.17392120450E+04  0.50400001928E-02 0. -1.
</event>
<event>
 5   0  0.2632875E-08  0.3930306E+04  0.7818609E-02  0.8018755E-01
        1   -1    0    0  501    0  0.00000000000E+00  0.00000000000E+00  0.11922996242E+04  0.11922996242E+04  0.50400001928E-02 0.  1.
       -1   -1    0    0    0  501  0.00000000000E+00  0.00000000000E+00 -0.32389732180E+04  0.32389732180E+04  0.50400001928E-02 0. -1.
    10030    2    1    2    0    0  0.00000000000E+00  0.00000000000E+00 -0.20466735938E+04  0.44312728422E+04  0.39303061207E+04 0.  0.
        5    1    3    3  502    0  0.80184168352E+03  0.17880797493E+04 -0.11891358451E+04  0.22922140876E+04  0.46999998093E+01 0. -1.
       -5    1    3    3    0  502 -0.80184168352E+03 -0.17880797493E+04 -0.85753774873E+03  0.21390587546E+04  0.46999998093E+01 0.  1.
</event>
<event>
 5   0  0.8676098E-08  0.3891517E+04  0.7818609E-02  0.8026796E-01
        2   -1    0    0  501    0  0.00000000000E+00  0.00000000000E+00  0.20478049923E+04  0.20478049923E+04  0.25500000920E-02 0.  1.
       -2   -1    0    0    0  501  0.00000000000E+00  0.00000000000E+00 -0.18487971874E+04  0.18487971874E+04  0.25500000920E-02 0. -1.
    10030    2    1    2    0    0  0.00000000000E+00  0.00000000000E+00  0.19900780492E+03  0.38966021797E+04  0.38915169845E+04 0.  0.
        3    1    3    3  502    0 -0.17352204277E+04  0.17983857346E+03  0.96239810607E+03  0.19923709419E+04  0.10100000352E+00 0.  1.
       -3    1    3    3    0  502  0.17352204277E+04 -0.17983857346E+03 -0.76339030115E+03  0.19042312379E+04  0.10100000352E+00 0. -1.
</event>
<event>
 5   0  0.2632875E-08  0.3891484E+04  0.7818609E-02  0.8026803E-01
        1   -1    0    0  501    0  0.00000000000E+00  0.00000000000E+00  0.28017925174E+04  0.28017925174E+04  0.50400001928E-02 0.  1.
       -1   -1    0    0    0  501  0.00000000000E+00  0.00000000000E+00 -0.13512466965E+04  0.13512466965E+04  0.50400001928E-02 0. -1.
    10030    2    1    2    0    0  0.00000000000E+00  0.00000000000E+00  0.14505458209E+04  0.41530392139E+04  0.38914844897E+04 0.  0.
        5    1    3    3  502    0  0.17433258360E+04 -0.60151080573E+03  0.63179347581E+02  0.18452679859E+04  0.46999998093E+01 0. -1.
       -5    1    3    3    0  502 -0.17433258360E+04  0.60151080573E+03  0.13873664733E+04  0.23077712280E+04  0.46999998093E+01 0.  1.
</event>
<event>
 5   0  0.8476262E-08  0.3909915E+04  0.7818609E-02  0.8022970E-01
        2   -1    0    0  501    0  0.00000000000E+00  0.00000000000E+00  0.19759780464E+04  0.19759780464E+04  0.25500000920E-02 0. -1.
       -2   -1    0    0    0  501  0.00000000000E+00  0.00000000000E+00 -0.19341603321E+04  0.19341603321E+04  0.25500000920E-02 0.  1.
    10030    2    1    2    0    0  0.00000000000E+00  0.00000000000E+00  0.41817714384E+02  0.39101383785E+04  0.39099147584E+04 0.  0.
        2    1    3    3  502    0  0.60692958979E+03  0.39769553365E+03  0.18363179134E+04  0.19744844247E+04  0.25500000920E-02 0. -1.
       -2    1    3    3    0  502 -0.60692958979E+03 -0.39769553365E+03 -0.17945001990E+04  0.19356539538E+04  0.25500000920E-02 0.  1.
</event>
<event>
 5   0  0.2632875E-08  0.3904264E+04  0.7818609E-02  0.8024143E-01
       -1   -1    0    0    0  501  0.00000000000E+00  0.00000000000E+00  0.19372413915E+04  0.19372413915E+04  0.50400001928E-02 0.  1.
        1   -1    0    0  501    0  0.00000000000E+00  0.00000000000E+00 -0.19671367950E+04  0.19671367950E+04  0.50400001928E-02 0. -1.
    10030    2    1    2    0    0  0.00000000000E+00  0.00000000000E+00 -0.29895403473E+02  0.39043781865E+04  0.39042637319E+04 0.  0.
        3    1    3    3  502    0 -0.10390763448E+04  0.15659645094E+04  0.51317223624E+03  0.19481453358E+04  0.10100000352E+00 0.  1.
       -3    1    3    3    0  502  0.10390763448E+04 -0.15659645094E+04 -0.54306763971E+03  0.19562328508E+04  0.10100000352E+00 0. -1.
</event>
<event>
 5   0  0.2632875E-08  0.3870448E+04  0.7818609E-02  0.8031204E-01
        1   -1    0    0  501    0  0.00000000000E+00  0.00000000000E+00  0.20288005584E+04  0.20288005584E+04  0.50400001928E-02 0.  1.
       -1   -1    0    0    0  501  0.00000000000E+00  0.00000000000E+00 -0.18459636613E+04  0.18459636613E+04  0.50400001928E-02 0. -1.
    10030    2    1    2    0    0  0.00000000000E+00  0.00000000000E+00  0.18283689704E+03  0.38747642197E+04  0.38704480913E+04 0.  0.
        3    1    3    3  502    0 -0.24872250507E+03 -0.18889870313E+04  0.43084994329E+03  0.19533987234E+04  0.10100000352E+00 0. -1.
       -3    1    3    3    0  502  0.24872250507E+03  0.18889870313E+04 -0.24801304625E+03  0.19213654963E+04  0.10100000352E+00 0.  1.
</event>
<event>
 5   0  0.2632875E-08  0.3912519E+04  0.7818609E-02  0.8022431E-01
       -1   -1    0    0    0  501  0.00000000000E+00  0.00000000000E+00  0.11389127689E+04  0.11389127689E+04  0.50400001928E-02 0. -1.
        1   -1    0    0  501    0  0.00000000000E+00  0.00000000000E+00 -0.33601794167E+04  0.33601794167E+04  0.50400001928E-02 0.  1.
    10030    2    1    2    0    0  0.00000000000E+00  0.00000000000E+00 -0.22212666478E+04  0.44990921856E+04  0.39125190062E+04 0.  0.
        4    1    3    3  502    0 -0.18629017431E+04  0.58167079686E+03 -0.12657910614E+04  0.23261497038E+04  0.12699999809E+01 0.  1.
       -4    1    3    3    0  502  0.18629017431E+04 -0.58167079686E+03 -0.95547558645E+03  0.21729424819E+04  0.12699999809E+01 0. -1.
</event>
<event>
 5   0  0.8342802E-08  0.3909820E+04  0.7818609E-02  0.8022990E-01
       -2   -1    0    0    0  501  0.00000000000E+00  0.00000000000E+00  0.15593381224E+04  0.15593381224E+04  0.25500000920E-02 0.  1.
        2   -1    0    0  501    0  0.00000000000E+00  0.00000000000E+00 -0.24508304367E+04  0.24508304367E+04  0.25500000920E-02 0. -1.
    10030    2    1    2    0    0  0.00000000000E+00  0.00000000000E+00 -0.89149231426E+03  0.40101685591E+04  0.39098201143E+04 0.  0.
        4    1    3    3  502    0  0.11085088517E+04 -0.12769022009E+04 -0.14519449611E+04  0.22287702636E+04  0.12699999809E+01 0. -1.
       -4    1    3    3    0  502 -0.11085088517E+04  0.12769022009E+04  0.56045264682E+03  0.17813982955E+04  0.12699999809E+01 0.  1.
</event>
<event>
 5   0  0.2632875E-08  0.3895825E+04  0.7818609E-02  0.8025898E-01
       -1   -1    0    0    0  501  0.00000000000E+00  0.00000000000E+00  0.20748489695E+04  0.20748489695E+04  0.50400001928E-02 0.  1.
        1   -1    0    0  501    0  0.00000000000E+00  0.00000000000E+00 -0.18287419389E+04  0.18287419389E+04  0.50400001928E-02 0. -1.
    10030    2    1    2    0    0  0.00000000000E+00  0.00000000000E+00  0.24610703061E+03  0.39035909084E+04  0.38958251128E+04 0.  0.
        5    1    3    3  502    0 -0.17044064156E+04  0.39594364287E+03 -0.73455484602E+03  0.18977264054E+04  0.46999998093E+01 0.  1.
       -5    1    3    3    0  502  0.17044064156E+04 -0.39594364287E+03  0.98066187663E+03  0.20058645030E+04  0.46999998093E+01 0. -1.
</event>
<event>
 5   0  0.2632875E-08  0.3901862E+04  0.7818609E-02  0.8024642E-01
        3   -1    0    0  501    0  0.00000000000E+00  0.00000000000E+00  0.21877712805E+04  0.21877712828E+04  0.10100000352E+00 0. -1.
       -3   -1    0    0    0  501  0.00000000000E+00  0.00000000000E+00 -0.17397299681E+04  0.17397299711E+04  0.10100000352E+00 0.  1.
    10030    2    1    2    0    0  0.00000000000E+00  0.00000000000E+00  0.44804131232E+03  0.39275012539E+04  0.39018617456E+04 0.  0.
        4    1    3    3  502    0  0.48354835142E+03  0.26348512307E+03  0.21079190333E+04  0.21786619017E+04  0.12699999809E+01 0. -1.
       -4    1    3    3    0  502 -0.48354835142E+03 -0.26348512307E+03 -0.16598777209E+04  0.17488393522E+04  0.12699999809E+01 0.  1.
</event>
<event>
 5   0  0.2632875E-08  0.3893089E+04  0.7818609E-02  0.8026468E-01
        1   -1    0    0  501    0  0.00000000000E+00  0.00000000000E+00  0.13160688631E+04  0.13160688631E+04  0.50400001928E-02 0.  1.
       -1   -1    0    0    0  501  0.00000000000E+00  0.00000000000E+00 -0.28790550010E+04  0.28790550010E+04  0.50400001928E-02 0. -1.
    10030    2    1    2    0    0  0.00000000000E+00  0.00000000000E+00 -0.15629861378E+04  0.41951238641E+04  0.38930885641E+04 0.  0.
        4    1    3    3  502    0 -0.62054385046E+03  0.11798248325E+04 -0.23099789836E+04  0.26670331501E+04  0.12699999809E+01 0. -1.
       -4    1    3    3    0  502  0.62054385046E+03 -0.11798248325E+04  0.74699284580E+03  0.15280907141E+04  0.12699999809E+01 0.  1.
</event>
<event>
 5   0  0.8476262E-08  0.3871128E+04  0.7818609E-02  0.8031061E-01
       -2   -1    0    0    0  501  0.00000000000E+00  0.00000000000E+00  0.16561587337E+04  0.16561587337E+04  0.25500000920E-02 0.  1.
        2   -1    0    0  501    0  0.00000000000E+00  0.00000000000E+00 -0.22621067186E+04  0.22621067186E+04  0.25500000920E-02 0. -1.
    10030    2    1    2    0    0  0.00000000000E+00  0.00000000000E+00 -0.60594798494E+03  0.39182654524E+04  0.38711278970E+04 0.  0.
        2    1    3    3  502    0  0.15918193486E+04 -0.48342576575E+03  0.69842561542E+03  0.18042692842E+04  0.25500000920E-02 0.  1.
       -2    1    3    3    0  502 -0.15918193486E+04  0.48342576575E+03 -0.13043736004E+04  0.21139961682E+04  0.25500000920E-02 0. -1.
</event>
<event>
 5   0  0.8342802E-08  0.3883231E+04  0.7818609E-02  0.8028526E-01
       -2   -1    0    0    0  501  0.00000000000E+00  0.00000000000E+00  0.25607778740E+04  0.25607778740E+04  0.25500000920E-02 0. -1.
        2   -1    0    0  501    0  0.00000000000E+00  0.00000000000E+00 -0.14721587460E+04  0.14721587460E+04  0.25500000920E-02 0.  1.
    10030    2    1    2    0    0  0.00000000000E+00  0.00000000000E+00  0.10886191280E+04  0.40329366200E+04  0.38832314089E+04 0.  0.
        4    1    3    3  502    0  0.16741467296E+04  0.96260901001E+03  0.75327936210E+03  0.20728759704E+04  0.12699999809E+01 0. -1.
       -4    1    3    3    0  502 -0.16741467296E+04 -0.96260901001E+03  0.33533976590E+03  0.19600606496E+04  0.12699999809E+01 0.  1.
</event>
<event>
 5   0  0.8342802E-08  0.3897983E+04  0.7818609E-02  0.8025449E-01
       -2   -1    0    0    0  501  0.00000000000E+00  0.00000000000E+00  0.14602109151E+04  0.14602109151E+04  0.25500000920E-02 0. -1.
        2   -1    0    0  501    0  0.00000000000E+00  0.00000000000E+00 -0.26013830687E+04  0.26013830687E+04  0.25500000920E-02 0.  1.
    10030    2    1    2    0    0  0.00000000000E+00  0.00000000000E+00 -0.11411721537E+04  0.40615939838E+04  0.38979830432E+04 0.  0.
        4    1    3    3  502    0 -0.12706458651E+03 -0.19400922592E+04 -0.42900436213E+03  0.19910172624E+04  0.12699999809E+01 0. -1.
       -4    1    3    3    0  502  0.12706458651E+03  0.19400922592E+04 -0.71216779152E+03  0.20705767215E+04  0.12699999809E+01 0.  1.
</event>
<event>
 5   0  0.2632875E-08  0.3876688E+04  0.7818609E-02  0.8029895E-01
       -1   -1    0    0    0  501  0.00000000000E+00  0.00000000000E+00  0.28979516972E+04  0.28979516972E+04  0.50400001928E-02 0. -1.
        1   -1    0    0  501    0  0.00000000000E+00  0.00000000000E+00 -0.12964942428E+04  0.12964942428E+04  0.50400001928E-02 0.  1.
    10030    2    1    2    0    0  0.00000000000E+00  0.00000000000E+00  0.16014574544E+04  0.41944459400E+04  0.38766881182E+04 0.  0.
        4    1    3    3  502    0 -0.11401653541E+04 -0.75522864297E+02 -0.89333316952E+03  0.14504228702E+04  0.12699999809E+01 0.  1.
       -4    1    3    3    0  502  0.11401653541E+04  0.75522864297E+02  0.24947906240E+04  0.27440230699E+04  0.12699999809E+01 0. -1.
</event>
<event>
 5   0  0.8476262E-08  0.3890340E+04  0.7818609E-02  0.8027041E-01
        2   -1    0    0  501    0  0.00000000000E+00  0.00000000000E+00  0.18766235117E+04  0.18766235117E+04  0.25500000920E-02 0. -1.
       -2   -1    0    0    0  501  0.00000000000E+00  0.00000000000E+00 -0.20162197685E+04  0.20162197685E+04  0.25500000920E-02 0.  1.
    10030    2    1    2    0    0  0.00000000000E+00  0.00000000000E+00 -0.13959625678E+03  0.38928432803E+04  0.38903395340E+04 0.  0.
        2    1    3    3  502    0 -0.95445294892E+03 -0.85720003115E+03  0.13933033106E+04  0.18939552372E+04  0.25500000920E-02 0. -1.
       -2    1    3    3    0  502  0.95445294892E+03  0.85720003115E+03 -0.15328995674E+04  0.19988880431E+04  0.25500000920E-02 0.  1.
</event>
<event>
 5   0  0.8342802E-08  0.3868381E+04  0.7818609E-02  0.8031638E-01
       -2   -1    0    0    0  501  0.00000000000E+00  0.00000000000E+00  0.16993976299E+04  0.16993976299E+04  0.25500000920E-02 0.  1.
        2   -1    0    0  501    0  0.00000000000E+00  0.00000000000E+00 -0.22014231321E+04  0.22014231321E+04  0.25500000920E-02 0. -1.
    10030    2    1    2    0    0  0.00000000000E+00  0.00000000000E+00 -0.50202550224E+03  0.39008207620E+04  0.38683811875E+04 0.  0.
        4    1    3    3  502    0 -0.83720826579E+02 -0.48335593508E+03  0.16356255259E+04  0.17076049340E+04  0.12699999809E+01 0.  1.
       -4    1    3    3    0  502  0.83720826579E+02  0.48335593508E+03 -0.21376510282E+04  0.21932158279E+04  0.12699999809E+01 0. -1.
</event>
<event>
 5   0  0.8438211E-08  0.3932478E+04  0.7818609E-02  0.8018308E-01
        2   -1    0    0  501    0  0.00000000000E+00  0.00000000000E+00  0.19417140230E+04  0.19417140230E+04  0.25500000920E-02 0.  1.
       -2   -1    0    0    0  501  0.00000000000E+00  0.00000000000E+00 -0.19910735465E+04  0.19910735465E+04  0.25500000920E-02 0. -1.
    10030    2    1    2    0    0  0.00000000000E+00  0.00000000000E+00 -0.49359523519E+02  0.39327875696E+04  0.39324778073E+04 0.  0.
        5    1    3    3  502    0 -0.62207143472E+03  0.12388982005E+04 -0.14191466930E+04  0.19838954225E+04  0.46999998093E+01 0. -1.
       -5    1    3    3    0  502  0.62207143472E+03 -0.12388982005E+04  0.13697871695E+04  0.19488921471E+04  0.46999998093E+01 0.  1.
</event>
<event>
 5   0  0.2632875E-08  0.3901625E+04  0.7818609E-02  0.8024691E-01
        1   -1    0    0  501    0  0.00000000000E+00  0.00000000000E+00  0.10545636361E+04  0.10545636361E+04  0.50400001928E-02 0. -1.
       -1   -1    0    0    0  501  0.00000000000E+00  0.00000000000E+00 -0.36087629167E+04  0.36087629167E+04  0.50400001928E-02 0.  1.
    10030    2    1    2    0    0  0.00000000000E+00  0.00000000000E+00 -0.25541992806E+04  0.46633265528E+04  0.39016253758E+04 0.  0.
        2    1    3    3  502    0  0.14997773690E+04  0.90360103327E+03 -0.24903578037E+03  0.17685716847E+04  0.25500000920E-02 0. -1.
       -2    1    3    3    0  502 -0.14997773690E+04 -0.90360103327E+03 -0.23051635002E+04  0.28947548682E+04  0.25500000920E-02 0.  1.
</event>
<event>
 5   0  0.8438211E-08  0.3880844E+04  0.7818609E-02  0.8029025E-01
       -2   -1    0    0    0  501  0.00000000000E+00  0.00000000000E+00  0.24699684316E+04  0.24699684316E+04  0.25500000920E-02 0.  1.
        2   -1    0    0  501    0  0.00000000000E+00  0.00000000000E+00 -0.15244068120E+04  0.15244068120E+04  0.25500000920E-02 0. -1.
    10030    2    1    2    0    0  0.00000000000E+00  0.00000000000E+00  0.94556161952E+03  0.39943752436E+04  0.38808435694E+04 0.  0.
        5    1    3    3  502    0 -0.26971815791E+03 -0.37253448523E+03 -0.14674892201E+04  0.15378805313E+04  0.46999998093E+01 0. -1.
       -5    1    3    3    0  502  0.26971815791E+03  0.37253448523E+03  0.24130508396E+04  0.24564947124E+04  0.46999998093E+01 0.  1.
</event>
<event>
 5   0  0.2632875E-08  0.3916308E+04  0.7818609E-02  0.8021646E-01
       -1   -1    0    0    0  501  0.00000000000E+00  0.00000000000E+00  0.23520102398E+04  0.23520102398E+04  0.50400001928E-02 0.  1.
        1   -1    0    0  501    0  0.00000000000E+00  0.00000000000E+00 -0.16302507482E+04  0.16302507483E+04  0.50400001928E-02 0. -1.
    10030    2    1    2    0    0  0.00000000000E+00  0.00000000000E+00  0.72175949159E+03  0.39822609881E+04  0.39163076761E+04 0.  0.
        2    1    3    3  502    0 -0.99421281473E+03  0.15026646764E+04  0.11405427671E+04  0.21324394609E+04  0.25500000920E-02 0. -1.
       -2    1    3    3    0  502  0.99421281473E+03 -0.15026646764E+04 -0.41878327552E+03  0.18498215272E+04  0.25500000920E-02 0.  1.
</event>
<event>
 5   0  0.8551754E-08  0.3837556E+04  0.7818609E-02  0.8038143E-01
        2   -1    0    0  501    0  0.00000000000E+00  0.00000000000E+00  0.18330350789E+04  0.18330350789E+04  0.25500000920E-02 0.  1.
       -2   -1    0    0    0  501  0.00000000000E+00  0.00000000000E+00 -0.20085320628E+04  0.20085320628E+04  0.25500000920E-02 0. -1.
    10030    2    1    2    0    0  0.00000000000E+00  0.00000000000E+00 -0.17549698397E+03  0.38415671417E+04  0.38375563726E+04 0.  0.
        1    1    3    3  502    0  0.66424519187E+03 -0.29096107192E+03  0.16905736664E+04  0.18395432427E+04  0.50400001928E-02 0.  1.
       -1    1    3    3    0  502 -0.66424519187E+03  0.29096107192E+03 -0.18660706503E+04  0.20020238990E+04  0.50400001928E-02 0. -1.
</event>
<event>
 5   0  0.2632875E-08  0.3876389E+04  0.7818609E-02  0.8029958E-01
        1   -1    0    0  501    0  0.00000000000E+00  0.00000000000E+00  0.24553673783E+04  0.24553673783E+04  0.50400001928E-02 0. -1.
       -1   -1    0    0    0  501  0.00000000000E+00  0.00000000000E+00 -0.15299533595E+04  0.15299533595E+04  0.50400001928E-02 0.  1.
    10030    2    1    2    0    0  0.00000000000E+00  0.00000000000E+00  0.92541401880E+03  0.39853207378E+04  0.38763888191E+04 0.  0.
        1    1    3    3  502    0 -0.16552544203E+04 -0.72315911432E+03  0.11851421368E+04  0.21604138920E+04  0.50400001928E-02 0. -1.
       -1    1    3    3    0  502  0.16552544203E+04  0.72315911432E+03 -0.25972811795E+03  0.18249068458E+04  0.50400001928E-02 0.  1.
</event>
<event>
 5   0  0.8676098E-08  0.3890881E+04  0.7818609E-02  0.8026928E-01
       -2   -1    0    0    0  501  0.00000000000E+00  0.00000000000E+00  0.16588236664E+04  0.16588236664E+04  0.25500000920E-02 0. -1.
        2   -1    0    0  501    0  0.00000000000E+00  0.00000000000E+00 -0.22815797001E+04  0.22815797001E+04  0.25500000920E-02 0.  1.
    10030    2    1    2    0    0  0.00000000000E+00  0.00000000000E+00 -0.62275603370E+03  0.39404033664E+04  0.38908808273E+04 0.  0.
        3    1    3    3  502    0 -0.17906834966E+04  0.70203199583E+02 -0.10781558088E+04  0.20913861032E+04  0.10100000352E+00 0.  1.
       -3    1    3    3    0  502  0.17906834966E+04 -0.70203199583E+02  0.45539977511E+03  0.18490172632E+04  0.10100000352E+00 0. -1.
</event>
<event>
 5   0  0.2632875E-08  0.3891095E+04  0.7818609E-02  0.8026884E-01
       -1   -1    0    0    0  501  0.00000000000E+00  0.00000000000E+00  0.16363287420E+04  0.16363287420E+04  0.50400001928E-02 0. -1.
        1   -1    0    0  501    0  0.00000000000E+00  0.00000000000E+00 -0.23131994995E+04  0.23131994995E+04  0.50400001928E-02 0.  1.
    10030    2    1    2    0    0  0.00000000000E+00  0.00000000000E+00 -0.67687075749E+03  0.39495282416E+04  0.38910948727E+04 0.  0.
        5    1    3    3  502    0 -0.59155238702E+02 -0.14597121237E+04 -0.16425938175E+04  0.21982709946E+04  0.46999998093E+01 0.  1.
       -5    1    3    3    0  502  0.59155238702E+02  0.14597121237E+04  0.96572305998E+03  0.17512572470E+04  0.46999998093E+01 0. -1.
</event>
<event>
 5   0  0.2632875E-08  0.3894296E+04  0.7818609E-02  0.8026217E-01
       -1   -1    0    0    0  501  0.00000000000E+00  0.00000000000E+00  0.30396380902E+04  0.30396380902E+04  0.50400001928E-02 0. -1.
        1   -1    0    0  501    0  0.00000000000E+00  0.00000000000E+00 -0.12473149452E+04  0.12473149452E+04  0.50400001928E-02 0.  1.
    10030    2    1    2    0    0  0.00000000000E+00  0.00000000000E+00  0.17923231450E+04  0.42869530354E+04  0.38942963513E+04 0.  0.
        3    1    3    3  502    0  0.57586187007E+03 -0.11590530421E+04  0.24976176419E+04  0.28130259052E+04  0.10100000352E+00 0. -1.
       -3    1    3    3    0  502 -0.57586187007E+03  0.11590530421E+04 -0.70529449693E+03  0.14739271303E+04  0.10100000352E+00 0.  1.
</event>
<event>
 5   0  0.8476262E-08  0.3912449E+04  0.7818609E-02  0.8022445E-01
        2   -1    0    0  501    0  0.00000000000E+00  0.00000000000E+00  0.16816941719E+04  0.16816941719E+04  0.25500000920E-02 0. -1.
       -2   -1    0    0    0  501  0.00000000000E+00  0.00000000000E+00 -0.22755703335E+04  0.22755703335E+04  0.25500000920E-02 0.  1.
    10030    2    1    2    0    0  0.00000000000E+00  0.00000000000E+00 -0.59387616159E+03  0.39572645054E+04  0.39124485262E+04 0.  0.
        2    1    3    3  502    0 -0.12365685219E+04  0.17102837422E+01  0.12362446904E+04  0.17485438424E+04  0.25500000920E-02 0. -1.
       -2    1    3    3    0  502  0.12365685219E+04 -0.17102837422E+01 -0.18301208519E+04  0.22087206630E+04  0.25500000920E-02 0.  1.
</event>
<event>
 5   0  0.8438211E-08  0.3901763E+04  0.7818609E-02  0.8024663E-01
       -2   -1    0    0    0  501  0.00000000000E+00  0.00000000000E+00  0.32202142313E+04  0.32202142313E+04  0.25500000920E-02 0.  1.
        2   -1    0    0  501    0  0.00000000000E+00  0.00000000000E+00 -0.11818898788E+04  0.11818898788E+04  0.25500000920E-02 0. -1.
    10030    2    1    2    0    0  0.00000000000E+00  0.00000000000E+00  0.20383243525E+04  0.44021041102E+04  0.39017629901E+04 0.  0.
        5    1    3    3  502    0 -0.18088436705E+04  0.72672813310E+03  0.11055831374E+04  0.22410679078E+04  0.46999998093E+01 0.  1.
       -5    1    3    3    0  502  0.18088436705E+04 -0.72672813310E+03  0.93274121508E+03  0.21610362024E+04  0.46999998093E+01 0. -1.
</event>
<event>
 5   0  0.2632875E-08  0.3894642E+04  0.7818609E-02  0.8026144E-01
       -1   -1    0    0    0  501  0.00000000000E+00  0.00000000000E+00  0.19775564893E+04  0.19775564893E+04  0.50400001928E-02 0.  1.
        1   -1    0    0  501    0  0.00000000000E+00  0.00000000000E+00 -0.19175482376E+04  0.19175482376E+04  0.50400001928E-02 0. -1.
    10030    2    1    2    0    0  0.00000000000E+00  0.00000000000E+00  0.60008251660E+02  0.38951047270E+04  0.38946424539E+04 0.  0.
        1    1    3    3  502    0 -0.51900608127E+03  0.10575238713E+04  0.15807802887E+04  0.19714437278E+04  0.50400001928E-02 0.  1.
       -1    1    3    3    0  502  0.51900608127E+03 -0.10575238713E+04 -0.15207720371E+04  0.19236609991E+04  0.50400001928E-02 0. -1.
</event>
<event>
 5   0  0.8342802E-08  0.3909938E+04  0.7818609E-02  0.8022965E-01
       -2   -1    0    0    0  501  0.00000000000E+00  0.00000000000E+00  0.38337638044E+04  0.38337638044E+04  0.25500000920E-02 0. -1.
        2   -1    0    0  501    0  0.00000000000E+00  0.00000000000E+00 -0.99690647125E+03  0.99690647126E+03  0.25500000920E-02 0.  1.
    10030    2    1    2    0    0  0.00000000000E+00  0.00000000000E+00  0.28368573331E+04  0.48306702757E+04  0.39099380792E+04 0.  0.
        4    1    3    3  502    0 -0.91499716464E+03 -0.14254448515E+03  0.35456038161E+04  0.36645390945E+04  0.12699999809E+01 0. -1.
       -4    1    3    3    0  502  0.91499716464E+03  0.14254448515E+03 -0.70874648298E+03  0.11661311811E+04  0.12699999809E+01 0.  1.
</event>
<event>
 5   0  0.2632875E-08  0.3922968E+04  0.7818609E-02  0.8020269E-01
       -1   -1    0    0    0  501  0.00000000000E+00  0.00000000000E+00  0.19781162515E+04  0.19781162515E+04  0.50400001928E-02 0. -1.
        1   -1    0    0  501    0  0.00000000000E+00  0.00000000000E+00 -0.19449920464E+04  0.19449920464E+04  0.50400001928E-02 0.  1.
    10030    2    1    2    0    0  0.00000000000E+00  0.00000000000E+00  0.33124205095E+02  0.39231082980E+04  0.39229684557E+04 0.  0.
        5    1    3    3  502    0  0.95244385070E+03 -0.16510792062E+04  0.47938142256E+03  0.19654618979E+04  0.46999998093E+01 0.  1.
       -5    1    3    3    0  502 -0.95244385070E+03  0.16510792062E+04 -0.44625721746E+03  0.19576464001E+04  0.46999998093E+01 0. -1.
</event>
<event>
 5   0  0.8476262E-08  0.3928230E+04  0.7818609E-02  0.8019183E-01
       -2   -1    0    0    0  501  0.00000000000E+00  0.00000000000E+00  0.17110920029E+04  0.17110920029E+04  0.25500000920E-02 0.  1.
        2   -1    0    0  501    0  0.00000000000E+00  0.00000000000E+00 -0.22545528836E+04  0.22545528836E+04  0.25500000920E-02 0. -1.
    10030    2    1    2    0    0  0.00000000000E+00  0.00000000000E+00 -0.54346088071E+03  0.39656448865E+04  0.39282298351E+04 0.  0.
        2    1    3    3  502    0 -0.92538063812E+03 -0.99644268718E+02 -0.20177963953E+04  0.22221072428E+04  0.25500000920E-02 0. -1.
       -2    1    3    3    0  502  0.92538063812E+03  0.99644268718E+02  0.14743355146E+04  0.17435376438E+04  0.25500000920E-02 0.  1.
</event>
<event>
 5   0  0.8676098E-08  0.3873411E+04  0.7818609E-02  0.8030582E-01
        2   -1    0    0  501    0  0.00000000000E+00  0.00000000000E+00  0.20303998419E+04  0.20303998419E+04  0.25500000920E-02 0. -1.
       -2   -1    0    0    0  501  0.00000000000E+00  0.00000000000E+00 -0.18473346696E+04  0.18473346696E+04  0.25500000920E-02 0.  1.
    10030    2    1    2    0    0  0.00000000000E+00  0.00000000000E+00  0.18306517222E+03  0.38777345115E+04  0.38734109109E+04 0.  0.
        3    1    3    3  502    0 -0.16152802912E+04  0.67394287109E+03  0.92161346291E+03  0.19780548015E+04  0.10100000352E+00 0. -1.
       -3    1    3    3    0  502  0.16152802912E+04 -0.67394287109E+03 -0.73854829069E+03  0.18996797100E+04  0.10100000352E+00 0.  1.
</event>
<event>
 5   0  0.2632875E-08  0.3895246E+04  0.7818609E-02  0.8026019E-01
        1   -1    0    0  501    0  0.00000000000E+00  0.00000000000E+00  0.15993105372E+04  0.15993105373E+04  0.50400001928E-02 0. -1.
       -1   -1    0    0    0  501  0.00000000000E+00  0.00000000000E+00 -0.23717940787E+04  0.23717940787E+04  0.50400001928E-02 0.  1.
    10030    2    1    2    0    0  0.00000000000E+00  0.00000000000E+00 -0.77248354147E+03  0.39711046160E+04  0.38952459549E+04 0.  0.
        4    1    3    3  502    0  0.33744965696E+03  0.17571572337E+04 -0.11704821239E+04  0.21381075348E+04  0.12699999809E+01 0.  1.
       -4    1    3    3    0  502 -0.33744965696E+03 -0.17571572337E+04  0.39799858247E+03  0.18329970812E+04  0.12699999809E+01 0. -1.
</event>
<event>
 5   0  0.2632875E-08  0.3903105E+04  0.7818609E-02  0.8024384E-01
       -1   -1    0    0    0  501  0.00000000000E+00  0.00000000000E+00  0.17273453406E+04  0.17273453406E+04  0.50400001928E-02 0.  1.
        1   -1    0    0  501    0  0.00000000000E+00  0.00000000000E+00 -0.22048611476E+04  0.22048611476E+04  0.50400001928E-02 0. -1.
    10030    2    1    2    0    0  0.00000000000E+00  0.00000000000E+00 -0.47751580698E+03  0.39322064882E+04  0.39031047283E+04 0.  0.
        5    1    3    3  502    0  0.77337320508E+03 -0.11410405342E+04 -0.16305266011E+04  0.21351156179E+04  0.46999998093E+01 0. -1.
       -5    1    3    3    0  502 -0.77337320508E+03  0.11410405342E+04  0.11530107941E+04  0.17970908703E+04  0.46999998093E+01 0.  1.
</event>
<event>
 5   0  0.8676098E-08  0.3899425E+04  0.7818609E-02  0.8025149E-01
        2   -1    0    0  501    0  0.00000000000E+00  0.00000000000E+00  0.22197969111E+04  0.22197969111E+04  0.25500000920E-02 0.  1.
       -2   -1    0    0    0  501  0.00000000000E+00  0.00000000000E+00 -0.17124891352E+04  0.17124891352E+04  0.25500000920E-02 0. -1.
    10030    2    1    2    0    0  0.00000000000E+00  0.00000000000E+00  0.50730777582E+03  0.39322860463E+04  0.38994246204E+04 0.  0.
        3    1    3    3  502    0 -0.94475821843E+03 -0.56552474743E+03  0.18762480389E+04  0.21754753606E+04  0.10100000352E+00 0.  1.
       -3    1    3    3    0  502  0.94475821843E+03  0.56552474743E+03 -0.13689402630E+04  0.17568106857E+04  0.10100000352E+00 0. -1.
</event>
<event>
 5   0  0.8676098E-08  0.3896368E+04  0.7818609E-02  0.8025785E-01
        2   -1    0    0  501    0  0.00000000000E+00  0.00000000000E+00  0.18823478101E+04  0.18823478101E+04  0.25500000920E-02 0.  1.
       -2   -1    0    0    0  501  0.00000000000E+00  0.00000000000E+00 -0.20163227007E+04  0.20163227007E+04  0.25500000920E-02 0. -1.
    10030    2    1    2    0    0  0.00000000000E+00  0.00000000000E+00 -0.13397489062E+03  0.38986705107E+04  0.38963678574E+04 0.  0.
        3    1    3    3  502    0  0.54154496940E+03 -0.16360430449E+04  0.84212685624E+03  0.19180942236E+04  0.10100000352E+00 0.  1.
       -3    1    3    3    0  502 -0.54154496940E+03  0.16360430449E+04 -0.97610174686E+03  0.19805762871E+04  0.10100000352E+00 0. -1.
</event>
<event>
 5   0  0.8476262E-08  0.4054197E+04  0.7818609E-02  0.7993702E-01
        2   -1    0    0  501    0  0.00000000000E+00  0.00000000000E+00  0.13210936410E+04  0.13210936410E+04  0.25500000920E-02 0. -1.
       -2   -1    0    0    0  501  0.00000000000E+00  0.00000000000E+00 -0.31103996818E+04  0.31103996818E+04  0.25500000920E-02 0.  1.
    10030    2    1    2    0    0  0.00000000000E+00  0.00000000000E+00 -0.17893060407E+04  0.44314933228E+04  0.40541974499E+04 0.  0.
        2    1    3    3  502    0 -0.82908260953E+03 -0.12755845693E+04 -0.23589639465E+04  0.28069921389E+04  0.25500000920E-02 0.  1.
       -2    1    3    3    0  502  0.82908260953E+03  0.12755845693E+04  0.56965790578E+03  0.16245011839E+04  0.25500000920E-02 0. -1.
</event>
<event>
 5   0  0.2632875E-08  0.3917908E+04  0.7818609E-02  0.8021315E-01
        1   -1    0    0  501    0  0.00000000000E+00  0.00000000000E+00  0.30220729884E+04  0.30220729884E+04  0.50400001928E-02 0. -1.
       -1   -1    0    0    0  501  0.00000000000E+00  0.00000000000E+00 -0.12698240799E+04  0.12698240800E+04  0.50400001928E-02 0.  1.
    10030    2    1    2    0    0  0.00000000000E+00  0.00000000000E+00  0.17522489085E+04  0.42918970684E+04  0.39179081419E+04 0.  0.
        1    1    3    3  502    0 -0.64452431010E+03  0.18345817468E+04  0.11362792451E+04  0.22521616938E+04  0.50400001928E-02 0. -1.
       -1    1    3    3    0  502  0.64452431010E+03 -0.18345817468E+04  0.61596966339E+03  0.20397353746E+04  0.50400001928E-02 0.  1.
</event>
<event>
 5   0  0.8342802E-08  0.3892793E+04  0.7818609E-02  0.8026530E-01
       -2   -1    0    0    0  501  0.00000000000E+00  0.00000000000E+00  0.17152683223E+04  0.17152683223E+04  0.25500000920E-02 0.  1.
        2   -1    0    0  501    0  0.00000000000E+00  0.00000000000E+00 -0.22086681161E+04  0.22086681161E+04  0.25500000920E-02 0. -1.
    10030    2    1    2    0    0  0.00000000000E+00  0.00000000000E+00 -0.49339979388E+03  0.39239364384E+04  0.38927925473E+04 0.  0.
        4    1    3    3  502    0 -0.12314388919E+04  0.54260121955E+03  0.11708221495E+04  0.17837275427E+04  0.12699999809E+01 0.  1.
       -4    1    3    3    0  502  0.12314388919E+04 -0.54260121955E+03 -0.16642219433E+04  0.21402088958E+04  0.12699999809E+01 0. -1.
</event>
<event>
 5   0  0.8676098E-08  0.3888392E+04  0.7818609E-02  0.8027448E-01
        2   -1    0    0  501    0  0.00000000000E+00  0.00000000000E+00  0.12464270994E+04  0.12464270994E+04  0.25500000920E-02 0.  1.
       -2   -1    0    0    0  501  0.00000000000E+00  0.00000000000E+00 -0.30325858030E+04  0.30325858030E+04  0.25500000920E-02 0. -1.
    10030    2    1    2    0    0  0.00000000000E+00  0.00000000000E+00 -0.17861587036E+04  0.42790129024E+04  0.38883915061E+04 0.  0.
        3    1    3    3  502    0 -0.75544733081E+02  0.61305665777E+02 -0.30299053092E+04  0.30314669031E+04  0.10100000352E+00 0. -1.
       -3    1    3    3    0  502  0.75544733081E+02 -0.61305665777E+02  0.12437466056E+04  0.12475459993E+04  0.10100000352E+00 0.  1.
</event>
<event>
 5   0  0.2632875E-08  0.3889456E+04  0.7818609E-02  0.8027226E-01
        1   -1    0    0  501    0  0.00000000000E+00  0.00000000000E+00  0.19888427455E+04  0.19888427455E+04  0.50400001928E-02 0. -1.
       -1   -1    0    0    0  501  0.00000000000E+00  0.00000000000E+00 -0.19015913213E+04  0.19015913213E+04  0.50400001928E-02 0.  1.
    10030    2    1    2    0    0  0.00000000000E+00  0.00000000000E+00  0.87251424143E+02  0.38904340668E+04  0.38894555425E+04 0.  0.
        2    1    3    3  502    0 -0.11996464024E+04  0.15301105746E+04  0.39137960503E+01  0.19443264075E+04  0.25500000920E-02 0. -1.
       -2    1    3    3    0  502  0.11996464024E+04 -0.15301105746E+04  0.83337628093E+02  0.19461076593E+04  0.25500000920E-02 0.  1.
</event>
<event>
 5   0  0.2632875E-08  0.3906426E+04  0.7818609E-02  0.8023694E-01
       -1   -1    0    0    0  501  0.00000000000E+00  0.00000000000E+00  0.14608123953E+04  0.14608123953E+04  0.50400001928E-02 0. -1.
        1   -1    0    0  501    0  0.00000000000E+00  0.00000000000E+00 -0.26115887333E+04  0.26115887333E+04  0.50400001928E-02 0.  1.
    10030    2    1    2    0    0  0.00000000000E+00  0.00000000000E+00 -0.11507763380E+04  0.40724011287E+04  0.39064260869E+04 0.  0.
        1    1    3    3  502    0  0.45036934746E+03 -0.47995398080E+03 -0.24925037160E+04  0.25779377702E+04  0.50400001928E-02 0.  1.
       -1    1    3    3    0  502 -0.45036934746E+03  0.47995398080E+03  0.13417273780E+04  0.14944633585E+04  0.50400001928E-02 0. -1.
</event>
<event>
 5   0  0.8551754E-08  0.3924365E+04  0.7818609E-02  0.8019981E-01
        2   -1    0    0  501    0  0.00000000000E+00  0.00000000000E+00  0.30191972327E+04  0.30191972327E+04  0.25500000920E-02 0.  1.
       -2   -1    0    0    0  501  0.00000000000E+00  0.00000000000E+00 -0.12752262479E+04  0.12752262479E+04  0.25500000920E-02 0. -1.
    10030    2    1    2    0    0  0.00000000000E+00  0.00000000000E+00  0.17439709848E+04  0.42944234805E+04  0.39243646918E+04 0.  0.
        1    1    3    3  502    0  0.13276319644E+04 -0.10632041020E+04  0.19425812117E+04  0.25819820603E+04  0.50400001928E-02 0.  1.
       -1    1    3    3    0  502 -0.13276319644E+04  0.10632041020E+04 -0.19861022684E+03  0.17124414203E+04  0.50400001928E-02 0. -1.
</event>
<event>
 5   0  0.2632875E-08  0.4043300E+04  0.7818609E-02  0.7995868E-01
       -1   -1    0    0    0  501  0.00000000000E+00  0.00000000000E+00  0.24622933250E+04  0.24622933250E+04  0.50400001928E-02 0. -1.
        1   -1    0    0  501    0  0.00000000000E+00  0.00000000000E+00 -0.16598626629E+04  0.16598626629E+04  0.50400001928E-02 0.  1.
    10030    2    1    2    0    0  0.00000000000E+00  0.00000000000E+00  0.80243066213E+03  0.41221559879E+04  0.40433000162E+04 0.  0.
        5    1    3    3  502    0 -0.38005164834E+03  0.82414122772E+03  0.22429349695E+04  0.24195924008E+04  0.46999998093E+01 0. -1.
       -5    1    3    3    0  502  0.38005164834E+03 -0.82414122772E+03 -0.14405043073E+04  0.17025635871E+04  0.46999998093E+01 0.  1.
</event>
<event>
 5   0  0.2632875E-08  0.3894671E+04  0.7818609E-02  0.8026138E-01
       -1   -1    0    0    0  501  0.00000000000E+00  0.00000000000E+00  0.20962771926E+04  0.20962771926E+04  0.50400001928E-02 0. -1.
        1   -1    0    0  501    0  0.00000000000E+00  0.00000000000E+00 -0.18089761110E+04  0.18089761110E+04  0.50400001928E-02 0.  1.
    10030    2    1    2    0    0  0.00000000000E+00  0.00000000000E+00  0.28730108165E+03  0.39052533036E+04  0.38946709044E+04 0.  0.
        1    1    3    3  502    0 -0.90872706229E+03  0.12923719240E+04 -0.99790904585E+03  0.18686445696E+04  0.50400001928E-02 0.  1.
       -1    1    3    3    0  502  0.90872706229E+03 -0.12923719240E+04  0.12852101275E+04  0.20366087340E+04  0.50400001928E-02 0. -1.
</event>
<event>
 5   0  0.8676098E-08  0.3913087E+04  0.7818609E-02  0.8022313E-01
       -2   -1    0    0    0  501  0.00000000000E+00  0.00000000000E+00  0.16911611070E+04  0.16911611070E+04  0.25500000920E-02 0.  1.
        2   -1    0    0  501    0  0.00000000000E+00  0.00000000000E+00 -0.22635700441E+04  0.22635700441E+04  0.25500000920E-02 0. -1.
    10030    2    1    2    0    0  0.00000000000E+00  0.00000000000E+00 -0.57240893705E+03  0.39547311511E+04  0.39130865677E+04 0.  0.
        3    1    3    3  502    0 -0.71262652206E+03  0.12257788391E+04 -0.16487705446E+04  0.21745837857E+04  0.10100000352E+00 0. -1.
       -3    1    3    3    0  502  0.71262652206E+03 -0.12257788391E+04  0.10763616075E+04  0.17801473654E+04  0.10100000352E+00 0.  1.
</event>
<event>
 5   0  0.2632875E-08  0.3903180E+04  0.7818609E-02  0.8024368E-01
        1   -1    0    0  501    0  0.00000000000E+00  0.00000000000E+00  0.27984927523E+04  0.27984927523E+04  0.50400001928E-02 0.  1.
       -1   -1    0    0    0  501  0.00000000000E+00  0.00000000000E+00 -0.13609842029E+04  0.13609842029E+04  0.50400001928E-02 0. -1.
    10030    2    1    2    0    0  0.00000000000E+00  0.00000000000E+00  0.14375085494E+04  0.41594769552E+04  0.39031804610E+04 0.  0.
        1    1    3    3  502    0 -0.53508313401E+03  0.11345005091E+04  0.23120188841E+04  0.26303681655E+04  0.50400001928E-02 0.  1.
       -1    1    3    3    0  502  0.53508313401E+03 -0.11345005091E+04 -0.87451033468E+03  0.15291087898E+04  0.50400001928E-02 0. -1.
</event>
<event>
 5   0  0.2632875E-08  0.3892897E+04  0.7818609E-02  0.8026508E-01
       -1   -1    0    0    0  501  0.00000000000E+00  0.00000000000E+00  0.14881518364E+04  0.14881518364E+04  0.50400001928E-02 0. -1.
        1   -1    0    0  501    0  0.00000000000E+00  0.00000000000E+00 -0.25458833239E+04  0.25458833239E+04  0.50400001928E-02 0.  1.
    10030    2    1    2    0    0  0.00000000000E+00  0.00000000000E+00 -0.10577314875E+04  0.40340351603E+04  0.38928965790E+04 0.  0.
        1    1    3    3  502    0 -0.58481410372E+03  0.17661635624E+03  0.13862340929E+04  0.15148748574E+04  0.50400001928E-02 0. -1.
       -1    1    3    3    0  502  0.58481410372E+03 -0.17661635624E+03 -0.24439655804E+04  0.25191603029E+04  0.50400001928E-02 0.  1.
</event>
<event>
 5   0  0.2632875E-08  0.3881788E+04  0.7818609E-02  0.8028828E-01
        1   -1    0    0  501    0  0.00000000000E+00  0.00000000000E+00  0.22289375800E+04  0.22289375800E+04  0.50400001928E-02 0.  1.
       -1   -1    0    0    0  501  0.00000000000E+00  0.00000000000E+00 -0.16900738125E+04  0.16900738125E+04  0.50400001928E-02 0. -1.
    10030    2    1    2    0    0  0.00000000000E+00  0.00000000000E+00  0.53886376746E+03  0.39190113925E+04  0.38817877498E+04 0.  0.
        2    1    3    3  502    0  0.16092800718E+03  0.52647059887E+03 -0.16095979580E+04  0.17011392364E+04  0.25500000920E-02 0. -1.
       -2    1    3    3    0  502 -0.16092800718E+03 -0.52647059887E+03  0.21484617255E+04  0.22178721561E+04  0.25500000920E-02 0.  1.
</event>
<event>
 5   0  0.8551754E-08  0.3893100E+04  0.7818609E-02  0.8026466E-01
        2   -1    0    0  501    0  0.00000000000E+00  0.00000000000E+00  0.18043677586E+04  0.18043677586E+04  0.25500000920E-02 0. -1.
       -2   -1    0    0    0  501  0.00000000000E+00  0.00000000000E+00 -0.20999364478E+04  0.20999364478E+04  0.25500000920E-02 0.  1.
    10030    2    1    2    0    0  0.00000000000E+00  0.00000000000E+00 -0.29556868920E+03  0.39043042064E+04  0.38931003693E+04 0.  0.
        1    1    3    3  502    0  0.12310577203E+03 -0.17671090006E+04 -0.95709396710E+03  0.20134195075E+04  0.50400001928E-02 0.  1.
       -1    1    3    3    0  502 -0.12310577203E+03  0.17671090006E+04  0.66152527790E+03  0.18908846989E+04  0.50400001928E-02 0. -1.
</event>
<event>
 5   0  0.8676098E-08  0.3882088E+04  0.7818609E-02  0.8028765E-01
       -2   -1    0    0    0  501  0.00000000000E+00  0.00000000000E+00  0.14573432869E+04  0.14573432869E+04  0.25500000920E-02 0. -1.
        2   -1    0    0  501    0  0.00000000000E+00  0.00000000000E+00 -0.25852872113E+04  0.25852872113E+04  0.25500000920E-02 0.  1.
    10030    2    1    2    0    0  0.00000000000E+00  0.00000000000E+00 -0.11279439244E+04  0.40426304982E+04  0.38820875632E+04 0.  0.
        3    1    3    3  502    0  0.13603991671E+04 -0.12792292910E+04 -0.11155337440E+04  0.21752078102E+04  0.10100000352E+00 0.  1.
       -3    1    3    3    0  502 -0.13603991671E+04  0.12792292910E+04 -0.12410180392E+02  0.18674226880E+04  0.10100000352E+00 0. -1.
</event>
<event>
 5   0  0.8476262E-08  0.3903117E+04  0.7818609E-02  0.8024381E-01
        2   -1    0    0  501    0  0.00000000000E+00  0.00000000000E+00  0.15551787610E+04  0.15551787610E+04  0.25500000920E-02 0. -1.
       -2   -1    0    0    0  501  0.00000000000E+00  0.00000000000E+00 -0.24489670221E+04  0.24489670221E+04  0.25500000920E-02 0.  1.
    10030    2    1    2    0    0  0.00000000000E+00  0.00000000000E+00 -0.89378826113E+03  0.40041457831E+04  0.39031174716E+04 0.  0.
        2    1    3    3  502    0 -0.17368405467E+04  0.82129255812E+03 -0.79846706161E+03  0.20805494945E+04  0.25500000920E-02 0.  1.
       -2    1    3    3    0  502  0.17368405467E+04 -0.82129255812E+03 -0.95321199517E+02  0.19235962886E+04  0.25500000920E-02 0. -1.
</event>
<event>
 5   0  0.8342802E-08  0.3880014E+04  0.7818609E-02  0.8029199E-01
       -2   -1    0    0    0  501  0.00000000000E+00  0.00000000000E+00  0.27898264785E+04  0.27898264785E+04  0.25500000920E-02 0.  1.
        2   -1    0    0  501    0  0.00000000000E+00  0.00000000000E+00 -0.13490540891E+04  0.13490540891E+04  0.25500000920E-02 0. -1.
    10030    2    1    2    0    0  0.00000000000E+00  0.00000000000E+00  0.14407723893E+04  0.41388805676E+04  0.38800138241E+04 0.  0.
        4    1    3    3  502    0  0.41507127164E+03  0.15129938752E+04 -0.49688374143E+03  0.16457003653E+04  0.12699999809E+01 0.  1.
       -4    1    3    3    0  502 -0.41507127164E+03 -0.15129938752E+04  0.19376561308E+04  0.24931802023E+04  0.12699999809E+01 0. -1.
</event>
<event>
 5   0  0.8676098E-08  0.3922975E+04  0.7818609E-02  0.8020268E-01
       -2   -1    0    0    0  501  0.00000000000E+00  0.00000000000E+00  0.33783571362E+04  0.33783571362E+04  0.25500000920E-02 0. -1.
        2   -1    0    0  501    0  0.00000000000E+00  0.00000000000E+00 -0.11388471744E+04  0.11388471744E+04  0.25500000920E-02 0.  1.
    10030    2    1    2    0    0  0.00000000000E+00  0.00000000000E+00  0.22395099619E+04  0.45172043106E+04  0.39229746258E+04 0.  0.
        3    1    3    3  502    0  0.50679470851E+03 -0.14101650739E+04 -0.33767944098E+03  0.15360448650E+04  0.10100000352E+00 0.  1.
       -3    1    3    3    0  502 -0.50679470851E+03  0.14101650739E+04  0.25771894028E+04  0.29811594457E+04  0.10100000352E+00 0. -1.
</event>
<event>
 5   0  0.2632875E-08  0.3911729E+04  0.7818609E-02  0.8022594E-01
        1   -1    0    0  501    0  0.00000000000E+00  0.00000000000E+00  0.13435487905E+04  0.13435487905E+04  0.50400001928E-02 0. -1.
       -1   -1    0    0    0  501  0.00000000000E+00  0.00000000000E+00 -0.28472397721E+04  0.28472397721E+04  0.50400001928E-02 0.  1.
    10030    2    1    2    0    0  0.00000000000E+00  0.00000000000E+00 -0.15036909816E+04  0.41907885625E+04  0.39117288004E+04 0.  0.
        3    1    3    3  502    0  0.16055723373E+04 -0.21220786199E+03 -0.19266659781E+04  0.25169299769E+04  0.10100000352E+00 0. -1.
       -3    1    3    3    0  502 -0.16055723373E+04  0.21220786199E+03  0.42297499651E+03  0.16738585857E+04  0.10100000352E+00 0.  1.
</event>
<event>
 5   0  0.8342802E-08  0.3933167E+04  0.7818609E-02  0.8018166E-01
        2   -1    0    0  501    0  0.00000000000E+00  0.00000000000E+00  0.19384753394E+04  0.19384753394E+04  0.25500000920E-02 0. -1.
       -2   -1    0    0    0  501  0.00000000000E+00  0.00000000000E+00 -0.19950990219E+04  0.19950990219E+04  0.25500000920E-02 0.  1.
    10030    2    1    2    0    0  0.00000000000E+00  0.00000000000E+00 -0.56623682527E+02  0.39335743613E+04  0.39331667921E+04 0.  0.
        4    1    3    3  502    0  0.34997350186E+03 -0.19336945242E+04 -0.10442935834E+03  0.19678828900E+04  0.12699999809E+01 0. -1.
       -4    1    3    3    0  502 -0.34997350186E+03  0.19336945242E+04  0.47805675813E+02  0.19656914713E+04  0.12699999809E+01 0.  1.
</event>
<event>
 5   0  0.8476262E-08  0.3899714E+04  0.7818609E-02  0.8025089E-01
       -2   -1    0    0    0  501  0.00000000000E+00  0.00000000000E+00  0.25208809791E+04  0.25208809791E+04  0.25500000920E-02 0.  1.
        2   -1    0    0  501    0  0.00000000000E+00  0.00000000000E+00 -0.15081801474E+04  0.15081801474E+04  0.25500000920E-02 0. -1.
    10030    2    1    2    0    0  0.00000000000E+00  0.00000000000E+00  0.10127008317E+04  0.40290611265E+04  0.38997141673E+04 0.  0.
        2    1    3    3  502    0  0.16971229957E+04  0.93454798347E+03  0.27920312522E+03  0.19574372994E+04  0.25500000920E-02 0.  1.
       -2    1    3    3    0  502 -0.16971229957E+04 -0.93454798347E+03  0.73349770644E+03  0.20716238272E+04  0.25500000920E-02 0. -1.
</event>
<event>
 5   0  0.2632875E-08  0.3900464E+04  0.7818609E-02  0.8024933E-01
        1   -1    0    0  501    0  0.00000000000E+00  0.00000000000E+00  0.17893699045E+04  0.17893699045E+04  0.50400001928E-02 0.  1.
       -1   -1    0    0    0  501  0.00000000000E+00  0.00000000000E+00 -0.21255558741E+04  0.21255558741E+04  0.50400001928E-02 0. -1.
    10030    2    1    2    0    0  0.00000000000E+00  0.00000000000E+00 -0.33618596957E+03  0.39149257786E+04  0.39004644398E+04 0.  0.
        2    1    3    3  502    0 -0.10519018184E+04  0.19777223638E+03 -0.18044117187E+04  0.20979782991E+04  0.25500000920E-02 0. -1.
       -2    1    3    3    0  502  0.10519018184E+04 -0.19777223638E+03  0.14682257491E+04  0.18169474795E+04  0.25500000920E-02 0.  1.
</event>
<event>
 5   0  0.2632875E-08  0.3902104E+04  0.7818609E-02  0.8024592E-01
       -1   -1    0    0    0  501  0.00000000000E+00  0.00000000000E+00  0.16373294574E+04  0.16373294574E+04  0.50400001928E-02 0.  1.
        1   -1    0    0  501    0  0.00000000000E+00  0.00000000000E+00 -0.23248851439E+04  0.23248851439E+04  0.50400001928E-02 0. -1.
    10030    2    1    2    0    0  0.00000000000E+00  0.00000000000E+00 -0.68755568654E+03  0.39622146013E+04  0.39021035000E+04 0.  0.
        2    1    3    3  502    0 -0.46220719957E+03 -0.14196872510E+04  0.93153805629E+03  0.17598041187E+04  0.25500000920E-02 0.  1.
       -2    1    3    3    0  502  0.46220719957E+03  0.14196872510E+04 -0.16190937428E+04  0.22024104826E+04  0.25500000920E-02 0. -1.
</event>
<event>
 5   0  0.8551754E-08  0.3867228E+04  0.7818609E-02  0.8031880E-01
        2   -1    0    0  501    0  0.00000000000E+00  0.00000000000E+00  0.31784199175E+04  0.31784199175E+04  0.25500000920E-02 0. -1.
       -2   -1    0    0    0  501  0.00000000000E+00  0.00000000000E+00 -0.11763279108E+04  0.11763279108E+04  0.25500000920E-02 0.  1.
    10030    2    1    2    0    0  0.00000000000E+00  0.00000000000E+00  0.20020920067E+04  0.43547478283E+04  0.38672284966E+04 0.  0.
        1    1    3    3  502    0 -0.48454250841E+03 -0.99202705515E+03  0.27886051774E+04  0.29992028868E+04  0.50400001928E-02 0. -1.
       -1    1    3    3    0  502  0.48454250841E+03  0.99202705515E+03 -0.78651317074E+03  0.13555449415E+04  0.50400001928E-02 0.  1.
</event>
<event>
 5   0  0.2632875E-08  0.3875309E+04  0.7818609E-02  0.8030184E-01
       -1   -1    0    0    0  501  0.00000000000E+00  0.00000000000E+00  0.23144079229E+04  0.23144079229E+04  0.50400001928E-02 0. -1.
        1   -1    0    0  501    0  0.00000000000E+00  0.00000000000E+00 -0.16222317037E+04  0.16222317037E+04  0.50400001928E-02 0.  1.
    10030    2    1    2    0    0  0.00000000000E+00  0.00000000000E+00  0.69217621918E+03  0.39366396266E+04  0.38753094885E+04 0.  0.
        1    1    3    3  502    0 -0.18144085403E+04 -0.39087756792E+03 -0.21917338039E+03  0.18689303345E+04  0.50400001928E-02 0. -1.
       -1    1    3    3    0  502  0.18144085403E+04  0.39087756792E+03  0.91134959957E+03  0.20677092922E+04  0.50400001928E-02 0.  1.
</event>
<event>
 5   0  0.2632875E-08  0.3945383E+04  0.7818609E-02  0.8015656E-01
        1   -1    0    0  501    0  0.00000000000E+00  0.00000000000E+00  0.19032467038E+04  0.19032467039E+04  0.50400001928E-02 0. -1.
       -1   -1    0    0    0  501  0.00000000000E+00  0.00000000000E+00 -0.20446702035E+04  0.20446702035E+04  0.50400001928E-02 0.  1.
    10030    2    1    2    0    0  0.00000000000E+00  0.00000000000E+00 -0.14142349965E+03  0.39479169074E+04  0.39453830361E+04 0.  0.
        5    1    3    3  502    0 -0.76335973355E+02 -0.57793742648E+03 -0.19565045153E+04  0.20415119050E+04  0.46999998093E+01 0.  1.
       -5    1    3    3    0  502  0.76335973355E+02  0.57793742648E+03  0.18150810157E+04  0.19064050024E+04  0.46999998093E+01 0. -1.
</event>
<event>
 5   0  0.2632875E-08  0.3932607E+04  0.7818609E-02  0.8018281E-01
        1   -1    0    0  501    0  0.00000000000E+00  0.00000000000E+00  0.16256074101E+04  0.16256074101E+04  0.50400001928E-02 0.  1.
       -1   -1    0    0    0  501  0.00000000000E+00  0.00000000000E+00 -0.23784032857E+04  0.23784032857E+04  0.50400001928E-02 0. -1.
    10030    2    1    2    0    0  0.00000000000E+00  0.00000000000E+00 -0.75279587558E+03  0.40040106957E+04  0.39326072803E+04 0.  0.
        1    1    3    3  502    0 -0.72840186661E+03  0.65811610742E+03  0.13582567217E+04  0.16758721348E+04  0.50400001928E-02 0.  1.
       -1    1    3    3    0  502  0.72840186661E+03 -0.65811610742E+03 -0.21110525973E+04  0.23281385609E+04  0.50400001928E-02 0. -1.
</event>
<event>
 5   0  0.2632875E-08  0.3897000E+04  0.7818609E-02  0.8025653E-01
        1   -1    0    0  501    0  0.00000000000E+00  0.00000000000E+00  0.14159138622E+04  0.14159138622E+04  0.50400001928E-02 0. -1.
       -1   -1    0    0    0  501  0.00000000000E+00  0.00000000000E+00 -0.26814149588E+04  0.26814149588E+04  0.50400001928E-02 0.  1.
    10030    2    1    2    0    0  0.00000000000E+00  0.00000000000E+00 -0.12655010967E+04  0.40973288210E+04  0.38970001850E+04 0.  0.
        3    1    3    3  502    0  0.15886476924E+04  0.37120869044E+03 -0.17529075218E+04  0.23946361253E+04  0.10100000352E+00 0.  1.
       -3    1    3    3    0  502 -0.15886476924E+04 -0.37120869044E+03  0.48740642511E+03  0.17026926957E+04  0.10100000352E+00 0. -1.
</event>
<event>
 5   0  0.8676098E-08  0.3907700E+04  0.7818609E-02  0.8023430E-01
        2   -1    0    0  501    0  0.00000000000E+00  0.00000000000E+00  0.22615937386E+04  0.22615937386E+04  0.25500000920E-02 0. -1.
       -2   -1    0    0    0  501  0.00000000000E+00  0.00000000000E+00 -0.16879821735E+04  0.16879821735E+04  0.25500000920E-02 0.  1.
    10030    2    1    2    0    0  0.00000000000E+00  0.00000000000E+00  0.57361156509E+03  0.39495759120E+04  0.39077000470E+04 0.  0.
        3    1    3    3  502    0  0.12278044781E+04  0.92883086481E+03  0.15027353529E+04  0.21513819194E+04  0.10100000352E+00 0. -1.
       -3    1    3    3    0  502 -0.12278044781E+04 -0.92883086481E+03 -0.92912378779E+03  0.17981939927E+04  0.10100000352E+00 0.  1.
</event>
<event>
 5   0  0.8551754E-08  0.3896998E+04  0.7818609E-02  0.8025654E-01
       -2   -1    0    0    0  501  0.00000000000E+00  0.00000000000E+00  0.20111014905E+04  0.20111014905E+04  0.25500000920E-02 0. -1.
        2   -1    0    0  501    0  0.00000000000E+00  0.00000000000E+00 -0.18878449561E+04  0.18878449561E+04  0.25500000920E-02 0.  1.
    10030    2    1    2    0    0  0.00000000000E+00  0.00000000000E+00  0.12325653440E+03  0.38989464467E+04  0.38969977188E+04 0.  0.
        1    1    3    3  502    0 -0.10132652171E+04  0.97565208279E+03 -0.12873947611E+04  0.19068268558E+04  0.50400001928E-02 0.  1.
       -1    1    3    3    0  502  0.10132652171E+04 -0.97565208279E+03  0.14106512955E+04  0.19921195909E+04  0.50400001928E-02 0. -1.
</event>
<event>
 5   0  0.8342802E-08  0.3904857E+04  0.7818609E-02  0.8024020E-01
        2   -1    0    0  501    0  0.00000000000E+00  0.00000000000E+00  0.23413030318E+04  0.23413030318E+04  0.25500000920E-02 0.  1.
       -2   -1    0    0    0  501  0.00000000000E+00  0.00000000000E+00 -0.16281431155E+04  0.16281431155E+04  0.25500000920E-02 0. -1.
    10030    2    1    2    0    0  0.00000000000E+00  0.00000000000E+00  0.71315991624E+03  0.39694461473E+04  0.39048566748E+04 0.  0.
        4    1    3    3  502    0 -0.63562452578E+03  0.17541318480E+04 -0.22824270962E+03  0.18796524746E+04  0.12699999809E+01 0. -1.
       -4    1    3    3    0  502  0.63562452578E+03 -0.17541318480E+04  0.94140262586E+03  0.20897936728E+04  0.12699999809E+01 0.  1.
</event>
<event>
 5   0  0.2632875E-08  0.3776831E+04  0.7818609E-02  0.8051145E-01
       -1   -1    0    0    0  501  0.00000000000E+00  0.00000000000E+00  0.28664116017E+04  0.28664116017E+04  0.50400001928E-02 0. -1.
        1   -1    0    0  501    0  0.00000000000E+00  0.00000000000E+00 -0.12441036885E+04  0.12441036885E+04  0.50400001928E-02 0.  1.
    10030    2    1    2    0    0  0.00000000000E+00  0.00000000000E+00  0.16223079131E+04  0.41105152902E+04  0.37768310772E+04 0.  0.
        2    1    3    3  502    0 -0.79885311368E+03  0.16347122543E+03  0.26649388802E+04  0.27868958312E+04  0.25500000920E-02 0. -1.
       -2    1    3    3    0  502  0.79885311368E+03 -0.16347122543E+03 -0.10426309671E+04  0.13236194590E+04  0.25500000920E-02 0.  1.
</event>
<event>
 5   0  0.8438211E-08  0.3893046E+04  0.7818609E-02  0.8026477E-01
       -2   -1    0    0    0  501  0.00000000000E+00  0.00000000000E+00  0.15666068301E+04  0.15666068301E+04  0.25500000920E-02 0.  1.
        2   -1    0    0  501    0  0.00000000000E+00  0.00000000000E+00 -0.24185718870E+04  0.24185718870E+04  0.25500000920E-02 0. -1.
    10030    2    1    2    0    0  0.00000000000E+00  0.00000000000E+00 -0.85196505686E+03  0.39851787171E+04  0.38930457163E+04 0.  0.
        5    1    3    3  502    0 -0.83084563120E+03 -0.40356666588E+03 -0.21799376293E+04  0.23675558439E+04  0.46999998093E+01 0. -1.
       -5    1    3    3    0  502  0.83084563120E+03  0.40356666588E+03  0.13279725724E+04  0.16176228732E+04  0.46999998093E+01 0.  1.
</event>
<event>
 5   0  0.8438211E-08  0.3902575E+04  0.7818609E-02  0.8024494E-01
        2   -1    0    0  501    0  0.00000000000E+00  0.00000000000E+00  0.22778661756E+04  0.22778661756E+04  0.25500000920E-02 0.  1.
       -2   -1    0    0    0  501  0.00000000000E+00  0.00000000000E+00 -0.16715303816E+04  0.16715303816E+04  0.25500000920E-02 0. -1.
    10030    2    1    2    0    0  0.00000000000E+00  0.00000000000E+00  0.60633579400E+03  0.39493965571E+04  0.39025748001E+04 0.  0.
        5    1    3    3  502    0 -0.90431685964E+03 -0.50416917531E+03 -0.13706177621E+04  0.17177283486E+04  0.46999998093E+01 0. -1.
       -5    1    3    3    0  502  0.90431685964E+03  0.50416917531E+03  0.19769535561E+04  0.22316682085E+04  0.46999998093E+01 0.  1.
</event>
<event>
 5   0  0.8676098E-08  0.3896465E+04  0.7818609E-02  0.8025765E-01
       -2   -1    0    0    0  501  0.00000000000E+00  0.00000000000E+00  0.17281339298E+04  0.17281339298E+04  0.25500000920E-02 0.  1.
        2   -1    0    0  501    0  0.00000000000E+00  0.00000000000E+00 -0.21963633670E+04  0.21963633670E+04  0.25500000920E-02 0. -1.
    10030    2    1    2    0    0  0.00000000000E+00  0.00000000000E+00 -0.46822943718E+03  0.39244972968E+04  0.38964650938E+04 0.  0.
        3    1    3    3  502    0 -0.14910661058E+04  0.62320958982E+03  0.86180415655E+03  0.18314952196E+04  0.10100000352E+00 0.  1.
       -3    1    3    3    0  502  0.14910661058E+04 -0.62320958982E+03 -0.13300335937E+04  0.20930020773E+04  0.10100000352E+00 0. -1.
</event>
<event>
 5   0  0.8438211E-08  0.3902905E+04  0.7818609E-02  0.8024425E-01
        2   -1    0    0  501    0  0.00000000000E+00  0.00000000000E+00  0.22313144126E+04  0.22313144126E+04  0.25500000920E-02 0. -1.
       -2   -1    0    0    0  501  0.00000000000E+00  0.00000000000E+00 -0.17066920139E+04  0.17066920139E+04  0.25500000920E-02 0.  1.
    10030    2    1    2    0    0  0.00000000000E+00  0.00000000000E+00  0.52462239874E+03  0.39380064265E+04  0.39029048097E+04 0.  0.
        5    1    3    3  502    0 -0.16757755701E+04  0.99223343324E+03  0.38749740046E+03  0.19856805565E+04  0.46999998093E+01 0.  1.
       -5    1    3    3    0  502  0.16757755701E+04 -0.99223343324E+03  0.13712499828E+03  0.19523258699E+04  0.46999998093E+01 0. -1.
</event>
<event>
 5   0  0.8476262E-08  0.3922562E+04  0.7818609E-02  0.8020353E-01
       -2   -1    0    0    0  501  0.00000000000E+00  0.00000000000E+00  0.22976771759E+04  0.22976771759E+04  0.25500000920E-02 0.  1.
        2   -1    0    0  501    0  0.00000000000E+00  0.00000000000E+00 -0.16741355958E+04  0.16741355958E+04  0.25500000920E-02 0. -1.
    10030    2    1    2    0    0  0.00000000000E+00  0.00000000000E+00  0.62354158011E+03  0.39718127718E+04  0.39225619934E+04 0.  0.
        2    1    3    3  502    0  0.70201450998E+03 -0.10510829969E+04  0.18302747550E+04  0.22242988823E+04  0.25500000920E-02 0.  1.
       -2    1    3    3    0  502 -0.70201450998E+03  0.10510829969E+04 -0.12067331749E+04  0.17475138895E+04  0.25500000920E-02 0. -1.
</event>
<event>
 5   0  0.8438211E-08  0.3897265E+04  0.7818609E-02  0.8025598E-01
       -2   -1    0    0    0  501  0.00000000000E+00  0.00000000000E+00  0.18503683012E+04  0.18503683012E+04  0.25500000920E-02 0.  1.
        2   -1    0    0  501    0  0.00000000000E+00  0.00000000000E+00 -0.20521146215E+04  0.20521146215E+04  0.25500000920E-02 0. -1.
    10030    2    1    2    0    0  0.00000000000E+00  0.00000000000E+00 -0.20174632028E+03  0.39024829227E+04  0.38972646028E+04 0.  0.
        5    1    3    3  502    0  0.19258519193E+04 -0.28655598480E+03 -0.22500817913E+02  0.19471898532E+04  0.46999998093E+01 0. -1.
       -5    1    3    3    0  502 -0.19258519193E+04  0.28655598480E+03 -0.17924550237E+03  0.19552930695E+04  0.46999998093E+01 0.  1.
</event>
<event>
 5   0  0.8476262E-08  0.3762528E+04  0.7818609E-02  0.8054245E-01
       -2   -1    0    0    0  501  0.00000000000E+00  0.00000000000E+00  0.25958889788E+04  0.25958889788E+04  0.25500000920E-02 0. -1.
        2   -1    0    0  501    0  0.00000000000E+00  0.00000000000E+00 -0.13633685645E+04  0.13633685645E+04  0.25500000920E-02 0.  1.
    10030    2    1    2    0    0  0.00000000000E+00  0.00000000000E+00  0.12325204143E+04  0.39592575434E+04  0.37625275711E+04 0.  0.
        2    1    3    3  502    0  0.11601216916E+04  0.14258513655E+04  0.19505761386E+03  0.18485080277E+04  0.25500000920E-02 0.  1.
       -2    1    3    3    0  502 -0.11601216916E+04 -0.14258513655E+04  0.10374628004E+04  0.21107495157E+04  0.25500000920E-02 0. -1.
</event>
<event>
 5   0  0.8342802E-08  0.3914592E+04  0.7818609E-02  0.8022001E-01
        2   -1    0    0  501    0  0.00000000000E+00  0.00000000000E+00  0.16553815678E+04  0.16553815678E+04  0.25500000920E-02 0. -1.
       -2   -1    0    0    0  501  0.00000000000E+00  0.00000000000E+00 -0.23142743104E+04  0.23142743104E+04  0.25500000920E-02 0.  1.
    10030    2    1    2    0    0  0.00000000000E+00  0.00000000000E+00 -0.65889274263E+03  0.39696558783E+04  0.39145916959E+04 0.  0.
        4    1    3    3  502    0 -0.18987947773E+03 -0.37938676630E+03 -0.22670873502E+04  0.23064421087E+04  0.12699999809E+01 0.  1.
       -4    1    3    3    0  502  0.18987947773E+03  0.37938676630E+03  0.16081946076E+04  0.16632137695E+04  0.12699999809E+01 0. -1.
</event>
<event>
 5   0  0.8551754E-08  0.3907754E+04  0.7818609E-02  0.8023419E-01
        2   -1    0    0  501    0  0.00000000000E+00  0.00000000000E+00  0.24156009057E+04  0.24156009057E+04  0.25500000920E-02 0. -1.
       -2   -1    0    0    0  501  0.00000000000E+00  0.00000000000E+00 -0.15804078703E+04  0.15804078703E+04  0.25500000920E-02 0.  1.
    10030    2    1    2    0    0  0.00000000000E+00  0.00000000000E+00  0.83519303544E+03  0.39960087759E+04  0.39077536682E+04 0.  0.
        1    1    3    3  502    0  0.10617094950E+04 -0.23208562683E+03  0.20780119334E+04  0.23450425125E+04  0.50400001928E-02 0. -1.
       -1    1    3    3    0  502 -0.10617094950E+04  0.23208562683E+03 -0.12428188980E+04  0.16509662635E+04  0.50400001928E-02 0.  1.
</event>
<event>
 5   0  0.2632875E-08  0.3901820E+04  0.7818609E-02  0.8024651E-01
       -1   -1    0    0    0  501  0.00000000000E+00  0.00000000000E+00  0.19427728036E+04  0.19427728036E+04  0.50400001928E-02 0. -1.
        1   -1    0    0  501    0  0.00000000000E+00  0.00000000000E+00 -0.19590815224E+04  0.19590815224E+04  0.50400001928E-02 0.  1.
    10030    2    1    2    0    0  0.00000000000E+00  0.00000000000E+00 -0.16308718782E+02  0.39018543260E+04  0.39018202428E+04 0.  0.
        1    1    3    3  502    0  0.23040430833E+03  0.19491875498E+02  0.19290213639E+04  0.19428302810E+04  0.50400001928E-02 0. -1.
       -1    1    3    3    0  502 -0.23040430833E+03 -0.19491875498E+02 -0.19453300826E+04  0.19590240450E+04  0.50400001928E-02 0.  1.
</event>
<event>
 5   0  0.2632875E-08  0.3889879E+04  0.7818609E-02  0.8027137E-01
       -1   -1    0    0    0  501  0.00000000000E+00  0.00000000000E+00  0.26089178314E+04  0.26089178314E+04  0.50400001928E-02 0.  1.
        1   -1    0    0  501    0  0.00000000000E+00  0.00000000000E+00 -0.14499458291E+04  0.14499458291E+04  0.50400001928E-02 0. -1.
    10030    2    1    2    0    0  0.00000000000E+00  0.00000000000E+00  0.11589720023E+04  0.40588636606E+04  0.38898789329E+04 0.  0.
        5    1    3    3  502    0  0.11628197490E+04 -0.12508859755E+04 -0.39147712334E+03  0.17521820454E+04  0.46999998093E+01 0. -1.
       -5    1    3    3    0  502 -0.11628197490E+04  0.12508859755E+04  0.15504491256E+04  0.23066816151E+04  0.46999998093E+01 0.  1.
</event>
<event>
 5   0  0.2632875E-08  0.3917274E+04  0.7818609E-02  0.8021446E-01
        1   -1    0    0  501    0  0.00000000000E+00  0.00000000000E+00  0.12839222884E+04  0.12839222884E+04  0.50400001928E-02 0.  1.
       -1   -1    0    0    0  501  0.00000000000E+00  0.00000000000E+00 -0.29879208950E+04  0.29879208950E+04  0.50400001928E-02 0. -1.
    10030    2    1    2    0    0  0.00000000000E+00  0.00000000000E+00 -0.17039986066E+04  0.42718431834E+04  0.39172736606E+04 0.  0.
        2    1    3    3  502    0 -0.15168219646E+04 -0.41327898283E+02 -0.22025657292E+04  0.26746500068E+04  0.25500000920E-02 0. -1.
       -2    1    3    3    0  502  0.15168219646E+04  0.41327898283E+02  0.49856712256E+03  0.15971931766E+04  0.25500000920E-02 0.  1.
</event>
<event>
 5   0  0.2632875E-08  0.4122335E+04  0.7818609E-02  0.7980312E-01
       -3   -1    0    0    0  501  0.00000000000E+00  0.00000000000E+00  0.21799949140E+04  0.21799949164E+04  0.10100000352E+00 0.  1.
        3   -1    0    0  501    0  0.00000000000E+00  0.00000000000E+00 -0.19488169304E+04  0.19488169330E+04  0.10100000352E+00 0. -1.
    10030    2    1    2    0    0  0.00000000000E+00  0.00000000000E+00  0.23117798367E+03  0.41288118494E+04  0.41223347786E+04 0.  0.
        5    1    3    3  502    0  0.32722282655E+03 -0.26153148983E+03  0.21369064627E+04  0.21775823334E+04  0.46999998093E+01 0.  1.
       -5    1    3    3    0  502 -0.32722282655E+03  0.26153148983E+03 -0.19057284790E+04  0.19512295160E+04  0.46999998093E+01 0. -1.
</event>
<event>
 5   0  0.8551754E-08  0.3836816E+04  0.7818609E-02  0.8038300E-01
        2   -1    0    0  501    0  0.00000000000E+00  0.00000000000E+00  0.25036938777E+04  0.25036938777E+04  0.25500000920E-02 0.  1.
       -2   -1    0    0    0  501  0.00000000000E+00  0.00000000000E+00 -0.14699440267E+04  0.14699440268E+04  0.25500000920E-02 0. -1.
    10030    2    1    2    0    0  0.00000000000E+00  0.00000000000E+00  0.10337498510E+04  0.39736379045E+04  0.38368163158E+04 0.  0.
        1    1    3    3  502    0  0.10596630268E+04  0.36336303949E+03 -0.10960212435E+04  0.15672207869E+04  0.50400001928E-02 0. -1.
       -1    1    3    3    0  502 -0.10596630268E+04 -0.36336303949E+03  0.21297710945E+04  0.24064171176E+04  0.50400001928E-02 0.  1.
</event>
<event>
 5   0  0.8342802E-08  0.3899925E+04  0.7818609E-02  0.8025045E-01
       -2   -1    0    0    0  501  0.00000000000E+00  0.00000000000E+00  0.21627025052E+04  0.21627025052E+04  0.25500000920E-02 0. -1.
        2   -1    0    0  501    0  0.00000000000E+00  0.00000000000E+00 -0.17581491195E+04  0.17581491195E+04  0.25500000920E-02 0.  1.
    10030    2    1    2    0    0  0.00000000000E+00  0.00000000000E+00  0.40455338566E+03  0.39208516247E+04  0.38999248738E+04 0.  0.
        4    1    3    3  502    0  0.61228568326E+03  0.11574984553E+04 -0.12503485258E+04  0.18105439738E+04  0.12699999809E+01 0.  1.
       -4    1    3    3    0  502 -0.61228568326E+03 -0.11574984553E+04  0.16549019115E+04  0.21103076509E+04  0.12699999809E+01 0. -1.
</event>
<event>
 5   0  0.2632875E-08  0.3900994E+04  0.7818609E-02  0.8024823E-01
        1   -1    0    0  501    0  0.00000000000E+00  0.00000000000E+00  0.14715177670E+04  0.14715177670E+04  0.50400001928E-02 0.  1.
       -1   -1    0    0    0  501  0.00000000000E+00  0.00000000000E+00 -0.25853837422E+04  0.25853837422E+04  0.50400001928E-02 0. -1.
    10030    2    1    2    0    0  0.00000000000E+00  0.00000000000E+00 -0.11138659752E+04  0.40569015092E+04  0.39009937765E+04 0.  0.
        4    1    3    3  502    0 -0.17387056205E+04 -0.42408595622E+03 -0.13634871640E+04  0.22498988849E+04  0.12699999809E+01 0. -1.
       -4    1    3    3    0  502  0.17387056205E+04  0.42408595622E+03  0.24962118879E+03  0.18070026242E+04  0.12699999809E+01 0.  1.
</event>
<event>
 5   0  0.2632875E-08  0.3888644E+04  0.7818609E-02  0.8027395E-01
        1   -1    0    0  501    0  0.00000000000E+00  0.00000000000E+00  0.16111690548E+04  0.16111690548E+04  0.50400001928E-02 0. -1.
       -1   -1    0    0    0  501  0.00000000000E+00  0.00000000000E+00 -0.23463633991E+04  0.23463633991E+04  0.50400001928E-02 0.  1.
    10030    2    1    2    0    0  0.00000000000E+00  0.00000000000E+00 -0.73519434433E+03  0.39575324539E+04  0.38886440310E+04 0.  0.
        2    1    3    3  502    0  0.17001575793E+04 -0.36836416148E+03 -0.12514054927E+04  0.21429520893E+04  0.25500000920E-02 0.  1.
       -2    1    3    3    0  502 -0.17001575793E+04  0.36836416148E+03  0.51621114835E+03  0.18145803646E+04  0.25500000920E-02 0. -1.
</event>
<event>
 5   0  0.2632875E-08  0.3869984E+04  0.7818609E-02  0.8031301E-01
       -1   -1    0    0    0  501  0.00000000000E+00  0.00000000000E+00  0.15544842500E+04  0.15544842500E+04  0.50400001928E-02 0. -1.
        1   -1    0    0  501    0  0.00000000000E+00  0.00000000000E+00 -0.24086405597E+04  0.24086405597E+04  0.50400001928E-02 0.  1.
    10030    2    1    2    0    0  0.00000000000E+00  0.00000000000E+00 -0.85415630974E+03  0.39631248097E+04  0.38699838831E+04 0.  0.
        2    1    3    3  502    0  0.13480642357E+04 -0.97506248589E+03 -0.14388702277E+04  0.21996298704E+04  0.25500000920E-02 0.  1.
       -2    1    3    3    0  502 -0.13480642357E+04  0.97506248589E+03  0.58471391793E+03  0.17634949392E+04  0.25500000920E-02 0. -1.
</event>
<event>
 5   0  0.8476262E-08  0.3879117E+04  0.7818609E-02  0.8029387E-01
       -2   -1    0    0    0  501  0.00000000000E+00  0.00000000000E+00  0.20429012668E+04  0.20429012668E+04  0.25500000920E-02 0.  1.
        2   -1    0    0  501    0  0.00000000000E+00  0.00000000000E+00 -0.18414435667E+04  0.18414435667E+04  0.25500000920E-02 0. -1.
    10030    2    1    2    0    0  0.00000000000E+00  0.00000000000E+00  0.20145770011E+03  0.38843448335E+04  0.38791171135E+04 0.  0.
        2    1    3    3  502    0  0.87087398788E+03 -0.15317218839E+04 -0.71110042412E+03  0.19000676950E+04  0.25500000920E-02 0.  1.
       -2    1    3    3    0  502 -0.87087398788E+03  0.15317218839E+04  0.91255812423E+03  0.19842771385E+04  0.25500000920E-02 0. -1.
</event>
<event>
 5   0  0.2632875E-08  0.3922556E+04  0.7818609E-02  0.8020354E-01
        1   -1    0    0  501    0  0.00000000000E+00  0.00000000000E+00  0.19691771994E+04  0.19691771994E+04  0.50400001928E-02 0.  1.
       -1   -1    0    0    0  501  0.00000000000E+00  0.00000000000E+00 -0.19534103498E+04  0.19534103498E+04  0.50400001928E-02 0. -1.
    10030    2    1    2    0    0  0.00000000000E+00  0.00000000000E+00  0.15766849560E+02  0.39225875492E+04  0.39225558616E+04 0.  0.
        1    1    3    3  502    0  0.29955888287E+03  0.42980291015E+02  0.19456886165E+04  0.19690827870E+04  0.50400001928E-02 0.  1.
       -1    1    3    3    0  502 -0.29955888287E+03 -0.42980291015E+02 -0.19299217669E+04  0.19535047622E+04  0.50400001928E-02 0. -1.
</event>
<event>
 5   0  0.2632875E-08  0.3994860E+04  0.7818609E-02  0.8005584E-01
        1   -1    0    0  501    0  0.00000000000E+00  0.00000000000E+00  0.23912162777E+04  0.23912162777E+04  0.50400001928E-02 0. -1.
       -1   -1    0    0    0  501  0.00000000000E+00  0.00000000000E+00 -0.16684926954E+04  0.16684926954E+04  0.50400001928E-02 0.  1.
    10030    2    1    2    0    0  0.00000000000E+00  0.00000000000E+00  0.72272358228E+03  0.40597089732E+04  0.39948601440E+04 0.  0.
        4    1    3    3  502    0  0.14156115031E+04 -0.12632031534E+04  0.99607003835E+03  0.21428474674E+04  0.12699999809E+01 0.  1.
       -4    1    3    3    0  502 -0.14156115031E+04  0.12632031534E+04 -0.27334645608E+03  0.19168615058E+04  0.12699999809E+01 0. -1.
</event>
<event>
 5   0  0.2632875E-08  0.3837206E+04  0.7818609E-02  0.8038217E-01
       -1   -1    0    0    0  501  0.00000000000E+00  0.00000000000E+00  0.11368942161E+04  0.11368942161E+04  0.50400001928E-02 0.  1.
        1   -1    0    0  501    0  0.00000000000E+00  0.00000000000E+00 -0.32378004139E+04  0.32378004139E+04  0.50400001928E-02 0. -1.
    10030    2    1    2    0    0  0.00000000000E+00  0.00000000000E+00 -0.21009061978E+04  0.43746946300E+04  0.38372055266E+04 0.  0.
        3    1    3    3  502    0  0.12806281289E+04  0.13425006356E+04 -0.49342480010E+03  0.19198396820E+04  0.10100000352E+00 0.  1.
       -3    1    3    3    0  502 -0.12806281289E+04 -0.13425006356E+04 -0.16074813977E+04  0.24548549479E+04  0.10100000352E+00 0. -1.
</event>
<event>
 5   0  0.2632875E-08  0.3896738E+04  0.7818609E-02  0.8025708E-01
       -1   -1    0    0    0  501  0.00000000000E+00  0.00000000000E+00  0.13976615313E+04  0.13976615313E+04  0.50400001928E-02 0.  1.
        1   -1    0    0  501    0  0.00000000000E+00  0.00000000000E+00 -0.27160665253E+04  0.27160665253E+04  0.50400001928E-02 0. -1.
    10030    2    1    2    0    0  0.00000000000E+00  0.00000000000E+00 -0.13184049940E+04  0.41137280566E+04  0.38967379686E+04 0.  0.
        4    1    3    3  502    0  0.16427754841E+04 -0.52186666860E+03 -0.16181248706E+04  0.23641881948E+04  0.12699999809E+01 0.  1.
       -4    1    3    3    0  502 -0.16427754841E+04  0.52186666860E+03  0.29971987656E+03  0.17495398618E+04  0.12699999809E+01 0. -1.
</event>
<event>
 5   0  0.8342802E-08  0.3893687E+04  0.7818609E-02  0.8026343E-01
       -2   -1    0    0    0  501  0.00000000000E+00  0.00000000000E+00  0.12802990192E+04  0.12802990192E+04  0.25500000920E-02 0. -1.
        2   -1    0    0  501    0  0.00000000000E+00  0.00000000000E+00 -0.29604023870E+04  0.29604023870E+04  0.25500000920E-02 0.  1.
    10030    2    1    2    0    0  0.00000000000E+00  0.00000000000E+00 -0.16801033678E+04  0.42407014062E+04  0.38936873386E+04 0.  0.
        4    1    3    3  502    0  0.46356438646E+03  0.12054966220E+04 -0.24266170425E+04  0.27489245042E+04  0.12699999809E+01 0.  1.
       -4    1    3    3    0  502 -0.46356438646E+03 -0.12054966220E+04  0.74651367467E+03  0.14917769020E+04  0.12699999809E+01 0. -1.
</event>
<event>
 5   0  0.8476262E-08  0.3904006E+04  0.7818609E-02  0.8024197E-01
       -2   -1    0    0    0  501  0.00000000000E+00  0.00000000000E+00  0.18838141186E+04  0.18838141186E+04  0.25500000920E-02 0.  1.
        2   -1    0    0  501    0  0.00000000000E+00  0.00000000000E+00 -0.20226601381E+04  0.20226601381E+04  0.25500000920E-02 0. -1.
    10030    2    1    2    0    0  0.00000000000E+00  0.00000000000E+00 -0.13884601952E+03  0.39064742566E+04  0.39040060067E+04 0.  0.
        2    1    3    3  502    0  0.61229847562E+03 -0.11466712410E+03 -0.19205271300E+04  0.20190300715E+04  0.25500000920E-02 0. -1.
       -2    1    3    3    0  502 -0.61229847562E+03  0.11466712410E+03  0.17816811105E+04  0.18874441851E+04  0.25500000920E-02 0.  1.
</event>
<event>
 5   0  0.8438211E-08  0.3887862E+04  0.7818609E-02  0.8027558E-01
       -2   -1    0    0    0  501  0.00000000000E+00  0.00000000000E+00  0.22603232337E+04  0.22603232337E+04  0.25500000920E-02 0.  1.
        2   -1    0    0  501    0  0.00000000000E+00  0.00000000000E+00 -0.16718266236E+04  0.16718266236E+04  0.25500000920E-02 0. -1.
    10030    2    1    2    0    0  0.00000000000E+00  0.00000000000E+00  0.58849661019E+03  0.39321498573E+04  0.38878624256E+04 0.  0.
        5    1    3    3  502    0  0.15340906424E+04 -0.75337410923E+03  0.12309952245E+04  0.21062711080E+04  0.46999998093E+01 0.  1.
       -5    1    3    3    0  502 -0.15340906424E+04  0.75337410923E+03 -0.64249861432E+03  0.18258787493E+04  0.46999998093E+01 0. -1.
</event>
<event>
 5   0  0.8676098E-08  0.3892143E+04  0.7818609E-02  0.8026665E-01
        2   -1    0    0  501    0  0.00000000000E+00  0.00000000000E+00  0.19767042697E+04  0.19767042697E+04  0.25500000920E-02 0.  1.
       -2   -1    0    0    0  501  0.00000000000E+00  0.00000000000E+00 -0.19159136987E+04  0.19159136987E+04  0.25500000920E-02 0. -1.
    10030    2    1    2    0    0  0.00000000000E+00  0.00000000000E+00  0.60790570978E+02  0.38926179684E+04  0.38921432598E+04 0.  0.
        3    1    3    3  502    0 -0.97678363436E+03  0.16389393715E+04 -0.35301324148E+03  0.19403213370E+04  0.10100000352E+00 0.  1.
       -3    1    3    3    0  502  0.97678363436E+03 -0.16389393715E+04  0.41380381246E+03  0.19522966315E+04  0.10100000352E+00 0. -1.
</event>
<event>
 5   0  0.8551754E-08  0.3875648E+04  0.7818609E-02  0.8030113E-01
       -2   -1    0    0    0  501  0.00000000000E+00  0.00000000000E+00  0.20346484040E+04  0.20346484040E+04  0.25500000920E-02 0. -1.
        2   -1    0    0  501    0  0.00000000000E+00  0.00000000000E+00 -0.18456072080E+04  0.18456072080E+04  0.25500000920E-02 0.  1.
    10030    2    1    2    0    0  0.00000000000E+00  0.00000000000E+00  0.18904119604E+03  0.38802556120E+04  0.38756479511E+04 0.  0.
        1    1    3    3  502    0 -0.78844028053E+03 -0.17029171496E+04  0.57841379984E+03  0.19637024770E+04  0.50400001928E-02 0.  1.
       -1    1    3    3    0  502  0.78844028053E+03  0.17029171496E+04 -0.38937260380E+03  0.19165531350E+04  0.50400001928E-02 0. -1.
</event>
<event>
 5   0  0.2632875E-08  0.3890638E+04  0.7818609E-02  0.8026979E-01
       -1   -1    0    0    0  501  0.00000000000E+00  0.00000000000E+00  0.22664723733E+04  0.22664723733E+04  0.50400001928E-02 0.  1.
        1   -1    0    0  501    0  0.00000000000E+00  0.00000000000E+00 -0.16696719838E+04  0.16696719838E+04  0.50400001928E-02 0. -1.
    10030    2    1    2    0    0  0.00000000000E+00  0.00000000000E+00  0.59680038947E+03  0.39361443572E+04  0.38906376978E+04 0.  0.
        5    1    3    3  502    0  0.13158495587E+04  0.14197417423E+04  0.10348995281E+03  0.19385197797E+04  0.46999998093E+01 0. -1.
       -5    1    3    3    0  502 -0.13158495587E+04 -0.14197417423E+04  0.49331043666E+03  0.19976245775E+04  0.46999998093E+01 0.  1.
</event>
<event>
 5   0  0.2632875E-08  0.3925065E+04  0.7818609E-02  0.8019836E-01
       -1   -1    0    0    0  501  0.00000000000E+00  0.00000000000E+00  0.17533814122E+04  0.17533814122E+04  0.50400001928E-02 0. -1.
        1   -1    0    0  501    0  0.00000000000E+00  0.00000000000E+00 -0.21966317054E+04  0.21966317054E+04  0.50400001928E-02 0.  1.
    10030    2    1    2    0    0  0.00000000000E+00  0.00000000000E+00 -0.44325029325E+03  0.39500131176E+04  0.39250646882E+04 0.  0.
        3    1    3    3  502    0 -0.61187335830E+03  0.10268437189E+04  0.13447824477E+04  0.17992323006E+04  0.10100000352E+00 0. -1.
       -3    1    3    3    0  502  0.61187335830E+03 -0.10268437189E+04 -0.17880327410E+04  0.21507808170E+04  0.10100000352E+00 0.  1.
</event>
<event>
 5   0  0.8438211E-08  0.3856552E+04  0.7818609E-02  0.8034127E-01
        2   -1    0    0  501    0  0.00000000000E+00  0.00000000000E+00  0.11554414609E+04  0.11554414609E+04  0.25500000920E-02 0. -1.
       -2   -1    0    0    0  501  0.00000000000E+00  0.00000000000E+00 -0.32180323458E+04  0.32180323458E+04  0.25500000920E-02 0.  1.
    10030    2    1    2    0    0  0.00000000000E+00  0.00000000000E+00 -0.20625908849E+04  0.43734738067E+04  0.38565518250E+04 0.  0.
        5    1    3    3  502    0  0.18759249491E+02 -0.12288505614E+04 -0.27163239444E+04  0.29814197076E+04  0.46999998093E+01 0.  1.
       -5    1    3    3    0  502 -0.18759249491E+02  0.12288505614E+04  0.65373305958E+03  0.13920540991E+04  0.46999998093E+01 0. -1.
</event>
<event>
 5   0  0.2632875E-08  0.3893664E+04  0.7818609E-02  0.8026348E-01
       -1   -1    0    0    0  501  0.00000000000E+00  0.00000000000E+00  0.15092097508E+04  0.15092097508E+04  0.50400001928E-02 0.  1.
        1   -1    0    0  501    0  0.00000000000E+00  0.00000000000E+00 -0.25113502690E+04  0.25113502690E+04  0.50400001928E-02 0. -1.
    10030    2    1    2    0    0  0.00000000000E+00  0.00000000000E+00 -0.10021405181E+04  0.40205600198E+04  0.38936637316E+04 0.  0.
        4    1    3    3  502    0  0.17181445984E+04 -0.89620351436E+03 -0.30802526831E+03  0.19621627809E+04  0.12699999809E+01 0.  1.
       -4    1    3    3    0  502 -0.17181445984E+04  0.89620351436E+03 -0.69411524982E+03  0.20583972389E+04  0.12699999809E+01 0. -1.
</event>
<event>
 5   0  0.8551754E-08  0.3896618E+04  0.7818609E-02  0.8025733E-01
       -2   -1    0    0    0  501  0.00000000000E+00  0.00000000000E+00  0.25153359898E+04  0.25153359898E+04  0.25500000920E-02 0.  1.
        2   -1    0    0  501    0  0.00000000000E+00  0.00000000000E+00 -0.15091053805E+04  0.15091053805E+04  0.25500000920E-02 0. -1.
    10030    2    1    2    0    0  0.00000000000E+00  0.00000000000E+00  0.10062306093E+04  0.40244413703E+04  0.38966175465E+04 0.  0.
        1    1    3    3  502    0 -0.14934226856E+04 -0.98044353478E+03 -0.29977006909E+03  0.18114753482E+04  0.50400001928E-02 0. -1.
       -1    1    3    3    0  502  0.14934226856E+04  0.98044353478E+03  0.13060006784E+04  0.22129660221E+04  0.50400001928E-02 0.  1.
</event>
<event>
 5   0  0.8676098E-08  0.3909731E+04  0.7818609E-02  0.8023008E-01
        2   -1    0    0  501    0  0.00000000000E+00  0.00000000000E+00  0.25616746400E+04  0.25616746400E+04  0.25500000920E-02 0.  1.
       -2   -1    0    0    0  501  0.00000000000E+00  0.00000000000E+00 -0.14917971112E+04  0.14917971112E+04  0.25500000920E-02 0. -1.
    10030    2    1    2    0    0  0.00000000000E+00  0.00000000000E+00  0.10698775288E+04  0.40534717512E+04  0.39097308489E+04 0.  0.
        3    1    3    3  502    0  0.86599202888E+03  0.16250548537E+04  0.12153862594E+04  0.22063338916E+04  0.10100000352E+00 0.  1.
       -3    1    3    3    0  502 -0.86599202888E+03 -0.16250548537E+04 -0.14550873057E+03  0.18471378596E+04  0.10100000352E+00 0. -1.
</event>
<event>
 5   0  0.2632875E-08  0.3896754E+04  0.7818609E-02  0.8025705E-01
        1   -1    0    0  501    0  0.00000000000E+00  0.00000000000E+00  0.34602019161E+04  0.34602019161E+04  0.50400001928E-02 0.  1.
       -1   -1    0    0    0  501  0.00000000000E+00  0.00000000000E+00 -0.10970957784E+04  0.10970957784E+04  0.50400001928E-02 0. -1.
    10030    2    1    2    0    0  0.00000000000E+00  0.00000000000E+00  0.23631061377E+04  0.45572976945E+04  0.38967539900E+04 0.  0.
        3    1    3    3  502    0  0.17945463930E+03  0.69854153774E+03  0.32983389511E+04  0.33762707376E+04  0.10100000352E+00 0.  1.
       -3    1    3    3    0  502 -0.17945463930E+03 -0.69854153774E+03 -0.93523281334E+03  0.11810269569E+04  0.10100000352E+00 0. -1.
</event>
<event>
 5   0  0.8676098E-08  0.3903688E+04  0.7818609E-02  0.8024263E-01
        2   -1    0    0  501    0  0.00000000000E+00  0.00000000000E+00  0.17928881471E+04  0.17928881471E+04  0.25500000920E-02 0.  1.
       -2   -1    0    0    0  501  0.00000000000E+00  0.00000000000E+00 -0.21248932303E+04  0.21248932303E+04  0.25500000920E-02 0. -1.
    10030    2    1    2    0    0  0.00000000000E+00  0.00000000000E+00 -0.33200508327E+03  0.39177813774E+04  0.39036884540E+04 0.  0.
        3    1    3    3  502    0 -0.16173303470E+04 -0.53631756372E+03 -0.11214383008E+04  0.20398573120E+04  0.10100000352E+00 0. -1.
       -3    1    3    3    0  502  0.16173303470E+04  0.53631756372E+03  0.78943321755E+03  0.18779240655E+04  0.10100000352E+00 0.  1.
</event>
<event>
 5   0  0.8551754E-08  0.4158112E+04  0.7818609E-02  0.7973388E-01
       -2   -1    0    0    0  501  0.00000000000E+00  0.00000000000E+00  0.21414306776E+04  0.21414306776E+04  0.25500000920E-02 0.  1.
        2   -1    0    0  501    0  0.00000000000E+00  0.00000000000E+00 -0.20184983406E+04  0.20184983406E+04  0.25500000920E-02 0. -1.
    10030    2    1    2    0    0  0.00000000000E+00  0.00000000000E+00  0.12293233703E+03  0.41599290183E+04  0.41581122012E+04 0.  0.
        1    1    3    3  502    0  0.86820536445E+03  0.14417910115E+02 -0.18284028479E+04  0.20241159565E+04  0.50400001928E-02 0. -1.
       -1    1    3    3    0  502 -0.86820536445E+03 -0.14417910115E+02  0.19513351849E+04  0.21358130618E+04  0.50400001928E-02 0.  1.
</event>
<event>
 5   0  0.2632875E-08  0.3833916E+04  0.7818609E-02  0.8038915E-01
        1   -1    0    0  501    0  0.00000000000E+00  0.00000000000E+00  0.18377235667E+04  0.18377235668E+04  0.50400001928E-02 0. -1.
       -1   -1    0    0    0  501  0.00000000000E+00  0.00000000000E+00 -0.19996088442E+04  0.19996088442E+04  0.50400001928E-02 0.  1.
    10030    2    1    2    0    0  0.00000000000E+00  0.00000000000E+00 -0.16188527742E+03  0.38373324109E+04  0.38339161687E+04 0.  0.
        4    1    3    3  502    0  0.39736158548E+02  0.18699591767E+04  0.33943208189E+03  0.19009318862E+04  0.12699999809E+01 0. -1.
       -4    1    3    3    0  502 -0.39736158548E+02 -0.18699591767E+04 -0.50131735932E+03  0.19364005248E+04  0.12699999809E+01 0.  1.
</event>
<event>
 5   0  0.8342802E-08  0.3880974E+04  0.7818609E-02  0.8028998E-01
        2   -1    0    0  501    0  0.00000000000E+00  0.00000000000E+00  0.18359649001E+04  0.18359649001E+04  0.25500000920E-02 0. -1.
       -2   -1    0    0    0  501  0.00000000000E+00  0.00000000000E+00 -0.20509596994E+04  0.20509596994E+04  0.25500000920E-02 0.  1.
    10030    2    1    2    0    0  0.00000000000E+00  0.00000000000E+00 -0.21499479929E+03  0.38869245995E+04  0.38809741146E+04 0.  0.
        4    1    3    3  502    0 -0.46092160298E+03  0.18832949257E+04 -0.28383212984E+02  0.19390863109E+04  0.12699999809E+01 0. -1.
       -4    1    3    3    0  502  0.46092160298E+03 -0.18832949257E+04 -0.18661158631E+03  0.19478382886E+04  0.12699999809E+01 0.  1.
</event>
<event>
 5   0  0.8476262E-08  0.3898014E+04  0.7818609E-02  0.8025442E-01
       -2   -1    0    0    0  501  0.00000000000E+00  0.00000000000E+00  0.13736414788E+04  0.13736414788E+04  0.25500000920E-02 0. -1.
        2   -1    0    0  501    0  0.00000000000E+00  0.00000000000E+00 -0.27653709891E+04  0.27653709891E+04  0.25500000920E-02 0.  1.
    10030    2    1    2    0    0  0.00000000000E+00  0.00000000000E+00 -0.13917295103E+04  0.41390124679E+04  0.38980140046E+04 0.  0.
        2    1    3    3  502    0  0.14013343665E+04 -0.75869029095E+03 -0.18874205334E+04  0.24701629975E+04  0.25500000920E-02 0.  1.
       -2    1    3    3    0  502 -0.14013343665E+04  0.75869029095E+03  0.49569102312E+03  0.16688494704E+04  0.25500000920E-02 0. -1.
</event>
<event>
 5   0  0.2632875E-08  0.3904950E+04  0.7818609E-02  0.8024001E-01
        1   -1    0    0  501    0  0.00000000000E+00  0.00000000000E+00  0.28755834459E+04  0.28755834459E+04  0.50400001928E-02 0.  1.
       -1   -1    0    0    0  501  0.00000000000E+00  0.00000000000E+00 -0.13256990890E+04  0.13256990890E+04  0.50400001928E-02 0. -1.
    10030    2    1    2    0    0  0.00000000000E+00  0.00000000000E+00  0.15498843569E+04  0.42012825349E+04  0.39049498612E+04 0.  0.
        3    1    3    3  502    0 -0.78338006008E+03 -0.17585255682E+04  0.42455675563E+03  0.19713814804E+04  0.10100000352E+00 0.  1.
       -3    1    3    3    0  502  0.78338006008E+03  0.17585255682E+04  0.11253276013E+04  0.22299010545E+04  0.10100000352E+00 0. -1.
</event>
<event>
 5   0  0.2632875E-08  0.3884095E+04  0.7818609E-02  0.8028345E-01
       -1   -1    0    0    0  501  0.00000000000E+00  0.00000000000E+00  0.24991197350E+04  0.24991197350E+04  0.50400001928E-02 0.  1.
        1   -1    0    0  501    0  0.00000000000E+00  0.00000000000E+00 -0.15091505114E+04  0.15091505114E+04  0.50400001928E-02 0. -1.
    10030    2    1    2    0    0  0.00000000000E+00  0.00000000000E+00  0.98996922360E+03  0.40082702464E+04  0.38840946570E+04 0.  0.
        4    1    3    3  502    0  0.84380573929E+03  0.16476616645E+04  0.11009094800E+04  0.21537874506E+04  0.12699999809E+01 0. -1.
       -4    1    3    3    0  502 -0.84380573929E+03 -0.16476616645E+04 -0.11094025638E+03  0.18544827958E+04  0.12699999809E+01 0.  1.
</event>
<event>
 5   0  0.2632875E-08  0.3934745E+04  0.7818609E-02  0.8017842E-01
        3   -1    0    0  501    0  0.00000000000E+00  0.00000000000E+00  0.17948179294E+04  0.17948179322E+04  0.10100000352E+00 0.  1.
       -3   -1    0    0    0  501  0.00000000000E+00  0.00000000000E+00 -0.21565162929E+04  0.21565162953E+04  0.10100000352E+00 0. -1.
    10030    2    1    2    0    0  0.00000000000E+00  0.00000000000E+00 -0.36169836354E+03  0.39513342275E+04  0.39347447784E+04 0.  0.
        2    1    3    3  502    0  0.15393676806E+04 -0.10426391898E+04 -0.82683792641E+03  0.20347998164E+04  0.25500000920E-02 0. -1.
       -2    1    3    3    0  502 -0.15393676806E+04  0.10426391898E+04  0.46513956287E+03  0.19165344111E+04  0.25500000920E-02 0.  1.
</event>
<event>
 5   0  0.2632875E-08  0.3906852E+04  0.7818609E-02  0.8023606E-01
        1   -1    0    0  501    0  0.00000000000E+00  0.00000000000E+00  0.23782428143E+04  0.23782428143E+04  0.50400001928E-02 0.  1.
       -1   -1    0    0    0  501  0.00000000000E+00  0.00000000000E+00 -0.16044925214E+04  0.16044925215E+04  0.50400001928E-02 0. -1.
    10030    2    1    2    0    0  0.00000000000E+00  0.00000000000E+00  0.77375029286E+03  0.39827353358E+04  0.39068518322E+04 0.  0.
        4    1    3    3  502    0 -0.11493438146E+04 -0.60773926590E+03  0.18731133824E+04  0.22801082377E+04  0.12699999809E+01 0.  1.
       -4    1    3    3    0  502  0.11493438146E+04  0.60773926590E+03 -0.10993630895E+04  0.17026270981E+04  0.12699999809E+01 0. -1.
</event>
<event>
 5   0  0.2632875E-08  0.3812221E+04  0.7818609E-02  0.8043537E-01
       -1   -1    0    0    0  501  0.00000000000E+00  0.00000000000E+00  0.11469124409E+04  0.11469124409E+04  0.50400001928E-02 0. -1.
        1   -1    0    0  501    0  0.00000000000E+00  0.00000000000E+00 -0.31678586649E+04  0.31678586649E+04  0.50400001928E-02 0.  1.
    10030    2    1    2    0    0  0.00000000000E+00  0.00000000000E+00 -0.20209462240E+04  0.43147711058E+04  0.38122206199E+04 0.  0.
        1    1    3    3  502    0 -0.53472980470E+02  0.32657089417E+03  0.11141514319E+04  0.11622569947E+04  0.50400001928E-02 0. -1.
       -1    1    3    3    0  502  0.53472980470E+02 -0.32657089417E+03 -0.31350976559E+04  0.31525141111E+04  0.50400001928E-02 0.  1.
</event>
<event>
 5   0  0.8438211E-08  0.3907383E+04  0.7818609E-02  0.8023495E-01
        2   -1    0    0  501    0  0.00000000000E+00  0.00000000000E+00  0.20699375738E+04  0.20699375738E+04  0.25500000920E-02 0.  1.
       -2   -1    0    0    0  501  0.00000000000E+00  0.00000000000E+00 -0.18439739195E+04  0.18439739195E+04  0.25500000920E-02 0. -1.
    10030    2    1    2    0    0  0.00000000000E+00  0.00000000000E+00  0.22596365427E+03  0.39139114934E+04  0.39073832170E+04 0.  0.
        5    1    3    3  502    0 -0.10414665840E+04 -0.74480974822E+03 -0.13651172219E+04  0.18716199737E+04  0.46999998093E+01 0. -1.
       -5    1    3    3    0  502  0.10414665840E+04  0.74480974822E+03  0.15910808762E+04  0.20422915196E+04  0.46999998093E+01 0.  1.
</event>
<event>
 5   0  0.2632875E-08  0.3940299E+04  0.7818609E-02  0.8016700E-01
        1   -1    0    0  501    0  0.00000000000E+00  0.00000000000E+00  0.18968794962E+04  0.18968794962E+04  0.50400001928E-02 0.  1.
       -1   -1    0    0    0  501  0.00000000000E+00  0.00000000000E+00 -0.20462499531E+04  0.20462499531E+04  0.50400001928E-02 0. -1.
    10030    2    1    2    0    0  0.00000000000E+00  0.00000000000E+00 -0.14937045690E+03  0.39431294493E+04  0.39402992679E+04 0.  0.
        4    1    3    3  502    0  0.14691952951E+04  0.73509076192E+03 -0.11629380336E+04  0.20127890417E+04  0.12699999809E+01 0. -1.
       -4    1    3    3    0  502 -0.14691952951E+04 -0.73509076192E+03  0.10135675767E+04  0.19303404075E+04  0.12699999809E+01 0.  1.
</event>
<event>
 5   0  0.2632875E-08  0.3874572E+04  0.7818609E-02  0.8030339E-01
        1   -1    0    0  501    0  0.00000000000E+00  0.00000000000E+00  0.26432074457E+04  0.26432074457E+04  0.50400001928E-02 0. -1.
       -1   -1    0    0    0  501  0.00000000000E+00  0.00000000000E+00 -0.14198947198E+04  0.14198947198E+04  0.50400001928E-02 0.  1.
    10030    2    1    2    0    0  0.00000000000E+00  0.00000000000E+00  0.12233127259E+04  0.40631021655E+04  0.38745716127E+04 0.  0.
        2    1    3    3  502    0 -0.11379039248E+04  0.12878514983E+04  0.15494229177E+04  0.23138924352E+04  0.25500000920E-02 0. -1.
       -2    1    3    3    0  502  0.11379039248E+04 -0.12878514983E+04 -0.32611019176E+03  0.17492097304E+04  0.25500000920E-02 0.  1.
</event>
<event>
 5   0  0.8676098E-08  0.3852448E+04  0.7818609E-02  0.8034992E-01
       -2   -1    0    0    0  501  0.00000000000E+00  0.00000000000E+00  0.13126543849E+04  0.13126543849E+04  0.25500000920E-02 0.  1.
        2   -1    0    0  501    0  0.00000000000E+00  0.00000000000E+00 -0.28265920352E+04  0.28265920352E+04  0.25500000920E-02 0. -1.
    10030    2    1    2    0    0  0.00000000000E+00  0.00000000000E+00 -0.15139376503E+04  0.41392464201E+04  0.38524477566E+04 0.  0.
        3    1    3    3  502    0 -0.18594855673E+04 -0.31724089294E+03 -0.33805886224E+03  0.19164060539E+04  0.10100000352E+00 0. -1.
       -3    1    3    3    0  502  0.18594855673E+04  0.31724089294E+03 -0.11758787880E+04  0.22228403661E+04  0.10100000352E+00 0.  1.
</event>
<event>
 5   0  0.8676098E-08  0.3804951E+04  0.7818609E-02  0.8045093E-01
        2   -1    0    0  501    0  0.00000000000E+00  0.00000000000E+00  0.17034321891E+04  0.17034321891E+04  0.25500000920E-02 0. -1.
       -2   -1    0    0    0  501  0.00000000000E+00  0.00000000000E+00 -0.21247765590E+04  0.21247765590E+04  0.25500000920E-02 0.  1.
    10030    2    1    2    0    0  0.00000000000E+00  0.00000000000E+00 -0.42134436990E+03  0.38282087482E+04  0.38049508724E+04 0.  0.
        3    1    3    3  502    0 -0.13406560301E+04 -0.39117844285E+03 -0.15104798652E+04  0.20571651850E+04  0.10100000352E+00 0.  1.
       -3    1    3    3    0  502  0.13406560301E+04  0.39117844285E+03  0.10891354953E+04  0.17710435631E+04  0.10100000352E+00 0. -1.
</event>
<event>
 5   0  0.2632875E-08  0.3912561E+04  0.7818609E-02  0.8022422E-01
       -1   -1    0    0    0  501  0.00000000000E+00  0.00000000000E+00  0.29278009808E+04  0.29278009808E+04  0.50400001928E-02 0. -1.
        1   -1    0    0  501    0  0.00000000000E+00  0.00000000000E+00 -0.13071357872E+04  0.13071357872E+04  0.50400001928E-02 0.  1.
    10030    2    1    2    0    0  0.00000000000E+00  0.00000000000E+00  0.16206651935E+04  0.42349367680E+04  0.39125610231E+04 0.  0.
        5    1    3    3  502    0 -0.16222230024E+04  0.55476230479E+03  0.18301088403E+04  0.25077258905E+04  0.46999998093E+01 0. -1.
       -5    1    3    3    0  502  0.16222230024E+04 -0.55476230479E+03 -0.20944364673E+03  0.17272108776E+04  0.46999998093E+01 0.  1.
</event>
<event>
 5   0  0.8438211E-08  0.3890656E+04  0.7818609E-02  0.8026975E-01
       -2   -1    0    0    0  501  0.00000000000E+00  0.00000000000E+00  0.15464897114E+04  0.15464897114E+04  0.25500000920E-02 0.  1.
        2   -1    0    0  501    0  0.00000000000E+00  0.00000000000E+00 -0.24470268171E+04  0.24470268171E+04  0.25500000920E-02 0. -1.
    10030    2    1    2    0    0  0.00000000000E+00  0.00000000000E+00 -0.90053710570E+03  0.39935165286E+04  0.38906563951E+04 0.  0.
        5    1    3    3  502    0  0.37947910741E+03 -0.14137775477E+04  0.86481745776E+03  0.17002066559E+04  0.46999998093E+01 0.  1.
       -5    1    3    3    0  502 -0.37947910741E+03  0.14137775477E+04 -0.17653545635E+04  0.22933098727E+04  0.46999998093E+01 0. -1.
</event>
<event>
 5   0  0.8676098E-08  0.3900095E+04  0.7818609E-02  0.8025010E-01
        2   -1    0    0  501    0  0.00000000000E+00  0.00000000000E+00  0.19881598708E+04  0.19881598708E+04  0.25500000920E-02 0. -1.
       -2   -1    0    0    0  501  0.00000000000E+00  0.00000000000E+00 -0.19126654510E+04  0.19126654510E+04  0.25500000920E-02 0.  1.
    10030    2    1    2    0    0  0.00000000000E+00  0.00000000000E+00  0.75494419771E+02  0.39008253217E+04  0.39000947147E+04 0.  0.
        3    1    3    3  502    0 -0.17110885583E+04  0.93502420078E+03  0.13445016075E+02  0.19499423296E+04  0.10100000352E+00 0.  1.
       -3    1    3    3    0  502  0.17110885583E+04 -0.93502420078E+03  0.62049403696E+02  0.19508829921E+04  0.10100000352E+00 0. -1.
</event>
<event>
 5   0  0.2632875E-08  0.3894846E+04  0.7818609E-02  0.8026102E-01
        1   -1    0    0  501    0  0.00000000000E+00  0.00000000000E+00  0.31364396932E+04  0.31364396932E+04  0.50400001928E-02 0.  1.
       -1   -1    0    0    0  501  0.00000000000E+00  0.00000000000E+00 -0.12091596156E+04  0.12091596156E+04  0.50400001928E-02 0. -1.
    10030    2    1    2    0    0  0.00000000000E+00  0.00000000000E+00  0.19272800776E+04  0.43455993088E+04  0.38948459347E+04 0.  0.
        3    1    3    3  502    0  0.90706979211E+03 -0.10821732348E+04  0.24599600336E+04  0.28364199081E+04  0.10100000352E+00 0.  1.
       -3    1    3    3    0  502 -0.90706979211E+03  0.10821732348E+04 -0.53267995602E+03  0.15091794007E+04  0.10100000352E+00 0. -1.
</event>
<event>
 5   0  0.2632875E-08  0.3825124E+04  0.7818609E-02  0.8040785E-01
       -1   -1    0    0    0  501  0.00000000000E+00  0.00000000000E+00  0.28283990862E+04  0.28283990862E+04  0.50400001928E-02 0.  1.
        1   -1    0    0  501    0  0.00000000000E+00  0.00000000000E+00 -0.12932735750E+04  0.12932735750E+04  0.50400001928E-02 0. -1.
    10030    2    1    2    0    0  0.00000000000E+00  0.00000000000E+00  0.15351255112E+04  0.41216726612E+04  0.38251242059E+04 0.  0.
        3    1    3    3  502    0  0.98860887561E+03 -0.77791699426E+03  0.23198710043E+04  0.26389967498E+04  0.10100000352E+00 0.  1.
       -3    1    3    3    0  502 -0.98860887561E+03  0.77791699426E+03 -0.78474549313E+03  0.14826759113E+04  0.10100000352E+00 0. -1.
</event>
<event>
 5   0  0.2632875E-08  0.3832827E+04  0.7818609E-02  0.8039147E-01
       -1   -1    0    0    0  501  0.00000000000E+00  0.00000000000E+00  0.13545259597E+04  0.13545259597E+04  0.50400001928E-02 0.  1.
        1   -1    0    0  501    0  0.00000000000E+00  0.00000000000E+00 -0.27113846180E+04  0.27113846180E+04  0.50400001928E-02 0. -1.
    10030    2    1    2    0    0  0.00000000000E+00  0.00000000000E+00 -0.13568586584E+04  0.40659105777E+04  0.38328270776E+04 0.  0.
        4    1    3    3  502    0 -0.86472405899E+03  0.34280437251E+03 -0.24558447455E+04  0.26261069214E+04  0.12699999809E+01 0. -1.
       -4    1    3    3    0  502  0.86472405899E+03 -0.34280437251E+03  0.10989860871E+04  0.14398036563E+04  0.12699999809E+01 0.  1.
</event>
<event>
 5   0  0.8551754E-08  0.3900928E+04  0.7818609E-02  0.8024836E-01
       -2   -1    0    0    0  501  0.00000000000E+00  0.00000000000E+00  0.17237671763E+04  0.17237671763E+04  0.25500000920E-02 0. -1.
        2   -1    0    0  501    0  0.00000000000E+00  0.00000000000E+00 -0.22069737622E+04  0.22069737622E+04  0.25500000920E-02 0.  1.
    10030    2    1    2    0    0  0.00000000000E+00  0.00000000000E+00 -0.48320658593E+03  0.39307409385E+04  0.39009275462E+04 0.  0.
        1    1    3    3  502    0 -0.92819767763E+03 -0.91319715639E+02  0.14845031733E+04  0.17531799368E+04  0.50400001928E-02 0. -1.
       -1    1    3    3    0  502  0.92819767763E+03  0.91319715639E+02 -0.19677097593E+04  0.21775610017E+04  0.50400001928E-02 0.  1.
</event>
<event>
 5   0  0.2632875E-08  0.3908099E+04  0.7818609E-02  0.8023347E-01
        1   -1    0    0  501    0  0.00000000000E+00  0.00000000000E+00  0.18373308898E+04  0.18373308898E+04  0.50400001928E-02 0. -1.
       -1   -1    0    0    0  501  0.00000000000E+00  0.00000000000E+00 -0.20781830637E+04  0.20781830637E+04  0.50400001928E-02 0.  1.
    10030    2    1    2    0    0  0.00000000000E+00  0.00000000000E+00 -0.24085217391E+03  0.39155139534E+04  0.39080992503E+04 0.  0.
        2    1    3    3  502    0 -0.17031207211E+04  0.68704380264E+03 -0.78927079044E+03  0.19988991365E+04  0.25500000920E-02 0. -1.
       -2    1    3    3    0  502  0.17031207211E+04 -0.68704380264E+03  0.54841861653E+03  0.19166148169E+04  0.25500000920E-02 0.  1.
</event>
<event>
 5   0  0.8476262E-08  0.3899746E+04  0.7818609E-02  0.8025082E-01
        2   -1    0    0  501    0  0.00000000000E+00  0.00000000000E+00  0.21389796329E+04  0.21389796329E+04  0.25500000920E-02 0. -1.
       -2   -1    0    0    0  501  0.00000000000E+00  0.00000000000E+00 -0.17774849624E+04  0.17774849624E+04  0.25500000920E-02 0.  1.
    10030    2    1    2    0    0  0.00000000000E+00  0.00000000000E+00  0.36149467048E+03  0.39164645952E+04  0.38997457005E+04 0.  0.
        2    1    3    3  502    0  0.38919253302E+03 -0.53493142996E+03 -0.16613413968E+04  0.17882051614E+04  0.25500000920E-02 0.  1.
       -2    1    3    3    0  502 -0.38919253302E+03  0.53493142996E+03  0.20228360673E+04  0.21282594338E+04  0.25500000920E-02 0. -1.
</event>
<event>
 5   0  0.8676098E-08  0.3888169E+04  0.7818609E-02  0.8027494E-01
        2   -1    0    0  501    0  0.00000000000E+00  0.00000000000E+00  0.28158286560E+04  0.28158286560E+04  0.25500000920E-02 0.  1.
       -2   -1    0    0    0  501  0.00000000000E+00  0.00000000000E+00 -0.13422208667E+04  0.13422208667E+04  0.25500000920E-02 0. -1.
    10030    2    1    2    0    0  0.00000000000E+00  0.00000000000E+00  0.14736077893E+04  0.41580495227E+04  0.38881687099E+04 0.  0.
        3    1    3    3  502    0  0.18941134070E+04  0.29778483161E+03  0.10802205934E+04  0.22007312296E+04  0.10100000352E+00 0.  1.
       -3    1    3    3    0  502 -0.18941134070E+04 -0.29778483161E+03  0.39338719594E+03  0.19573182931E+04  0.10100000352E+00 0. -1.
</event>
<event>
 5   0  0.2632875E-08  0.3910253E+04  0.7818609E-02  0.8022900E-01
        1   -1    0    0  501    0  0.00000000000E+00  0.00000000000E+00  0.15272152539E+04  0.15272152539E+04  0.50400001928E-02 0.  1.
       -1   -1    0    0    0  501  0.00000000000E+00  0.00000000000E+00 -0.25029339995E+04  0.25029339995E+04  0.50400001928E-02 0. -1.
    10030    2    1    2    0    0  0.00000000000E+00  0.00000000000E+00 -0.97571874556E+03  0.40301492534E+04  0.39102526688E+04 0.  0.
        4    1    3    3  502    0  0.52699804135E+02 -0.13515517079E+04 -0.19429002594E+04  0.23673471058E+04  0.12699999809E+01 0. -1.
       -4    1    3    3    0  502 -0.52699804135E+02  0.13515517079E+04  0.96718151380E+03  0.16628021476E+04  0.12699999809E+01 0.  1.
</event>
<event>
 5   0  0.2632875E-08  0.3953072E+04  0.7818609E-02  0.8014081E-01
        1   -1    0    0  501    0  0.00000000000E+00  0.00000000000E+00  0.22707254330E+04  0.22707254330E+04  0.50400001928E-02 0. -1.
       -1   -1    0    0    0  501  0.00000000000E+00  0.00000000000E+00 -0.17204609261E+04  0.17204609261E+04  0.50400001928E-02 0.  1.
    10030    2    1    2    0    0  0.00000000000E+00  0.00000000000E+00  0.55026450690E+03  0.39911863591E+04  0.39530719100E+04 0.  0.
        1    1    3    3  502    0 -0.19683611357E+04  0.16739707187E+03  0.34077481692E+03  0.20046433139E+04  0.50400001928E-02 0. -1.
       -1    1    3    3    0  502  0.19683611357E+04 -0.16739707187E+03  0.20948968998E+03  0.19865430452E+04  0.50400001928E-02 0.  1.
</event>
<event>
 5   0  0.8676098E-08  0.3897217E+04  0.7818609E-02  0.8025608E-01
       -2   -1    0    0    0  501  0.00000000000E+00  0.00000000000E+00  0.16893627966E+04  0.16893627966E+04  0.25500000920E-02 0. -1.
        2   -1    0    0  501    0  0.00000000000E+00  0.00000000000E+00 -0.22476376837E+04  0.22476376837E+04  0.25500000920E-02 0.  1.
    10030    2    1    2    0    0  0.00000000000E+00  0.00000000000E+00 -0.55827488712E+03  0.39370004804E+04  0.38972172037E+04 0.  0.
        3    1    3    3  502    0  0.13181550973E+04  0.10027597405E+03 -0.17253544923E+04  0.21735768369E+04  0.10100000352E+00 0.  1.
       -3    1    3    3    0  502 -0.13181550973E+04 -0.10027597405E+03  0.11670796052E+04  0.17634236435E+04  0.10100000352E+00 0. -1.
</event>
<event>
 5   0  0.8438211E-08  0.3900977E+04  0.7818609E-02  0.8024826E-01
        2   -1    0    0  501    0  0.00000000000E+00  0.00000000000E+00  0.22324796222E+04  0.22324796222E+04  0.25500000920E-02 0.  1.
       -2   -1    0    0    0  501  0.00000000000E+00  0.00000000000E+00 -0.17041161397E+04  0.17041161397E+04  0.25500000920E-02 0. -1.
    10030    2    1    2    0    0  0.00000000000E+00  0.00000000000E+00  0.52836348249E+03  0.39365957618E+04  0.39009765729E+04 0.  0.
        5    1    3    3  502    0 -0.50375154826E+03 -0.18806955367E+04  0.14649293550E+03  0.19525018808E+04  0.46999998093E+01 0.  1.
       -5    1    3    3    0  502  0.50375154826E+03  0.18806955367E+04  0.38187054699E+03  0.19840938811E+04  0.46999998093E+01 0. -1.
</event>
<event>
 5   0  0.2632875E-08  0.3906749E+04  0.7818609E-02  0.8023627E-01
        1   -1    0    0  501    0  0.00000000000E+00  0.00000000000E+00  0.15290330395E+04  0.15290330395E+04  0.50400001928E-02 0. -1.
       -1   -1    0    0    0  501  0.00000000000E+00  0.00000000000E+00 -0.24954810004E+04  0.24954810004E+04  0.50400001928E-02 0.  1.
    10030    2    1    2    0    0  0.00000000000E+00  0.00000000000E+00 -0.96644796091E+03  0.40245140399E+04  0.39067494924E+04 0.  0.
        3    1    3    3  502    0 -0.97651604316E+03 -0.14212700324E+04  0.46208713669E+03  0.17852497360E+04  0.10100000352E+00 0. -1.
       -3    1    3    3    0  502  0.97651604316E+03  0.14212700324E+04 -0.14285350976E+04  0.22392643039E+04  0.10100000352E+00 0.  1.
</event>
<event>
 5   0  0.2632875E-08  0.3894390E+04  0.7818609E-02  0.8026197E-01
       -1   -1    0    0    0  501  0.00000000000E+00  0.00000000000E+00  0.16665896890E+04  0.16665896891E+04  0.50400001928E-02 0. -1.
        1   -1    0    0  501    0  0.00000000000E+00  0.00000000000E+00 -0.22750465871E+04  0.22750465871E+04  0.50400001928E-02 0.  1.
    10030    2    1    2    0    0  0.00000000000E+00  0.00000000000E+00 -0.60845689804E+03  0.39416362761E+04  0.38943904191E+04 0.  0.
        4    1    3    3  502    0  0.26244681105E+03 -0.92315894235E+03 -0.20190278493E+04  0.22355258510E+04  0.12699999809E+01 0.  1.
       -4    1    3    3    0  502 -0.26244681105E+03  0.92315894235E+03  0.14105709512E+04  0.17061104251E+04  0.12699999809E+01 0. -1.
</event>
<event>
 5   0  0.2632875E-08  0.3905104E+04  0.7818609E-02  0.8023969E-01
        1   -1    0    0  501    0  0.00000000000E+00  0.00000000000E+00  0.18294574767E+04  0.18294574767E+04  0.50400001928E-02 0. -1.
       -1   -1    0    0    0  501  0.00000000000E+00  0.00000000000E+00 -0.20839287756E+04  0.20839287756E+04  0.50400001928E-02 0.  1.
    10030    2    1    2    0    0  0.00000000000E+00  0.00000000000E+00 -0.25447129895E+03  0.39133862523E+04  0.39051038805E+04 0.  0.
        2    1    3    3  502    0  0.90480093362E+03  0.11679803176E+04 -0.14065073937E+04  0.20398788690E+04  0.25500000920E-02 0.  1.
       -2    1    3    3    0  502 -0.90480093362E+03 -0.11679803176E+04  0.11520360947E+04  0.18735073833E+04  0.25500000920E-02 0. -1.
</event>
<event>
 5   0  0.8342802E-08  0.3855349E+04  0.7818609E-02  0.8034380E-01
        2   -1    0    0  501    0  0.00000000000E+00  0.00000000000E+00  0.25253009536E+04  0.25253009536E+04  0.25500000920E-02 0. -1.
       -2   -1    0    0    0  501  0.00000000000E+00  0.00000000000E+00 -0.14714795672E+04  0.14714795672E+04  0.25500000920E-02 0.  1.
    10030    2    1    2    0    0  0.00000000000E+00  0.00000000000E+00  0.10538213864E+04  0.39967805207E+04  0.38553488839E+04 0.  0.
        4    1    3    3  502    0 -0.16836905125E+04 -0.83866755448E+03  0.89840106096E+02  0.18831489231E+04  0.12699999809E+01 0. -1.
       -4    1    3    3    0  502  0.16836905125E+04  0.83866755448E+03  0.96398128031E+03  0.21136315977E+04  0.12699999809E+01 0.  1.
</event>
<event>
 5   0  0.2632875E-08  0.3892784E+04  0.7818609E-02  0.8026532E-01
        1   -1    0    0  501    0  0.00000000000E+00  0.00000000000E+00  0.22449822844E+04  0.22449822845E+04  0.50400001928E-02 0.  1.
       -1   -1    0    0    0  501  0.00000000000E+00  0.00000000000E+00 -0.16875148858E+04  0.16875148858E+04  0.50400001928E-02 0. -1.
    10030    2    1    2    0    0  0.00000000000E+00  0.00000000000E+00  0.55746739861E+03  0.39324971703E+04  0.38927835920E+04 0.  0.
        5    1    3    3  502    0 -0.14867293068E+04 -0.82601987396E+03 -0.67736034607E+03  0.18307135200E+04  0.46999998093E+01 0. -1.
       -5    1    3    3    0  502  0.14867293068E+04  0.82601987396E+03  0.12348277447E+04  0.21017836503E+04  0.46999998093E+01 0.  1.
</event>
<event>
 5   0  0.8438211E-08  0.3903791E+04  0.7818609E-02  0.8024241E-01
        2   -1    0    0  501    0  0.00000000000E+00  0.00000000000E+00  0.17189176275E+04  0.17189176275E+04  0.25500000920E-02 0.  1.
       -2   -1    0    0    0  501  0.00000000000E+00  0.00000000000E+00 -0.22164511298E+04  0.22164511298E+04  0.25500000920E-02 0. -1.
    10030    2    1    2    0    0  0.00000000000E+00  0.00000000000E+00 -0.49753350229E+03  0.39353687572E+04  0.39037914480E+04 0.  0.
        5    1    3    3  502    0 -0.12175858393E+04  0.14049658137E+04 -0.84807589993E+03  0.20434527241E+04  0.46999998093E+01 0. -1.
       -5    1    3    3    0  502  0.12175858393E+04 -0.14049658137E+04  0.35054239764E+03  0.18919160331E+04  0.46999998093E+01 0.  1.
</event>
<event>
 5   0  0.2632875E-08  0.3899313E+04  0.7818609E-02  0.8025172E-01
       -1   -1    0    0    0  501  0.00000000000E+00  0.00000000000E+00  0.17372218672E+04  0.17372218672E+04  0.50400001928E-02 0.  1.
        1   -1    0    0  501    0  0.00000000000E+00  0.00000000000E+00 -0.21880686934E+04  0.21880686934E+04  0.50400001928E-02 0. -1.
    10030    2    1    2    0    0  0.00000000000E+00  0.00000000000E+00 -0.45084682625E+03  0.39252905606E+04  0.38993131606E+04 0.  0.
        2    1    3    3  502    0 -0.17210829093E+04  0.19489512391E+03  0.67555334025E+03  0.18591618557E+04  0.25500000920E-02 0.  1.
       -2    1    3    3    0  502  0.17210829093E+04 -0.19489512391E+03 -0.11264001665E+04  0.20661287049E+04  0.25500000920E-02 0. -1.
</event>
<event>
 5   0  0.8551754E-08  0.3900263E+04  0.7818609E-02  0.8024974E-01
       -2   -1    0    0    0  501  0.00000000000E+00  0.00000000000E+00  0.16735057878E+04  0.16735057878E+04  0.25500000920E-02 0. -1.
        2   -1    0    0  501    0  0.00000000000E+00  0.00000000000E+00 -0.22724828055E+04  0.22724828055E+04  0.25500000920E-02 0.  1.
    10030    2    1    2    0    0  0.00000000000E+00  0.00000000000E+00 -0.59897701773E+03  0.39459885934E+04  0.39002631336E+04 0.  0.
        1    1    3    3  502    0 -0.14632297020E+04  0.50290009648E+03 -0.15004447791E+04  0.21552921387E+04  0.50400001928E-02 0.  1.
       -1    1    3    3    0  502  0.14632297020E+04 -0.50290009648E+03  0.90146776139E+03  0.17906964547E+04  0.50400001928E-02 0. -1.
</event>
<event>
 5   0  0.2632875E-08  0.3897050E+04  0.7818609E-02  0.8025643E-01
        1   -1    0    0  501    0  0.00000000000E+00  0.00000000000E+00  0.20355890141E+04  0.20355890141E+04  0.50400001928E-02 0.  1.
       -1   -1    0    0    0  501  0.00000000000E+00  0.00000000000E+00 -0.18651843603E+04  0.18651843603E+04  0.50400001928E-02 0. -1.
    10030    2    1    2    0    0  0.00000000000E+00  0.00000000000E+00  0.17040465377E+03  0.39007733745E+04  0.38970495471E+04 0.  0.
        5    1    3    3  502    0  0.18526426365E+04  0.22941119727E+03  0.64413761577E+03  0.19748036849E+04  0.46999998093E+01 0. -1.
       -5    1    3    3    0  502 -0.18526426365E+04 -0.22941119727E+03 -0.47373296200E+03  0.19259696896E+04  0.46999998093E+01 0.  1.
</event>
<event>
 5   0  0.2632875E-08  0.3891443E+04  0.7818609E-02  0.8026811E-01
       -1   -1    0    0    0  501  0.00000000000E+00  0.00000000000E+00  0.17971093164E+04  0.17971093164E+04  0.50400001928E-02 0. -1.
        1   -1    0    0  501    0  0.00000000000E+00  0.00000000000E+00 -0.21066233683E+04  0.21066233683E+04  0.50400001928E-02 0.  1.
    10030    2    1    2    0    0  0.00000000000E+00  0.00000000000E+00 -0.30951405188E+03  0.39037326847E+04  0.38914431675E+04 0.  0.
        2    1    3    3  502    0  0.81063751471E+03 -0.42456483164E+03 -0.18772831646E+04  0.20884397422E+04  0.25500000920E-02 0.  1.
       -2    1    3    3    0  502 -0.81063751471E+03  0.42456483164E+03  0.15677691127E+04  0.18152929426E+04  0.25500000920E-02 0. -1.
</event>
<event>
 5   0  0.8476262E-08  0.3933876E+04  0.7818609E-02  0.8018020E-01
       -2   -1    0    0    0  501  0.00000000000E+00  0.00000000000E+00  0.17828781208E+04  0.17828781208E+04  0.25500000920E-02 0. -1.
        2   -1    0    0  501    0  0.00000000000E+00  0.00000000000E+00 -0.21699999646E+04  0.21699999646E+04  0.25500000920E-02 0.  1.
    10030    2    1    2    0    0  0.00000000000E+00  0.00000000000E+00 -0.38712184382E+03  0.39528780854E+04  0.39338761847E+04 0.  0.
        2    1    3    3  502    0 -0.28593853140E+02  0.10559330426E+04  0.14736803879E+04  0.18131591449E+04  0.25500000920E-02 0. -1.
       -2    1    3    3    0  502  0.28593853140E+02 -0.10559330426E+04 -0.18608022318E+04  0.21397189405E+04  0.25500000920E-02 0.  1.
</event>
<event>
 5   0  0.8476262E-08  0.3885767E+04  0.7818609E-02  0.8027996E-01
       -2   -1    0    0    0  501  0.00000000000E+00  0.00000000000E+00  0.23121445800E+04  0.23121445800E+04  0.25500000920E-02 0. -1.
        2   -1    0    0  501    0  0.00000000000E+00  0.00000000000E+00 -0.16325953850E+04  0.16325953850E+04  0.25500000920E-02 0.  1.
    10030    2    1    2    0    0  0.00000000000E+00  0.00000000000E+00  0.67954919498E+03  0.39447399650E+04  0.38857671421E+04 0.  0.
        2    1    3    3  502    0 -0.61059799191E+03 -0.91108209931E+03 -0.12882775668E+04  0.16919100415E+04  0.25500000920E-02 0.  1.
       -2    1    3    3    0  502  0.61059799191E+03  0.91108209931E+03  0.19678267618E+04  0.22528299234E+04  0.25500000920E-02 0. -1.
</event>
<event>
 5   0  0.8342802E-08  0.3912525E+04  0.7818609E-02  0.8022429E-01
       -2   -1    0    0    0  501  0.00000000000E+00  0.00000000000E+00  0.27779398709E+04  0.27779398709E+04  0.25500000920E-02 0.  1.
        2   -1    0    0  501    0  0.00000000000E+00  0.00000000000E+00 -0.13776262654E+04  0.13776262654E+04  0.25500000920E-02 0. -1.
    10030    2    1    2    0    0  0.00000000000E+00  0.00000000000E+00  0.14003136055E+04  0.41555661363E+04  0.39125249801E+04 0.  0.
        4    1    3    3  502    0 -0.13758155278E+04 -0.11638866564E+04  0.15086662643E+04  0.23502289304E+04  0.12699999809E+01 0.  1.
       -4    1    3    3    0  502  0.13758155278E+04  0.11638866564E+04 -0.10835265882E+03  0.18053372059E+04  0.12699999809E+01 0. -1.
</event>
<event>
 5   0  0.8476262E-08  0.3882177E+04  0.7818609E-02  0.8028746E-01
       -2   -1    0    0    0  501  0.00000000000E+00  0.00000000000E+00  0.19210674913E+04  0.19210674913E+04  0.25500000920E-02 0. -1.
        2   -1    0    0  501    0  0.00000000000E+00  0.00000000000E+00 -0.19613179129E+04  0.19613179129E+04  0.25500000920E-02 0.  1.
    10030    2    1    2    0    0  0.00000000000E+00  0.00000000000E+00 -0.40250421613E+02  0.38823854042E+04  0.38821767515E+04 0.  0.
        2    1    3    3  502    0 -0.68902587696E+03  0.92490423996E+03 -0.15814969165E+04  0.19573801392E+04  0.25500000920E-02 0.  1.
       -2    1    3    3    0  502  0.68902587696E+03 -0.92490423996E+03  0.15412464949E+04  0.19250052650E+04  0.25500000920E-02 0. -1.
</event>
<event>
 5   0  0.8476262E-08  0.3939533E+04  0.7818609E-02  0.8016857E-01
        2   -1    0    0  501    0  0.00000000000E+00  0.00000000000E+00  0.19114644498E+04  0.19114644498E+04  0.25500000920E-02 0.  1.
       -2   -1    0    0    0  501  0.00000000000E+00  0.00000000000E+00 -0.20298472396E+04  0.20298472396E+04  0.25500000920E-02 0. -1.
    10030    2    1    2    0    0  0.00000000000E+00  0.00000000000E+00 -0.11838278987E+03  0.39413116894E+04  0.39395333921E+04 0.  0.
        2    1    3    3  502    0 -0.16878617645E+04 -0.38566340298E+02  0.95596666236E+03  0.19401641575E+04  0.25500000920E-02 0.  1.
       -2    1    3    3    0  502  0.16878617645E+04  0.38566340298E+02 -0.10743494522E+04  0.20011475318E+04  0.25500000920E-02 0. -1.
</event>
<event>
 5   0  0.8676098E-08  0.3886726E+04  0.7818609E-02  0.8027796E-01
        2   -1    0    0  501    0  0.00000000000E+00  0.00000000000E+00  0.25777516356E+04  0.25777516356E+04  0.25500000920E-02 0. -1.
       -2   -1    0    0    0  501  0.00000000000E+00  0.00000000000E+00 -0.14650987014E+04  0.14650987014E+04  0.25500000920E-02 0.  1.
    10030    2    1    2    0    0  0.00000000000E+00  0.00000000000E+00  0.11126529342E+04  0.40428503370E+04  0.38867264240E+04 0.  0.
        3    1    3    3  502    0 -0.58276633321E+03 -0.10885109504E+04  0.21173375969E+04  0.24510387998E+04  0.10100000352E+00 0. -1.
       -3    1    3    3    0  502  0.58276633321E+03  0.10885109504E+04 -0.10046846627E+04  0.15918115372E+04  0.10100000352E+00 0.  1.
</event>
<event>
 5   0  0.2632875E-08  0.3895820E+04  0.7818609E-02  0.8025899E-01
       -1   -1    0    0    0  501  0.00000000000E+00  0.00000000000E+00  0.27168155288E+04  0.27168155288E+04  0.50400001928E-02 0.  1.
        1   -1    0    0  501    0  0.00000000000E+00  0.00000000000E+00 -0.13966181543E+04  0.13966181543E+04  0.50400001928E-02 0. -1.
    10030    2    1    2    0    0  0.00000000000E+00  0.00000000000E+00  0.13201973745E+04  0.41134336831E+04  0.38958202676E+04 0.  0.
        4    1    3    3  502    0 -0.16702168277E+04 -0.58205568704E+03 -0.20153541238E+03  0.17801772973E+04  0.12699999809E+01 0. -1.
       -4    1    3    3    0  502  0.16702168277E+04  0.58205568704E+03  0.15217327869E+04  0.23332563858E+04  0.12699999809E+01 0.  1.
</event>
<event>
 5   0  0.2632875E-08  0.3887504E+04  0.7818609E-02  0.8027633E-01
       -1   -1    0    0    0  501  0.00000000000E+00  0.00000000000E+00  0.21396030926E+04  0.21396030926E+04  0.50400001928E-02 0. -1.
        1   -1    0    0  501    0  0.00000000000E+00  0.00000000000E+00 -0.17658284398E+04  0.17658284398E+04  0.50400001928E-02 0.  1.
    10030    2    1    2    0    0  0.00000000000E+00  0.00000000000E+00  0.37377465273E+03  0.39054315324E+04  0.38875040789E+04 0.  0.
        1    1    3    3  502    0 -0.58685175642E+02  0.17331590440E+04  0.10689384313E+04  0.20371336705E+04  0.50400001928E-02 0. -1.
       -1    1    3    3    0  502  0.58685175642E+02 -0.17331590440E+04 -0.69516377860E+03  0.18682978619E+04  0.50400001928E-02 0.  1.
</event>
<event>
 5   0  0.2632875E-08  0.3891007E+04  0.7818609E-02  0.8026902E-01
       -1   -1    0    0    0  501  0.00000000000E+00  0.00000000000E+00  0.18643533001E+04  0.18643533001E+04  0.50400001928E-02 0. -1.
        1   -1    0    0  501    0  0.00000000000E+00  0.00000000000E+00 -0.20301862154E+04  0.20301862154E+04  0.50400001928E-02 0.  1.
    10030    2    1    2    0    0  0.00000000000E+00  0.00000000000E+00 -0.16583291533E+03  0.38945395155E+04  0.38910072580E+04 0.  0.
        3    1    3    3  502    0 -0.32618167439E+03 -0.13725364503E+03  0.18318678579E+04  0.18657365588E+04  0.10100000352E+00 0. -1.
       -3    1    3    3    0  502  0.32618167439E+03  0.13725364503E+03 -0.19977007732E+04  0.20288029567E+04  0.10100000352E+00 0.  1.
</event>
<event>
 5   0  0.2632875E-08  0.3902367E+04  0.7818609E-02  0.8024537E-01
       -1   -1    0    0    0  501  0.00000000000E+00  0.00000000000E+00  0.28651911902E+04  0.28651911902E+04  0.50400001928E-02 0.  1.
        1   -1    0    0  501    0  0.00000000000E+00  0.00000000000E+00 -0.13287478924E+04  0.13287478924E+04  0.50400001928E-02 0. -1.
    10030    2    1    2    0    0  0.00000000000E+00  0.00000000000E+00  0.15364432978E+04  0.41939390826E+04  0.39023668486E+04 0.  0.
        2    1    3    3  502    0  0.16384180041E+04  0.62834571122E+03 -0.14868552227E+03  0.17610619732E+04  0.25500000920E-02 0. -1.
       -2    1    3    3    0  502 -0.16384180041E+04 -0.62834571122E+03  0.16851288201E+04  0.24328771093E+04  0.25500000920E-02 0.  1.
</event>
<event>
 5   0  0.2632875E-08  0.3838583E+04  0.7818609E-02  0.8037925E-01
       -1   -1    0    0    0  501  0.00000000000E+00  0.00000000000E+00  0.26300576566E+04  0.26300576566E+04  0.50400001928E-02 0. -1.
        1   -1    0    0  501    0  0.00000000000E+00  0.00000000000E+00 -0.14006079373E+04  0.14006079373E+04  0.50400001928E-02 0.  1.
    10030    2    1    2    0    0  0.00000000000E+00  0.00000000000E+00  0.12294497193E+04  0.40306655940E+04  0.38385828789E+04 0.  0.
        3    1    3    3  502    0 -0.49282923474E+03 -0.12013737884E+04 -0.86932755089E+03  0.15626612029E+04  0.10100000352E+00 0.  1.
       -3    1    3    3    0  502  0.49282923474E+03  0.12013737884E+04  0.20987772702E+04  0.24680043910E+04  0.10100000352E+00 0. -1.
</event>
<event>
 5   0  0.8342802E-08  0.3910615E+04  0.7818609E-02  0.8022825E-01
        2   -1    0    0  501    0  0.00000000000E+00  0.00000000000E+00  0.21466037303E+04  0.21466037303E+04  0.25500000920E-02 0. -1.
       -2   -1    0    0    0  501  0.00000000000E+00  0.00000000000E+00 -0.17810589783E+04  0.17810589783E+04  0.25500000920E-02 0.  1.
    10030    2    1    2    0    0  0.00000000000E+00  0.00000000000E+00  0.36554475193E+03  0.39276627086E+04  0.39106152185E+04 0.  0.
        4    1    3    3  502    0  0.15540913681E+04 -0.75874949602E+03  0.10990681590E+04  0.20491103458E+04  0.12699999809E+01 0. -1.
       -4    1    3    3    0  502 -0.15540913681E+04  0.75874949602E+03 -0.73352340709E+03  0.18785523628E+04  0.12699999809E+01 0.  1.
</event>
<event>
 5   0  0.8342802E-08  0.3905772E+04  0.7818609E-02  0.8023830E-01
       -2   -1    0    0    0  501  0.00000000000E+00  0.00000000000E+00  0.19337435198E+04  0.19337435198E+04  0.25500000920E-02 0.  1.
        2   -1    0    0  501    0  0.00000000000E+00  0.00000000000E+00 -0.19722180071E+04  0.19722180071E+04  0.25500000920E-02 0. -1.
    10030    2    1    2    0    0  0.00000000000E+00  0.00000000000E+00 -0.38474487282E+02  0.39059615269E+04  0.39057720317E+04 0.  0.
        4    1    3    3  502    0 -0.50081701003E+03  0.15161938821E+04  0.11051395950E+04  0.19419054310E+04  0.12699999809E+01 0. -1.
       -4    1    3    3    0  502  0.50081701003E+03 -0.15161938821E+04 -0.11436140823E+04  0.19640560959E+04  0.12699999809E+01 0.  1.
</event>
<event>
 5   0  0.8476262E-08  0.3893401E+04  0.7818609E-02  0.8026403E-01
        2   -1    0    0  501    0  0.00000000000E+00  0.00000000000E+00  0.16619202550E+04  0.16619202550E+04  0.25500000920E-02 0.  1.
       -2   -1    0    0    0  501  0.00000000000E+00  0.00000000000E+00 -0.22802799135E+04  0.22802799135E+04  0.25500000920E-02 0. -1.
    10030    2    1    2    0    0  0.00000000000E+00  0.00000000000E+00 -0.61835965851E+03  0.39422001685E+04  0.38934012767E+04 0.  0.
        2    1    3    3  502    0  0.29081542286E+03  0.16565309543E+04 -0.13017598782E+04  0.21267927010E+04  0.25500000920E-02 0. -1.
       -2    1    3    3    0  502 -0.29081542286E+03 -0.16565309543E+04  0.68340021970E+03  0.18154074675E+04  0.25500000920E-02 0.  1.
</event>
<event>
 5   0  0.2632875E-08  0.3876945E+04  0.7818609E-02  0.8029841E-01
        1   -1    0    0  501    0  0.00000000000E+00  0.00000000000E+00  0.23416151739E+04  0.23416151739E+04  0.50400001928E-02 0. -1.
       -1   -1    0    0    0  501  0.00000000000E+00  0.00000000000E+00 -0.16047367562E+04  0.16047367562E+04  0.50400001928E-02 0.  1.
    10030    2    1    2    0    0  0.00000000000E+00  0.00000000000E+00  0.73687841773E+03  0.39463519301E+04  0.38769451574E+04 0.  0.
        1    1    3    3  502    0  0.40747211457E+03 -0.98894991698E+03 -0.12771726817E+04  0.16659008138E+04  0.50400001928E-02 0.  1.
       -1    1    3    3    0  502 -0.40747211457E+03  0.98894991698E+03  0.20140510995E+04  0.22804511163E+04  0.50400001928E-02 0. -1.
</event>
<event>
 5   0  0.2632875E-08  0.3905172E+04  0.7818609E-02  0.8023954E-01
        1   -1    0    0  501    0  0.00000000000E+00  0.00000000000E+00  0.35531819457E+04  0.35531819457E+04  0.50400001928E-02 0.  1.
       -1   -1    0    0    0  501  0.00000000000E+00  0.00000000000E+00 -0.10730080662E+04  0.10730080662E+04  0.50400001928E-02 0. -1.
    10030    2    1    2    0    0  0.00000000000E+00  0.00000000000E+00  0.24801738795E+04  0.46261900119E+04  0.39051724102E+04 0.  0.
        3    1    3    3  502    0  0.26111494000E+03 -0.10310126875E+04  0.31799275964E+04  0.33530743658E+04  0.10100000352E+00 0.  1.
       -3    1    3    3    0  502 -0.26111494000E+03  0.10310126875E+04 -0.69975371692E+03  0.12731156461E+04  0.10100000352E+00 0. -1.
</event>
<event>
 5   0  0.2632875E-08  0.3913175E+04  0.7818609E-02  0.8022295E-01
        1   -1    0    0  501    0  0.00000000000E+00  0.00000000000E+00  0.22211628976E+04  0.22211628976E+04  0.50400001928E-02 0.  1.
       -1   -1    0    0    0  501  0.00000000000E+00  0.00000000000E+00 -0.17235267852E+04  0.17235267852E+04  0.50400001928E-02 0. -1.
    10030    2    1    2    0    0  0.00000000000E+00  0.00000000000E+00  0.49763611245E+03  0.39446896828E+04  0.39131745416E+04 0.  0.
        4    1    3    3  502    0 -0.36188530221E+02 -0.11036073900E+04 -0.13794220138E+04  0.17669367805E+04  0.12699999809E+01 0. -1.
       -4    1    3    3    0  502  0.36188530221E+02  0.11036073900E+04  0.18770581263E+04  0.21777529023E+04  0.12699999809E+01 0.  1.
</event>
<event>
 5   0  0.2632875E-08  0.3890511E+04  0.7818609E-02  0.8027006E-01
        1   -1    0    0  501    0  0.00000000000E+00  0.00000000000E+00  0.16056505868E+04  0.16056505869E+04  0.50400001928E-02 0.  1.
       -1   -1    0    0    0  501  0.00000000000E+00  0.00000000000E+00 -0.23566887251E+04  0.23566887251E+04  0.50400001928E-02 0. -1.
    10030    2    1    2    0    0  0.00000000000E+00  0.00000000000E+00 -0.75103813821E+03  0.39623393119E+04  0.38905108325E+04 0.  0.
        4    1    3    3  502    0 -0.18547504578E+04 -0.36112637904E+03 -0.84611651634E+03  0.20703686374E+04  0.12699999809E+01 0.  1.
       -4    1    3    3    0  502  0.18547504578E+04  0.36112637904E+03  0.95078378132E+02  0.18919706745E+04  0.12699999809E+01 0. -1.
</event>
<event>
 5   0  0.8551754E-08  0.3881861E+04  0.7818609E-02  0.8028812E-01
        2   -1    0    0  501    0  0.00000000000E+00  0.00000000000E+00  0.10950704420E+04  0.10950704420E+04  0.25500000920E-02 0. -1.
       -2   -1    0    0    0  501  0.00000000000E+00  0.00000000000E+00 -0.34401550295E+04  0.34401550295E+04  0.25500000920E-02 0.  1.
    10030    2    1    2    0    0  0.00000000000E+00  0.00000000000E+00 -0.23450845874E+04  0.45352254715E+04  0.38818614549E+04 0.  0.
        1    1    3    3  502    0 -0.44064443815E+03 -0.31334584302E+03  0.10053050885E+04  0.11414865129E+04  0.50400001928E-02 0. -1.
       -1    1    3    3    0  502  0.44064443815E+03  0.31334584302E+03 -0.33503896759E+04  0.33937389586E+04  0.50400001928E-02 0.  1.
</event>
<event>
 5   0  0.8476262E-08  0.3898422E+04  0.7818609E-02  0.8025358E-01
        2   -1    0    0  501    0  0.00000000000E+00  0.00000000000E+00  0.21282579873E+04  0.21282579873E+04  0.25500000920E-02 0.  1.
       -2   -1    0    0    0  501  0.00000000000E+00  0.00000000000E+00 -0.17852265234E+04  0.17852265234E+04  0.25500000920E-02 0. -1.
    10030    2    1    2    0    0  0.00000000000E+00  0.00000000000E+00  0.34303146387E+03  0.39134845108E+04  0.38984215307E+04 0.  0.
        2    1    3    3  502    0 -0.87292086901E+03 -0.26938821398E+03 -0.15570147647E+04  0.18052301324E+04  0.25500000920E-02 0. -1.
       -2    1    3    3    0  502  0.87292086901E+03  0.26938821398E+03  0.19000462285E+04  0.21082543784E+04  0.25500000920E-02 0.  1.
</event>
<event>
 5   0  0.8676098E-08  0.3796755E+04  0.7818609E-02  0.8046852E-01
        2   -1    0    0  501    0  0.00000000000E+00  0.00000000000E+00  0.25239480494E+04  0.25239480494E+04  0.25500000920E-02 0. -1.
       -2   -1    0    0    0  501  0.00000000000E+00  0.00000000000E+00 -0.14278569350E+04  0.14278569350E+04  0.25500000920E-02 0.  1.
    10030    2    1    2    0    0  0.00000000000E+00  0.00000000000E+00  0.10960911145E+04  0.39518049844E+04  0.37967547858E+04 0.  0.
        3    1    3    3  502    0  0.13598904619E+04  0.14448772534E+03 -0.82240907353E+03  0.15957867857E+04  0.10100000352E+00 0.  1.
       -3    1    3    3    0  502 -0.13598904619E+04 -0.14448772534E+03  0.19185001880E+04  0.23560181987E+04  0.10100000352E+00 0. -1.
</event>
<event>
 5   0  0.8438211E-08  0.3896758E+04  0.7818609E-02  0.8025704E-01
       -2   -1    0    0    0  501  0.00000000000E+00  0.00000000000E+00  0.21669627800E+04  0.21669627800E+04  0.25500000920E-02 0.  1.
        2   -1    0    0  501    0  0.00000000000E+00  0.00000000000E+00 -0.17518443327E+04  0.17518443327E+04  0.25500000920E-02 0. -1.
    10030    2    1    2    0    0  0.00000000000E+00  0.00000000000E+00  0.41511844723E+03  0.39188071127E+04  0.38967583786E+04 0.  0.
        5    1    3    3  502    0 -0.72855848980E+03 -0.50424633496E+03  0.19526290990E+04  0.21442584564E+04  0.46999998093E+01 0.  1.
       -5    1    3    3    0  502  0.72855848980E+03  0.50424633496E+03 -0.15375106518E+04  0.17745486563E+04  0.46999998093E+01 0. -1.
</event>
<event>
 5   0  0.2632875E-08  0.3904801E+04  0.7818609E-02  0.8024031E-01
        1   -1    0    0  501    0  0.00000000000E+00  0.00000000000E+00  0.14020925064E+04  0.14020925065E+04  0.50400001928E-02 0. -1.
       -1   -1    0    0    0  501  0.00000000000E+00  0.00000000000E+00 -0.27186987121E+04  0.27186987121E+04  0.50400001928E-02 0.  1.
    10030    2    1    2    0    0  0.00000000000E+00  0.00000000000E+00 -0.13166062056E+04  0.41207912185E+04  0.39048006820E+04 0.  0.
        5    1    3    3  502    0 -0.47951404891E+03  0.73727867937E+03 -0.24978010767E+04  0.26481211986E+04  0.46999998093E+01 0.  1.
       -5    1    3    3    0  502  0.47951404891E+03 -0.73727867937E+03  0.11811948710E+04  0.14726700199E+04  0.46999998093E+01 0. -1.
</event>
<event>
 5   0  0.2632875E-08  0.3868495E+04  0.7818609E-02  0.8031614E-01
       -1   -1    0    0    0  501  0.00000000000E+00  0.00000000000E+00  0.18248462919E+04  0.18248462919E+04  0.50400001928E-02 0. -1.
        1   -1    0    0  501    0  0.00000000000E+00  0.00000000000E+00 -0.20502077309E+04  0.20502077309E+04  0.50400001928E-02 0.  1.
    10030    2    1    2    0    0  0.00000000000E+00  0.00000000000E+00 -0.22536143899E+03  0.38750540228E+04  0.38684953020E+04 0.  0.
        2    1    3    3  502    0  0.95585094092E+03  0.10655578156E+04  0.11903896947E+04  0.18617443715E+04  0.25500000920E-02 0. -1.
       -2    1    3    3    0  502 -0.95585094092E+03 -0.10655578156E+04 -0.14157511337E+04  0.20133096513E+04  0.25500000920E-02 0.  1.
</event>
<event>
 5   0  0.2632875E-08  0.3939037E+04  0.7818609E-02  0.8016959E-01
        1   -1    0    0  501    0  0.00000000000E+00  0.00000000000E+00  0.27323002610E+04  0.27323002610E+04  0.50400001928E-02 0.  1.
       -1   -1    0    0    0  501  0.00000000000E+00  0.00000000000E+00 -0.14196841600E+04  0.14196841600E+04  0.50400001928E-02 0. -1.
    10030    2    1    2    0    0  0.00000000000E+00  0.00000000000E+00  0.13126161011E+04  0.41519844210E+04  0.39390371417E+04 0.  0.
        5    1    3    3  502    0 -0.59437051436E+03  0.13844935152E+04  0.19932970426E+04  0.24986704048E+04  0.46999998093E+01 0.  1.
       -5    1    3    3    0  502  0.59437051436E+03 -0.13844935152E+04 -0.68068094154E+03  0.16533140162E+04  0.46999998093E+01 0. -1.
</event>
<event>
 5   0  0.8476262E-08  0.3913874E+04  0.7818609E-02  0.8022150E-01
        2   -1    0    0  501    0  0.00000000000E+00  0.00000000000E+00  0.18616042167E+04  0.18616042167E+04  0.25500000920E-02 0. -1.
       -2   -1    0    0    0  501  0.00000000000E+00  0.00000000000E+00 -0.20571514820E+04  0.20571514820E+04  0.25500000920E-02 0.  1.
    10030    2    1    2    0    0  0.00000000000E+00  0.00000000000E+00 -0.19554726530E+03  0.39187556987E+04  0.39138737197E+04 0.  0.
        2    1    3    3  502    0  0.45606240750E+03  0.33448858474E+03 -0.19735368190E+04  0.20529790814E+04  0.25500000920E-02 0.  1.
       -2    1    3    3    0  502 -0.45606240750E+03 -0.33448858474E+03  0.17779895537E+04  0.18657766173E+04  0.25500000920E-02 0. -1.
</event>
<event>
 5   0  0.8551754E-08  0.3896367E+04  0.7818609E-02  0.8025785E-01
        2   -1    0    0  501    0  0.00000000000E+00  0.00000000000E+00  0.15087290708E+04  0.15087290708E+04  0.25500000920E-02 0. -1.
       -2   -1    0    0    0  501  0.00000000000E+00  0.00000000000E+00 -0.25156400763E+04  0.25156400763E+04  0.25500000920E-02 0.  1.
    10030    2    1    2    0    0  0.00000000000E+00  0.00000000000E+00 -0.10069110055E+04  0.40243691471E+04  0.38963671874E+04 0.  0.
        1    1    3    3  502    0  0.14527932661E+04 -0.39393257011E+03  0.77395613999E+03  0.16925717859E+04  0.50400001928E-02 0. -1.
       -1    1    3    3    0  502 -0.14527932661E+04  0.39393257011E+03 -0.17808671455E+04  0.23317973612E+04  0.50400001928E-02 0.  1.
</event>
<event>
 5   0  0.8551754E-08  0.3905629E+04  0.7818609E-02  0.8023859E-01
        2   -1    0    0  501    0  0.00000000000E+00  0.00000000000E+00  0.11352511230E+04  0.11352511230E+04  0.25500000920E-02 0.  1.
       -2   -1    0    0    0  501  0.00000000000E+00  0.00000000000E+00 -0.33591552870E+04  0.33591552870E+04  0.25500000920E-02 0. -1.
    10030    2    1    2    0    0  0.00000000000E+00  0.00000000000E+00 -0.22239041640E+04  0.44944064100E+04  0.39056291743E+04 0.  0.
        1    1    3    3  502    0 -0.68495238219E+03  0.17812000016E+04 -0.63518609649E+03  0.20112917711E+04  0.50400001928E-02 0.  1.
       -1    1    3    3    0  502  0.68495238219E+03 -0.17812000016E+04 -0.15887180675E+04  0.24831146388E+04  0.50400001928E-02 0. -1.
</event>
<event>
 5   0  0.8676098E-08  0.3924355E+04  0.7818609E-02  0.8019983E-01
       -2   -1    0    0    0  501  0.00000000000E+00  0.00000000000E+00  0.25071776183E+04  0.25071776183E+04  0.25500000920E-02 0.  1.
        2   -1    0    0  501    0  0.00000000000E+00  0.00000000000E+00 -0.15356469198E+04  0.15356469198E+04  0.25500000920E-02 0. -1.
    10030    2    1    2    0    0  0.00000000000E+00  0.00000000000E+00  0.97153069848E+03  0.40428245382E+04  0.39243545136E+04 0.  0.
        3    1    3    3  502    0 -0.98880967735E+03  0.84447004155E+03  0.19995694151E+04  0.23851943496E+04  0.10100000352E+00 0.  1.
       -3    1    3    3    0  502  0.98880967735E+03 -0.84447004155E+03 -0.10280387166E+04  0.16576301886E+04  0.10100000352E+00 0. -1.
</event>
<event>
 5   0  0.2632875E-08  0.3880578E+04  0.7818609E-02  0.8029081E-01
        1   -1    0    0  501    0  0.00000000000E+00  0.00000000000E+00  0.14388468836E+04  0.14388468837E+04  0.50400001928E-02 0.  1.
       -1   -1    0    0    0  501  0.00000000000E+00  0.00000000000E+00 -0.26164850790E+04  0.26164850790E+04  0.50400001928E-02 0. -1.
    10030    2    1    2    0    0  0.00000000000E+00  0.00000000000E+00 -0.11776381953E+04  0.40553319626E+04  0.38805779992E+04 0.  0.
        4    1    3    3  502    0 -0.10987865717E+02  0.19402345849E+04 -0.57897071475E+03  0.20248060843E+04  0.12699999809E+01 0.  1.
       -4    1    3    3    0  502  0.10987865717E+02 -0.19402345849E+04 -0.59866748058E+03  0.20305258784E+04  0.12699999809E+01 0. -1.
</event>
<event>
 5   0  0.8676098E-08  0.3897591E+04  0.7818609E-02  0.8025530E-01
        2   -1    0    0  501    0  0.00000000000E+00  0.00000000000E+00  0.24725602187E+04  0.24725602187E+04  0.25500000920E-02 0.  1.
       -2   -1    0    0    0  501  0.00000000000E+00  0.00000000000E+00 -0.15359801863E+04  0.15359801863E+04  0.25500000920E-02 0. -1.
    10030    2    1    2    0    0  0.00000000000E+00  0.00000000000E+00  0.93658003237E+03  0.40085404050E+04  0.38975907971E+04 0.  0.
        3    1    3    3  502    0  0.12063316334E+04  0.94588109078E+03  0.17058201310E+04  0.22934143492E+04  0.10100000352E+00 0.  1.
       -3    1    3    3    0  502 -0.12063316334E+04 -0.94588109078E+03 -0.76924009866E+03  0.17151260558E+04  0.10100000352E+00 0. -1.
</event>
<event>
 5   0  0.2632875E-08  0.3886414E+04  0.7818609E-02  0.8027861E-01
       -1   -1    0    0    0  501  0.00000000000E+00  0.00000000000E+00  0.22033394913E+04  0.22033394913E+04  0.50400001928E-02 0.  1.
        1   -1    0    0  501    0  0.00000000000E+00  0.00000000000E+00 -0.17137869126E+04  0.17137869126E+04  0.50400001928E-02 0. -1.
    10030    2    1    2    0    0  0.00000000000E+00  0.00000000000E+00  0.48955257876E+03  0.39171264039E+04  0.38864144834E+04 0.  0.
        2    1    3    3  502    0  0.14621298990E+04 -0.71339158293E+03 -0.82630814936E+03  0.18247017701E+04  0.25500000920E-02 0. -1.
       -2    1    3    3    0  502 -0.14621298990E+04  0.71339158293E+03  0.13158607281E+04  0.20924246338E+04  0.25500000920E-02 0.  1.
</event>
<event>
 5   0  0.2632875E-08  0.3844384E+04  0.7818609E-02  0.8036697E-01
        4   -1    0    0  501    0  0.00000000000E+00  0.00000000000E+00  0.15683091709E+04  0.15683096851E+04  0.12699999809E+01 0.  1.
       -4   -1    0    0    0  501  0.00000000000E+00  0.00000000000E+00 -0.23559265895E+04  0.23559269318E+04  0.12699999809E+01 0. -1.
    10030    2    1    2    0    0  0.00000000000E+00  0.00000000000E+00 -0.78761741866E+03  0.39242366169E+04  0.38443844536E+04 0.  0.
        1    1    3    3  502    0  0.66844358382E+03 -0.83659978862E+03  0.12356268797E+04  0.16350809818E+04  0.50400001928E-02 0.  1.
       -1    1    3    3    0  502 -0.66844358382E+03  0.83659978862E+03 -0.20232442984E+04  0.22891556351E+04  0.50400001928E-02 0. -1.
</event>
<event>
 5   0  0.8676098E-08  0.3862998E+04  0.7818609E-02  0.8032769E-01
        2   -1    0    0  501    0  0.00000000000E+00  0.00000000000E+00  0.32988160041E+04  0.32988160041E+04  0.25500000920E-02 0. -1.
       -2   -1    0    0    0  501  0.00000000000E+00  0.00000000000E+00 -0.11309175637E+04  0.11309175637E+04  0.25500000920E-02 0.  1.
    10030    2    1    2    0    0  0.00000000000E+00  0.00000000000E+00  0.21678984404E+04  0.44297335678E+04  0.38629982958E+04 0.  0.
        3    1    3    3  502    0 -0.48397591922E+03  0.66935337630E+03  0.30860717617E+04  0.31946996043E+04  0.10100000352E+00 0. -1.
       -3    1    3    3    0  502  0.48397591922E+03 -0.66935337630E+03 -0.91817332132E+03  0.12350339635E+04  0.10100000352E+00 0.  1.
</event>
<event>
 5   0  0.2632875E-08  0.3951143E+04  0.7818609E-02  0.8014476E-01
        1   -1    0    0  501    0  0.00000000000E+00  0.00000000000E+00  0.21727024448E+04  0.21727024448E+04  0.50400001928E-02 0. -1.
       -1   -1    0    0    0  501  0.00000000000E+00  0.00000000000E+00 -0.17963264437E+04  0.17963264437E+04  0.50400001928E-02 0.  1.
    10030    2    1    2    0    0  0.00000000000E+00  0.00000000000E+00  0.37637600109E+03  0.39690288885E+04  0.39511430528E+04 0.  0.
        2    1    3    3  502    0  0.96178127278E+01  0.16978699326E+04  0.12027242348E+04  0.20807211239E+04  0.25500000920E-02 0. -1.
       -2    1    3    3    0  502 -0.96178127278E+01 -0.16978699326E+04 -0.82634823374E+03  0.18883077646E+04  0.25500000920E-02 0.  1.
</event>
<event>
 5   0  0.2632875E-08  0.3903206E+04  0.7818609E-02  0.8024363E-01
       -1   -1    0    0    0  501  0.00000000000E+00  0.00000000000E+00  0.20365175492E+04  0.20365175492E+04  0.50400001928E-02 0.  1.
        1   -1    0    0  501    0  0.00000000000E+00  0.00000000000E+00 -0.18702289060E+04  0.18702289060E+04  0.50400001928E-02 0. -1.
    10030    2    1    2    0    0  0.00000000000E+00  0.00000000000E+00  0.16628864324E+03  0.39067464552E+04  0.39032058558E+04 0.  0.
        2    1    3    3  502    0 -0.21453356224E+01  0.19445520739E+04 -0.82736569436E+02  0.19463125932E+04  0.25500000920E-02 0.  1.
       -2    1    3    3    0  502  0.21453356224E+01 -0.19445520739E+04  0.24902521268E+03  0.19604338620E+04  0.25500000920E-02 0. -1.
</event>
<event>
 5   0  0.8476262E-08  0.3854562E+04  0.7818609E-02  0.8034546E-01
       -2   -1    0    0    0  501  0.00000000000E+00  0.00000000000E+00  0.12234186392E+04  0.12234186392E+04  0.25500000920E-02 0.  1.
        2   -1    0    0  501    0  0.00000000000E+00  0.00000000000E+00 -0.30360930485E+04  0.30360930485E+04  0.25500000920E-02 0. -1.
    10030    2    1    2    0    0  0.00000000000E+00  0.00000000000E+00 -0.18126744093E+04  0.42595116877E+04  0.38545624011E+04 0.  0.
        2    1    3    3  502    0  0.22278593013E+03  0.19097606106E+04 -0.10529132157E+04  0.21921326147E+04  0.25500000920E-02 0. -1.
       -2    1    3    3    0  502 -0.22278593013E+03 -0.19097606106E+04 -0.75976119353E+03  0.20673790730E+04  0.25500000920E-02 0.  1.
</event>
<event>
 5   0  0.8476262E-08  0.3880081E+04  0.7818609E-02  0.8029185E-01
       -2   -1    0    0    0  501  0.00000000000E+00  0.00000000000E+00  0.16155868420E+04  0.16155868420E+04  0.25500000920E-02 0. -1.
        2   -1    0    0  501    0  0.00000000000E+00  0.00000000000E+00 -0.23296538210E+04  0.23296538210E+04  0.25500000920E-02 0.  1.
    10030    2    1    2    0    0  0.00000000000E+00  0.00000000000E+00 -0.71406697898E+03  0.39452406631E+04  0.38800814732E+04 0.  0.
        2    1    3    3  502    0 -0.44167021775E+03  0.10499284804E+04 -0.19538637252E+04  0.22616378693E+04  0.25500000920E-02 0.  1.
       -2    1    3    3    0  502  0.44167021775E+03 -0.10499284804E+04  0.12397967462E+04  0.16836027938E+04  0.25500000920E-02 0. -1.
</event>
<event>
 5   0  0.2632875E-08  0.3893872E+04  0.7818609E-02  0.8026305E-01
       -1   -1    0    0    0  501  0.00000000000E+00  0.00000000000E+00  0.20180801812E+04  0.20180801813E+04  0.50400001928E-02 0. -1.
        1   -1    0    0  501    0  0.00000000000E+00  0.00000000000E+00 -0.18783002183E+04  0.18783002183E+04  0.50400001928E-02 0.  1.
    10030    2    1    2    0    0  0.00000000000E+00  0.00000000000E+00  0.13977996298E+03  0.38963803995E+04  0.38938723374E+04 0.  0.
        3    1    3    3  502    0 -0.18303512274E+04 -0.62424792178E+03  0.29517795429E+03  0.19562722506E+04  0.10100000352E+00 0.  1.
       -3    1    3    3    0  502  0.18303512274E+04  0.62424792178E+03 -0.15539799131E+03  0.19401081489E+04  0.10100000352E+00 0. -1.
</event>
<event>
 5   0  0.8342802E-08  0.3890275E+04  0.7818609E-02  0.8027055E-01
        2   -1    0    0  501    0  0.00000000000E+00  0.00000000000E+00  0.28293209196E+04  0.28293209196E+04  0.25500000920E-02 0. -1.
       -2   -1    0    0    0  501  0.00000000000E+00  0.00000000000E+00 -0.13372677870E+04  0.13372677870E+04  0.25500000920E-02 0.  1.
    10030    2    1    2    0    0  0.00000000000E+00  0.00000000000E+00  0.14920531326E+04  0.41665887066E+04  0.38902749131E+04 0.  0.
        4    1    3    3  502    0  0.81990881951E+02 -0.13450582412E+04 -0.75633580995E+03  0.15452992096E+04  0.12699999809E+01 0.  1.
       -4    1    3    3    0  502 -0.81990881951E+02  0.13450582412E+04  0.22483889426E+04  0.26212894970E+04  0.12699999809E+01 0. -1.
</event>
<event>
 5   0  0.2632875E-08  0.3879869E+04  0.7818609E-02  0.8029229E-01
       -1   -1    0    0    0  501  0.00000000000E+00  0.00000000000E+00  0.20679208631E+04  0.20679208631E+04  0.50400001928E-02 0.  1.
        1   -1    0    0  501    0  0.00000000000E+00  0.00000000000E+00 -0.18198694703E+04  0.18198694703E+04  0.50400001928E-02 0. -1.
    10030    2    1    2    0    0  0.00000000000E+00  0.00000000000E+00  0.24805139283E+03  0.38877903334E+04  0.38798690936E+04 0.  0.
        1    1    3    3  502    0 -0.14272356865E+04 -0.59253897597E+03 -0.10510756155E+04  0.18689205688E+04  0.50400001928E-02 0. -1.
       -1    1    3    3    0  502  0.14272356865E+04  0.59253897597E+03  0.12991270084E+04  0.20188697647E+04  0.50400001928E-02 0.  1.
</event>
<event>
 5   0  0.8476262E-08  0.3899390E+04  0.7818609E-02  0.8025156E-01
       -2   -1    0    0    0  501  0.00000000000E+00  0.00000000000E+00  0.18504754700E+04  0.18504754700E+04  0.25500000920E-02 0. -1.
        2   -1    0    0  501    0  0.00000000000E+00  0.00000000000E+00 -0.20542341766E+04  0.20542341766E+04  0.25500000920E-02 0.  1.
    10030    2    1    2    0    0  0.00000000000E+00  0.00000000000E+00 -0.20375870659E+03  0.39047096466E+04  0.38993896719E+04 0.  0.
        2    1    3    3  502    0  0.31154906328E+03  0.10088592276E+04 -0.17431549222E+04  0.20380011881E+04  0.25500000920E-02 0.  1.
       -2    1    3    3    0  502 -0.31154906328E+03 -0.10088592276E+04  0.15393962156E+04  0.18667084584E+04  0.25500000920E-02 0. -1.
</event>
<event>
 5   0  0.2632875E-08  0.3883464E+04  0.7818609E-02  0.8028477E-01
        1   -1    0    0  501    0  0.00000000000E+00  0.00000000000E+00  0.15021819414E+04  0.15021819414E+04  0.50400001928E-02 0.  1.
       -1   -1    0    0    0  501  0.00000000000E+00  0.00000000000E+00 -0.25098976792E+04  0.25098976792E+04  0.50400001928E-02 0. -1.
    10030    2    1    2    0    0  0.00000000000E+00  0.00000000000E+00 -0.10077157378E+04  0.40120796206E+04  0.38834639014E+04 0.  0.
        5    1    3    3  502    0 -0.83657952055E+03 -0.20901573124E+03  0.12935159164E+04  0.15545926753E+04  0.46999998093E+01 0.  1.
       -5    1    3    3    0  502  0.83657952055E+03  0.20901573124E+03 -0.23012316542E+04  0.24574869453E+04  0.46999998093E+01 0. -1.
</event>
<event>
 5   0  0.8551754E-08  0.3911697E+04  0.7818609E-02  0.8022601E-01
        2   -1    0    0  501    0  0.00000000000E+00  0.00000000000E+00  0.25310690140E+04  0.25310690140E+04  0.25500000920E-02 0. -1.
       -2   -1    0    0    0  501  0.00000000000E+00  0.00000000000E+00 -0.15113552032E+04  0.15113552032E+04  0.25500000920E-02 0.  1.
    10030    2    1    2    0    0  0.00000000000E+00  0.00000000000E+00  0.10197138107E+04  0.40424242172E+04  0.39116974955E+04 0.  0.
        1    1    3    3  502    0  0.11288804969E+04 -0.15803383654E+04  0.74889599834E+03  0.20815104472E+04  0.50400001928E-02 0. -1.
       -1    1    3    3    0  502 -0.11288804969E+04  0.15803383654E+04  0.27081781237E+03  0.19609137699E+04  0.50400001928E-02 0.  1.
</event>
<event>
 5   0  0.2632875E-08  0.3902003E+04  0.7818609E-02  0.8024613E-01
       -1   -1    0    0    0  501  0.00000000000E+00  0.00000000000E+00  0.12887367567E+04  0.12887367567E+04  0.50400001928E-02 0.  1.
        1   -1    0    0  501    0  0.00000000000E+00  0.00000000000E+00 -0.29535953833E+04  0.29535953833E+04  0.50400001928E-02 0. -1.
    10030    2    1    2    0    0  0.00000000000E+00  0.00000000000E+00 -0.16648586265E+04  0.42423321400E+04  0.39020030420E+04 0.  0.
        2    1    3    3  502    0 -0.19021132899E+04  0.28618342246E+03 -0.11871877745E+04  0.22603872967E+04  0.25500000920E-02 0. -1.
       -2    1    3    3    0  502  0.19021132899E+04 -0.28618342246E+03 -0.47767085206E+03  0.19819448433E+04  0.25500000920E-02 0.  1.
</event>
<event>
 5   0  0.2632875E-08  0.3922792E+04  0.7818609E-02  0.8020306E-01
       -1   -1    0    0    0  501  0.00000000000E+00  0.00000000000E+00  0.28219183152E+04  0.28219183152E+04  0.50400001928E-02 0.  1.
        1   -1    0    0  501    0  0.00000000000E+00  0.00000000000E+00 -0.13632833954E+04  0.13632833955E+04  0.50400001928E-02 0. -1.
    10030    2    1    2    0    0  0.00000000000E+00  0.00000000000E+00  0.14586349198E+04  0.41852017107E+04  0.39227920579E+04 0.  0.
        3    1    3    3  502    0  0.10504187714E+04  0.76589107348E+03 -0.83763858465E+03  0.15464821824E+04  0.10100000352E+00 0. -1.
       -3    1    3    3    0  502 -0.10504187714E+04 -0.76589107348E+03  0.22962735044E+04  0.26387195283E+04  0.10100000352E+00 0.  1.
</event>
<event>
 5   0  0.2632875E-08  0.3896328E+04  0.7818609E-02  0.8025793E-01
       -1   -1    0    0    0  501  0.00000000000E+00  0.00000000000E+00  0.16782786512E+04  0.16782786512E+04  0.50400001928E-02 0.  1.
        1   -1    0    0  501    0  0.00000000000E+00  0.00000000000E+00 -0.22614502552E+04  0.22614502552E+04  0.50400001928E-02 0. -1.
    10030    2    1    2    0    0  0.00000000000E+00  0.00000000000E+00 -0.58317160399E+03  0.39397289063E+04  0.38963283660E+04 0.  0.
        4    1    3    3  502    0 -0.15420771031E+03  0.11683853172E+04 -0.18601348715E+04  0.22020462348E+04  0.12699999809E+01 0. -1.
       -4    1    3    3    0  502  0.15420771031E+03 -0.11683853172E+04  0.12769632675E+04  0.17376826715E+04  0.12699999809E+01 0.  1.
</event>
<event>
 5   0  0.2632875E-08  0.3946045E+04  0.7818609E-02  0.8015520E-01
       -1   -1    0    0    0  501  0.00000000000E+00  0.00000000000E+00  0.24992021236E+04  0.24992021236E+04  0.50400001928E-02 0.  1.
        1   -1    0    0  501    0  0.00000000000E+00  0.00000000000E+00 -0.15576242585E+04  0.15576242585E+04  0.50400001928E-02 0. -1.
    10030    2    1    2    0    0  0.00000000000E+00  0.00000000000E+00  0.94157786509E+03  0.40568263821E+04  0.39460450350E+04 0.  0.
        4    1    3    3  502    0 -0.14873807258E+04 -0.65808836321E+03  0.16190304987E+04  0.22949167928E+04  0.12699999809E+01 0.  1.
       -4    1    3    3    0  502  0.14873807258E+04  0.65808836321E+03 -0.67745263366E+03  0.17619095893E+04  0.12699999809E+01 0. -1.
</event>
<event>
 5   0  0.8476262E-08  0.3911749E+04  0.7818609E-02  0.8022590E-01
       -2   -1    0    0    0  501  0.00000000000E+00  0.00000000000E+00  0.18415219863E+04  0.18415219863E+04  0.25500000920E-02 0.  1.
        2   -1    0    0  501    0  0.00000000000E+00  0.00000000000E+00 -0.20773279087E+04  0.20773279087E+04  0.25500000920E-02 0. -1.
    10030    2    1    2    0    0  0.00000000000E+00  0.00000000000E+00 -0.23580592242E+03  0.39188498950E+04  0.39117489779E+04 0.  0.
        2    1    3    3  502    0  0.10380023216E+04  0.12107132073E+04  0.10164818694E+04  0.18911664868E+04  0.25500000920E-02 0.  1.
       -2    1    3    3    0  502 -0.10380023216E+04 -0.12107132073E+04 -0.12522877918E+04  0.20276834081E+04  0.25500000920E-02 0. -1.
</event>
<event>
 5   0  0.8476262E-08  0.3928817E+04  0.7818609E-02  0.8019062E-01
        2   -1    0    0  501    0  0.00000000000E+00  0.00000000000E+00  0.19525934438E+04  0.19525934438E+04  0.25500000920E-02 0. -1.
       -2   -1    0    0    0  501  0.00000000000E+00  0.00000000000E+00 -0.19762954359E+04  0.19762954359E+04  0.25500000920E-02 0.  1.
    10030    2    1    2    0    0  0.00000000000E+00  0.00000000000E+00 -0.23701992097E+02  0.39288888796E+04  0.39288173849E+04 0.  0.
        2    1    3    3  502    0  0.32389905677E+03 -0.16064605314E+04 -0.10950491195E+04  0.19709790999E+04  0.25500000920E-02 0.  1.
       -2    1    3    3    0  502 -0.32389905677E+03  0.16064605314E+04  0.10713471275E+04  0.19579097797E+04  0.25500000920E-02 0. -1.
</event>
<event>
 5   0  0.8342802E-08  0.3898508E+04  0.7818609E-02  0.8025339E-01
       -2   -1    0    0    0  501  0.00000000000E+00  0.00000000000E+00  0.27091956738E+04  0.27091956738E+04  0.25500000920E-02 0.  1.
        2   -1    0    0  501    0  0.00000000000E+00  0.00000000000E+00 -0.14024797687E+04  0.14024797688E+04  0.25500000920E-02 0. -1.
    10030    2    1    2    0    0  0.00000000000E+00  0.00000000000E+00  0.13067159050E+04  0.41116754425E+04  0.38985084953E+04 0.  0.
        4    1    3    3  502    0  0.18399135683E+04  0.49905379932E+03  0.10821000893E+04  0.21920946260E+04  0.12699999809E+01 0. -1.
       -4    1    3    3    0  502 -0.18399135683E+04 -0.49905379932E+03  0.22461581575E+03  0.19195808165E+04  0.12699999809E+01 0.  1.
</event>
<event>
 5   0  0.8438211E-08  0.3896531E+04  0.7818609E-02  0.8025751E-01
       -2   -1    0    0    0  501  0.00000000000E+00  0.00000000000E+00  0.24326302053E+04  0.24326302053E+04  0.25500000920E-02 0.  1.
        2   -1    0    0  501    0  0.00000000000E+00  0.00000000000E+00 -0.15603429918E+04  0.15603429918E+04  0.25500000920E-02 0. -1.
    10030    2    1    2    0    0  0.00000000000E+00  0.00000000000E+00  0.87228721348E+03  0.39929731972E+04  0.38965305042E+04 0.  0.
        5    1    3    3  502    0 -0.78560519400E+03  0.56638439266E+03 -0.12961851907E+04  0.16180497334E+04  0.46999998093E+01 0. -1.
       -5    1    3    3    0  502  0.78560519400E+03 -0.56638439266E+03  0.21684724042E+04  0.23749234638E+04  0.46999998093E+01 0.  1.
</event>
<event>
 5   0  0.8476262E-08  0.3903116E+04  0.7818609E-02  0.8024381E-01
        2   -1    0    0  501    0  0.00000000000E+00  0.00000000000E+00  0.31368357413E+04  0.31368357413E+04  0.25500000920E-02 0.  1.
       -2   -1    0    0    0  501  0.00000000000E+00  0.00000000000E+00 -0.12141468039E+04  0.12141468039E+04  0.25500000920E-02 0. -1.
    10030    2    1    2    0    0  0.00000000000E+00  0.00000000000E+00  0.19226889374E+04  0.43509825453E+04  0.39031162369E+04 0.  0.
        2    1    3    3  502    0 -0.35873558062E+03 -0.18442357636E+04  0.15498229214E+04  0.24355385146E+04  0.25500000920E-02 0.  1.
       -2    1    3    3    0  502  0.35873558062E+03  0.18442357636E+04  0.37286601606E+03  0.19154440306E+04  0.25500000920E-02 0. -1.
</event>
<event>
 5   0  0.8551754E-08  0.3889988E+04  0.7818609E-02  0.8027115E-01
       -2   -1    0    0    0  501  0.00000000000E+00  0.00000000000E+00  0.12030007614E+04  0.12030007614E+04  0.25500000920E-02 0.  1.
        2   -1    0    0  501    0  0.00000000000E+00  0.00000000000E+00 -0.31446376922E+04  0.31446376922E+04  0.25500000920E-02 0. -1.
    10030    2    1    2    0    0  0.00000000000E+00  0.00000000000E+00 -0.19416369308E+04  0.43476384536E+04  0.38899879372E+04 0.  0.
        1    1    3    3  502    0 -0.79286100687E+02 -0.12302054394E+04 -0.26522421920E+04  0.29247359460E+04  0.50400001928E-02 0. -1.
       -1    1    3    3    0  502  0.79286100687E+02  0.12302054394E+04  0.71060526118E+03  0.14229025076E+04  0.50400001928E-02 0.  1.
</event>
<event>
 5   0  0.8342802E-08  0.3918887E+04  0.7818609E-02  0.8021112E-01
       -2   -1    0    0    0  501  0.00000000000E+00  0.00000000000E+00  0.17921193583E+04  0.17921193583E+04  0.25500000920E-02 0.  1.
        2   -1    0    0  501    0  0.00000000000E+00  0.00000000000E+00 -0.21423906374E+04  0.21423906374E+04  0.25500000920E-02 0. -1.
    10030    2    1    2    0    0  0.00000000000E+00  0.00000000000E+00 -0.35027127909E+03  0.39345099957E+04  0.39188874617E+04 0.  0.
        4    1    3    3  502    0  0.12131105126E+04 -0.10077843231E+04  0.99232051884E+03  0.18633217603E+04  0.12699999809E+01 0.  1.
       -4    1    3    3    0  502 -0.12131105126E+04  0.10077843231E+04 -0.13425917979E+04  0.20711882354E+04  0.12699999809E+01 0. -1.
</event>
<event>
 5   0  0.8342802E-08  0.3901293E+04  0.7818609E-02  0.8024760E-01
        2   -1    0    0  501    0  0.00000000000E+00  0.00000000000E+00  0.24781042048E+04  0.24781042048E+04  0.25500000920E-02 0. -1.
       -2   -1    0    0    0  501  0.00000000000E+00  0.00000000000E+00 -0.15354568461E+04  0.15354568461E+04  0.25500000920E-02 0.  1.
    10030    2    1    2    0    0  0.00000000000E+00  0.00000000000E+00  0.94264735868E+03  0.40135610509E+04  0.39012931531E+04 0.  0.
        4    1    3    3  502    0  0.76957001945E+03  0.38615609119E+03  0.22720262732E+04  0.24297035911E+04  0.12699999809E+01 0. -1.
       -4    1    3    3    0  502 -0.76957001945E+03 -0.38615609119E+03 -0.13293789145E+04  0.15838574598E+04  0.12699999809E+01 0.  1.
</event>
<event>
 5   0  0.8438211E-08  0.3916970E+04  0.7818609E-02  0.8021509E-01
        2   -1    0    0  501    0  0.00000000000E+00  0.00000000000E+00  0.18406818822E+04  0.18406818822E+04  0.25500000920E-02 0.  1.
       -2   -1    0    0    0  501  0.00000000000E+00  0.00000000000E+00 -0.20838279584E+04  0.20838279584E+04  0.25500000920E-02 0. -1.
    10030    2    1    2    0    0  0.00000000000E+00  0.00000000000E+00 -0.24314607626E+03  0.39245098406E+04  0.39169704460E+04 0.  0.
        5    1    3    3  502    0 -0.10430503225E+04 -0.15522647953E+04  0.46106351500E+03  0.19261572170E+04  0.46999998093E+01 0.  1.
       -5    1    3    3    0  502  0.10430503225E+04  0.15522647953E+04 -0.70420959126E+03  0.19983526236E+04  0.46999998093E+01 0. -1.
</event>
<event>
 5   0  0.2632875E-08  0.3901930E+04  0.7818609E-02  0.8024628E-01
        1   -1    0    0  501    0  0.00000000000E+00  0.00000000000E+00  0.20489642462E+04  0.20489642462E+04  0.50400001928E-02 0.  1.
       -1   -1    0    0    0  501  0.00000000000E+00  0.00000000000E+00 -0.18576525153E+04  0.18576525153E+04  0.50400001928E-02 0. -1.
    10030    2    1    2    0    0  0.00000000000E+00  0.00000000000E+00  0.19131173086E+03  0.39066167615E+04  0.39019295666E+04 0.  0.
        4    1    3    3  502    0 -0.13722983310E+04 -0.95801424315E+03 -0.90817907191E+03  0.19041493741E+04  0.12699999809E+01 0. -1.
       -4    1    3    3    0  502  0.13722983310E+04  0.95801424315E+03  0.10994908028E+04  0.20024673874E+04  0.12699999809E+01 0.  1.
</event>
<event>
 5   0  0.8438211E-08  0.3941795E+04  0.7818609E-02  0.8016392E-01
       -2   -1    0    0    0  501  0.00000000000E+00  0.00000000000E+00  0.12667593892E+04  0.12667593892E+04  0.25500000920E-02 0.  1.
        2   -1    0    0  501    0  0.00000000000E+00  0.00000000000E+00 -0.30664355137E+04  0.30664355137E+04  0.25500000920E-02 0. -1.
    10030    2    1    2    0    0  0.00000000000E+00  0.00000000000E+00 -0.17996761245E+04  0.43331949030E+04  0.39417945043E+04 0.  0.
        5    1    3    3  502    0  0.31019852775E+03  0.69261268542E+03  0.10996941167E+04  0.13361454632E+04  0.46999998093E+01 0.  1.
       -5    1    3    3    0  502 -0.31019852775E+03 -0.69261268542E+03 -0.28993702412E+04  0.29970494397E+04  0.46999998093E+01 0. -1.
</event>
<event>
 5   0  0.8676098E-08  0.3902602E+04  0.7818609E-02  0.8024488E-01
        2   -1    0    0  501    0  0.00000000000E+00  0.00000000000E+00  0.21673038058E+04  0.21673038058E+04  0.25500000920E-02 0. -1.
       -2   -1    0    0    0  501  0.00000000000E+00  0.00000000000E+00 -0.17568260473E+04  0.17568260473E+04  0.25500000920E-02 0.  1.
    10030    2    1    2    0    0  0.00000000000E+00  0.00000000000E+00  0.41047775849E+03  0.39241298531E+04  0.39026020952E+04 0.  0.
        3    1    3    3  502    0 -0.83498047488E+03  0.16348961540E+04 -0.45984604451E+03  0.18924947087E+04  0.10100000352E+00 0.  1.
       -3    1    3    3    0  502  0.83498047488E+03 -0.16348961540E+04  0.87032380300E+03  0.20316351444E+04  0.10100000352E+00 0. -1.
</event>
<event>
 5   0  0.2632875E-08  0.3933365E+04  0.7818609E-02  0.8018126E-01
        1   -1    0    0  501    0  0.00000000000E+00  0.00000000000E+00  0.18642261087E+04  0.18642261087E+04  0.50400001928E-02 0.  1.
       -1   -1    0    0    0  501  0.00000000000E+00  0.00000000000E+00 -0.20747696467E+04  0.20747696468E+04  0.50400001928E-02 0. -1.
    10030    2    1    2    0    0  0.00000000000E+00  0.00000000000E+00 -0.21054353803E+03  0.39389957555E+04  0.39333648420E+04 0.  0.
        2    1    3    3  502    0  0.18831741472E+04 -0.30061555500E+03 -0.58671479262E+03  0.19952315225E+04  0.25500000920E-02 0.  1.
       -2    1    3    3    0  502 -0.18831741472E+04  0.30061555500E+03  0.37617125458E+03  0.19437642330E+04  0.25500000920E-02 0. -1.
</event>
<event>
 5   0  0.2632875E-08  0.3920212E+04  0.7818609E-02  0.8020839E-01
        1   -1    0    0  501    0  0.00000000000E+00  0.00000000000E+00  0.16079899939E+04  0.16079899939E+04  0.50400001928E-02 0. -1.
       -1   -1    0    0    0  501  0.00000000000E+00  0.00000000000E+00 -0.23893284605E+04  0.23893284605E+04  0.50400001928E-02 0.  1.
    10030    2    1    2    0    0  0.00000000000E+00  0.00000000000E+00 -0.78133846654E+03  0.39973184544E+04  0.39202123701E+04 0.  0.
        1    1    3    3  502    0 -0.13919121505E+04 -0.13685567928E+04 -0.20926808965E+03  0.19632015340E+04  0.50400001928E-02 0. -1.
       -1    1    3    3    0  502  0.13919121505E+04  0.13685567928E+04 -0.57207037689E+03  0.20341169204E+04  0.50400001928E-02 0.  1.
</event>
<event>
 5   0  0.2632875E-08  0.3970181E+04  0.7818609E-02  0.8010589E-01
        3   -1    0    0  501    0  0.00000000000E+00  0.00000000000E+00  0.22630529032E+04  0.22630529055E+04  0.10100000352E+00 0. -1.
       -3   -1    0    0    0  501  0.00000000000E+00  0.00000000000E+00 -0.17412692911E+04  0.17412692940E+04  0.10100000352E+00 0.  1.
    10030    2    1    2    0    0  0.00000000000E+00  0.00000000000E+00  0.52178361212E+03  0.40043221995E+04  0.39701811217E+04 0.  0.
        2    1    3    3  502    0  0.55193650331E+02  0.17754947934E+04 -0.63281855306E+03  0.18857060804E+04  0.25500000920E-02 0.  1.
       -2    1    3    3    0  502 -0.55193650331E+02 -0.17754947934E+04  0.11546021652E+04  0.21186161191E+04  0.25500000920E-02 0. -1.
</event>
<event>
 5   0  0.2632875E-08  0.3902090E+04  0.7818609E-02  0.8024595E-01
        1   -1    0    0  501    0  0.00000000000E+00  0.00000000000E+00  0.15821252332E+04  0.15821252332E+04  0.50400001928E-02 0. -1.
       -1   -1    0    0    0  501  0.00000000000E+00  0.00000000000E+00 -0.24059897306E+04  0.24059897306E+04  0.50400001928E-02 0.  1.
    10030    2    1    2    0    0  0.00000000000E+00  0.00000000000E+00 -0.82386449737E+03  0.39881149638E+04  0.39020902417E+04 0.  0.
        5    1    3    3  502    0 -0.80928261072E+03 -0.10544037438E+04  0.10477872524E+04  0.16925087342E+04  0.46999998093E+01 0. -1.
       -5    1    3    3    0  502  0.80928261072E+03  0.10544037438E+04 -0.18716517497E+04  0.22956062296E+04  0.46999998093E+01 0.  1.
</event>
<event>
 5   0  0.8551754E-08  0.3913278E+04  0.7818609E-02  0.8022273E-01
        2   -1    0    0  501    0  0.00000000000E+00  0.00000000000E+00  0.20838940166E+04  0.20838940166E+04  0.25500000920E-02 0.  1.
       -2   -1    0    0    0  501  0.00000000000E+00  0.00000000000E+00 -0.18371548382E+04  0.18371548382E+04  0.25500000920E-02 0. -1.
    10030    2    1    2    0    0  0.00000000000E+00  0.00000000000E+00  0.24673917833E+03  0.39210488548E+04  0.39132778971E+04 0.  0.
        1    1    3    3  502    0 -0.33950458564E+03  0.14943545015E+04 -0.10956305437E+04  0.18838166122E+04  0.50400001928E-02 0. -1.
       -1    1    3    3    0  502  0.33950458564E+03 -0.14943545015E+04  0.13423697221E+04  0.20372322427E+04  0.50400001928E-02 0.  1.
</event>
<event>
 5   0  0.8551754E-08  0.3893951E+04  0.7818609E-02  0.8026289E-01
        2   -1    0    0  501    0  0.00000000000E+00  0.00000000000E+00  0.33825678014E+04  0.33825678014E+04  0.25500000920E-02 0.  1.
       -2   -1    0    0    0  501  0.00000000000E+00  0.00000000000E+00 -0.11206612544E+04  0.11206612544E+04  0.25500000920E-02 0. -1.
    10030    2    1    2    0    0  0.00000000000E+00  0.00000000000E+00  0.22619065470E+04  0.45032290558E+04  0.38939505263E+04 0.  0.
        1    1    3    3  502    0 -0.19154041494E+04  0.19097368914E+03  0.14690469758E+04  0.24214340839E+04  0.50400001928E-02 0.  1.
       -1    1    3    3    0  502  0.19154041494E+04 -0.19097368914E+03  0.79285957121E+03  0.20817949719E+04  0.50400001928E-02 0. -1.
</event>
<event>
 5   0  0.2632875E-08  0.3903271E+04  0.7818609E-02  0.8024349E-01
        1   -1    0    0  501    0  0.00000000000E+00  0.00000000000E+00  0.13051165122E+04  0.13051165122E+04  0.50400001928E-02 0. -1.
       -1   -1    0    0    0  501  0.00000000000E+00  0.00000000000E+00 -0.29184215599E+04  0.29184215599E+04  0.50400001928E-02 0.  1.
    10030    2    1    2    0    0  0.00000000000E+00  0.00000000000E+00 -0.16133050477E+04  0.42235380721E+04  0.39032705094E+04 0.  0.
        1    1    3    3  502    0  0.58206016148E+03  0.14775880667E+04  0.42080537088E+03  0.16429052579E+04  0.50400001928E-02 0. -1.
       -1    1    3    3    0  502 -0.58206016148E+03 -0.14775880667E+04 -0.20341104186E+04  0.25806328142E+04  0.50400001928E-02 0.  1.
</event>
<event>
 5   0  0.8476262E-08  0.3885362E+04  0.7818609E-02  0.8028080E-01
       -2   -1    0    0    0  501  0.00000000000E+00  0.00000000000E+00  0.15747290126E+04  0.15747290126E+04  0.25500000920E-02 0.  1.
        2   -1    0    0  501    0  0.00000000000E+00  0.00000000000E+00 -0.23966093514E+04  0.23966093514E+04  0.25500000920E-02 0. -1.
    10030    2    1    2    0    0  0.00000000000E+00  0.00000000000E+00 -0.82188033876E+03  0.39713383640E+04  0.38853624168E+04 0.  0.
        2    1    3    3  502    0 -0.62862670175E+03 -0.17636453565E+04 -0.94047142433E+03  0.20952572572E+04  0.25500000920E-02 0.  1.
       -2    1    3    3    0  502  0.62862670175E+03  0.17636453565E+04  0.11859108557E+03  0.18760811068E+04  0.25500000920E-02 0. -1.
</event>
<event>
 5   0  0.8438211E-08  0.3914957E+04  0.7818609E-02  0.8021926E-01
       -2   -1    0    0    0  501  0.00000000000E+00  0.00000000000E+00  0.19608092756E+04  0.19608092756E+04  0.25500000920E-02 0.  1.
        2   -1    0    0  501    0  0.00000000000E+00  0.00000000000E+00 -0.19541531931E+04  0.19541531931E+04  0.25500000920E-02 0. -1.
    10030    2    1    2    0    0  0.00000000000E+00  0.00000000000E+00  0.66560824451E+01  0.39149624687E+04  0.39149568104E+04 0.  0.
        5    1    3    3  502    0 -0.14217793061E+04 -0.22939410891E+02  0.13485872119E+04  0.19597683970E+04  0.46999998093E+01 0.  1.
       -5    1    3    3    0  502  0.14217793061E+04  0.22939410891E+02 -0.13419311294E+04  0.19551940717E+04  0.46999998093E+01 0. -1.
</event>
<event>
 5   0  0.8438211E-08  0.3923660E+04  0.7818609E-02  0.8020126E-01
       -2   -1    0    0    0  501  0.00000000000E+00  0.00000000000E+00  0.12435414160E+04  0.12435414160E+04  0.25500000920E-02 0. -1.
        2   -1    0    0  501    0  0.00000000000E+00  0.00000000000E+00 -0.30950125315E+04  0.30950125315E+04  0.25500000920E-02 0.  1.
    10030    2    1    2    0    0  0.00000000000E+00  0.00000000000E+00 -0.18514711155E+04  0.43385539475E+04  0.39236596519E+04 0.  0.
        5    1    3    3  502    0 -0.10531203971E+04 -0.16479954668E+04 -0.75514091669E+03  0.20964759773E+04  0.46999998093E+01 0.  1.
       -5    1    3    3    0  502  0.10531203971E+04  0.16479954668E+04 -0.10963301988E+04  0.22420779702E+04  0.46999998093E+01 0. -1.
</event>
<event>
 5   0  0.2632875E-08  0.3914559E+04  0.7818609E-02  0.8022008E-01
        1   -1    0    0  501    0  0.00000000000E+00  0.00000000000E+00  0.24245010268E+04  0.24245010268E+04  0.50400001928E-02 0. -1.
       -1   -1    0    0    0  501  0.00000000000E+00  0.00000000000E+00 -0.15800952995E+04  0.15800952995E+04  0.50400001928E-02 0.  1.
    10030    2    1    2    0    0  0.00000000000E+00  0.00000000000E+00  0.84440572723E+03  0.40045963263E+04  0.39145588135E+04 0.  0.
        1    1    3    3  502    0 -0.11701479351E+04  0.49014167047E+03  0.19469398637E+04  0.23238028918E+04  0.50400001928E-02 0. -1.
       -1    1    3    3    0  502  0.11701479351E+04 -0.49014167047E+03 -0.11025341365E+04  0.16807934345E+04  0.50400001928E-02 0.  1.
</event>
<event>
 5   0  0.2632875E-08  0.3901667E+04  0.7818609E-02  0.8024683E-01
       -1   -1    0    0    0  501  0.00000000000E+00  0.00000000000E+00  0.15296169662E+04  0.15296169662E+04  0.50400001928E-02 0. -1.
        1   -1    0    0  501    0  0.00000000000E+00  0.00000000000E+00 -0.24880426016E+04  0.24880426016E+04  0.50400001928E-02 0.  1.
    10030    2    1    2    0    0  0.00000000000E+00  0.00000000000E+00 -0.95842563540E+03  0.40176595678E+04  0.39016674261E+04 0.  0.
        4    1    3    3  502    0  0.16259898250E+04  0.10486278455E+04 -0.73620660100E+03  0.20701364790E+04  0.12699999809E+01 0. -1.
       -4    1    3    3    0  502 -0.16259898250E+04 -0.10486278455E+04 -0.22221903439E+03  0.19475230888E+04  0.12699999809E+01 0.  1.
</event>
<event>
 5   0  0.8676098E-08  0.3905072E+04  0.7818609E-02  0.8023975E-01
       -2   -1    0    0    0  501  0.00000000000E+00  0.00000000000E+00  0.13623824956E+04  0.13623824956E+04  0.25500000920E-02 0.  1.
        2   -1    0    0  501    0  0.00000000000E+00  0.00000000000E+00 -0.27983308097E+04  0.27983308097E+04  0.25500000920E-02 0. -1.
    10030    2    1    2    0    0  0.00000000000E+00  0.00000000000E+00 -0.14359483141E+04  0.41607133052E+04  0.39050720413E+04 0.  0.
        3    1    3    3  502    0 -0.40572325743E+03 -0.14961317833E+04  0.54691380150E+03  0.16438176271E+04  0.10100000352E+00 0.  1.
       -3    1    3    3    0  502  0.40572325743E+03  0.14961317833E+04 -0.19828621156E+04  0.25168956781E+04  0.10100000352E+00 0. -1.
</event>
<event>
 5   0  0.8551754E-08  0.3860985E+04  0.7818609E-02  0.8033193E-01
        2   -1    0    0  501    0  0.00000000000E+00  0.00000000000E+00  0.20732260790E+04  0.20732260790E+04  0.25500000920E-02 0.  1.
       -2   -1    0    0    0  501  0.00000000000E+00  0.00000000000E+00 -0.17975854325E+04  0.17975854325E+04  0.25500000920E-02 0. -1.
    10030    2    1    2    0    0  0.00000000000E+00  0.00000000000E+00  0.27564064643E+03  0.38708115115E+04  0.38609848474E+04 0.  0.
        1    1    3    3  502    0 -0.12710336303E+04  0.81830038694E+03 -0.10659266227E+04  0.18496868864E+04  0.50400001928E-02 0. -1.
       -1    1    3    3    0  502  0.12710336303E+04 -0.81830038694E+03  0.13415672691E+04  0.20211246251E+04  0.50400001928E-02 0.  1.
</event>
<event>
 5   0  0.8438211E-08  0.3893790E+04  0.7818609E-02  0.8026322E-01
        2   -1    0    0  501    0  0.00000000000E+00  0.00000000000E+00  0.22586333086E+04  0.22586333086E+04  0.25500000920E-02 0.  1.
       -2   -1    0    0    0  501  0.00000000000E+00  0.00000000000E+00 -0.16781826713E+04  0.16781826713E+04  0.25500000920E-02 0. -1.
    10030    2    1    2    0    0  0.00000000000E+00  0.00000000000E+00  0.58045063736E+03  0.39368159799E+04  0.38937895574E+04 0.  0.
        5    1    3    3  502    0  0.52903999418E+03  0.37381835545E+02  0.21841830957E+04  0.22476562465E+04  0.46999998093E+01 0.  1.
       -5    1    3    3    0  502 -0.52903999418E+03 -0.37381835545E+02 -0.16037324583E+04  0.16891597334E+04  0.46999998093E+01 0. -1.
</event>
<event>
 5   0  0.2632875E-08  0.3891402E+04  0.7818609E-02  0.8026820E-01
       -1   -1    0    0    0  501  0.00000000000E+00  0.00000000000E+00  0.17366224846E+04  0.17366224846E+04  0.50400001928E-02 0.  1.
        1   -1    0    0  501    0  0.00000000000E+00  0.00000000000E+00 -0.21799516976E+04  0.21799516976E+04  0.50400001928E-02 0. -1.
    10030    2    1    2    0    0  0.00000000000E+00  0.00000000000E+00 -0.44332921300E+03  0.39165741822E+04  0.38914023865E+04 0.  0.
        2    1    3    3  502    0  0.10074419721E+04 -0.10387801654E+03 -0.18937427857E+04  0.21475548207E+04  0.25500000920E-02 0. -1.
       -2    1    3    3    0  502 -0.10074419721E+04  0.10387801654E+03  0.14504135727E+04  0.17690193615E+04  0.25500000920E-02 0.  1.
</event>
<event>
 5   0  0.8676098E-08  0.3910452E+04  0.7818609E-02  0.8022859E-01
        2   -1    0    0  501    0  0.00000000000E+00  0.00000000000E+00  0.23991403353E+04  0.23991403353E+04  0.25500000920E-02 0.  1.
       -2   -1    0    0    0  501  0.00000000000E+00  0.00000000000E+00 -0.15934492692E+04  0.15934492692E+04  0.25500000920E-02 0. -1.
    10030    2    1    2    0    0  0.00000000000E+00  0.00000000000E+00  0.80569106610E+03  0.39925896045E+04  0.39104518480E+04 0.  0.
        3    1    3    3  502    0  0.97042289091E+03  0.16666140245E+04  0.74238213414E+02  0.19299829576E+04  0.10100000352E+00 0.  1.
       -3    1    3    3    0  502 -0.97042289091E+03 -0.16666140245E+04  0.73145285269E+03  0.20626066469E+04  0.10100000352E+00 0. -1.
</event>
<event>
 5   0  0.8342802E-08  0.3908683E+04  0.7818609E-02  0.8023226E-01
        2   -1    0    0  501    0  0.00000000000E+00  0.00000000000E+00  0.13639032304E+04  0.13639032304E+04  0.25500000920E-02 0. -1.
       -2   -1    0    0    0  501  0.00000000000E+00  0.00000000000E+00 -0.28003818481E+04  0.28003818481E+04  0.25500000920E-02 0.  1.
    10030    2    1    2    0    0  0.00000000000E+00  0.00000000000E+00 -0.14364786177E+04  0.41642850784E+04  0.39086825652E+04 0.  0.
        4    1    3    3  502    0 -0.48735386507E+03 -0.45889567986E+03 -0.26744332997E+04  0.27569356398E+04  0.12699999809E+01 0.  1.
       -4    1    3    3    0  502  0.48735386507E+03  0.45889567986E+03  0.12379546820E+04  0.14073494386E+04  0.12699999809E+01 0. -1.
</event>
<event>
 5   0  0.8676098E-08  0.3903885E+04  0.7818609E-02  0.8024222E-01
       -2   -1    0    0    0  501  0.00000000000E+00  0.00000000000E+00  0.33645863500E+04  0.33645863500E+04  0.25500000920E-02 0. -1.
        2   -1    0    0  501    0  0.00000000000E+00  0.00000000000E+00 -0.11324065457E+04  0.11324065457E+04  0.25500000920E-02 0.  1.
    10030    2    1    2    0    0  0.00000000000E+00  0.00000000000E+00  0.22321798043E+04  0.44969928957E+04  0.39038850425E+04 0.  0.
        3    1    3    3  502    0 -0.74576825314E+01  0.45805889995E+03 -0.10696015711E+04  0.11635811548E+04  0.10100000352E+00 0.  1.
       -3    1    3    3    0  502  0.74576825314E+01 -0.45805889995E+03  0.33017813754E+04  0.33334117408E+04  0.10100000352E+00 0. -1.
</event>
<event>
 5   0  0.8342802E-08  0.3895412E+04  0.7818609E-02  0.8025984E-01
       -2   -1    0    0    0  501  0.00000000000E+00  0.00000000000E+00  0.13168408477E+04  0.13168408477E+04  0.25500000920E-02 0. -1.
        2   -1    0    0  501    0  0.00000000000E+00  0.00000000000E+00 -0.28808028593E+04  0.28808028593E+04  0.25500000920E-02 0.  1.
    10030    2    1    2    0    0  0.00000000000E+00  0.00000000000E+00 -0.15639620115E+04  0.41976437070E+04  0.38954121113E+04 0.  0.
        4    1    3    3  502    0  0.15384582705E+04  0.97431220142E+03 -0.37416925649E+02  0.18214114733E+04  0.12699999809E+01 0. -1.
       -4    1    3    3    0  502 -0.15384582705E+04 -0.97431220142E+03 -0.15265450859E+04  0.23762322336E+04  0.12699999809E+01 0.  1.
</event>
<event>
 5   0  0.8551754E-08  0.3881415E+04  0.7818609E-02  0.8028906E-01
        2   -1    0    0  501    0  0.00000000000E+00  0.00000000000E+00  0.19829744774E+04  0.19829744774E+04  0.25500000920E-02 0.  1.
       -2   -1    0    0    0  501  0.00000000000E+00  0.00000000000E+00 -0.18993411759E+04  0.18993411759E+04  0.25500000920E-02 0. -1.
    10030    2    1    2    0    0  0.00000000000E+00  0.00000000000E+00  0.83633301466E+02  0.38823156534E+04  0.38814147296E+04 0.  0.
        1    1    3    3  502    0  0.52365681022E+03 -0.44284019282E+03 -0.17740994970E+04  0.19020391470E+04  0.50400001928E-02 0. -1.
       -1    1    3    3    0  502 -0.52365681022E+03  0.44284019282E+03  0.18577327985E+04  0.19802765064E+04  0.50400001928E-02 0.  1.
</event>
<event>
 5   0  0.2632875E-08  0.3834238E+04  0.7818609E-02  0.8038847E-01
        1   -1    0    0  501    0  0.00000000000E+00  0.00000000000E+00  0.14955117420E+04  0.14955117420E+04  0.50400001928E-02 0. -1.
       -1   -1    0    0    0  501  0.00000000000E+00  0.00000000000E+00 -0.24575840056E+04  0.24575840056E+04  0.50400001928E-02 0.  1.
    10030    2    1    2    0    0  0.00000000000E+00  0.00000000000E+00 -0.96207226357E+03  0.39530957475E+04  0.38342382488E+04 0.  0.
        4    1    3    3  502    0  0.97227906708E+03  0.77310414798E+03  0.10244792390E+04  0.16101477982E+04  0.12699999809E+01 0. -1.
       -4    1    3    3    0  502 -0.97227906708E+03 -0.77310414798E+03 -0.19865515026E+04  0.23429479493E+04  0.12699999809E+01 0.  1.
</event>
<event>
 5   0  0.8676098E-08  0.3883707E+04  0.7818609E-02  0.8028426E-01
       -2   -1    0    0    0  501  0.00000000000E+00  0.00000000000E+00  0.23592156091E+04  0.23592156091E+04  0.25500000920E-02 0.  1.
        2   -1    0    0  501    0  0.00000000000E+00  0.00000000000E+00 -0.15983256691E+04  0.15983256691E+04  0.25500000920E-02 0. -1.
    10030    2    1    2    0    0  0.00000000000E+00  0.00000000000E+00  0.76088993999E+03  0.39575412781E+04  0.38837069235E+04 0.  0.
        3    1    3    3  502    0 -0.17527538015E+04  0.39797613255E+03  0.11294452935E+04  0.21227759118E+04  0.10100000352E+00 0.  1.
       -3    1    3    3    0  502  0.17527538015E+04 -0.39797613255E+03 -0.36855535346E+03  0.18347653663E+04  0.10100000352E+00 0. -1.
</event>
<event>
 5   0  0.8438211E-08  0.3907041E+04  0.7818609E-02  0.8023566E-01
       -2   -1    0    0    0  501  0.00000000000E+00  0.00000000000E+00  0.19105132147E+04  0.19105132147E+04  0.25500000920E-02 0. -1.
        2   -1    0    0  501    0  0.00000000000E+00  0.00000000000E+00 -0.19974963940E+04  0.19974963940E+04  0.25500000920E-02 0.  1.
    10030    2    1    2    0    0  0.00000000000E+00  0.00000000000E+00 -0.86983179333E+02  0.39080096087E+04  0.39070414674E+04 0.  0.
        5    1    3    3  502    0 -0.11905674839E+04  0.30362513127E+03  0.14756283098E+04  0.19201927384E+04  0.46999998093E+01 0. -1.
       -5    1    3    3    0  502  0.11905674839E+04 -0.30362513127E+03 -0.15626114891E+04  0.19878168703E+04  0.46999998093E+01 0.  1.
</event>
<event>
 5   0  0.2632875E-08  0.3883092E+04  0.7818609E-02  0.8028555E-01
       -1   -1    0    0    0  501  0.00000000000E+00  0.00000000000E+00  0.14948609231E+04  0.14948609231E+04  0.50400001928E-02 0.  1.
        1   -1    0    0  501    0  0.00000000000E+00  0.00000000000E+00 -0.25217069311E+04  0.25217069311E+04  0.50400001928E-02 0. -1.
    10030    2    1    2    0    0  0.00000000000E+00  0.00000000000E+00 -0.10268460079E+04  0.40165678542E+04  0.38830921446E+04 0.  0.
        3    1    3    3  502    0  0.14028876261E+04  0.86377964828E+03  0.54921255679E+03  0.17366183850E+04  0.10100000352E+00 0.  1.
       -3    1    3    3    0  502 -0.14028876261E+04 -0.86377964828E+03 -0.15760585647E+04  0.22799494692E+04  0.10100000352E+00 0. -1.
</event>
<event>
 5   0  0.2632875E-08  0.3883791E+04  0.7818609E-02  0.8028409E-01
       -1   -1    0    0    0  501  0.00000000000E+00  0.00000000000E+00  0.15519887870E+04  0.15519887870E+04  0.50400001928E-02 0.  1.
        1   -1    0    0  501    0  0.00000000000E+00  0.00000000000E+00 -0.24297591171E+04  0.24297591171E+04  0.50400001928E-02 0. -1.
    10030    2    1    2    0    0  0.00000000000E+00  0.00000000000E+00 -0.87777033012E+03  0.39817479041E+04  0.38837913975E+04 0.  0.
        4    1    3    3  502    0  0.67598144235E+03 -0.73332611229E+02  0.14259561471E+04  0.15797724927E+04  0.12699999809E+01 0.  1.
       -4    1    3    3    0  502 -0.67598144235E+03  0.73332611229E+02 -0.23037264772E+04  0.24019754114E+04  0.12699999809E+01 0. -1.
</event>
<event>
 5   0  0.8342802E-08  0.3901972E+04  0.7818609E-02  0.8024619E-01
       -2   -1    0    0    0  501  0.00000000000E+00  0.00000000000E+00  0.20784900310E+04  0.20784900310E+04  0.25500000920E-02 0. -1.
        2   -1    0    0  501    0  0.00000000000E+00  0.00000000000E+00 -0.18313037725E+04  0.18313037725E+04  0.25500000920E-02 0.  1.
    10030    2    1    2    0    0  0.00000000000E+00  0.00000000000E+00  0.24718625849E+03  0.39097938036E+04  0.39019721347E+04 0.  0.
        4    1    3    3  502    0  0.13533730228E+04 -0.20219263595E+02 -0.12843276090E+04  0.18658848779E+04  0.12699999809E+01 0.  1.
       -4    1    3    3    0  502 -0.13533730228E+04  0.20219263595E+02  0.15315138674E+04  0.20439089257E+04  0.12699999809E+01 0. -1.
</event>
<event>
 5   0  0.2632875E-08  0.3890381E+04  0.7818609E-02  0.8027033E-01
       -1   -1    0    0    0  501  0.00000000000E+00  0.00000000000E+00  0.16036135964E+04  0.16036135964E+04  0.50400001928E-02 0.  1.
        1   -1    0    0  501    0  0.00000000000E+00  0.00000000000E+00 -0.23595246527E+04  0.23595246527E+04  0.50400001928E-02 0. -1.
    10030    2    1    2    0    0  0.00000000000E+00  0.00000000000E+00 -0.75591105625E+03  0.39631382491E+04  0.38903808627E+04 0.  0.
        3    1    3    3  502    0  0.16193028457E+04 -0.61813085249E+02  0.71818057582E+03  0.17724970842E+04  0.10100000352E+00 0.  1.
       -3    1    3    3    0  502 -0.16193028457E+04  0.61813085249E+02 -0.14740916321E+04  0.21906411650E+04  0.10100000352E+00 0. -1.
</event>
<event>
 5   0  0.8438211E-08  0.3891623E+04  0.7818609E-02  0.8026774E-01
       -2   -1    0    0    0  501  0.00000000000E+00  0.00000000000E+00  0.14901490629E+04  0.14901490629E+04  0.25500000920E-02 0. -1.
        2   -1    0    0  501    0  0.00000000000E+00  0.00000000000E+00 -0.25408075397E+04  0.25408075397E+04  0.25500000920E-02 0.  1.
    10030    2    1    2    0    0  0.00000000000E+00  0.00000000000E+00 -0.10506584769E+04  0.40309566026E+04  0.38916227845E+04 0.  0.
        5    1    3    3  502    0  0.13880631513E+04 -0.82854170632E+03  0.59647955647E+03  0.17230817225E+04  0.46999998093E+01 0. -1.
       -5    1    3    3    0  502 -0.13880631513E+04  0.82854170632E+03 -0.16471380333E+04  0.23078748801E+04  0.46999998093E+01 0.  1.
</event>
<event>
 5   0  0.8476262E-08  0.3907941E+04  0.7818609E-02  0.8023380E-01
        2   -1    0    0  501    0  0.00000000000E+00  0.00000000000E+00  0.19175321763E+04  0.19175321763E+04  0.25500000920E-02 0. -1.
       -2   -1    0    0    0  501  0.00000000000E+00  0.00000000000E+00 -0.19911011982E+04  0.19911011982E+04  0.25500000920E-02 0.  1.
    10030    2    1    2    0    0  0.00000000000E+00  0.00000000000E+00 -0.73569021889E+02  0.39086333745E+04  0.39079409483E+04 0.  0.
        2    1    3    3  502    0 -0.41532443246E+03  0.15587420793E+04 -0.11396264080E+04  0.19750745819E+04  0.25500000920E-02 0.  1.
       -2    1    3    3    0  502  0.41532443246E+03 -0.15587420793E+04  0.10660573862E+04  0.19335587926E+04  0.25500000920E-02 0. -1.
</event>
<event>
 5   0  0.8438211E-08  0.3894899E+04  0.7818609E-02  0.8026091E-01
        2   -1    0    0  501    0  0.00000000000E+00  0.00000000000E+00  0.15041926286E+04  0.15041926286E+04  0.25500000920E-02 0. -1.
       -2   -1    0    0    0  501  0.00000000000E+00  0.00000000000E+00 -0.25213258561E+04  0.25213258561E+04  0.25500000920E-02 0.  1.
    10030    2    1    2    0    0  0.00000000000E+00  0.00000000000E+00 -0.10171332275E+04  0.40255184847E+04  0.38948991088E+04 0.  0.
        5    1    3    3  502    0  0.29131147095E+02  0.53794390741E+03  0.14256389134E+04  0.15240409026E+04  0.46999998093E+01 0. -1.
       -5    1    3    3    0  502 -0.29131147095E+02 -0.53794390741E+03 -0.24427721409E+04  0.25014775821E+04  0.46999998093E+01 0.  1.
</event>
<event>
 5   0  0.2632875E-08  0.3898994E+04  0.7818609E-02  0.8025238E-01
       -1   -1    0    0    0  501  0.00000000000E+00  0.00000000000E+00  0.16237074607E+04  0.16237074607E+04  0.50400001928E-02 0. -1.
        1   -1    0    0  501    0  0.00000000000E+00  0.00000000000E+00 -0.23406546959E+04  0.23406546959E+04  0.50400001928E-02 0.  1.
    10030    2    1    2    0    0  0.00000000000E+00  0.00000000000E+00 -0.71694723516E+03  0.39643621566E+04  0.38989939690E+04 0.  0.
        5    1    3    3  502    0  0.91625860147E+03  0.93192514788E+03 -0.18292739157E+04  0.22481724700E+04  0.46999998093E+01 0.  1.
       -5    1    3    3    0  502 -0.91625860147E+03 -0.93192514788E+03  0.11123266806E+04  0.17161896866E+04  0.46999998093E+01 0. -1.
</event>
<event>
 5   0  0.2632875E-08  0.3903937E+04  0.7818609E-02  0.8024211E-01
       -1   -1    0    0    0  501  0.00000000000E+00  0.00000000000E+00  0.21499155900E+04  0.21499155901E+04  0.50400001928E-02 0. -1.
        1   -1    0    0  501    0  0.00000000000E+00  0.00000000000E+00 -0.17722470927E+04  0.17722470927E+04  0.50400001928E-02 0.  1.
    10030    2    1    2    0    0  0.00000000000E+00  0.00000000000E+00  0.37766849740E+03  0.39221626827E+04  0.39039373222E+04 0.  0.
        4    1    3    3  502    0 -0.12700795436E+04  0.12592177139E+04 -0.59676813963E+03  0.18854349958E+04  0.12699999809E+01 0.  1.
       -4    1    3    3    0  502  0.12700795436E+04 -0.12592177139E+04  0.97443663703E+03  0.20367276869E+04  0.12699999809E+01 0. -1.
</event>
<event>
 5   0  0.8676098E-08  0.3932189E+04  0.7818609E-02  0.8018368E-01
       -2   -1    0    0    0  501  0.00000000000E+00  0.00000000000E+00  0.13580166936E+04  0.13580166936E+04  0.25500000920E-02 0.  1.
        2   -1    0    0  501    0  0.00000000000E+00  0.00000000000E+00 -0.28464510373E+04  0.28464510373E+04  0.25500000920E-02 0. -1.
    10030    2    1    2    0    0  0.00000000000E+00  0.00000000000E+00 -0.14884343438E+04  0.42044677309E+04  0.39321892255E+04 0.  0.
        3    1    3    3  502    0 -0.18124306876E+04 -0.73776951069E+03 -0.54044514846E+03  0.20300960118E+04  0.10100000352E+00 0. -1.
       -3    1    3    3    0  502  0.18124306876E+04  0.73776951069E+03 -0.94798919530E+03  0.21743717191E+04  0.10100000352E+00 0.  1.
</event>
<event>
 5   0  0.2632875E-08  0.3870233E+04  0.7818609E-02  0.8031249E-01
        1   -1    0    0  501    0  0.00000000000E+00  0.00000000000E+00  0.22248011087E+04  0.22248011087E+04  0.50400001928E-02 0. -1.
       -1   -1    0    0    0  501  0.00000000000E+00  0.00000000000E+00 -0.16831509101E+04  0.16831509101E+04  0.50400001928E-02 0.  1.
    10030    2    1    2    0    0  0.00000000000E+00  0.00000000000E+00  0.54165019865E+03  0.39079520188E+04  0.38702330736E+04 0.  0.
        2    1    3    3  502    0  0.19250174212E+04 -0.17016531847E+03  0.37193946015E+03  0.19679906681E+04  0.25500000920E-02 0. -1.
       -2    1    3    3    0  502 -0.19250174212E+04  0.17016531847E+03  0.16971073850E+03  0.19399613508E+04  0.25500000920E-02 0.  1.
</event>
<event>
 5   0  0.8342802E-08  0.3998077E+04  0.7818609E-02  0.8004935E-01
        2   -1    0    0  501    0  0.00000000000E+00  0.00000000000E+00  0.14499335463E+04  0.14499335463E+04  0.25500000920E-02 0. -1.
       -2   -1    0    0    0  501  0.00000000000E+00  0.00000000000E+00 -0.27560953729E+04  0.27560953729E+04  0.25500000920E-02 0.  1.
    10030    2    1    2    0    0  0.00000000000E+00  0.00000000000E+00 -0.13061618266E+04  0.42060289191E+04  0.39980771067E+04 0.  0.
        4    1    3    3  502    0  0.14413204298E+04  0.11834430838E+04  0.10423062667E+03  0.18678350437E+04  0.12699999809E+01 0. -1.
       -4    1    3    3    0  502 -0.14413204298E+04 -0.11834430838E+04 -0.14103924533E+04  0.23381938755E+04  0.12699999809E+01 0.  1.
</event>
<event>
 5   0  0.2632875E-08  0.3871973E+04  0.7818609E-02  0.8030884E-01
        1   -1    0    0  501    0  0.00000000000E+00  0.00000000000E+00  0.21101176712E+04  0.21101176712E+04  0.50400001928E-02 0.  1.
       -1   -1    0    0    0  501  0.00000000000E+00  0.00000000000E+00 -0.17762249169E+04  0.17762249169E+04  0.50400001928E-02 0. -1.
    10030    2    1    2    0    0  0.00000000000E+00  0.00000000000E+00  0.33389275432E+03  0.38863425881E+04  0.38719729261E+04 0.  0.
        4    1    3    3  502    0  0.10412111013E+04 -0.81377835775E+03 -0.12531138610E+04  0.18211676843E+04  0.12699999809E+01 0. -1.
       -4    1    3    3    0  502 -0.10412111013E+04  0.81377835775E+03  0.15870066153E+04  0.20651749037E+04  0.12699999809E+01 0.  1.
</event>
<event>
 5   0  0.2632875E-08  0.3895290E+04  0.7818609E-02  0.8026009E-01
       -1   -1    0    0    0  501  0.00000000000E+00  0.00000000000E+00  0.18960366168E+04  0.18960366168E+04  0.50400001928E-02 0. -1.
        1   -1    0    0  501    0  0.00000000000E+00  0.00000000000E+00 -0.20006584563E+04  0.20006584563E+04  0.50400001928E-02 0.  1.
    10030    2    1    2    0    0  0.00000000000E+00  0.00000000000E+00 -0.10462183948E+03  0.38966950731E+04  0.38952903311E+04 0.  0.
        1    1    3    3  502    0 -0.19110462760E+03 -0.87936502125E+03 -0.17802200974E+04  0.19947399366E+04  0.50400001928E-02 0.  1.
       -1    1    3    3    0  502  0.19110462760E+03  0.87936502125E+03  0.16755982580E+04  0.19019551365E+04  0.50400001928E-02 0. -1.
</event>
<event>
 5   0  0.2632875E-08  0.3906814E+04  0.7818609E-02  0.8023614E-01
        1   -1    0    0  501    0  0.00000000000E+00  0.00000000000E+00  0.22106491302E+04  0.22106491302E+04  0.50400001928E-02 0.  1.
       -1   -1    0    0    0  501  0.00000000000E+00  0.00000000000E+00 -0.17260985575E+04  0.17260985575E+04  0.50400001928E-02 0. -1.
    10030    2    1    2    0    0  0.00000000000E+00  0.00000000000E+00  0.48455057264E+03  0.39367476877E+04  0.39068136760E+04 0.  0.
        5    1    3    3  502    0 -0.25524906736E+03 -0.83953608805E+03  0.20008701687E+04  0.21848287007E+04  0.46999998093E+01 0.  1.
       -5    1    3    3    0  502  0.25524906736E+03  0.83953608805E+03 -0.15163195961E+04  0.17519189870E+04  0.46999998093E+01 0. -1.
</event>
<event>
 5   0  0.2632875E-08  0.3899401E+04  0.7818609E-02  0.8025154E-01
        1   -1    0    0  501    0  0.00000000000E+00  0.00000000000E+00  0.13558021673E+04  0.13558021674E+04  0.50400001928E-02 0. -1.
       -1   -1    0    0    0  501  0.00000000000E+00  0.00000000000E+00 -0.28037511731E+04  0.28037511731E+04  0.50400001928E-02 0.  1.
    10030    2    1    2    0    0  0.00000000000E+00  0.00000000000E+00 -0.14479490057E+04  0.41595533404E+04  0.38994009372E+04 0.  0.
        3    1    3    3  502    0  0.93902346760E+03 -0.29531895847E+02 -0.25463721290E+04  0.27141570026E+04  0.10100000352E+00 0.  1.
       -3    1    3    3    0  502 -0.93902346760E+03  0.29531895847E+02  0.10984231232E+04  0.14453963378E+04  0.10100000352E+00 0. -1.
</event>
<event>
 5   0  0.8476262E-08  0.3899293E+04  0.7818609E-02  0.8025176E-01
        2   -1    0    0  501    0  0.00000000000E+00  0.00000000000E+00  0.19080819470E+04  0.19080819470E+04  0.25500000920E-02 0.  1.
       -2   -1    0    0    0  501  0.00000000000E+00  0.00000000000E+00 -0.19921159970E+04  0.19921159970E+04  0.25500000920E-02 0. -1.
    10030    2    1    2    0    0  0.00000000000E+00  0.00000000000E+00 -0.84034049960E+02  0.39001979440E+04  0.38992925360E+04 0.  0.
        2    1    3    3  502    0  0.43961198859E+03  0.67294735677E+03  0.17346284282E+04  0.19118191937E+04  0.25500000920E-02 0.  1.
       -2    1    3    3    0  502 -0.43961198859E+03 -0.67294735677E+03 -0.18186624781E+04  0.19883787504E+04  0.25500000920E-02 0. -1.
</event>
<event>
 5   0  0.2632875E-08  0.3906265E+04  0.7818609E-02  0.8023727E-01
        1   -1    0    0  501    0  0.00000000000E+00  0.00000000000E+00  0.11478292529E+04  0.11478292530E+04  0.50400001928E-02 0.  1.
       -1   -1    0    0    0  501  0.00000000000E+00  0.00000000000E+00 -0.33234275737E+04  0.33234275737E+04  0.50400001928E-02 0. -1.
    10030    2    1    2    0    0  0.00000000000E+00  0.00000000000E+00 -0.21755983208E+04  0.44712568267E+04  0.39062654232E+04 0.  0.
        4    1    3    3  502    0  0.54218068487E+03  0.18624808072E+04 -0.82695463336E+03  0.21087081900E+04  0.12699999809E+01 0. -1.
       -4    1    3    3    0  502 -0.54218068487E+03 -0.18624808072E+04 -0.13486436874E+04  0.23625486367E+04  0.12699999809E+01 0.  1.
</event>
<event>
 5   0  0.8438211E-08  0.3891716E+04  0.7818609E-02  0.8026754E-01
        2   -1    0    0  501    0  0.00000000000E+00  0.00000000000E+00  0.32248696819E+04  0.32248696819E+04  0.25500000920E-02 0. -1.
       -2   -1    0    0    0  501  0.00000000000E+00  0.00000000000E+00 -0.11741137247E+04  0.11741137247E+04  0.25500000920E-02 0.  1.
    10030    2    1    2    0    0  0.00000000000E+00  0.00000000000E+00  0.20507559572E+04  0.43989834066E+04  0.38917162044E+04 0.  0.
        5    1    3    3  502    0  0.18396425322E+04  0.60612635494E+03  0.12358404539E+04  0.22976069120E+04  0.46999998093E+01 0.  1.
       -5    1    3    3    0  502 -0.18396425322E+04 -0.60612635494E+03  0.81491550333E+03  0.21013764946E+04  0.46999998093E+01 0. -1.
</event>
<event>
 5   0  0.8342802E-08  0.3899290E+04  0.7818609E-02  0.8025177E-01
        2   -1    0    0  501    0  0.00000000000E+00  0.00000000000E+00  0.14660989797E+04  0.14660989797E+04  0.25500000920E-02 0.  1.
       -2   -1    0    0    0  501  0.00000000000E+00  0.00000000000E+00 -0.25926735902E+04  0.25926735902E+04  0.25500000920E-02 0. -1.
    10030    2    1    2    0    0  0.00000000000E+00  0.00000000000E+00 -0.11265746105E+04  0.40587725700E+04  0.38992902459E+04 0.  0.
        4    1    3    3  502    0  0.14946388170E+03  0.25805443580E+03 -0.25687927209E+04  0.25860450885E+04  0.12699999809E+01 0. -1.
       -4    1    3    3    0  502 -0.14946388170E+03 -0.25805443580E+03  0.14422181104E+04  0.14727274815E+04  0.12699999809E+01 0.  1.
</event>
<event>
 5   0  0.2632875E-08  0.3893287E+04  0.7818609E-02  0.8026427E-01
       -1   -1    0    0    0  501  0.00000000000E+00  0.00000000000E+00  0.21167047446E+04  0.21167047446E+04  0.50400001928E-02 0.  1.
        1   -1    0    0  501    0  0.00000000000E+00  0.00000000000E+00 -0.17902457495E+04  0.17902457496E+04  0.50400001928E-02 0. -1.
    10030    2    1    2    0    0  0.00000000000E+00  0.00000000000E+00  0.32645899503E+03  0.39069504941E+04  0.38932873883E+04 0.  0.
        3    1    3    3  502    0  0.41410924273E+03 -0.78676737213E+03 -0.15745904426E+04  0.18082655875E+04  0.10100000352E+00 0. -1.
       -3    1    3    3    0  502 -0.41410924273E+03  0.78676737213E+03  0.19010494376E+04  0.20986849066E+04  0.10100000352E+00 0.  1.
</event>
<event>
 5   0  0.8438211E-08  0.3921023E+04  0.7818609E-02  0.8020671E-01
       -2   -1    0    0    0  501  0.00000000000E+00  0.00000000000E+00  0.17970919871E+04  0.17970919871E+04  0.25500000920E-02 0.  1.
        2   -1    0    0  501    0  0.00000000000E+00  0.00000000000E+00 -0.21387916971E+04  0.21387916971E+04  0.25500000920E-02 0. -1.
    10030    2    1    2    0    0  0.00000000000E+00  0.00000000000E+00 -0.34169970994E+03  0.39358836842E+04  0.39210230404E+04 0.  0.
        5    1    3    3  502    0  0.12265322303E+04 -0.67626904866E+03 -0.15478588263E+04  0.20874889639E+04  0.46999998093E+01 0. -1.
       -5    1    3    3    0  502 -0.12265322303E+04  0.67626904866E+03  0.12061591163E+04  0.18483947203E+04  0.46999998093E+01 0.  1.
</event>
<event>
 5   0  0.8551754E-08  0.3914920E+04  0.7818609E-02  0.8021933E-01
        2   -1    0    0  501    0  0.00000000000E+00  0.00000000000E+00  0.21453737726E+04  0.21453737726E+04  0.25500000920E-02 0.  1.
       -2   -1    0    0    0  501  0.00000000000E+00  0.00000000000E+00 -0.17860060300E+04  0.17860060300E+04  0.25500000920E-02 0. -1.
    10030    2    1    2    0    0  0.00000000000E+00  0.00000000000E+00  0.35936774254E+03  0.39313798026E+04  0.39149204306E+04 0.  0.
        1    1    3    3  502    0 -0.78681503251E+03 -0.13297697196E+04 -0.10271528791E+04  0.18553728573E+04  0.50400001928E-02 0. -1.
       -1    1    3    3    0  502  0.78681503251E+03  0.13297697196E+04  0.13865206216E+04  0.20760069453E+04  0.50400001928E-02 0.  1.
</event>
<event>
 5   0  0.8676098E-08  0.3892678E+04  0.7818609E-02  0.8026554E-01
       -2   -1    0    0    0  501  0.00000000000E+00  0.00000000000E+00  0.23199658296E+04  0.23199658296E+04  0.25500000920E-02 0.  1.
        2   -1    0    0  501    0  0.00000000000E+00  0.00000000000E+00 -0.16328841328E+04  0.16328841328E+04  0.25500000920E-02 0. -1.
    10030    2    1    2    0    0  0.00000000000E+00  0.00000000000E+00  0.68708169678E+03  0.39528499624E+04  0.38926779429E+04 0.  0.
        3    1    3    3  502    0 -0.10646435909E+04 -0.15830479652E+04  0.73515558124E+03  0.20444951882E+04  0.10100000352E+00 0.  1.
       -3    1    3    3    0  502  0.10646435909E+04  0.15830479652E+04 -0.48073884459E+02  0.19083547742E+04  0.10100000352E+00 0. -1.
</event>
<event>
 5   0  0.2632875E-08  0.3902883E+04  0.7818609E-02  0.8024430E-01
        1   -1    0    0  501    0  0.00000000000E+00  0.00000000000E+00  0.24610479862E+04  0.24610479862E+04  0.50400001928E-02 0. -1.
       -1   -1    0    0    0  501  0.00000000000E+00  0.00000000000E+00 -0.15473584063E+04  0.15473584064E+04  0.50400001928E-02 0.  1.
    10030    2    1    2    0    0  0.00000000000E+00  0.00000000000E+00  0.91368957985E+03  0.40084063926E+04  0.39028826730E+04 0.  0.
        1    1    3    3  502    0  0.16679040691E+04 -0.74666844278E+02 -0.58073960037E+03  0.17676927348E+04  0.50400001928E-02 0.  1.
       -1    1    3    3    0  502 -0.16679040691E+04  0.74666844278E+02  0.14944291802E+04  0.22407136577E+04  0.50400001928E-02 0. -1.
</event>
<event>
 5   0  0.2632875E-08  0.3879536E+04  0.7818609E-02  0.8029299E-01
       -1   -1    0    0    0  501  0.00000000000E+00  0.00000000000E+00  0.20323150082E+04  0.20323150082E+04  0.50400001928E-02 0.  1.
        1   -1    0    0  501    0  0.00000000000E+00  0.00000000000E+00 -0.18514357290E+04  0.18514357290E+04  0.50400001928E-02 0. -1.
    10030    2    1    2    0    0  0.00000000000E+00  0.00000000000E+00  0.18087927913E+03  0.38837507372E+04  0.38795363737E+04 0.  0.
        2    1    3    3  502    0  0.22496972476E+03  0.14180077503E+04 -0.12153327862E+04  0.18810611735E+04  0.25500000920E-02 0.  1.
       -2    1    3    3    0  502 -0.22496972476E+03 -0.14180077503E+04  0.13962120654E+04  0.20026895637E+04  0.25500000920E-02 0. -1.
</event>
<event>
 5   0  0.8551754E-08  0.3883476E+04  0.7818609E-02  0.8028475E-01
        2   -1    0    0  501    0  0.00000000000E+00  0.00000000000E+00  0.20845546620E+04  0.20845546621E+04  0.25500000920E-02 0. -1.
       -2   -1    0    0    0  501  0.00000000000E+00  0.00000000000E+00 -0.18087059237E+04  0.18087059237E+04  0.25500000920E-02 0.  1.
    10030    2    1    2    0    0  0.00000000000E+00  0.00000000000E+00  0.27584873832E+03  0.38932605858E+04  0.38834759510E+04 0.  0.
        1    1    3    3  502    0  0.65658151375E+03  0.11299591257E+04 -0.13018135971E+04  0.18446207066E+04  0.50400001928E-02 0.  1.
       -1    1    3    3    0  502 -0.65658151375E+03 -0.11299591257E+04  0.15776623354E+04  0.20486398791E+04  0.50400001928E-02 0. -1.
</event>
<event>
 5   0  0.8676098E-08  0.3914441E+04  0.7818609E-02  0.8022032E-01
        2   -1    0    0  501    0  0.00000000000E+00  0.00000000000E+00  0.28920343301E+04  0.28920343301E+04  0.25500000920E-02 0. -1.
       -2   -1    0    0    0  501  0.00000000000E+00  0.00000000000E+00 -0.13245735159E+04  0.13245735159E+04  0.25500000920E-02 0.  1.
    10030    2    1    2    0    0  0.00000000000E+00  0.00000000000E+00  0.15674608142E+04  0.42166078460E+04  0.39144409975E+04 0.  0.
        3    1    3    3  502    0 -0.93316113828E+03  0.16637308674E+04  0.31182408239E+03  0.19328798146E+04  0.10100000352E+00 0.  1.
       -3    1    3    3    0  502  0.93316113828E+03 -0.16637308674E+04  0.12556367318E+04  0.22837280314E+04  0.10100000352E+00 0. -1.
</event>
<event>
 5   0  0.2632875E-08  0.3732039E+04  0.7818609E-02  0.8060899E-01
        1   -1    0    0  501    0  0.00000000000E+00  0.00000000000E+00  0.19070697931E+04  0.19070697931E+04  0.50400001928E-02 0. -1.
       -1   -1    0    0    0  501  0.00000000000E+00  0.00000000000E+00 -0.18258526273E+04  0.18258526273E+04  0.50400001928E-02 0.  1.
    10030    2    1    2    0    0  0.00000000000E+00  0.00000000000E+00  0.81217165794E+02  0.37329224204E+04  0.37320387952E+04 0.  0.
        5    1    3    3  502    0 -0.28062596225E+03 -0.83462669447E+03  0.16861891792E+04  0.19022640952E+04  0.46999998093E+01 0. -1.
       -5    1    3    3    0  502  0.28062596225E+03  0.83462669447E+03 -0.16049720134E+04  0.18306583252E+04  0.46999998093E+01 0.  1.
</event>
<event>
 5   0  0.8676098E-08  0.3889146E+04  0.7818609E-02  0.8027290E-01
        2   -1    0    0  501    0  0.00000000000E+00  0.00000000000E+00  0.27066599808E+04  0.27066599808E+04  0.25500000920E-02 0.  1.
       -2   -1    0    0    0  501  0.00000000000E+00  0.00000000000E+00 -0.13970595013E+04  0.13970595013E+04  0.25500000920E-02 0. -1.
    10030    2    1    2    0    0  0.00000000000E+00  0.00000000000E+00  0.13096004795E+04  0.41037194821E+04  0.38891464580E+04 0.  0.
        3    1    3    3  502    0  0.24663889896E+03 -0.19126500274E+04  0.91817969003E+03  0.21359107723E+04  0.10100000352E+00 0.  1.
       -3    1    3    3    0  502 -0.24663889896E+03  0.19126500274E+04  0.39142078943E+03  0.19678087098E+04  0.10100000352E+00 0. -1.
</event>
<event>
 5   0  0.2632875E-08  0.3884505E+04  0.7818609E-02  0.8028260E-01
       -1   -1    0    0    0  501  0.00000000000E+00  0.00000000000E+00  0.11271634739E+04  0.11271634739E+04  0.50400001928E-02 0.  1.
        1   -1    0    0  501    0  0.00000000000E+00  0.00000000000E+00 -0.33467591851E+04  0.33467591851E+04  0.50400001928E-02 0. -1.
    10030    2    1    2    0    0  0.00000000000E+00  0.00000000000E+00 -0.22195957112E+04  0.44739226590E+04  0.38845049668E+04 0.  0.
        4    1    3    3  502    0 -0.19287768793E+04 -0.27074574939E+02 -0.84860561721E+03  0.21073790331E+04  0.12699999809E+01 0.  1.
       -4    1    3    3    0  502  0.19287768793E+04  0.27074574939E+02 -0.13709900940E+04  0.23665436259E+04  0.12699999809E+01 0. -1.
</event>
<event>
 5   0  0.2632875E-08  0.3667011E+04  0.7818609E-02  0.8075312E-01
        1   -1    0    0  501    0  0.00000000000E+00  0.00000000000E+00  0.15168139294E+04  0.15168139294E+04  0.50400001928E-02 0.  1.
       -1   -1    0    0    0  501  0.00000000000E+00  0.00000000000E+00 -0.22163183070E+04  0.22163183070E+04  0.50400001928E-02 0. -1.
    10030    2    1    2    0    0  0.00000000000E+00  0.00000000000E+00 -0.69950437760E+03  0.37331322364E+04  0.36670110335E+04 0.  0.
        4    1    3    3  502    0 -0.68155066169E+03 -0.50954660269E+03  0.13035983874E+04  0.15567656899E+04  0.12699999809E+01 0.  1.
       -4    1    3    3    0  502  0.68155066169E+03  0.50954660269E+03 -0.20031027650E+04  0.21763665465E+04  0.12699999809E+01 0. -1.
</event>
<event>
 5   0  0.8676098E-08  0.3796575E+04  0.7818609E-02  0.8046890E-01
       -2   -1    0    0    0  501  0.00000000000E+00  0.00000000000E+00  0.16595338750E+04  0.16595338750E+04  0.25500000920E-02 0. -1.
        2   -1    0    0  501    0  0.00000000000E+00  0.00000000000E+00 -0.21713898873E+04  0.21713898873E+04  0.25500000920E-02 0.  1.
    10030    2    1    2    0    0  0.00000000000E+00  0.00000000000E+00 -0.51185601225E+03  0.38309237623E+04  0.37965748110E+04 0.  0.
        3    1    3    3  502    0  0.13195456894E+04  0.95599949874E+03  0.72671999979E+03  0.17841686681E+04  0.10100000352E+00 0. -1.
       -3    1    3    3    0  502 -0.13195456894E+04 -0.95599949874E+03 -0.12385760120E+04  0.20467550942E+04  0.10100000352E+00 0.  1.
</event>
<event>
 5   0  0.2632875E-08  0.3899117E+04  0.7818609E-02  0.8025213E-01
        1   -1    0    0  501    0  0.00000000000E+00  0.00000000000E+00  0.21534536507E+04  0.21534536508E+04  0.50400001928E-02 0.  1.
       -1   -1    0    0    0  501  0.00000000000E+00  0.00000000000E+00 -0.17649689465E+04  0.17649689465E+04  0.50400001928E-02 0. -1.
    10030    2    1    2    0    0  0.00000000000E+00  0.00000000000E+00  0.38848470426E+03  0.39184225972E+04  0.38991172443E+04 0.  0.
        5    1    3    3  502    0  0.37615729320E+03 -0.86895736051E+03  0.19068442016E+04  0.21290040166E+04  0.46999998093E+01 0.  1.
       -5    1    3    3    0  502 -0.37615729320E+03  0.86895736051E+03 -0.15183594973E+04  0.17894185806E+04  0.46999998093E+01 0. -1.
</event>
<event>
 5   0  0.2632875E-08  0.3849220E+04  0.7818609E-02  0.8035674E-01
       -1   -1    0    0    0  501  0.00000000000E+00  0.00000000000E+00  0.17652454545E+04  0.17652454545E+04  0.50400001928E-02 0.  1.
        1   -1    0    0  501    0  0.00000000000E+00  0.00000000000E+00 -0.20983615671E+04  0.20983615671E+04  0.50400001928E-02 0. -1.
    10030    2    1    2    0    0  0.00000000000E+00  0.00000000000E+00 -0.33311611257E+03  0.38636070217E+04  0.38492197746E+04 0.  0.
        1    1    3    3  502    0 -0.28537567700E+03 -0.18738278358E+04  0.16853580866E+03  0.19029120721E+04  0.50400001928E-02 0. -1.
       -1    1    3    3    0  502  0.28537567700E+03  0.18738278358E+04 -0.50165192123E+03  0.19606949496E+04  0.50400001928E-02 0.  1.
</event>
<event>
 5   0  0.2632875E-08  0.3897119E+04  0.7818609E-02  0.8025629E-01
        1   -1    0    0  501    0  0.00000000000E+00  0.00000000000E+00  0.20069924524E+04  0.20069924524E+04  0.50400001928E-02 0.  1.
       -1   -1    0    0    0  501  0.00000000000E+00  0.00000000000E+00 -0.18918282151E+04  0.18918282151E+04  0.50400001928E-02 0. -1.
    10030    2    1    2    0    0  0.00000000000E+00  0.00000000000E+00  0.11516423723E+03  0.38988206675E+04  0.38971194228E+04 0.  0.
        4    1    3    3  502    0 -0.33704641040E+03  0.80829198576E+03  0.17990163197E+04  0.20008492068E+04  0.12699999809E+01 0.  1.
       -4    1    3    3    0  502  0.33704641040E+03 -0.80829198576E+03 -0.16838520825E+04  0.18979714607E+04  0.12699999809E+01 0. -1.
</event>
<event>
 5   0  0.8476262E-08  0.3843721E+04  0.7818609E-02  0.8036837E-01
        2   -1    0    0  501    0  0.00000000000E+00  0.00000000000E+00  0.22496435468E+04  0.22496435468E+04  0.25500000920E-02 0. -1.
       -2   -1    0    0    0  501  0.00000000000E+00  0.00000000000E+00 -0.16418366221E+04  0.16418366221E+04  0.25500000920E-02 0.  1.
    10030    2    1    2    0    0  0.00000000000E+00  0.00000000000E+00  0.60780692468E+03  0.38914801689E+04  0.38437206776E+04 0.  0.
        2    1    3    3  502    0  0.11053584479E+04  0.15533040160E+04  0.58035189735E+02  0.19073381314E+04  0.25500000920E-02 0.  1.
       -2    1    3    3    0  502 -0.11053584479E+04 -0.15533040160E+04  0.54977173494E+03  0.19841420375E+04  0.25500000920E-02 0. -1.
</event>
<event>
 5   0  0.8476262E-08  0.3961001E+04  0.7818609E-02  0.8012460E-01
        2   -1    0    0  501    0  0.00000000000E+00  0.00000000000E+00  0.16373340635E+04  0.16373340635E+04  0.25500000920E-02 0.  1.
       -2   -1    0    0    0  501  0.00000000000E+00  0.00000000000E+00 -0.23955905655E+04  0.23955905655E+04  0.25500000920E-02 0. -1.
    10030    2    1    2    0    0  0.00000000000E+00  0.00000000000E+00 -0.75825650196E+03  0.40329246290E+04  0.39610009013E+04 0.  0.
        2    1    3    3  502    0 -0.84761799801E+03  0.17890838896E+04 -0.43585893645E+03  0.20271286212E+04  0.25500000920E-02 0. -1.
       -2    1    3    3    0  502  0.84761799801E+03 -0.17890838896E+04 -0.32239756552E+03  0.20057960078E+04  0.25500000920E-02 0.  1.
</event>
<event>
 5   0  0.8476262E-08  0.3897499E+04  0.7818609E-02  0.8025549E-01
       -2   -1    0    0    0  501  0.00000000000E+00  0.00000000000E+00  0.20609852074E+04  0.20609852074E+04  0.25500000920E-02 0.  1.
        2   -1    0    0  501    0  0.00000000000E+00  0.00000000000E+00 -0.18426262195E+04  0.18426262195E+04  0.25500000920E-02 0. -1.
    10030    2    1    2    0    0  0.00000000000E+00  0.00000000000E+00  0.21835898795E+03  0.39036114269E+04  0.38974993938E+04 0.  0.
        2    1    3    3  502    0 -0.84661735919E+03  0.64206439428E+03 -0.15269727369E+04  0.18602831447E+04  0.25500000920E-02 0. -1.
       -2    1    3    3    0  502  0.84661735919E+03 -0.64206439428E+03  0.17453317248E+04  0.20433282822E+04  0.25500000920E-02 0.  1.
</event>
<event>
 5   0  0.2632875E-08  0.3894381E+04  0.7818609E-02  0.8026199E-01
       -1   -1    0    0    0  501  0.00000000000E+00  0.00000000000E+00  0.30273869962E+04  0.30273869962E+04  0.50400001928E-02 0.  1.
        1   -1    0    0  501    0  0.00000000000E+00  0.00000000000E+00 -0.12524167403E+04  0.12524167403E+04  0.50400001928E-02 0. -1.
    10030    2    1    2    0    0  0.00000000000E+00  0.00000000000E+00  0.17749702560E+04  0.42798037365E+04  0.38943806457E+04 0.  0.
        2    1    3    3  502    0 -0.14266881707E+04 -0.12525389700E+04  0.41192585428E+03  0.19426723648E+04  0.25500000920E-02 0. -1.
       -2    1    3    3    0  502  0.14266881707E+04  0.12525389700E+04  0.13630444017E+04  0.23371313717E+04  0.25500000920E-02 0.  1.
</event>
<event>
 5   0  0.2632875E-08  0.3772098E+04  0.7818609E-02  0.8052169E-01
        1   -1    0    0  501    0  0.00000000000E+00  0.00000000000E+00  0.17702639575E+04  0.17702639575E+04  0.50400001928E-02 0. -1.
       -1   -1    0    0    0  501  0.00000000000E+00  0.00000000000E+00 -0.20094068226E+04  0.20094068226E+04  0.50400001928E-02 0.  1.
    10030    2    1    2    0    0  0.00000000000E+00  0.00000000000E+00 -0.23914286510E+03  0.37796707801E+04  0.37720978110E+04 0.  0.
        4    1    3    3  502    0  0.16164149280E+04 -0.57981643362E+03  0.66186253963E+03  0.18403934228E+04  0.12699999809E+01 0. -1.
       -4    1    3    3    0  502 -0.16164149280E+04  0.57981643362E+03 -0.90100540473E+03  0.19392773573E+04  0.12699999809E+01 0.  1.
</event>
<event>
 5   0  0.2632875E-08  0.3859142E+04  0.7818609E-02  0.8033581E-01
        1   -1    0    0  501    0  0.00000000000E+00  0.00000000000E+00  0.24105179720E+04  0.24105179720E+04  0.50400001928E-02 0.  1.
       -1   -1    0    0    0  501  0.00000000000E+00  0.00000000000E+00 -0.15445827866E+04  0.15445827866E+04  0.50400001928E-02 0. -1.
    10030    2    1    2    0    0  0.00000000000E+00  0.00000000000E+00  0.86593518534E+03  0.39551007586E+04  0.38591421670E+04 0.  0.
        3    1    3    3  502    0 -0.27153842241E+03 -0.63114985825E+03 -0.14149646038E+04  0.15729615694E+04  0.10100000352E+00 0. -1.
       -3    1    3    3    0  502  0.27153842241E+03  0.63114985825E+03  0.22808997892E+04  0.23821391892E+04  0.10100000352E+00 0.  1.
</event>
<event>
 5   0  0.8438211E-08  0.3904834E+04  0.7818609E-02  0.8024025E-01
        2   -1    0    0  501    0  0.00000000000E+00  0.00000000000E+00  0.23775334534E+04  0.23775334534E+04  0.25500000920E-02 0.  1.
       -2   -1    0    0    0  501  0.00000000000E+00  0.00000000000E+00 -0.16033137222E+04  0.16033137222E+04  0.25500000920E-02 0. -1.
    10030    2    1    2    0    0  0.00000000000E+00  0.00000000000E+00  0.77421973120E+03  0.39808471756E+04  0.39048339329E+04 0.  0.
        5    1    3    3  502    0 -0.19749411307E+03  0.71306824037E+03 -0.14548376906E+04  0.16321902573E+04  0.46999998093E+01 0. -1.
       -5    1    3    3    0  502  0.19749411307E+03 -0.71306824037E+03  0.22290574218E+04  0.23486569183E+04  0.46999998093E+01 0.  1.
</event>
<event>
 5   0  0.2632875E-08  0.3903559E+04  0.7818609E-02  0.8024289E-01
       -1   -1    0    0    0  501  0.00000000000E+00  0.00000000000E+00  0.14810899593E+04  0.14810899593E+04  0.50400001928E-02 0.  1.
        1   -1    0    0  501    0  0.00000000000E+00  0.00000000000E+00 -0.25720543985E+04  0.25720543985E+04  0.50400001928E-02 0. -1.
    10030    2    1    2    0    0  0.00000000000E+00  0.00000000000E+00 -0.10909644392E+04  0.40531443578E+04  0.39035593729E+04 0.  0.
        4    1    3    3  502    0  0.14194114462E+04 -0.12524073566E+04 -0.10393006586E+04  0.21594907993E+04  0.12699999809E+01 0. -1.
       -4    1    3    3    0  502 -0.14194114462E+04  0.12524073566E+04 -0.51663780601E+02  0.18936535585E+04  0.12699999809E+01 0.  1.
</event>
<event>
 5   0  0.8438211E-08  0.3907089E+04  0.7818609E-02  0.8023556E-01
        2   -1    0    0  501    0  0.00000000000E+00  0.00000000000E+00  0.14429333270E+04  0.14429333270E+04  0.25500000920E-02 0.  1.
       -2   -1    0    0    0  501  0.00000000000E+00  0.00000000000E+00 -0.26448459054E+04  0.26448459054E+04  0.25500000920E-02 0. -1.
    10030    2    1    2    0    0  0.00000000000E+00  0.00000000000E+00 -0.12019125785E+04  0.40877792324E+04  0.39070890963E+04 0.  0.
        5    1    3    3  502    0 -0.55899594455E+03  0.15075133107E+04 -0.17618854407E+04  0.23852327442E+04  0.46999998093E+01 0. -1.
       -5    1    3    3    0  502  0.55899594455E+03 -0.15075133107E+04  0.55997286223E+03  0.17025464882E+04  0.46999998093E+01 0.  1.
</event>
<event>
 5   0  0.2632875E-08  0.3922971E+04  0.7818609E-02  0.8020269E-01
        1   -1    0    0  501    0  0.00000000000E+00  0.00000000000E+00  0.18705096526E+04  0.18705096526E+04  0.50400001928E-02 0.  1.
       -1   -1    0    0    0  501  0.00000000000E+00  0.00000000000E+00 -0.20568857427E+04  0.20568857427E+04  0.50400001928E-02 0. -1.
    10030    2    1    2    0    0  0.00000000000E+00  0.00000000000E+00 -0.18637609013E+03  0.39273953953E+04  0.39229706274E+04 0.  0.
        4    1    3    3  502    0  0.43747263647E+03  0.19428234259E+03 -0.19975152047E+04  0.20540682905E+04  0.12699999809E+01 0. -1.
       -4    1    3    3    0  502 -0.43747263647E+03 -0.19428234259E+03  0.18111391145E+04  0.18733271048E+04  0.12699999809E+01 0.  1.
</event>
<event>
 5   0  0.2632875E-08  0.3891896E+04  0.7818609E-02  0.8026717E-01
       -1   -1    0    0    0  501  0.00000000000E+00  0.00000000000E+00  0.21475420032E+04  0.21475420032E+04  0.50400001928E-02 0. -1.
        1   -1    0    0  501    0  0.00000000000E+00  0.00000000000E+00 -0.17632776965E+04  0.17632776965E+04  0.50400001928E-02 0.  1.
    10030    2    1    2    0    0  0.00000000000E+00  0.00000000000E+00  0.38426430673E+03  0.39108196997E+04  0.38918956392E+04 0.  0.
        3    1    3    3  502    0  0.80888401192E+03 -0.50313516277E+03  0.18972254566E+04  0.21229467210E+04  0.10100000352E+00 0. -1.
       -3    1    3    3    0  502 -0.80888401192E+03  0.50313516277E+03 -0.15129611499E+04  0.17878729787E+04  0.10100000352E+00 0.  1.
</event>
<event>
 5   0  0.2632875E-08  0.3951759E+04  0.7818609E-02  0.8014350E-01
        1   -1    0    0  501    0  0.00000000000E+00  0.00000000000E+00  0.17933286262E+04  0.17933286262E+04  0.50400001928E-02 0. -1.
       -1   -1    0    0    0  501  0.00000000000E+00  0.00000000000E+00 -0.21770130392E+04  0.21770130392E+04  0.50400001928E-02 0.  1.
    10030    2    1    2    0    0  0.00000000000E+00  0.00000000000E+00 -0.38368441304E+03  0.39703416654E+04  0.39517590022E+04 0.  0.
        3    1    3    3  502    0 -0.44423388393E+03  0.19422781837E+02  0.17424065746E+04  0.17982496126E+04  0.10100000352E+00 0. -1.
       -3    1    3    3    0  502  0.44423388393E+03 -0.19422781837E+02 -0.21260909876E+04  0.21720920528E+04  0.10100000352E+00 0.  1.
</event>
<event>
 5   0  0.8342802E-08  0.3905252E+04  0.7818609E-02  0.8023938E-01
       -2   -1    0    0    0  501  0.00000000000E+00  0.00000000000E+00  0.17239892858E+04  0.17239892858E+04  0.25500000920E-02 0.  1.
        2   -1    0    0  501    0  0.00000000000E+00  0.00000000000E+00 -0.22115844264E+04  0.22115844264E+04  0.25500000920E-02 0. -1.
    10030    2    1    2    0    0  0.00000000000E+00  0.00000000000E+00 -0.48759514068E+03  0.39355737122E+04  0.39052517746E+04 0.  0.
        4    1    3    3  502    0  0.10456124888E+04  0.13382556314E+04  0.72727775874E+03  0.18474761603E+04  0.12699999809E+01 0.  1.
       -4    1    3    3    0  502 -0.10456124888E+04 -0.13382556314E+04 -0.12148728994E+04  0.20880975519E+04  0.12699999809E+01 0. -1.
</event>
<event>
 5   0  0.8476262E-08  0.3903740E+04  0.7818609E-02  0.8024252E-01
        2   -1    0    0  501    0  0.00000000000E+00  0.00000000000E+00  0.11649285599E+04  0.11649285599E+04  0.25500000920E-02 0.  1.
       -2   -1    0    0    0  501  0.00000000000E+00  0.00000000000E+00 -0.32704115920E+04  0.32704115920E+04  0.25500000920E-02 0. -1.
    10030    2    1    2    0    0  0.00000000000E+00  0.00000000000E+00 -0.21054830321E+04  0.44353401519E+04  0.39037396769E+04 0.  0.
        2    1    3    3  502    0 -0.98096626843E+03  0.16252526061E+04 -0.15684896618E+04  0.24624988675E+04  0.25500000920E-02 0.  1.
       -2    1    3    3    0  502  0.98096626843E+03 -0.16252526061E+04 -0.53699337030E+03  0.19728412844E+04  0.25500000920E-02 0. -1.
</event>
<event>
 5   0  0.2632875E-08  0.3927525E+04  0.7818609E-02  0.8019329E-01
       -1   -1    0    0    0  501  0.00000000000E+00  0.00000000000E+00  0.16691903786E+04  0.16691903786E+04  0.50400001928E-02 0. -1.
        1   -1    0    0  501    0  0.00000000000E+00  0.00000000000E+00 -0.23103199304E+04  0.23103199304E+04  0.50400001928E-02 0.  1.
    10030    2    1    2    0    0  0.00000000000E+00  0.00000000000E+00 -0.64112955180E+03  0.39795103090E+04  0.39275253274E+04 0.  0.
        3    1    3    3  502    0  0.16727738712E+04 -0.10038849048E+04 -0.93079259530E+02  0.19531054977E+04  0.10100000352E+00 0. -1.
       -3    1    3    3    0  502 -0.16727738712E+04  0.10038849048E+04 -0.54805029227E+03  0.20264048113E+04  0.10100000352E+00 0.  1.
</event>
<event>
 5   0  0.8676098E-08  0.3857899E+04  0.7818609E-02  0.8033843E-01
       -2   -1    0    0    0  501  0.00000000000E+00  0.00000000000E+00  0.14316371113E+04  0.14316371113E+04  0.25500000920E-02 0.  1.
        2   -1    0    0  501    0  0.00000000000E+00  0.00000000000E+00 -0.25990154825E+04  0.25990154825E+04  0.25500000920E-02 0. -1.
    10030    2    1    2    0    0  0.00000000000E+00  0.00000000000E+00 -0.11673783712E+04  0.40306525938E+04  0.38578994376E+04 0.  0.
        3    1    3    3  502    0  0.27537455383E+03 -0.11521842546E+04  0.10068088850E+04  0.15546780511E+04  0.10100000352E+00 0.  1.
       -3    1    3    3    0  502 -0.27537455383E+03  0.11521842546E+04 -0.21741872562E+04  0.24759745428E+04  0.10100000352E+00 0. -1.
</event>
<event>
 5   0  0.2632875E-08  0.3903676E+04  0.7818609E-02  0.8024265E-01
       -1   -1    0    0    0  501  0.00000000000E+00  0.00000000000E+00  0.27457098173E+04  0.27457098173E+04  0.50400001928E-02 0.  1.
        1   -1    0    0  501    0  0.00000000000E+00  0.00000000000E+00 -0.13874994205E+04  0.13874994205E+04  0.50400001928E-02 0. -1.
    10030    2    1    2    0    0  0.00000000000E+00  0.00000000000E+00  0.13582103968E+04  0.41332092379E+04  0.39036755913E+04 0.  0.
        1    1    3    3  502    0  0.74405031637E+03  0.87150908304E+03 -0.99384196779E+03  0.15168588636E+04  0.50400001928E-02 0. -1.
       -1    1    3    3    0  502 -0.74405031637E+03 -0.87150908304E+03  0.23520523646E+04  0.26163503743E+04  0.50400001928E-02 0.  1.
</event>
<event>
 5   0  0.2632875E-08  0.3890343E+04  0.7818609E-02  0.8027041E-01
        1   -1    0    0  501    0  0.00000000000E+00  0.00000000000E+00  0.14578212783E+04  0.14578212783E+04  0.50400001928E-02 0.  1.
       -1   -1    0    0    0  501  0.00000000000E+00  0.00000000000E+00 -0.25954428246E+04  0.25954428246E+04  0.50400001928E-02 0. -1.
    10030    2    1    2    0    0  0.00000000000E+00  0.00000000000E+00 -0.11376215463E+04  0.40532641029E+04  0.38903428005E+04 0.  0.
        4    1    3    3  502    0 -0.17233922676E+04  0.13015556872E+03 -0.14987529201E+04  0.22876370579E+04  0.12699999809E+01 0. -1.
       -4    1    3    3    0  502  0.17233922676E+04 -0.13015556872E+03  0.36113137377E+03  0.17656270450E+04  0.12699999809E+01 0.  1.
</event>
<event>
 5   0  0.2632875E-08  0.3903068E+04  0.7818609E-02  0.8024391E-01
       -1   -1    0    0    0  501  0.00000000000E+00  0.00000000000E+00  0.15406885372E+04  0.15406885373E+04  0.50400001928E-02 0.  1.
        1   -1    0    0  501    0  0.00000000000E+00  0.00000000000E+00 -0.24719370145E+04  0.24719370145E+04  0.50400001928E-02 0. -1.
    10030    2    1    2    0    0  0.00000000000E+00  0.00000000000E+00 -0.93124847728E+03  0.40126255518E+04  0.39030680358E+04 0.  0.
        5    1    3    3  502    0 -0.50184527058E+02 -0.81804948407E+03  0.13551736380E+04  0.15837427583E+04  0.46999998093E+01 0.  1.
       -5    1    3    3    0  502  0.50184527058E+02  0.81804948407E+03 -0.22864221153E+04  0.24288827935E+04  0.46999998093E+01 0. -1.
</event>
<event>
 5   0  0.8676098E-08  0.3865095E+04  0.7818609E-02  0.8032328E-01
       -2   -1    0    0    0  501  0.00000000000E+00  0.00000000000E+00  0.17670593579E+04  0.17670593579E+04  0.25500000920E-02 0.  1.
        2   -1    0    0  501    0  0.00000000000E+00  0.00000000000E+00 -0.21135341481E+04  0.21135341481E+04  0.25500000920E-02 0. -1.
    10030    2    1    2    0    0  0.00000000000E+00  0.00000000000E+00 -0.34647479020E+03  0.38805935060E+04  0.38650952354E+04 0.  0.
        3    1    3    3  502    0 -0.88912017947E+03 -0.14177937317E+04 -0.11435839257E+04  0.20269331425E+04  0.10100000352E+00 0. -1.
       -3    1    3    3    0  502  0.88912017947E+03  0.14177937317E+04  0.79710913547E+03  0.18536603635E+04  0.10100000352E+00 0.  1.
</event>
<event>
 5   0  0.2632875E-08  0.3893399E+04  0.7818609E-02  0.8026403E-01
        1   -1    0    0  501    0  0.00000000000E+00  0.00000000000E+00  0.24866545095E+04  0.24866545095E+04  0.50400001928E-02 0.  1.
       -1   -1    0    0    0  501  0.00000000000E+00  0.00000000000E+00 -0.15239911954E+04  0.15239911954E+04  0.50400001928E-02 0. -1.
    10030    2    1    2    0    0  0.00000000000E+00  0.00000000000E+00  0.96266331409E+03  0.40106457050E+04  0.38933993264E+04 0.  0.
        1    1    3    3  502    0  0.78356915443E+03  0.10009675127E+02 -0.13543417916E+04  0.15647116353E+04  0.50400001928E-02 0. -1.
       -1    1    3    3    0  502 -0.78356915443E+03 -0.10009675127E+02  0.23170051057E+04  0.24459340696E+04  0.50400001928E-02 0.  1.
</event>
<event>
 5   0  0.8551754E-08  0.3895132E+04  0.7818609E-02  0.8026043E-01
        2   -1    0    0  501    0  0.00000000000E+00  0.00000000000E+00  0.28621557648E+04  0.28621557648E+04  0.25500000920E-02 0.  1.
       -2   -1    0    0    0  501  0.00000000000E+00  0.00000000000E+00 -0.13252292171E+04  0.13252292171E+04  0.25500000920E-02 0. -1.
    10030    2    1    2    0    0  0.00000000000E+00  0.00000000000E+00  0.15369265477E+04  0.41873849819E+04  0.38951315476E+04 0.  0.
        1    1    3    3  502    0 -0.14043166514E+04  0.72893972990E+03  0.19892520777E+04  0.25417675378E+04  0.50400001928E-02 0.  1.
       -1    1    3    3    0  502  0.14043166514E+04 -0.72893972990E+03 -0.45232552998E+03  0.16456174441E+04  0.50400001928E-02 0. -1.
</event>
<event>
 5   0  0.2632875E-08  0.3895409E+04  0.7818609E-02  0.8025985E-01
       -1   -1    0    0    0  501  0.00000000000E+00  0.00000000000E+00  0.15196676278E+04  0.15196676278E+04  0.50400001928E-02 0. -1.
        1   -1    0    0  501    0  0.00000000000E+00  0.00000000000E+00 -0.24963047571E+04  0.24963047571E+04  0.50400001928E-02 0.  1.
    10030    2    1    2    0    0  0.00000000000E+00  0.00000000000E+00 -0.97663712927E+03  0.40159723849E+04  0.38954093641E+04 0.  0.
        1    1    3    3  502    0 -0.15492981409E+04  0.47442967636E+03 -0.16025772896E+04  0.22789607755E+04  0.50400001928E-02 0.  1.
       -1    1    3    3    0  502  0.15492981409E+04 -0.47442967636E+03  0.62594016030E+03  0.17370116095E+04  0.50400001928E-02 0. -1.
</event>
<event>
 5   0  0.2632875E-08  0.3890269E+04  0.7818609E-02  0.8027056E-01
        1   -1    0    0  501    0  0.00000000000E+00  0.00000000000E+00  0.16498586998E+04  0.16498586998E+04  0.50400001928E-02 0.  1.
       -1   -1    0    0    0  501  0.00000000000E+00  0.00000000000E+00 -0.22932558868E+04  0.22932558869E+04  0.50400001928E-02 0. -1.
    10030    2    1    2    0    0  0.00000000000E+00  0.00000000000E+00 -0.64339718704E+03  0.39431145867E+04  0.38902689757E+04 0.  0.
        5    1    3    3  502    0  0.14162050748E+04  0.68123307283E+03 -0.14834846967E+04  0.21611256902E+04  0.46999998093E+01 0. -1.
       -5    1    3    3    0  502 -0.14162050748E+04 -0.68123307283E+03  0.84008750965E+03  0.17819888965E+04  0.46999998093E+01 0.  1.
</event>
<event>
 5   0  0.2632875E-08  0.3815569E+04  0.7818609E-02  0.8042822E-01
        1   -1    0    0  501    0  0.00000000000E+00  0.00000000000E+00  0.12846062897E+04  0.12846062897E+04  0.50400001928E-02 0.  1.
       -1   -1    0    0    0  501  0.00000000000E+00  0.00000000000E+00 -0.28332737230E+04  0.28332737230E+04  0.50400001928E-02 0. -1.
    10030    2    1    2    0    0  0.00000000000E+00  0.00000000000E+00 -0.15486674333E+04  0.41178800126E+04  0.38155687623E+04 0.  0.
        2    1    3    3  502    0  0.12659534051E+03 -0.26252418980E+03 -0.28091051454E+04  0.28241843156E+04  0.25500000920E-02 0. -1.
       -2    1    3    3    0  502 -0.12659534051E+03  0.26252418980E+03  0.12604377121E+04  0.12936956970E+04  0.25500000920E-02 0.  1.
</event>
<event>
 5   0  0.2632875E-08  0.3902859E+04  0.7818609E-02  0.8024435E-01
        1   -1    0    0  501    0  0.00000000000E+00  0.00000000000E+00  0.13581571644E+04  0.13581571644E+04  0.50400001928E-02 0. -1.
       -1   -1    0    0    0  501  0.00000000000E+00  0.00000000000E+00 -0.28038557589E+04  0.28038557589E+04  0.50400001928E-02 0.  1.
    10030    2    1    2    0    0  0.00000000000E+00  0.00000000000E+00 -0.14456985945E+04  0.41620129233E+04  0.39028588429E+04 0.  0.
        4    1    3    3  502    0 -0.13415420778E+04 -0.77785791343E+02  0.78613251113E+03  0.15568531445E+04  0.12699999809E+01 0. -1.
       -4    1    3    3    0  502  0.13415420778E+04  0.77785791343E+02 -0.22318311056E+04  0.26051597787E+04  0.12699999809E+01 0.  1.
</event>
<event>
 5   0  0.2632875E-08  0.3893023E+04  0.7818609E-02  0.8026482E-01
        1   -1    0    0  501    0  0.00000000000E+00  0.00000000000E+00  0.10883255250E+04  0.10883255250E+04  0.50400001928E-02 0.  1.
       -1   -1    0    0    0  501  0.00000000000E+00  0.00000000000E+00 -0.34814089982E+04  0.34814089982E+04  0.50400001928E-02 0. -1.
    10030    2    1    2    0    0  0.00000000000E+00  0.00000000000E+00 -0.23930834732E+04  0.45697345233E+04  0.38930226179E+04 0.  0.
        5    1    3    3  502    0  0.12607506774E+04  0.10115925101E+04  0.76436834230E+02  0.16182324792E+04  0.46999998093E+01 0.  1.
       -5    1    3    3    0  502 -0.12607506774E+04 -0.10115925101E+04 -0.24695203074E+04  0.29515020440E+04  0.46999998093E+01 0. -1.
</event>
<event>
 5   0  0.8476262E-08  0.3886801E+04  0.7818609E-02  0.8027780E-01
       -2   -1    0    0    0  501  0.00000000000E+00  0.00000000000E+00  0.22794596473E+04  0.22794596473E+04  0.25500000920E-02 0. -1.
        2   -1    0    0  501    0  0.00000000000E+00  0.00000000000E+00 -0.16568860949E+04  0.16568860949E+04  0.25500000920E-02 0.  1.
    10030    2    1    2    0    0  0.00000000000E+00  0.00000000000E+00  0.62257355240E+03  0.39363457422E+04  0.38868007376E+04 0.  0.
        2    1    3    3  502    0 -0.91840575420E+02  0.88203328229E+03  0.20626035263E+04  0.22451616220E+04  0.25500000920E-02 0. -1.
       -2    1    3    3    0  502  0.91840575420E+02 -0.88203328229E+03 -0.14400299739E+04  0.16911841201E+04  0.25500000920E-02 0.  1.
</event>
<event>
 5   0  0.2632875E-08  0.3876300E+04  0.7818609E-02  0.8029976E-01
        1   -1    0    0  501    0  0.00000000000E+00  0.00000000000E+00  0.24808355946E+04  0.24808355946E+04  0.50400001928E-02 0.  1.
       -1   -1    0    0    0  501  0.00000000000E+00  0.00000000000E+00 -0.15141777609E+04  0.15141777609E+04  0.50400001928E-02 0. -1.
    10030    2    1    2    0    0  0.00000000000E+00  0.00000000000E+00  0.96665783369E+03  0.39950133556E+04  0.38763003423E+04 0.  0.
        1    1    3    3  502    0  0.13623198755E+04 -0.13446515915E+04  0.79665044493E+03  0.20733198685E+04  0.50400001928E-02 0.  1.
       -1    1    3    3    0  502 -0.13623198755E+04  0.13446515915E+04  0.17000738876E+03  0.19216934870E+04  0.50400001928E-02 0. -1.
</event>
<event>
 5   0  0.2632875E-08  0.3932109E+04  0.7818609E-02  0.8018384E-01
        1   -1    0    0  501    0  0.00000000000E+00  0.00000000000E+00  0.14536249883E+04  0.14536249883E+04  0.50400001928E-02 0.  1.
       -1   -1    0    0    0  501  0.00000000000E+00  0.00000000000E+00 -0.26591242417E+04  0.26591242417E+04  0.50400001928E-02 0. -1.
    10030    2    1    2    0    0  0.00000000000E+00  0.00000000000E+00 -0.12054992534E+04  0.41127492300E+04  0.39321085665E+04 0.  0.
        1    1    3    3  502    0 -0.86005981303E+03  0.11441651495E+04 -0.20124626994E+04  0.24695794961E+04  0.50400001928E-02 0.  1.
       -1    1    3    3    0  502  0.86005981303E+03 -0.11441651495E+04  0.80696344597E+03  0.16431697339E+04  0.50400001928E-02 0. -1.
</event>
<event>
 5   0  0.2632875E-08  0.3907124E+04  0.7818609E-02  0.8023549E-01
       -1   -1    0    0    0  501  0.00000000000E+00  0.00000000000E+00  0.17446477790E+04  0.17446477790E+04  0.50400001928E-02 0. -1.
        1   -1    0    0  501    0  0.00000000000E+00  0.00000000000E+00 -0.21874923180E+04  0.21874923180E+04  0.50400001928E-02 0.  1.
    10030    2    1    2    0    0  0.00000000000E+00  0.00000000000E+00 -0.44284453898E+03  0.39321400970E+04  0.39071235528E+04 0.  0.
        3    1    3    3  502    0 -0.29444167585E+03 -0.15415511202E+04 -0.13921970184E+04  0.20979247615E+04  0.10100000352E+00 0.  1.
       -3    1    3    3    0  502  0.29444167585E+03  0.15415511202E+04  0.94935247939E+03  0.18342153355E+04  0.10100000352E+00 0. -1.
</event>
<event>
 5   0  0.8342802E-08  0.3843545E+04  0.7818609E-02  0.8036874E-01
       -2   -1    0    0    0  501  0.00000000000E+00  0.00000000000E+00  0.19502072325E+04  0.19502072325E+04  0.25500000920E-02 0. -1.
        2   -1    0    0  501    0  0.00000000000E+00  0.00000000000E+00 -0.18937519445E+04  0.18937519445E+04  0.25500000920E-02 0.  1.
    10030    2    1    2    0    0  0.00000000000E+00  0.00000000000E+00  0.56455287926E+02  0.38439591770E+04  0.38435445822E+04 0.  0.
        4    1    3    3  502    0  0.49594200062E+03  0.64659356410E+03 -0.17124098700E+04  0.18964152712E+04  0.12699999809E+01 0.  1.
       -4    1    3    3    0  502 -0.49594200062E+03 -0.64659356410E+03  0.17688651579E+04  0.19475439058E+04  0.12699999809E+01 0. -1.
</event>
<event>
 5   0  0.2632875E-08  0.3904511E+04  0.7818609E-02  0.8024092E-01
       -1   -1    0    0    0  501  0.00000000000E+00  0.00000000000E+00  0.17838000754E+04  0.17838000754E+04  0.50400001928E-02 0.  1.
        1   -1    0    0  501    0  0.00000000000E+00  0.00000000000E+00 -0.21366190532E+04  0.21366190532E+04  0.50400001928E-02 0. -1.
    10030    2    1    2    0    0  0.00000000000E+00  0.00000000000E+00 -0.35281897778E+03  0.39204191287E+04  0.39045108417E+04 0.  0.
        3    1    3    3  502    0 -0.42506827332E+03 -0.10642023270E+04 -0.17633843417E+04  0.21030297136E+04  0.10100000352E+00 0. -1.
       -3    1    3    3    0  502  0.42506827332E+03  0.10642023270E+04  0.14105653639E+04  0.18173894150E+04  0.10100000352E+00 0.  1.
</event>
<event>
 5   0  0.8342802E-08  0.3901458E+04  0.7818609E-02  0.8024726E-01
        2   -1    0    0  501    0  0.00000000000E+00  0.00000000000E+00  0.26498987490E+04  0.26498987490E+04  0.25500000920E-02 0.  1.
       -2   -1    0    0    0  501  0.00000000000E+00  0.00000000000E+00 -0.14360335597E+04  0.14360335597E+04  0.25500000920E-02 0. -1.
    10030    2    1    2    0    0  0.00000000000E+00  0.00000000000E+00  0.12138651893E+04  0.40859323087E+04  0.39014579498E+04 0.  0.
        4    1    3    3  502    0 -0.12756298997E+04  0.14421314856E+04  0.93539757813E+03  0.21405478516E+04  0.12699999809E+01 0. -1.
       -4    1    3    3    0  502  0.12756298997E+04 -0.14421314856E+04  0.27846761115E+03  0.19453844572E+04  0.12699999809E+01 0.  1.
</event>
<event>
 5   0  0.8676098E-08  0.3895678E+04  0.7818609E-02  0.8025929E-01
        2   -1    0    0  501    0  0.00000000000E+00  0.00000000000E+00  0.22593412588E+04  0.22593412588E+04  0.25500000920E-02 0.  1.
       -2   -1    0    0    0  501  0.00000000000E+00  0.00000000000E+00 -0.16792844704E+04  0.16792844704E+04  0.25500000920E-02 0. -1.
    10030    2    1    2    0    0  0.00000000000E+00  0.00000000000E+00  0.58005678844E+03  0.39386257292E+04  0.38956779586E+04 0.  0.
        3    1    3    3  502    0 -0.79606206954E+03  0.25838785903E+03  0.20682814954E+04  0.22312031415E+04  0.10100000352E+00 0.  1.
       -3    1    3    3    0  502  0.79606206954E+03 -0.25838785903E+03 -0.14882247070E+04  0.17074225877E+04  0.10100000352E+00 0. -1.
</event>
<event>
 5   0  0.8551754E-08  0.3818937E+04  0.7818609E-02  0.8042103E-01
       -2   -1    0    0    0  501  0.00000000000E+00  0.00000000000E+00  0.13513924426E+04  0.13513924426E+04  0.25500000920E-02 0. -1.
        2   -1    0    0  501    0  0.00000000000E+00  0.00000000000E+00 -0.26980098626E+04  0.26980098626E+04  0.25500000920E-02 0.  1.
    10030    2    1    2    0    0  0.00000000000E+00  0.00000000000E+00 -0.13466174200E+04  0.40494023052E+04  0.38189370973E+04 0.  0.
        1    1    3    3  502    0  0.18516301968E+04 -0.39942186135E+03 -0.92866976542E+03  0.21096207579E+04  0.50400001928E-02 0. -1.
       -1    1    3    3    0  502 -0.18516301968E+04  0.39942186135E+03 -0.41794765462E+03  0.19397815472E+04  0.50400001928E-02 0.  1.
</event>
<event>
 5   0  0.8342802E-08  0.3897667E+04  0.7818609E-02  0.8025515E-01
       -2   -1    0    0    0  501  0.00000000000E+00  0.00000000000E+00  0.13293743957E+04  0.13293743957E+04  0.25500000920E-02 0.  1.
        2   -1    0    0  501    0  0.00000000000E+00  0.00000000000E+00 -0.28569465621E+04  0.28569465621E+04  0.25500000920E-02 0. -1.
    10030    2    1    2    0    0  0.00000000000E+00  0.00000000000E+00 -0.15275721664E+04  0.41863209578E+04  0.38976667941E+04 0.  0.
        4    1    3    3  502    0  0.17659524732E+04  0.80369359026E+03 -0.96019039817E+03  0.21648276463E+04  0.12699999809E+01 0. -1.
       -4    1    3    3    0  502 -0.17659524732E+04 -0.80369359026E+03 -0.56738176819E+03  0.20214933115E+04  0.12699999809E+01 0.  1.
</event>
<event>
 5   0  0.2632875E-08  0.3903618E+04  0.7818609E-02  0.8024277E-01
        1   -1    0    0  501    0  0.00000000000E+00  0.00000000000E+00  0.16282205978E+04  0.16282205978E+04  0.50400001928E-02 0. -1.
       -1   -1    0    0    0  501  0.00000000000E+00  0.00000000000E+00 -0.23397060856E+04  0.23397060856E+04  0.50400001928E-02 0.  1.
    10030    2    1    2    0    0  0.00000000000E+00  0.00000000000E+00 -0.71148548782E+03  0.39679266834E+04  0.39036176254E+04 0.  0.
        3    1    3    3  502    0  0.41936203887E+03 -0.18986047276E+04 -0.52882176977E+03  0.20149979915E+04  0.10100000352E+00 0.  1.
       -3    1    3    3    0  502 -0.41936203887E+03  0.18986047276E+04 -0.18266371805E+03  0.19529286919E+04  0.10100000352E+00 0. -1.
</event>
<event>
 5   0  0.8676098E-08  0.3898154E+04  0.7818609E-02  0.8025413E-01
       -2   -1    0    0    0  501  0.00000000000E+00  0.00000000000E+00  0.24599605470E+04  0.24599605470E+04  0.25500000920E-02 0. -1.
        2   -1    0    0  501    0  0.00000000000E+00  0.00000000000E+00 -0.15442937529E+04  0.15442937529E+04  0.25500000920E-02 0.  1.
    10030    2    1    2    0    0  0.00000000000E+00  0.00000000000E+00  0.91566679415E+03  0.40042542999E+04  0.38981542838E+04 0.  0.
        3    1    3    3  502    0 -0.48406858414E+03 -0.12107881300E+04  0.19459073062E+04  0.23424101999E+04  0.10100000352E+00 0. -1.
       -3    1    3    3    0  502  0.48406858414E+03  0.12107881300E+04 -0.10302405121E+04  0.16618441000E+04  0.10100000352E+00 0.  1.
</event>
<event>
 5   0  0.2632875E-08  0.3900963E+04  0.7818609E-02  0.8024829E-01
        1   -1    0    0  501    0  0.00000000000E+00  0.00000000000E+00  0.24697876682E+04  0.24697876682E+04  0.50400001928E-02 0. -1.
       -1   -1    0    0    0  501  0.00000000000E+00  0.00000000000E+00 -0.15403667539E+04  0.15403667539E+04  0.50400001928E-02 0.  1.
    10030    2    1    2    0    0  0.00000000000E+00  0.00000000000E+00  0.92942091430E+03  0.40101544222E+04  0.39009633751E+04 0.  0.
        3    1    3    3  502    0 -0.97044330737E+02 -0.14780713261E+04  0.17691924347E+04  0.23074129081E+04  0.10100000352E+00 0. -1.
       -3    1    3    3    0  502  0.97044330737E+02  0.14780713261E+04 -0.83977152041E+03  0.17027415141E+04  0.10100000352E+00 0.  1.
</event>
<event>
 5   0  0.8342802E-08  0.3887920E+04  0.7818609E-02  0.8027546E-01
       -2   -1    0    0    0  501  0.00000000000E+00  0.00000000000E+00  0.16301203180E+04  0.16301203180E+04  0.25500000920E-02 0. -1.
        2   -1    0    0  501    0  0.00000000000E+00  0.00000000000E+00 -0.23182218906E+04  0.23182218906E+04  0.25500000920E-02 0.  1.
    10030    2    1    2    0    0  0.00000000000E+00  0.00000000000E+00 -0.68810157265E+03  0.39483422086E+04  0.38879200637E+04 0.  0.
        4    1    3    3  502    0  0.74420028773E+03 -0.10689946759E+04 -0.18095279240E+04  0.22295687041E+04  0.12699999809E+01 0.  1.
       -4    1    3    3    0  502 -0.74420028773E+03  0.10689946759E+04  0.11214263514E+04  0.17187735045E+04  0.12699999809E+01 0. -1.
</event>
<event>
 5   0  0.8476262E-08  0.3838330E+04  0.7818609E-02  0.8037979E-01
        2   -1    0    0  501    0  0.00000000000E+00  0.00000000000E+00  0.20732205419E+04  0.20732205419E+04  0.25500000920E-02 0.  1.
       -2   -1    0    0    0  501  0.00000000000E+00  0.00000000000E+00 -0.17765568786E+04  0.17765568786E+04  0.25500000920E-02 0. -1.
    10030    2    1    2    0    0  0.00000000000E+00  0.00000000000E+00  0.29666366333E+03  0.38497774205E+04  0.38383299569E+04 0.  0.
        2    1    3    3  502    0 -0.18166433024E+04 -0.60820979110E+03  0.26305029419E+03  0.19337289095E+04  0.25500000920E-02 0.  1.
       -2    1    3    3    0  502  0.18166433024E+04  0.60820979110E+03  0.33613369134E+02  0.19160485110E+04  0.25500000920E-02 0. -1.
</event>
<event>
 5   0  0.8551754E-08  0.3894185E+04  0.7818609E-02  0.8026240E-01
       -2   -1    0    0    0  501  0.00000000000E+00  0.00000000000E+00  0.17911091826E+04  0.17911091826E+04  0.25500000920E-02 0. -1.
        2   -1    0    0  501    0  0.00000000000E+00  0.00000000000E+00 -0.21166600345E+04  0.21166600345E+04  0.25500000920E-02 0.  1.
    10030    2    1    2    0    0  0.00000000000E+00  0.00000000000E+00 -0.32555085188E+03  0.39077692171E+04  0.38941850107E+04 0.  0.
        1    1    3    3  502    0  0.37473603506E+03 -0.16040955005E+04  0.87893041324E+03  0.18671015350E+04  0.50400001928E-02 0. -1.
       -1    1    3    3    0  502 -0.37473603506E+03  0.16040955005E+04 -0.12044812651E+04  0.20406676821E+04  0.50400001928E-02 0.  1.
</event>
<event>
 5   0  0.8676098E-08  0.3902426E+04  0.7818609E-02  0.8024525E-01
       -2   -1    0    0    0  501  0.00000000000E+00  0.00000000000E+00  0.18313665099E+04  0.18313665099E+04  0.25500000920E-02 0.  1.
        2   -1    0    0  501    0  0.00000000000E+00  0.00000000000E+00 -0.20789024167E+04  0.20789024167E+04  0.25500000920E-02 0. -1.
    10030    2    1    2    0    0  0.00000000000E+00  0.00000000000E+00 -0.24753590675E+03  0.39102689266E+04  0.39024260471E+04 0.  0.
        3    1    3    3  502    0  0.66206938998E+03  0.45702948549E+03 -0.19049851935E+04  0.20678927500E+04  0.10100000352E+00 0. -1.
       -3    1    3    3    0  502 -0.66206938998E+03 -0.45702948549E+03  0.16574492868E+04  0.18423761766E+04  0.10100000352E+00 0.  1.
</event>
<event>
 5   0  0.8476262E-08  0.3897151E+04  0.7818609E-02  0.8025622E-01
       -2   -1    0    0    0  501  0.00000000000E+00  0.00000000000E+00  0.19777033360E+04  0.19777033360E+04  0.25500000920E-02 0.  1.
        2   -1    0    0  501    0  0.00000000000E+00  0.00000000000E+00 -0.19198767218E+04  0.19198767218E+04  0.25500000920E-02 0. -1.
    10030    2    1    2    0    0  0.00000000000E+00  0.00000000000E+00  0.57826614219E+02  0.38975800578E+04  0.38971510606E+04 0.  0.
        2    1    3    3  502    0 -0.12734552182E+04  0.67079501721E+02  0.15024249916E+04  0.19706518484E+04  0.25500000920E-02 0.  1.
       -2    1    3    3    0  502  0.12734552182E+04 -0.67079501721E+02 -0.14445983774E+04  0.19269282094E+04  0.25500000920E-02 0. -1.
</event>
<event>
 5   0  0.2632875E-08  0.4010030E+04  0.7818609E-02  0.8002526E-01
       -1   -1    0    0    0  501  0.00000000000E+00  0.00000000000E+00  0.16958184733E+04  0.16958184733E+04  0.50400001928E-02 0. -1.
        1   -1    0    0  501    0  0.00000000000E+00  0.00000000000E+00 -0.23705867044E+04  0.23705867044E+04  0.50400001928E-02 0.  1.
    10030    2    1    2    0    0  0.00000000000E+00  0.00000000000E+00 -0.67476823110E+03  0.40664051777E+04  0.40100297884E+04 0.  0.
        4    1    3    3  502    0 -0.14327101908E+04  0.12384326073E+04 -0.10052087236E+04  0.21440195906E+04  0.12699999809E+01 0.  1.
       -4    1    3    3    0  502  0.14327101908E+04 -0.12384326073E+04  0.33044049253E+03  0.19223855872E+04  0.12699999809E+01 0. -1.
</event>
<event>
 5   0  0.2632875E-08  0.3902707E+04  0.7818609E-02  0.8024466E-01
        1   -1    0    0  501    0  0.00000000000E+00  0.00000000000E+00  0.25306609602E+04  0.25306609602E+04  0.50400001928E-02 0. -1.
       -1   -1    0    0    0  501  0.00000000000E+00  0.00000000000E+00 -0.15046583200E+04  0.15046583200E+04  0.50400001928E-02 0.  1.
    10030    2    1    2    0    0  0.00000000000E+00  0.00000000000E+00  0.10260026402E+04  0.40353192802E+04  0.39027067883E+04 0.  0.
        2    1    3    3  502    0  0.17698803957E+04 -0.69268429862E+03  0.55832734116E+02  0.19014219539E+04  0.25500000920E-02 0.  1.
       -2    1    3    3    0  502 -0.17698803957E+04  0.69268429862E+03  0.97016990604E+03  0.21338973263E+04  0.25500000920E-02 0. -1.
</event>
<event>
 5   0  0.2632875E-08  0.3885111E+04  0.7818609E-02  0.8028133E-01
        1   -1    0    0  501    0  0.00000000000E+00  0.00000000000E+00  0.14845913812E+04  0.14845913812E+04  0.50400001928E-02 0.  1.
       -1   -1    0    0    0  501  0.00000000000E+00  0.00000000000E+00 -0.25417914160E+04  0.25417914160E+04  0.50400001928E-02 0. -1.
    10030    2    1    2    0    0  0.00000000000E+00  0.00000000000E+00 -0.10572000348E+04  0.40263827972E+04  0.38851108757E+04 0.  0.
        4    1    3    3  502    0  0.15999591677E+04  0.94658784925E+03  0.55472827802E+02  0.18598324501E+04  0.12699999809E+01 0.  1.
       -4    1    3    3    0  502 -0.15999591677E+04 -0.94658784925E+03 -0.11126728626E+04  0.21665503472E+04  0.12699999809E+01 0. -1.
</event>
<event>
 5   0  0.2632875E-08  0.3882779E+04  0.7818609E-02  0.8028620E-01
       -3   -1    0    0    0  501  0.00000000000E+00  0.00000000000E+00  0.18543117912E+04  0.18543117939E+04  0.10100000352E+00 0. -1.
        3   -1    0    0  501    0  0.00000000000E+00  0.00000000000E+00 -0.20325567062E+04  0.20325567087E+04  0.10100000352E+00 0.  1.
    10030    2    1    2    0    0  0.00000000000E+00  0.00000000000E+00 -0.17824491499E+03  0.38868685026E+04  0.38827793533E+04 0.  0.
        2    1    3    3  502    0 -0.80353784570E+03  0.17467184472E+04  0.18003888747E+03  0.19310909881E+04  0.25500000920E-02 0.  1.
       -2    1    3    3    0  502  0.80353784570E+03 -0.17467184472E+04 -0.35828380246E+03  0.19557775145E+04  0.25500000920E-02 0. -1.
</event>
<event>
 5   0  0.2632875E-08  0.3896534E+04  0.7818609E-02  0.8025750E-01
        1   -1    0    0  501    0  0.00000000000E+00  0.00000000000E+00  0.22593890145E+04  0.22593890145E+04  0.50400001928E-02 0. -1.
       -1   -1    0    0    0  501  0.00000000000E+00  0.00000000000E+00 -0.16799870620E+04  0.16799870620E+04  0.50400001928E-02 0.  1.
    10030    2    1    2    0    0  0.00000000000E+00  0.00000000000E+00  0.57940195246E+03  0.39393760766E+04  0.38965340047E+04 0.  0.
        5    1    3    3  502    0  0.13678246861E+04 -0.23188249358E+03  0.16725884299E+04  0.21730826051E+04  0.46999998093E+01 0. -1.
       -5    1    3    3    0  502 -0.13678246861E+04  0.23188249358E+03 -0.10931864775E+04  0.17662934714E+04  0.46999998093E+01 0.  1.
</event>
<event>
 5   0  0.8676098E-08  0.3914115E+04  0.7818609E-02  0.8022100E-01
       -2   -1    0    0    0  501  0.00000000000E+00  0.00000000000E+00  0.13981516775E+04  0.13981516775E+04  0.25500000920E-02 0.  1.
        2   -1    0    0  501    0  0.00000000000E+00  0.00000000000E+00 -0.27393837613E+04  0.27393837613E+04  0.25500000920E-02 0. -1.
    10030    2    1    2    0    0  0.00000000000E+00  0.00000000000E+00 -0.13412320838E+04  0.41375354389E+04  0.39141149709E+04 0.  0.
        3    1    3    3  502    0 -0.96003399538E+03  0.17053060905E+04 -0.69010352956E+03  0.20750848239E+04  0.10100000352E+00 0. -1.
       -3    1    3    3    0  502  0.96003399538E+03 -0.17053060905E+04 -0.65112855423E+03  0.20624506149E+04  0.10100000352E+00 0.  1.
</event>
<event>
 5   0  0.8676098E-08  0.3911641E+04  0.7818609E-02  0.8022612E-01
       -2   -1    0    0    0  501  0.00000000000E+00  0.00000000000E+00  0.30014171861E+04  0.30014171861E+04  0.25500000920E-02 0. -1.
        2   -1    0    0  501    0  0.00000000000E+00  0.00000000000E+00 -0.12744760842E+04  0.12744760842E+04  0.25500000920E-02 0.  1.
    10030    2    1    2    0    0  0.00000000000E+00  0.00000000000E+00  0.17269411019E+04  0.42758932703E+04  0.39116413038E+04 0.  0.
        3    1    3    3  502    0  0.14286492024E+04  0.93775959825E+03  0.19032585535E+04  0.25578945911E+04  0.10100000352E+00 0. -1.
       -3    1    3    3    0  502 -0.14286492024E+04 -0.93775959825E+03 -0.17631745165E+03  0.17179986791E+04  0.10100000352E+00 0.  1.
</event>
<event>
 5   0  0.8551754E-08  0.3911268E+04  0.7818609E-02  0.8022690E-01
        2   -1    0    0  501    0  0.00000000000E+00  0.00000000000E+00  0.22739478726E+04  0.22739478726E+04  0.25500000920E-02 0.  1.
       -2   -1    0    0    0  501  0.00000000000E+00  0.00000000000E+00 -0.16818787646E+04  0.16818787646E+04  0.25500000920E-02 0. -1.
    10030    2    1    2    0    0  0.00000000000E+00  0.00000000000E+00  0.59206910801E+03  0.39558266372E+04  0.39112681517E+04 0.  0.
        1    1    3    3  502    0  0.17813737009E+04 -0.66166413555E+03  0.76326382370E+03  0.20478435866E+04  0.50400001928E-02 0.  1.
       -1    1    3    3    0  502 -0.17813737009E+04  0.66166413555E+03 -0.17119471569E+03  0.19079830506E+04  0.50400001928E-02 0. -1.
</event>
<event>
 5   0  0.2632875E-08  0.3905950E+04  0.7818609E-02  0.8023793E-01
       -1   -1    0    0    0  501  0.00000000000E+00  0.00000000000E+00  0.14899528617E+04  0.14899528617E+04  0.50400001928E-02 0.  1.
        1   -1    0    0  501    0  0.00000000000E+00  0.00000000000E+00 -0.25598868571E+04  0.25598868571E+04  0.50400001928E-02 0. -1.
    10030    2    1    2    0    0  0.00000000000E+00  0.00000000000E+00 -0.10699339953E+04  0.40498397188E+04  0.39059496916E+04 0.  0.
        2    1    3    3  502    0 -0.67188361942E+03 -0.18072881550E+04 -0.21305793260E+03  0.19398741598E+04  0.25500000920E-02 0.  1.
       -2    1    3    3    0  502  0.67188361942E+03  0.18072881550E+04 -0.85687606272E+03  0.21099655590E+04  0.25500000920E-02 0. -1.
</event>
<event>
 5   0  0.8676098E-08  0.3788970E+04  0.7818609E-02  0.8048526E-01
        2   -1    0    0  501    0  0.00000000000E+00  0.00000000000E+00  0.27342722911E+04  0.27342722911E+04  0.25500000920E-02 0. -1.
       -2   -1    0    0    0  501  0.00000000000E+00  0.00000000000E+00 -0.13126245923E+04  0.13126245923E+04  0.25500000920E-02 0.  1.
    10030    2    1    2    0    0  0.00000000000E+00  0.00000000000E+00  0.14216476988E+04  0.40468968834E+04  0.37889698079E+04 0.  0.
        3    1    3    3  502    0 -0.24940068610E+03 -0.18416666742E+04  0.11034568916E+04  0.21613777928E+04  0.10100000352E+00 0.  1.
       -3    1    3    3    0  502  0.24940068610E+03  0.18416666742E+04  0.31819080715E+03  0.18855190906E+04  0.10100000352E+00 0. -1.
</event>
<event>
 5   0  0.8342802E-08  0.3861291E+04  0.7818609E-02  0.8033128E-01
        2   -1    0    0  501    0  0.00000000000E+00  0.00000000000E+00  0.19731132896E+04  0.19731132896E+04  0.25500000920E-02 0. -1.
       -2   -1    0    0    0  501  0.00000000000E+00  0.00000000000E+00 -0.18890922008E+04  0.18890922008E+04  0.25500000920E-02 0.  1.
    10030    2    1    2    0    0  0.00000000000E+00  0.00000000000E+00  0.84021088808E+02  0.38622054904E+04  0.38612914558E+04 0.  0.
        4    1    3    3  502    0  0.50968735402E+03  0.18127444865E+04  0.46821884109E+03  0.19403747752E+04  0.12699999809E+01 0.  1.
       -4    1    3    3    0  502 -0.50968735402E+03 -0.18127444865E+04 -0.38419775229E+03  0.19218307152E+04  0.12699999809E+01 0. -1.
</event>
<event>
 5   0  0.8438211E-08  0.3903040E+04  0.7818609E-02  0.8024397E-01
        2   -1    0    0  501    0  0.00000000000E+00  0.00000000000E+00  0.27140809450E+04  0.27140809450E+04  0.25500000920E-02 0. -1.
       -2   -1    0    0    0  501  0.00000000000E+00  0.00000000000E+00 -0.14032116772E+04  0.14032116772E+04  0.25500000920E-02 0.  1.
    10030    2    1    2    0    0  0.00000000000E+00  0.00000000000E+00  0.13108692677E+04  0.41172926222E+04  0.39030398794E+04 0.  0.
        5    1    3    3  502    0 -0.34587302646E+02  0.87854322683E+03 -0.11824354757E+04  0.14735027069E+04  0.46999998093E+01 0.  1.
       -5    1    3    3    0  502  0.34587302646E+02 -0.87854322683E+03  0.24933047435E+04  0.26437899154E+04  0.46999998093E+01 0. -1.
</event>
<event>
 5   0  0.2632875E-08  0.3901551E+04  0.7818609E-02  0.8024707E-01
       -1   -1    0    0    0  501  0.00000000000E+00  0.00000000000E+00  0.30919920366E+04  0.30919920366E+04  0.50400001928E-02 0.  1.
        1   -1    0    0  501    0  0.00000000000E+00  0.00000000000E+00 -0.12307679461E+04  0.12307679462E+04  0.50400001928E-02 0. -1.
    10030    2    1    2    0    0  0.00000000000E+00  0.00000000000E+00  0.18612240905E+04  0.43227599828E+04  0.39015508140E+04 0.  0.
        1    1    3    3  502    0 -0.39716512682E+03 -0.42642485843E+02  0.30461955497E+04  0.30722737259E+04  0.50400001928E-02 0.  1.
       -1    1    3    3    0  502  0.39716512682E+03  0.42642485843E+02 -0.11849714592E+04  0.12504862569E+04  0.50400001928E-02 0. -1.
</event>
<event>
 5   0  0.2632875E-08  0.3903142E+04  0.7818609E-02  0.8024376E-01
       -1   -1    0    0    0  501  0.00000000000E+00  0.00000000000E+00  0.13179305081E+04  0.13179305081E+04  0.50400001928E-02 0. -1.
        1   -1    0    0  501    0  0.00000000000E+00  0.00000000000E+00 -0.28898555808E+04  0.28898555808E+04  0.50400001928E-02 0.  1.
    10030    2    1    2    0    0  0.00000000000E+00  0.00000000000E+00 -0.15719250727E+04  0.42077860889E+04  0.39031417263E+04 0.  0.
        3    1    3    3  502    0  0.12062997411E+04  0.98798931334E+03  0.47924274565E+03  0.16312435649E+04  0.10100000352E+00 0. -1.
       -3    1    3    3    0  502 -0.12062997411E+04 -0.98798931334E+03 -0.20511678184E+04  0.25765425240E+04  0.10100000352E+00 0.  1.
</event>
<event>
 5   0  0.2632875E-08  0.3949253E+04  0.7818609E-02  0.8014863E-01
        1   -1    0    0  501    0  0.00000000000E+00  0.00000000000E+00  0.22746368120E+04  0.22746368120E+04  0.50400001928E-02 0. -1.
       -1   -1    0    0    0  501  0.00000000000E+00  0.00000000000E+00 -0.17141852651E+04  0.17141852651E+04  0.50400001928E-02 0.  1.
    10030    2    1    2    0    0  0.00000000000E+00  0.00000000000E+00  0.56045154693E+03  0.39888220771E+04  0.39492525402E+04 0.  0.
        4    1    3    3  502    0 -0.98265564656E+03 -0.17117534382E+04  0.22102673236E+03  0.19860932461E+04  0.12699999809E+01 0. -1.
       -4    1    3    3    0  502  0.98265564656E+03  0.17117534382E+04  0.33942481457E+03  0.20027288310E+04  0.12699999809E+01 0.  1.
</event>
<event>
 5   0  0.2632875E-08  0.3883728E+04  0.7818609E-02  0.8028422E-01
       -1   -1    0    0    0  501  0.00000000000E+00  0.00000000000E+00  0.14481388958E+04  0.14481388958E+04  0.50400001928E-02 0. -1.
        1   -1    0    0  501    0  0.00000000000E+00  0.00000000000E+00 -0.26039181999E+04  0.26039182000E+04  0.50400001928E-02 0.  1.
    10030    2    1    2    0    0  0.00000000000E+00  0.00000000000E+00 -0.11557793041E+04  0.40520570958E+04  0.38837277077E+04 0.  0.
        5    1    3    3  502    0 -0.18911747498E+04 -0.11572582293E+03 -0.13415786538E+03  0.18994617194E+04  0.46999998093E+01 0. -1.
       -5    1    3    3    0  502  0.18911747498E+04  0.11572582293E+03 -0.10216214388E+04  0.21525953764E+04  0.46999998093E+01 0.  1.
</event>
<event>
 5   0  0.8676098E-08  0.3912950E+04  0.7818609E-02  0.8022341E-01
        2   -1    0    0  501    0  0.00000000000E+00  0.00000000000E+00  0.25573988242E+04  0.25573988242E+04  0.25500000920E-02 0. -1.
       -2   -1    0    0    0  501  0.00000000000E+00  0.00000000000E+00 -0.14967530817E+04  0.14967530817E+04  0.25500000920E-02 0.  1.
    10030    2    1    2    0    0  0.00000000000E+00  0.00000000000E+00  0.10606457425E+04  0.40541519059E+04  0.39129500745E+04 0.  0.
        3    1    3    3  502    0  0.11309613257E+04 -0.12125824152E+04 -0.54559367828E+03  0.17455950578E+04  0.10100000352E+00 0.  1.
       -3    1    3    3    0  502 -0.11309613257E+04  0.12125824152E+04  0.16062394208E+04  0.23085568481E+04  0.10100000352E+00 0. -1.
</event>
<event>
 5   0  0.2632875E-08  0.3895283E+04  0.7818609E-02  0.8026011E-01
        1   -1    0    0  501    0  0.00000000000E+00  0.00000000000E+00  0.21553655840E+04  0.21553655840E+04  0.50400001928E-02 0.  1.
       -1   -1    0    0    0  501  0.00000000000E+00  0.00000000000E+00 -0.17599367275E+04  0.17599367275E+04  0.50400001928E-02 0. -1.
    10030    2    1    2    0    0  0.00000000000E+00  0.00000000000E+00  0.39542885649E+03  0.39153023115E+04  0.38952828152E+04 0.  0.
        2    1    3    3  502    0  0.11845216501E+04 -0.14791004629E+04  0.65000185237E+03  0.20033302591E+04  0.25500000920E-02 0. -1.
       -2    1    3    3    0  502 -0.11845216501E+04  0.14791004629E+04 -0.25457299589E+03  0.19119720524E+04  0.25500000920E-02 0.  1.
</event>
<event>
 5   0  0.2632875E-08  0.3879771E+04  0.7818609E-02  0.8029250E-01
       -1   -1    0    0    0  501  0.00000000000E+00  0.00000000000E+00  0.29473142103E+04  0.29473142103E+04  0.50400001928E-02 0. -1.
        1   -1    0    0  501    0  0.00000000000E+00  0.00000000000E+00 -0.12768084834E+04  0.12768084834E+04  0.50400001928E-02 0.  1.
    10030    2    1    2    0    0  0.00000000000E+00  0.00000000000E+00  0.16705057269E+04  0.42241226937E+04  0.38797710175E+04 0.  0.
        4    1    3    3  502    0 -0.11456050521E+04 -0.15645571348E+04  0.89392670053E+03  0.21352649771E+04  0.12699999809E+01 0.  1.
       -4    1    3    3    0  502  0.11456050521E+04  0.15645571348E+04  0.77657902637E+03  0.20888577167E+04  0.12699999809E+01 0. -1.
</event>
<event>
 5   0  0.2632875E-08  0.3907992E+04  0.7818609E-02  0.8023369E-01
       -1   -1    0    0    0  501  0.00000000000E+00  0.00000000000E+00  0.20642761287E+04  0.20642761288E+04  0.50400001928E-02 0.  1.
        1   -1    0    0  501    0  0.00000000000E+00  0.00000000000E+00 -0.18496075638E+04  0.18496075638E+04  0.50400001928E-02 0. -1.
    10030    2    1    2    0    0  0.00000000000E+00  0.00000000000E+00  0.21466856498E+03  0.39138836925E+04  0.39079921911E+04 0.  0.
        3    1    3    3  502    0 -0.65431290327E+03 -0.14418883639E+04  0.12540203256E+04  0.20198352449E+04  0.10100000352E+00 0.  1.
       -3    1    3    3    0  502  0.65431290327E+03  0.14418883639E+04 -0.10393517606E+04  0.18940484476E+04  0.10100000352E+00 0. -1.
</event>
<event>
 5   0  0.2632875E-08  0.3913323E+04  0.7818609E-02  0.8022264E-01
       -1   -1    0    0    0  501  0.00000000000E+00  0.00000000000E+00  0.18859825535E+04  0.18859825535E+04  0.50400001928E-02 0.  1.
        1   -1    0    0  501    0  0.00000000000E+00  0.00000000000E+00 -0.20299896201E+04  0.20299896201E+04  0.50400001928E-02 0. -1.
    10030    2    1    2    0    0  0.00000000000E+00  0.00000000000E+00 -0.14400706661E+03  0.39159721736E+04  0.39133233995E+04 0.  0.
        4    1    3    3  502    0  0.10476224041E+04  0.84465422928E+03  0.13493697734E+04  0.19057161034E+04  0.12699999809E+01 0.  1.
       -4    1    3    3    0  502 -0.10476224041E+04 -0.84465422928E+03 -0.14933768400E+04  0.20102560702E+04  0.12699999809E+01 0. -1.
</event>
<event>
 5   0  0.8476262E-08  0.3892820E+04  0.7818609E-02  0.8026524E-01
       -2   -1    0    0    0  501  0.00000000000E+00  0.00000000000E+00  0.25111639024E+04  0.25111639024E+04  0.25500000920E-02 0.  1.
        2   -1    0    0  501    0  0.00000000000E+00  0.00000000000E+00 -0.15086673747E+04  0.15086673747E+04  0.25500000920E-02 0. -1.
    10030    2    1    2    0    0  0.00000000000E+00  0.00000000000E+00  0.10024965277E+04  0.40198312772E+04  0.38928195705E+04 0.  0.
        2    1    3    3  502    0  0.16501765400E+04  0.72275852570E+03  0.12622101066E+04  0.21996901720E+04  0.25500000920E-02 0.  1.
       -2    1    3    3    0  502 -0.16501765400E+04 -0.72275852570E+03 -0.25971357890E+03  0.18201411051E+04  0.25500000920E-02 0. -1.
</event>
<event>
 5   0  0.8438211E-08  0.3898062E+04  0.7818609E-02  0.8025432E-01
       -2   -1    0    0    0  501  0.00000000000E+00  0.00000000000E+00  0.17034892552E+04  0.17034892552E+04  0.25500000920E-02 0.  1.
        2   -1    0    0  501    0  0.00000000000E+00  0.00000000000E+00 -0.22299652518E+04  0.22299652518E+04  0.25500000920E-02 0. -1.
    10030    2    1    2    0    0  0.00000000000E+00  0.00000000000E+00 -0.52647599659E+03  0.39334545069E+04  0.38980620035E+04 0.  0.
        5    1    3    3  502    0  0.13871368366E+04  0.69694992289E+03  0.92594067589E+03  0.18075607939E+04  0.46999998093E+01 0.  1.
       -5    1    3    3    0  502 -0.13871368366E+04 -0.69694992289E+03 -0.14524166725E+04  0.21258937130E+04  0.46999998093E+01 0. -1.
</event>
<event>
 5   0  0.8676098E-08  0.3927624E+04  0.7818609E-02  0.8019308E-01
       -2   -1    0    0    0  501  0.00000000000E+00  0.00000000000E+00  0.25465894987E+04  0.25465894987E+04  0.25500000920E-02 0.  1.
        2   -1    0    0  501    0  0.00000000000E+00  0.00000000000E+00 -0.15144011976E+04  0.15144011976E+04  0.25500000920E-02 0. -1.
    10030    2    1    2    0    0  0.00000000000E+00  0.00000000000E+00  0.10321883011E+04  0.40609906964E+04  0.39276243134E+04 0.  0.
        3    1    3    3  502    0 -0.51987350533E+03  0.18714479482E+04  0.81571363961E+03  0.21066500982E+04  0.10100000352E+00 0.  1.
       -3    1    3    3    0  502  0.51987350533E+03 -0.18714479482E+04  0.21647466149E+03  0.19543405981E+04  0.10100000352E+00 0. -1.
</event>
<event>
 5   0  0.8438211E-08  0.3795020E+04  0.7818609E-02  0.8047224E-01
        2   -1    0    0  501    0  0.00000000000E+00  0.00000000000E+00  0.22781277502E+04  0.22781277502E+04  0.25500000920E-02 0.  1.
       -2   -1    0    0    0  501  0.00000000000E+00  0.00000000000E+00 -0.15804842568E+04  0.15804842568E+04  0.25500000920E-02 0. -1.
    10030    2    1    2    0    0  0.00000000000E+00  0.00000000000E+00  0.69764349340E+03  0.38586120069E+04  0.37950204448E+04 0.  0.
        5    1    3    3  502    0  0.98926405523E+03 -0.15322329047E+04  0.88118087804E+03  0.20255574233E+04  0.46999998093E+01 0.  1.
       -5    1    3    3    0  502 -0.98926405523E+03  0.15322329047E+04 -0.18353738464E+03  0.18330545837E+04  0.46999998093E+01 0. -1.
</event>
<event>
 5   0  0.2632875E-08  0.3889350E+04  0.7818609E-02  0.8027248E-01
        1   -1    0    0  501    0  0.00000000000E+00  0.00000000000E+00  0.20714689950E+04  0.20714689950E+04  0.50400001928E-02 0.  1.
       -1   -1    0    0    0  501  0.00000000000E+00  0.00000000000E+00 -0.18256420730E+04  0.18256420731E+04  0.50400001928E-02 0. -1.
    10030    2    1    2    0    0  0.00000000000E+00  0.00000000000E+00  0.24582692194E+03  0.38971110680E+04  0.38893500487E+04 0.  0.
        4    1    3    3  502    0 -0.13944334759E+04 -0.40678852492E+03  0.14184892103E+04  0.20302795067E+04  0.12699999809E+01 0.  1.
       -4    1    3    3    0  502  0.13944334759E+04  0.40678852492E+03 -0.11726622884E+04  0.18668315613E+04  0.12699999809E+01 0. -1.
</event>
<event>
 5   0  0.2632875E-08  0.3902590E+04  0.7818609E-02  0.8024491E-01
       -1   -1    0    0    0  501  0.00000000000E+00  0.00000000000E+00  0.15446566346E+04  0.15446566346E+04  0.50400001928E-02 0.  1.
        1   -1    0    0  501    0  0.00000000000E+00  0.00000000000E+00 -0.24649823148E+04  0.24649823148E+04  0.50400001928E-02 0. -1.
    10030    2    1    2    0    0  0.00000000000E+00  0.00000000000E+00 -0.92032568024E+03  0.40096389494E+04  0.39025895438E+04 0.  0.
        5    1    3    3  502    0 -0.16137956684E+04  0.86447331697E+03 -0.11538713222E+04  0.21640452152E+04  0.46999998093E+01 0. -1.
       -5    1    3    3    0  502  0.16137956684E+04 -0.86447331697E+03  0.23354564200E+03  0.18455937343E+04  0.46999998093E+01 0.  1.
</event>
<event>
 5   0  0.2632875E-08  0.3901231E+04  0.7818609E-02  0.8024773E-01
       -1   -1    0    0    0  501  0.00000000000E+00  0.00000000000E+00  0.27419063612E+04  0.27419063612E+04  0.50400001928E-02 0.  1.
        1   -1    0    0  501    0  0.00000000000E+00  0.00000000000E+00 -0.13876843142E+04  0.13876843143E+04  0.50400001928E-02 0. -1.
    10030    2    1    2    0    0  0.00000000000E+00  0.00000000000E+00  0.13542220469E+04  0.41295906754E+04  0.39012308050E+04 0.  0.
        3    1    3    3  502    0  0.10872310563E+04 -0.15983426007E+04  0.95340699562E+03  0.21554014356E+04  0.10100000352E+00 0. -1.
       -3    1    3    3    0  502 -0.10872310563E+04  0.15983426007E+04  0.40081505130E+03  0.19741892398E+04  0.10100000352E+00 0.  1.
</event>
<event>
 5   0  0.2632875E-08  0.3908237E+04  0.7818609E-02  0.8023318E-01
       -1   -1    0    0    0  501  0.00000000000E+00  0.00000000000E+00  0.16063803119E+04  0.16063803119E+04  0.50400001928E-02 0. -1.
        1   -1    0    0  501    0  0.00000000000E+00  0.00000000000E+00 -0.23771326368E+04  0.23771326368E+04  0.50400001928E-02 0.  1.
    10030    2    1    2    0    0  0.00000000000E+00  0.00000000000E+00 -0.77075232484E+03  0.39835129487E+04  0.39082369767E+04 0.  0.
        5    1    3    3  502    0 -0.18074979644E+04  0.37386922237E+03  0.26864460949E+03  0.18652128841E+04  0.46999998093E+01 0. -1.
       -5    1    3    3    0  502  0.18074979644E+04 -0.37386922237E+03 -0.10393969343E+04  0.21183000646E+04  0.46999998093E+01 0.  1.
</event>
<event>
 5   0  0.8476262E-08  0.3904640E+04  0.7818609E-02  0.8024065E-01
        2   -1    0    0  501    0  0.00000000000E+00  0.00000000000E+00  0.29358946273E+04  0.29358946273E+04  0.25500000920E-02 0.  1.
       -2   -1    0    0    0  501  0.00000000000E+00  0.00000000000E+00 -0.12982594720E+04  0.12982594720E+04  0.25500000920E-02 0. -1.
    10030    2    1    2    0    0  0.00000000000E+00  0.00000000000E+00  0.16376351553E+04  0.42341540993E+04  0.39046398086E+04 0.  0.
        2    1    3    3  502    0 -0.11542885826E+04  0.57630073263E+03  0.24077542685E+04  0.27316268566E+04  0.25500000920E-02 0.  1.
       -2    1    3    3    0  502  0.11542885826E+04 -0.57630073263E+03 -0.77011911322E+03  0.15025272426E+04  0.25500000920E-02 0. -1.
</event>
<event>
 5   0  0.8676098E-08  0.3877934E+04  0.7818609E-02  0.8029634E-01
        2   -1    0    0  501    0  0.00000000000E+00  0.00000000000E+00  0.25184874979E+04  0.25184874979E+04  0.25500000920E-02 0.  1.
       -2   -1    0    0    0  501  0.00000000000E+00  0.00000000000E+00 -0.14927979235E+04  0.14927979235E+04  0.25500000920E-02 0. -1.
    10030    2    1    2    0    0  0.00000000000E+00  0.00000000000E+00  0.10256895744E+04  0.40112854214E+04  0.38779339382E+04 0.  0.
        3    1    3    3  502    0  0.16011014266E+04  0.40179911542E+03 -0.53929769562E+03  0.17366088570E+04  0.10100000352E+00 0. -1.
       -3    1    3    3    0  502 -0.16011014266E+04 -0.40179911542E+03  0.15649872700E+04  0.22746765645E+04  0.10100000352E+00 0.  1.
</event>
<event>
 5   0  0.8676098E-08  0.3911730E+04  0.7818609E-02  0.8022594E-01
        2   -1    0    0  501    0  0.00000000000E+00  0.00000000000E+00  0.19660617729E+04  0.19660617729E+04  0.25500000920E-02 0.  1.
       -2   -1    0    0    0  501  0.00000000000E+00  0.00000000000E+00 -0.19457212788E+04  0.19457212788E+04  0.25500000920E-02 0. -1.
    10030    2    1    2    0    0  0.00000000000E+00  0.00000000000E+00  0.20340494098E+02  0.39117830517E+04  0.39117301680E+04 0.  0.
        3    1    3    3  502    0  0.16554736138E+04 -0.70651787376E+03 -0.75511640516E+03  0.19519121874E+04  0.10100000352E+00 0. -1.
       -3    1    3    3    0  502 -0.16554736138E+04  0.70651787376E+03  0.77545689926E+03  0.19598708643E+04  0.10100000352E+00 0.  1.
</event>
<event>
 5   0  0.2632875E-08  0.3906646E+04  0.7818609E-02  0.8023648E-01
       -1   -1    0    0    0  501  0.00000000000E+00  0.00000000000E+00  0.11156811229E+04  0.11156811230E+04  0.50400001928E-02 0.  1.
        1   -1    0    0  501    0  0.00000000000E+00  0.00000000000E+00 -0.34198581821E+04  0.34198581821E+04  0.50400001928E-02 0. -1.
    10030    2    1    2    0    0  0.00000000000E+00  0.00000000000E+00 -0.23041770592E+04  0.45355393051E+04  0.39066462430E+04 0.  0.
        2    1    3    3  502    0 -0.15589898223E+04  0.64932841970E+03 -0.12555436607E+02  0.16888559150E+04  0.25500000920E-02 0.  1.
       -2    1    3    3    0  502  0.15589898223E+04 -0.64932841970E+03 -0.22916216225E+04  0.28466833901E+04  0.25500000920E-02 0. -1.
</event>
<event>
 5   0  0.8342802E-08  0.3798962E+04  0.7818609E-02  0.8046378E-01
       -2   -1    0    0    0  501  0.00000000000E+00  0.00000000000E+00  0.13166477041E+04  0.13166477041E+04  0.25500000920E-02 0.  1.
        2   -1    0    0  501    0  0.00000000000E+00  0.00000000000E+00 -0.27403146210E+04  0.27403146210E+04  0.25500000920E-02 0. -1.
    10030    2    1    2    0    0  0.00000000000E+00  0.00000000000E+00 -0.14236669169E+04  0.40569623252E+04  0.37989624659E+04 0.  0.
        4    1    3    3  502    0  0.20121559197E+03  0.16770509810E+04 -0.16397754899E+04  0.23541140537E+04  0.12699999809E+01 0. -1.
       -4    1    3    3    0  502 -0.20121559197E+03 -0.16770509810E+04  0.21610857305E+03  0.17028482715E+04  0.12699999809E+01 0.  1.
</event>
<event>
 5   0  0.8676098E-08  0.3920356E+04  0.7818609E-02  0.8020809E-01
        2   -1    0    0  501    0  0.00000000000E+00  0.00000000000E+00  0.22367135418E+04  0.22367135418E+04  0.25500000920E-02 0.  1.
       -2   -1    0    0    0  501  0.00000000000E+00  0.00000000000E+00 -0.17178315226E+04  0.17178315226E+04  0.25500000920E-02 0. -1.
    10030    2    1    2    0    0  0.00000000000E+00  0.00000000000E+00  0.51888201916E+03  0.39545450644E+04  0.39203556110E+04 0.  0.
        3    1    3    3  502    0  0.64389364133E+03  0.18403768834E+04  0.55911892394E+02  0.19505671596E+04  0.10100000352E+00 0.  1.
       -3    1    3    3    0  502 -0.64389364133E+03 -0.18403768834E+04  0.46297012677E+03  0.20039779048E+04  0.10100000352E+00 0. -1.
</event>
<event>
 5   0  0.8676098E-08  0.3914754E+04  0.7818609E-02  0.8021968E-01
        2   -1    0    0  501    0  0.00000000000E+00  0.00000000000E+00  0.28300934401E+04  0.28300934401E+04  0.25500000920E-02 0. -1.
       -2   -1    0    0    0  501  0.00000000000E+00  0.00000000000E+00 -0.13537805055E+04  0.13537805055E+04  0.25500000920E-02 0.  1.
    10030    2    1    2    0    0  0.00000000000E+00  0.00000000000E+00  0.14763129346E+04  0.41838739455E+04  0.39147543105E+04 0.  0.
        3    1    3    3  502    0 -0.15646978687E+03  0.17126991403E+04 -0.26070802183E+03  0.17394797562E+04  0.10100000352E+00 0.  1.
       -3    1    3    3    0  502  0.15646978687E+03 -0.17126991403E+04  0.17370209564E+04  0.24443941893E+04  0.10100000352E+00 0. -1.
</event>
<event>
 5   0  0.8676098E-08  0.3895604E+04  0.7818609E-02  0.8025944E-01
        2   -1    0    0  501    0  0.00000000000E+00  0.00000000000E+00  0.28659323312E+04  0.28659323312E+04  0.25500000920E-02 0.  1.
       -2   -1    0    0    0  501  0.00000000000E+00  0.00000000000E+00 -0.13238037690E+04  0.13238037690E+04  0.25500000920E-02 0. -1.
    10030    2    1    2    0    0  0.00000000000E+00  0.00000000000E+00  0.15421285621E+04  0.41897361002E+04  0.38956036871E+04 0.  0.
        3    1    3    3  502    0 -0.42495260055E+02  0.30949470719E+03  0.28388132317E+04  0.28559505240E+04  0.10100000352E+00 0.  1.
       -3    1    3    3    0  502  0.42495260055E+02 -0.30949470719E+03 -0.12966846695E+04  0.13337855762E+04  0.10100000352E+00 0. -1.
</event>
<event>
 5   0  0.8438211E-08  0.3918032E+04  0.7818609E-02  0.8021289E-01
        2   -1    0    0  501    0  0.00000000000E+00  0.00000000000E+00  0.20659937903E+04  0.20659937903E+04  0.25500000920E-02 0.  1.
       -2   -1    0    0    0  501  0.00000000000E+00  0.00000000000E+00 -0.18575772069E+04  0.18575772069E+04  0.25500000920E-02 0. -1.
    10030    2    1    2    0    0  0.00000000000E+00  0.00000000000E+00  0.20841658340E+03  0.39235709971E+04  0.39180316356E+04 0.  0.
        5    1    3    3  502    0  0.38336274770E+03 -0.12012223547E+04 -0.13971841365E+04  0.18820328751E+04  0.46999998093E+01 0. -1.
       -5    1    3    3    0  502 -0.38336274770E+03  0.12012223547E+04  0.16056007199E+04  0.20415381220E+04  0.46999998093E+01 0.  1.
</event>
<event>
 5   0  0.2632875E-08  0.3898599E+04  0.7818609E-02  0.8025321E-01
       -1   -1    0    0    0  501  0.00000000000E+00  0.00000000000E+00  0.12949519068E+04  0.12949519068E+04  0.50400001928E-02 0. -1.
        1   -1    0    0  501    0  0.00000000000E+00  0.00000000000E+00 -0.29342935362E+04  0.29342935362E+04  0.50400001928E-02 0.  1.
    10030    2    1    2    0    0  0.00000000000E+00  0.00000000000E+00 -0.16393416294E+04  0.42292454430E+04  0.38985992407E+04 0.  0.
        5    1    3    3  502    0  0.58107882609E+03  0.18526187479E+04 -0.63209534740E+03  0.20419146519E+04  0.46999998093E+01 0. -1.
       -5    1    3    3    0  502 -0.58107882609E+03 -0.18526187479E+04 -0.10072462820E+04  0.21873307911E+04  0.46999998093E+01 0.  1.
</event>
<event>
 5   0  0.2632875E-08  0.3902246E+04  0.7818609E-02  0.8024562E-01
       -1   -1    0    0    0  501  0.00000000000E+00  0.00000000000E+00  0.25449530649E+04  0.25449530649E+04  0.50400001928E-02 0.  1.
        1   -1    0    0  501    0  0.00000000000E+00  0.00000000000E+00 -0.14958552308E+04  0.14958552308E+04  0.50400001928E-02 0. -1.
    10030    2    1    2    0    0  0.00000000000E+00  0.00000000000E+00  0.10490978341E+04  0.40408082957E+04  0.39022462015E+04 0.  0.
        2    1    3    3  502    0  0.18770283759E+04 -0.53041307301E+03  0.47480352395E+03  0.20074889635E+04  0.25500000920E-02 0.  1.
       -2    1    3    3    0  502 -0.18770283759E+04  0.53041307301E+03  0.57429431020E+03  0.20333193322E+04  0.25500000920E-02 0. -1.
</event>
<event>
 5   0  0.2632875E-08  0.3912276E+04  0.7818609E-02  0.8022481E-01
       -1   -1    0    0    0  501  0.00000000000E+00  0.00000000000E+00  0.27165401997E+04  0.27165401998E+04  0.50400001928E-02 0.  1.
        1   -1    0    0  501    0  0.00000000000E+00  0.00000000000E+00 -0.14085841279E+04  0.14085841279E+04  0.50400001928E-02 0. -1.
    10030    2    1    2    0    0  0.00000000000E+00  0.00000000000E+00  0.13079560718E+04  0.41251243277E+04  0.39122757613E+04 0.  0.
        4    1    3    3  502    0 -0.16037906478E+04 -0.10682864164E+04  0.10085679502E+04  0.21749922373E+04  0.12699999809E+01 0. -1.
       -4    1    3    3    0  502  0.16037906478E+04  0.10682864164E+04  0.29938812163E+03  0.19501320903E+04  0.12699999809E+01 0.  1.
</event>
<event>
 5   0  0.8676098E-08  0.3872527E+04  0.7818609E-02  0.8030767E-01
        2   -1    0    0  501    0  0.00000000000E+00  0.00000000000E+00  0.16424160221E+04  0.16424160221E+04  0.25500000920E-02 0.  1.
       -2   -1    0    0    0  501  0.00000000000E+00  0.00000000000E+00 -0.22826834180E+04  0.22826834180E+04  0.25500000920E-02 0. -1.
    10030    2    1    2    0    0  0.00000000000E+00  0.00000000000E+00 -0.64026739590E+03  0.39250994400E+04  0.38725267302E+04 0.  0.
        3    1    3    3  502    0 -0.62451210927E+03 -0.67212701372E+03  0.14081083926E+04  0.16806365915E+04  0.10100000352E+00 0.  1.
       -3    1    3    3    0  502  0.62451210927E+03  0.67212701372E+03 -0.20483757885E+04  0.22444628485E+04  0.10100000352E+00 0. -1.
</event>
<event>
 5   0  0.8676098E-08  0.3891806E+04  0.7818609E-02  0.8026736E-01
       -2   -1    0    0    0  501  0.00000000000E+00  0.00000000000E+00  0.19612532937E+04  0.19612532937E+04  0.25500000920E-02 0.  1.
        2   -1    0    0  501    0  0.00000000000E+00  0.00000000000E+00 -0.19306725990E+04  0.19306725990E+04  0.25500000920E-02 0. -1.
    10030    2    1    2    0    0  0.00000000000E+00  0.00000000000E+00  0.30580694748E+02  0.38919258927E+04  0.38918057474E+04 0.  0.
        3    1    3    3  502    0 -0.71810495014E+03 -0.17409346213E+04  0.50521353310E+03  0.19498125036E+04  0.10100000352E+00 0.  1.
       -3    1    3    3    0  502  0.71810495014E+03  0.17409346213E+04 -0.47463283835E+03  0.19421133892E+04  0.10100000352E+00 0. -1.
</event>
<event>
 5   0  0.8551754E-08  0.3933708E+04  0.7818609E-02  0.8018055E-01
        2   -1    0    0  501    0  0.00000000000E+00  0.00000000000E+00  0.20439164931E+04  0.20439164931E+04  0.25500000920E-02 0.  1.
       -2   -1    0    0    0  501  0.00000000000E+00  0.00000000000E+00 -0.18926971188E+04  0.18926971188E+04  0.25500000920E-02 0. -1.
    10030    2    1    2    0    0  0.00000000000E+00  0.00000000000E+00  0.15121937429E+03  0.39366136119E+04  0.39337081019E+04 0.  0.
        1    1    3    3  502    0 -0.58551155925E+03  0.46556639706E+03 -0.17447828240E+04  0.18983790346E+04  0.50400001928E-02 0. -1.
       -1    1    3    3    0  502  0.58551155925E+03 -0.46556639706E+03  0.18960021983E+04  0.20382345773E+04  0.50400001928E-02 0.  1.
</event>
<event>
 5   0  0.2632875E-08  0.3908516E+04  0.7818609E-02  0.8023260E-01
       -1   -1    0    0    0  501  0.00000000000E+00  0.00000000000E+00  0.21588015130E+04  0.21588015130E+04  0.50400001928E-02 0.  1.
        1   -1    0    0  501    0  0.00000000000E+00  0.00000000000E+00 -0.17690951414E+04  0.17690951414E+04  0.50400001928E-02 0. -1.
    10030    2    1    2    0    0  0.00000000000E+00  0.00000000000E+00  0.38970637160E+03  0.39278966544E+04  0.39085164797E+04 0.  0.
        1    1    3    3  502    0 -0.19286440540E+04 -0.18805284511E+03  0.44927545818E+03  0.19891908398E+04  0.50400001928E-02 0.  1.
       -1    1    3    3    0  502  0.19286440540E+04  0.18805284511E+03 -0.59569086580E+02  0.19387058147E+04  0.50400001928E-02 0. -1.
</event>
<event>
 5   0  0.8476262E-08  0.3931972E+04  0.7818609E-02  0.8018412E-01
       -2   -1    0    0    0  501  0.00000000000E+00  0.00000000000E+00  0.16644680317E+04  0.16644680317E+04  0.25500000920E-02 0.  1.
        2   -1    0    0  501    0  0.00000000000E+00  0.00000000000E+00 -0.23221233010E+04  0.23221233010E+04  0.25500000920E-02 0. -1.
    10030    2    1    2    0    0  0.00000000000E+00  0.00000000000E+00 -0.65765526928E+03  0.39865913327E+04  0.39319715157E+04 0.  0.
        2    1    3    3  502    0  0.28496897830E+03  0.45051180421E+03  0.15897941878E+04  0.16767867378E+04  0.25500000920E-02 0.  1.
       -2    1    3    3    0  502 -0.28496897830E+03 -0.45051180421E+03 -0.22474494571E+04  0.23098045949E+04  0.25500000920E-02 0. -1.
</event>
<event>
 5   0  0.8676098E-08  0.3892670E+04  0.7818609E-02  0.8026555E-01
        2   -1    0    0  501    0  0.00000000000E+00  0.00000000000E+00  0.17348829474E+04  0.17348829474E+04  0.25500000920E-02 0. -1.
       -2   -1    0    0    0  501  0.00000000000E+00  0.00000000000E+00 -0.21835592969E+04  0.21835592969E+04  0.25500000920E-02 0.  1.
    10030    2    1    2    0    0  0.00000000000E+00  0.00000000000E+00 -0.44867634944E+03  0.39184422443E+04  0.38926699264E+04 0.  0.
        3    1    3    3  502    0  0.59879778133E+03  0.25589945653E+03  0.16219745128E+04  0.17478113871E+04  0.10100000352E+00 0. -1.
       -3    1    3    3    0  502 -0.59879778133E+03 -0.25589945653E+03 -0.20706508622E+04  0.21706308572E+04  0.10100000352E+00 0.  1.
</event>
<event>
 5   0  0.2632875E-08  0.3876180E+04  0.7818609E-02  0.8030002E-01
        1   -1    0    0  501    0  0.00000000000E+00  0.00000000000E+00  0.11149925920E+04  0.11149925920E+04  0.50400001928E-02 0. -1.
       -1   -1    0    0    0  501  0.00000000000E+00  0.00000000000E+00 -0.33688051799E+04  0.33688051799E+04  0.50400001928E-02 0.  1.
    10030    2    1    2    0    0  0.00000000000E+00  0.00000000000E+00 -0.22538125880E+04  0.44837977719E+04  0.38761799852E+04 0.  0.
        1    1    3    3  502    0 -0.19241146851E+03  0.92200417259E+03 -0.30862622068E+04  0.32267829608E+04  0.50400001928E-02 0.  1.
       -1    1    3    3    0  502  0.19241146851E+03 -0.92200417259E+03  0.83244961879E+03  0.12570148111E+04  0.50400001928E-02 0. -1.
</event>
<event>
 5   0  0.8342802E-08  0.3905423E+04  0.7818609E-02  0.8023902E-01
       -2   -1    0    0    0  501  0.00000000000E+00  0.00000000000E+00  0.22731284761E+04  0.22731284761E+04  0.25500000920E-02 0. -1.
        2   -1    0    0  501    0  0.00000000000E+00  0.00000000000E+00 -0.16774600734E+04  0.16774600734E+04  0.25500000920E-02 0.  1.
    10030    2    1    2    0    0  0.00000000000E+00  0.00000000000E+00  0.59566840274E+03  0.39505885495E+04  0.39054230298E+04 0.  0.
        4    1    3    3  502    0  0.11191965882E+03 -0.19486742387E+04  0.35526533107E+03  0.19839537210E+04  0.12699999809E+01 0. -1.
       -4    1    3    3    0  502 -0.11191965882E+03  0.19486742387E+04  0.24040307167E+03  0.19666348285E+04  0.12699999809E+01 0.  1.
</event>
<event>
 5   0  0.8438211E-08  0.3829810E+04  0.7818609E-02  0.8039788E-01
        2   -1    0    0  501    0  0.00000000000E+00  0.00000000000E+00  0.23235098701E+04  0.23235098701E+04  0.25500000920E-02 0.  1.
       -2   -1    0    0    0  501  0.00000000000E+00  0.00000000000E+00 -0.15781561697E+04  0.15781561697E+04  0.25500000920E-02 0. -1.
    10030    2    1    2    0    0  0.00000000000E+00  0.00000000000E+00  0.74535370046E+03  0.39016660398E+04  0.38298101451E+04 0.  0.
        5    1    3    3  502    0 -0.94893148856E+03 -0.16468537103E+04  0.13540969253E+03  0.19055067536E+04  0.46999998093E+01 0. -1.
       -5    1    3    3    0  502  0.94893148856E+03  0.16468537103E+04  0.60994400793E+03  0.19961592862E+04  0.46999998093E+01 0.  1.
</event>
<event>
 5   0  0.8342802E-08  0.3900039E+04  0.7818609E-02  0.8025021E-01
       -2   -1    0    0    0  501  0.00000000000E+00  0.00000000000E+00  0.16321204237E+04  0.16321204237E+04  0.25500000920E-02 0. -1.
        2   -1    0    0  501    0  0.00000000000E+00  0.00000000000E+00 -0.23298373356E+04  0.23298373356E+04  0.25500000920E-02 0.  1.
    10030    2    1    2    0    0  0.00000000000E+00  0.00000000000E+00 -0.69771691199E+03  0.39619577593E+04  0.39000385123E+04 0.  0.
        4    1    3    3  502    0  0.15986076609E+04  0.10477033119E+04 -0.74144553609E+03  0.20501150648E+04  0.12699999809E+01 0.  1.
       -4    1    3    3    0  502 -0.15986076609E+04 -0.10477033119E+04  0.43728624103E+02  0.19118426945E+04  0.12699999809E+01 0. -1.
</event>
<event>
 5   0  0.8676098E-08  0.3859145E+04  0.7818609E-02  0.8033580E-01
        2   -1    0    0  501    0  0.00000000000E+00  0.00000000000E+00  0.16300003311E+04  0.16300003311E+04  0.25500000920E-02 0.  1.
       -2   -1    0    0    0  501  0.00000000000E+00  0.00000000000E+00 -0.22842025118E+04  0.22842025118E+04  0.25500000920E-02 0. -1.
    10030    2    1    2    0    0  0.00000000000E+00  0.00000000000E+00 -0.65420218078E+03  0.39142028429E+04  0.38591454238E+04 0.  0.
        3    1    3    3  502    0 -0.19115673111E+04 -0.26297661379E+03 -0.32926603696E+03  0.19574632608E+04  0.10100000352E+00 0. -1.
       -3    1    3    3    0  502  0.19115673111E+04  0.26297661379E+03 -0.32493614382E+03  0.19567395821E+04  0.10100000352E+00 0.  1.
</event>
<event>
 5   0  0.8676098E-08  0.3900323E+04  0.7818609E-02  0.8024962E-01
       -2   -1    0    0    0  501  0.00000000000E+00  0.00000000000E+00  0.28649606571E+04  0.28649606571E+04  0.25500000920E-02 0. -1.
        2   -1    0    0  501    0  0.00000000000E+00  0.00000000000E+00 -0.13274629186E+04  0.13274629186E+04  0.25500000920E-02 0.  1.
    10030    2    1    2    0    0  0.00000000000E+00  0.00000000000E+00  0.15374977385E+04  0.41924235756E+04  0.39003225689E+04 0.  0.
        3    1    3    3  502    0  0.10818346113E+04  0.12770324655E+04 -0.30719066599E+03  0.17016298539E+04  0.10100000352E+00 0.  1.
       -3    1    3    3    0  502 -0.10818346113E+04 -0.12770324655E+04  0.18446884045E+04  0.24907937217E+04  0.10100000352E+00 0. -1.
</event>
<event>
 5   0  0.8342802E-08  0.3834197E+04  0.7818609E-02  0.8038856E-01
        2   -1    0    0  501    0  0.00000000000E+00  0.00000000000E+00  0.15465038576E+04  0.15465038576E+04  0.25500000920E-02 0.  1.
       -2   -1    0    0    0  501  0.00000000000E+00  0.00000000000E+00 -0.23765005479E+04  0.23765005479E+04  0.25500000920E-02 0. -1.
    10030    2    1    2    0    0  0.00000000000E+00  0.00000000000E+00 -0.82999669030E+03  0.39230044054E+04  0.38341973162E+04 0.  0.
        4    1    3    3  502    0  0.33746516264E+03 -0.95687881065E+03  0.12492573081E+04  0.16093928138E+04  0.12699999809E+01 0.  1.
       -4    1    3    3    0  502 -0.33746516264E+03  0.95687881065E+03 -0.20792539984E+04  0.23136115917E+04  0.12699999809E+01 0. -1.
</event>
<event>
 5   0  0.8676098E-08  0.3868339E+04  0.7818609E-02  0.8031647E-01
       -2   -1    0    0    0  501  0.00000000000E+00  0.00000000000E+00  0.12113102257E+04  0.12113102258E+04  0.25500000920E-02 0.  1.
        2   -1    0    0  501    0  0.00000000000E+00  0.00000000000E+00 -0.30884002215E+04  0.30884002215E+04  0.25500000920E-02 0. -1.
    10030    2    1    2    0    0  0.00000000000E+00  0.00000000000E+00 -0.18770899957E+04  0.42997104472E+04  0.38683385423E+04 0.  0.
        3    1    3    3  502    0  0.13771318295E+04 -0.54106824156E+03 -0.23231552700E+04  0.27543233900E+04  0.10100000352E+00 0. -1.
       -3    1    3    3    0  502 -0.13771318295E+04  0.54106824156E+03  0.44606527427E+03  0.15453870573E+04  0.10100000352E+00 0.  1.
</event>
<event>
 5   0  0.2632875E-08  0.3816021E+04  0.7818609E-02  0.8042726E-01
        1   -1    0    0  501    0  0.00000000000E+00  0.00000000000E+00  0.28316466907E+04  0.28316466907E+04  0.50400001928E-02 0. -1.
       -1   -1    0    0    0  501  0.00000000000E+00  0.00000000000E+00 -0.12856489470E+04  0.12856489470E+04  0.50400001928E-02 0.  1.
    10030    2    1    2    0    0  0.00000000000E+00  0.00000000000E+00  0.15459977438E+04  0.41172956377E+04  0.38160207474E+04 0.  0.
        5    1    3    3  502    0 -0.10247771828E+04 -0.16077066405E+04  0.85368658728E+03  0.20889451395E+04  0.46999998093E+01 0.  1.
       -5    1    3    3    0  502  0.10247771828E+04  0.16077066405E+04  0.69231115649E+03  0.20283504982E+04  0.46999998093E+01 0. -1.
</event>
<event>
 5   0  0.8551754E-08  0.3917555E+04  0.7818609E-02  0.8021388E-01
        2   -1    0    0  501    0  0.00000000000E+00  0.00000000000E+00  0.23480283667E+04  0.23480283667E+04  0.25500000920E-02 0. -1.
       -2   -1    0    0    0  501  0.00000000000E+00  0.00000000000E+00 -0.16340560957E+04  0.16340560957E+04  0.25500000920E-02 0.  1.
    10030    2    1    2    0    0  0.00000000000E+00  0.00000000000E+00  0.71397227098E+03  0.39820844624E+04  0.39175553936E+04 0.  0.
        1    1    3    3  502    0 -0.91729872076E+03  0.16800375378E+04 -0.65610696487E+02  0.19152722613E+04  0.50400001928E-02 0.  1.
       -1    1    3    3    0  502  0.91729872076E+03 -0.16800375378E+04  0.77958296746E+03  0.20668122011E+04  0.50400001928E-02 0. -1.
</event>
<event>
 5   0  0.2632875E-08  0.3898852E+04  0.7818609E-02  0.8025268E-01
       -1   -1    0    0    0  501  0.00000000000E+00  0.00000000000E+00  0.11488446165E+04  0.11488446165E+04  0.50400001928E-02 0.  1.
        1   -1    0    0  501    0  0.00000000000E+00  0.00000000000E+00 -0.33078993311E+04  0.33078993311E+04  0.50400001928E-02 0. -1.
    10030    2    1    2    0    0  0.00000000000E+00  0.00000000000E+00 -0.21590547145E+04  0.44567439476E+04  0.38988523124E+04 0.  0.
        3    1    3    3  502    0 -0.57473865125E+03 -0.64164994145E+03 -0.30785397456E+04  0.31967868462E+04  0.10100000352E+00 0. -1.
       -3    1    3    3    0  502  0.57473865125E+03  0.64164994145E+03  0.91948503111E+03  0.12599571014E+04  0.10100000352E+00 0.  1.
</event>
<event>
 5   0  0.8342802E-08  0.3883109E+04  0.7818609E-02  0.8028551E-01
        2   -1    0    0  501    0  0.00000000000E+00  0.00000000000E+00  0.20162409172E+04  0.20162409172E+04  0.25500000920E-02 0.  1.
       -2   -1    0    0    0  501  0.00000000000E+00  0.00000000000E+00 -0.18696349554E+04  0.18696349554E+04  0.25500000920E-02 0. -1.
    10030    2    1    2    0    0  0.00000000000E+00  0.00000000000E+00  0.14660596180E+03  0.38858758727E+04  0.38831093198E+04 0.  0.
        4    1    3    3  502    0  0.11865066597E+04  0.17356142508E+03 -0.14547791307E+04  0.18852865972E+04  0.12699999809E+01 0. -1.
       -4    1    3    3    0  502 -0.11865066597E+04 -0.17356142508E+03  0.16013850925E+04  0.20005892754E+04  0.12699999809E+01 0.  1.
</event>
<event>
 5   0  0.8342802E-08  0.3856382E+04  0.7818609E-02  0.8034162E-01
        2   -1    0    0  501    0  0.00000000000E+00  0.00000000000E+00  0.20600550747E+04  0.20600550747E+04  0.25500000920E-02 0.  1.
       -2   -1    0    0    0  501  0.00000000000E+00  0.00000000000E+00 -0.18047679019E+04  0.18047679020E+04  0.25500000920E-02 0. -1.
    10030    2    1    2    0    0  0.00000000000E+00  0.00000000000E+00  0.25528717274E+03  0.38648229766E+04  0.38563823851E+04 0.  0.
        4    1    3    3  502    0  0.12607772659E+04  0.60456446705E+03  0.14582778214E+04  0.20203052557E+04  0.12699999809E+01 0.  1.
       -4    1    3    3    0  502 -0.12607772659E+04 -0.60456446705E+03 -0.12029906487E+04  0.18445177209E+04  0.12699999809E+01 0. -1.
</event>
<event>
 5   0  0.8342802E-08  0.3623368E+04  0.7818609E-02  0.8085160E-01
        2   -1    0    0  501    0  0.00000000000E+00  0.00000000000E+00  0.22686099812E+04  0.22686099812E+04  0.25500000920E-02 0. -1.
       -2   -1    0    0    0  501  0.00000000000E+00  0.00000000000E+00 -0.14467888088E+04  0.14467888088E+04  0.25500000920E-02 0.  1.
    10030    2    1    2    0    0  0.00000000000E+00  0.00000000000E+00  0.82182117245E+03  0.37153987900E+04  0.36233683402E+04 0.  0.
        4    1    3    3  502    0  0.15779033990E+04 -0.86971556355E+03  0.60550319790E+03  0.19007419692E+04  0.12699999809E+01 0. -1.
       -4    1    3    3    0  502 -0.15779033990E+04  0.86971556355E+03  0.21631797455E+03  0.18146568207E+04  0.12699999809E+01 0.  1.
</event>
<event>
 5   0  0.8551754E-08  0.3894876E+04  0.7818609E-02  0.8026096E-01
        2   -1    0    0  501    0  0.00000000000E+00  0.00000000000E+00  0.15345062149E+04  0.15345062150E+04  0.25500000920E-02 0.  1.
       -2   -1    0    0    0  501  0.00000000000E+00  0.00000000000E+00 -0.24714890222E+04  0.24714890222E+04  0.25500000920E-02 0. -1.
    10030    2    1    2    0    0  0.00000000000E+00  0.00000000000E+00 -0.93698280722E+03  0.40059952371E+04  0.38948762572E+04 0.  0.
        1    1    3    3  502    0  0.11953680635E+04 -0.13584236484E+04 -0.12089581264E+04  0.21761891846E+04  0.50400001928E-02 0. -1.
       -1    1    3    3    0  502 -0.11953680635E+04  0.13584236484E+04  0.27197531916E+03  0.18298060525E+04  0.50400001928E-02 0.  1.
</event>
<event>
 5   0  0.2632875E-08  0.3883742E+04  0.7818609E-02  0.8028419E-01
       -1   -1    0    0    0  501  0.00000000000E+00  0.00000000000E+00  0.12146973457E+04  0.12146973457E+04  0.50400001928E-02 0.  1.
        1   -1    0    0  501    0  0.00000000000E+00  0.00000000000E+00 -0.31043643333E+04  0.31043643333E+04  0.50400001928E-02 0. -1.
    10030    2    1    2    0    0  0.00000000000E+00  0.00000000000E+00 -0.18896669876E+04  0.43190616790E+04  0.38837420696E+04 0.  0.
        1    1    3    3  502    0  0.12304251617E+04 -0.71786312976E+03 -0.24124477896E+04  0.28016384294E+04  0.50400001928E-02 0. -1.
       -1    1    3    3    0  502 -0.12304251617E+04  0.71786312976E+03  0.52278080201E+03  0.15174232496E+04  0.50400001928E-02 0.  1.
</event>
<event>
 5   0  0.2632875E-08  0.3896565E+04  0.7818609E-02  0.8025744E-01
       -1   -1    0    0    0  501  0.00000000000E+00  0.00000000000E+00  0.17047071077E+04  0.17047071077E+04  0.50400001928E-02 0. -1.
        1   -1    0    0  501    0  0.00000000000E+00  0.00000000000E+00 -0.22266609402E+04  0.22266609402E+04  0.50400001928E-02 0.  1.
    10030    2    1    2    0    0  0.00000000000E+00  0.00000000000E+00 -0.52195383250E+03  0.39313680479E+04  0.38965650161E+04 0.  0.
        5    1    3    3  502    0 -0.37745739384E+03  0.63081608775E+03  0.15594053529E+04  0.17239983078E+04  0.46999998093E+01 0. -1.
       -5    1    3    3    0  502  0.37745739384E+03 -0.63081608775E+03 -0.20813591854E+04  0.22073697401E+04  0.46999998093E+01 0.  1.
</event>
<event>
 5   0  0.8342802E-08  0.3941105E+04  0.7818609E-02  0.8016534E-01
       -2   -1    0    0    0  501  0.00000000000E+00  0.00000000000E+00  0.17883904902E+04  0.17883904902E+04  0.25500000920E-02 0. -1.
        2   -1    0    0  501    0  0.00000000000E+00  0.00000000000E+00 -0.21712693004E+04  0.21712693004E+04  0.25500000920E-02 0.  1.
    10030    2    1    2    0    0  0.00000000000E+00  0.00000000000E+00 -0.38287881020E+03  0.39596597905E+04  0.39411051082E+04 0.  0.
        4    1    3    3  502    0  0.12340922389E+04  0.93844645349E+03 -0.14134759201E+04  0.20979945639E+04  0.12699999809E+01 0.  1.
       -4    1    3    3    0  502 -0.12340922389E+04 -0.93844645349E+03  0.10305971099E+04  0.18616652267E+04  0.12699999809E+01 0. -1.
</event>
<event>
 5   0  0.8551754E-08  0.3946847E+04  0.7818609E-02  0.8015356E-01
        2   -1    0    0  501    0  0.00000000000E+00  0.00000000000E+00  0.31221488913E+04  0.31221488913E+04  0.25500000920E-02 0. -1.
       -2   -1    0    0    0  501  0.00000000000E+00  0.00000000000E+00 -0.12473459792E+04  0.12473459792E+04  0.25500000920E-02 0.  1.
    10030    2    1    2    0    0  0.00000000000E+00  0.00000000000E+00  0.18748029121E+04  0.43694948705E+04  0.39468467749E+04 0.  0.
        1    1    3    3  502    0 -0.75911705320E+02 -0.18719236216E+04  0.25088445625E+03  0.18901861396E+04  0.50400001928E-02 0.  1.
       -1    1    3    3    0  502  0.75911705320E+02  0.18719236216E+04  0.16239184558E+04  0.24793087309E+04  0.50400001928E-02 0. -1.
</event>
<event>
 5   0  0.8476262E-08  0.3900398E+04  0.7818609E-02  0.8024947E-01
        2   -1    0    0  501    0  0.00000000000E+00  0.00000000000E+00  0.24074896802E+04  0.24074896802E+04  0.25500000920E-02 0. -1.
       -2   -1    0    0    0  501  0.00000000000E+00  0.00000000000E+00 -0.15797680983E+04  0.15797680983E+04  0.25500000920E-02 0.  1.
    10030    2    1    2    0    0  0.00000000000E+00  0.00000000000E+00  0.82772158187E+03  0.39872577785E+04  0.39003976175E+04 0.  0.
        2    1    3    3  502    0 -0.94134413981E+03 -0.16453772967E+04 -0.54468283713E+02  0.18964076650E+04  0.25500000920E-02 0. -1.
       -2    1    3    3    0  502  0.94134413981E+03  0.16453772967E+04  0.88218986558E+03  0.20908501135E+04  0.25500000920E-02 0.  1.
</event>
<event>
 5   0  0.8438211E-08  0.3894253E+04  0.7818609E-02  0.8026226E-01
        2   -1    0    0  501    0  0.00000000000E+00  0.00000000000E+00  0.28411860108E+04  0.28411860108E+04  0.25500000920E-02 0. -1.
       -2   -1    0    0    0  501  0.00000000000E+00  0.00000000000E+00 -0.13344081137E+04  0.13344081137E+04  0.25500000920E-02 0.  1.
    10030    2    1    2    0    0  0.00000000000E+00  0.00000000000E+00  0.15067778971E+04  0.41755941246E+04  0.38942530300E+04 0.  0.
        5    1    3    3  502    0  0.44819339123E+02  0.18572355200E+04  0.12821663853E+03  0.18622014248E+04  0.46999998093E+01 0.  1.
       -5    1    3    3    0  502 -0.44819339123E+02 -0.18572355200E+04  0.13785612586E+04  0.23133926998E+04  0.46999998093E+01 0. -1.
</event>
<event>
 5   0  0.8476262E-08  0.3890644E+04  0.7818609E-02  0.8026978E-01
       -2   -1    0    0    0  501  0.00000000000E+00  0.00000000000E+00  0.24581447876E+04  0.24581447876E+04  0.25500000920E-02 0. -1.
        2   -1    0    0  501    0  0.00000000000E+00  0.00000000000E+00 -0.15394850377E+04  0.15394850377E+04  0.25500000920E-02 0.  1.
    10030    2    1    2    0    0  0.00000000000E+00  0.00000000000E+00  0.91865974995E+03  0.39976298253E+04  0.38906437108E+04 0.  0.
        2    1    3    3  502    0  0.16571075714E+04 -0.38054584464E+03 -0.51189056960E+03  0.17756273816E+04  0.25500000920E-02 0.  1.
       -2    1    3    3    0  502 -0.16571075714E+04  0.38054584464E+03  0.14305503196E+04  0.22220024437E+04  0.25500000920E-02 0. -1.
</event>
<event>
 5   0  0.2632875E-08  0.3900386E+04  0.7818609E-02  0.8024949E-01
        1   -1    0    0  501    0  0.00000000000E+00  0.00000000000E+00  0.11939962678E+04  0.11939962679E+04  0.50400001928E-02 0.  1.
       -1   -1    0    0    0  501  0.00000000000E+00  0.00000000000E+00 -0.31853129839E+04  0.31853129839E+04  0.50400001928E-02 0. -1.
    10030    2    1    2    0    0  0.00000000000E+00  0.00000000000E+00 -0.19913167160E+04  0.43793092517E+04  0.39003855269E+04 0.  0.
        3    1    3    3  502    0  0.12566336315E+04  0.14449737570E+04 -0.14099880642E+04  0.23780545818E+04  0.10100000352E+00 0. -1.
       -3    1    3    3    0  502 -0.12566336315E+04 -0.14449737570E+04 -0.58132865180E+03  0.20012546700E+04  0.10100000352E+00 0.  1.
</event>
<event>
 5   0  0.8551754E-08  0.3909826E+04  0.7818609E-02  0.8022989E-01
       -2   -1    0    0    0  501  0.00000000000E+00  0.00000000000E+00  0.16277470933E+04  0.16277470933E+04  0.25500000920E-02 0.  1.
        2   -1    0    0  501    0  0.00000000000E+00  0.00000000000E+00 -0.23478370972E+04  0.23478370972E+04  0.25500000920E-02 0. -1.
    10030    2    1    2    0    0  0.00000000000E+00  0.00000000000E+00 -0.72009000391E+03  0.39755841905E+04  0.39098260885E+04 0.  0.
        1    1    3    3  502    0 -0.79227727408E+03  0.13492051994E+04 -0.15517751711E+04  0.22036479145E+04  0.50400001928E-02 0. -1.
       -1    1    3    3    0  502  0.79227727408E+03 -0.13492051994E+04  0.83168516724E+03  0.17719362761E+04  0.50400001928E-02 0.  1.
</event>
<event>
 5   0  0.2632875E-08  0.3894784E+04  0.7818609E-02  0.8026115E-01
        1   -1    0    0  501    0  0.00000000000E+00  0.00000000000E+00  0.21240515633E+04  0.21240515633E+04  0.50400001928E-02 0. -1.
       -1   -1    0    0    0  501  0.00000000000E+00  0.00000000000E+00 -0.17854257400E+04  0.17854257400E+04  0.50400001928E-02 0.  1.
    10030    2    1    2    0    0  0.00000000000E+00  0.00000000000E+00  0.33862582334E+03  0.39094773033E+04  0.38947843761E+04 0.  0.
        4    1    3    3  502    0  0.11378182195E+04 -0.75536080965E+03  0.15627625800E+04  0.20754345925E+04  0.12699999809E+01 0. -1.
       -4    1    3    3    0  502 -0.11378182195E+04  0.75536080965E+03 -0.12241367566E+04  0.18340427108E+04  0.12699999809E+01 0.  1.
</event>
<event>
 5   0  0.2632875E-08  0.4032411E+04  0.7818609E-02  0.7998040E-01
        1   -1    0    0  501    0  0.00000000000E+00  0.00000000000E+00  0.18038404905E+04  0.18038404905E+04  0.50400001928E-02 0.  1.
       -1   -1    0    0    0  501  0.00000000000E+00  0.00000000000E+00 -0.22535716341E+04  0.22535716341E+04  0.50400001928E-02 0. -1.
    10030    2    1    2    0    0  0.00000000000E+00  0.00000000000E+00 -0.44973114365E+03  0.40574121246E+04  0.40324105753E+04 0.  0.
        4    1    3    3  502    0 -0.18597942957E+04 -0.10823239233E+03  0.55097482345E+03  0.19427104628E+04  0.12699999809E+01 0.  1.
       -4    1    3    3    0  502  0.18597942957E+04  0.10823239233E+03 -0.10007059671E+04  0.21147016619E+04  0.12699999809E+01 0. -1.
</event>
<event>
 5   0  0.8676098E-08  0.3870931E+04  0.7818609E-02  0.8031102E-01
       -2   -1    0    0    0  501  0.00000000000E+00  0.00000000000E+00  0.16992178361E+04  0.16992178361E+04  0.25500000920E-02 0.  1.
        2   -1    0    0  501    0  0.00000000000E+00  0.00000000000E+00 -0.22045593306E+04  0.22045593306E+04  0.25500000920E-02 0. -1.
    10030    2    1    2    0    0  0.00000000000E+00  0.00000000000E+00 -0.50534149451E+03  0.39037771667E+04  0.38709309140E+04 0.  0.
        3    1    3    3  502    0 -0.14801283381E+04  0.12075808771E+04  0.61412224486E+02  0.19112307405E+04  0.10100000352E+00 0. -1.
       -3    1    3    3    0  502  0.14801283381E+04 -0.12075808771E+04 -0.56675371900E+03  0.19925464261E+04  0.10100000352E+00 0.  1.
</event>
<event>
 5   0  0.8438211E-08  0.3899696E+04  0.7818609E-02  0.8025093E-01
       -2   -1    0    0    0  501  0.00000000000E+00  0.00000000000E+00  0.20732877737E+04  0.20732877737E+04  0.25500000920E-02 0.  1.
        2   -1    0    0  501    0  0.00000000000E+00  0.00000000000E+00 -0.18337572501E+04  0.18337572501E+04  0.25500000920E-02 0. -1.
    10030    2    1    2    0    0  0.00000000000E+00  0.00000000000E+00  0.23953052365E+03  0.39070450238E+04  0.38996956223E+04 0.  0.
        5    1    3    3  502    0  0.53662913335E+03  0.14717458411E+03  0.19920442685E+04  0.20683069508E+04  0.46999998093E+01 0.  1.
       -5    1    3    3    0  502 -0.53662913335E+03 -0.14717458411E+03 -0.17525137449E+04  0.18387380730E+04  0.46999998093E+01 0. -1.
</event>
<event>
 5   0  0.8438211E-08  0.3903496E+04  0.7818609E-02  0.8024303E-01
        2   -1    0    0  501    0  0.00000000000E+00  0.00000000000E+00  0.19061382383E+04  0.19061382383E+04  0.25500000920E-02 0. -1.
       -2   -1    0    0    0  501  0.00000000000E+00  0.00000000000E+00 -0.19984490150E+04  0.19984490150E+04  0.25500000920E-02 0.  1.
    10030    2    1    2    0    0  0.00000000000E+00  0.00000000000E+00 -0.92310776755E+02  0.39045872533E+04  0.39034959125E+04 0.  0.
        5    1    3    3  502    0  0.47563472647E+03 -0.91334337257E+03  0.16122808517E+04  0.19130855036E+04  0.46999998093E+01 0. -1.
       -5    1    3    3    0  502 -0.47563472647E+03  0.91334337257E+03 -0.17045916285E+04  0.19915017497E+04  0.46999998093E+01 0.  1.
</event>
<event>
 5   0  0.8551754E-08  0.3791245E+04  0.7818609E-02  0.8048036E-01
       -2   -1    0    0    0  501  0.00000000000E+00  0.00000000000E+00  0.18877867294E+04  0.18877867294E+04  0.25500000920E-02 0.  1.
        2   -1    0    0  501    0  0.00000000000E+00  0.00000000000E+00 -0.19034906531E+04  0.19034906531E+04  0.25500000920E-02 0. -1.
    10030    2    1    2    0    0  0.00000000000E+00  0.00000000000E+00 -0.15703923679E+02  0.37912773825E+04  0.37912448585E+04 0.  0.
        1    1    3    3  502    0  0.17709323188E+04  0.66723736490E+03 -0.11729427978E+03  0.18960920144E+04  0.50400001928E-02 0. -1.
       -1    1    3    3    0  502 -0.17709323188E+04 -0.66723736490E+03  0.10159035610E+03  0.18951853681E+04  0.50400001928E-02 0.  1.
</event>
<event>
 5   0  0.2632875E-08  0.3911960E+04  0.7818609E-02  0.8022546E-01
       -1   -1    0    0    0  501  0.00000000000E+00  0.00000000000E+00  0.24824720372E+04  0.24824720373E+04  0.50400001928E-02 0. -1.
        1   -1    0    0  501    0  0.00000000000E+00  0.00000000000E+00 -0.15411484074E+04  0.15411484074E+04  0.50400001928E-02 0.  1.
    10030    2    1    2    0    0  0.00000000000E+00  0.00000000000E+00  0.94132362989E+03  0.40236204446E+04  0.39119600338E+04 0.  0.
        1    1    3    3  502    0  0.34040841241E+02  0.18109748916E+04 -0.28869926531E+03  0.18341581455E+04  0.50400001928E-02 0.  1.
       -1    1    3    3    0  502 -0.34040841241E+02 -0.18109748916E+04  0.12300228952E+04  0.21894622992E+04  0.50400001928E-02 0. -1.
</event>
<event>
 5   0  0.8438211E-08  0.3910288E+04  0.7818609E-02  0.8022893E-01
        2   -1    0    0  501    0  0.00000000000E+00  0.00000000000E+00  0.11677674531E+04  0.11677674531E+04  0.25500000920E-02 0.  1.
       -2   -1    0    0    0  501  0.00000000000E+00  0.00000000000E+00 -0.32734161797E+04  0.32734161797E+04  0.25500000920E-02 0. -1.
    10030    2    1    2    0    0  0.00000000000E+00  0.00000000000E+00 -0.21056487266E+04  0.44411836328E+04  0.39102884165E+04 0.  0.
        5    1    3    3  502    0 -0.16787159439E+04  0.91428907778E+03 -0.15191194290E+04  0.24416710810E+04  0.46999998093E+01 0. -1.
       -5    1    3    3    0  502  0.16787159439E+04 -0.91428907778E+03 -0.58652929760E+03  0.19995125518E+04  0.46999998093E+01 0.  1.
</event>
<event>
 5   0  0.8476262E-08  0.3903828E+04  0.7818609E-02  0.8024234E-01
       -2   -1    0    0    0  501  0.00000000000E+00  0.00000000000E+00  0.20946427769E+04  0.20946427769E+04  0.25500000920E-02 0.  1.
        2   -1    0    0  501    0  0.00000000000E+00  0.00000000000E+00 -0.18189103308E+04  0.18189103308E+04  0.25500000920E-02 0. -1.
    10030    2    1    2    0    0  0.00000000000E+00  0.00000000000E+00  0.27573244605E+03  0.39135531077E+04  0.39038275506E+04 0.  0.
        2    1    3    3  502    0  0.14319385588E+03 -0.31378159243E+03  0.20638510701E+04  0.20924733231E+04  0.25500000920E-02 0.  1.
       -2    1    3    3    0  502 -0.14319385588E+03  0.31378159243E+03 -0.17881186241E+04  0.18210797846E+04  0.25500000920E-02 0. -1.
</event>
<event>
 5   0  0.8676098E-08  0.3889648E+04  0.7818609E-02  0.8027186E-01
       -2   -1    0    0    0  501  0.00000000000E+00  0.00000000000E+00  0.15642696099E+04  0.15642696099E+04  0.25500000920E-02 0.  1.
        2   -1    0    0  501    0  0.00000000000E+00  0.00000000000E+00 -0.24179589130E+04  0.24179589130E+04  0.25500000920E-02 0. -1.
    10030    2    1    2    0    0  0.00000000000E+00  0.00000000000E+00 -0.85368930309E+03  0.39822285230E+04  0.38896476168E+04 0.  0.
        3    1    3    3  502    0  0.12160920408E+04 -0.63619006350E+03 -0.18375834492E+04  0.22935410595E+04  0.10100000352E+00 0. -1.
       -3    1    3    3    0  502 -0.12160920408E+04  0.63619006350E+03  0.98389414609E+03  0.16886874635E+04  0.10100000352E+00 0.  1.
</event>
<event>
 5   0  0.2632875E-08  0.3897426E+04  0.7818609E-02  0.8025565E-01
       -1   -1    0    0    0  501  0.00000000000E+00  0.00000000000E+00  0.13680875506E+04  0.13680875506E+04  0.50400001928E-02 0.  1.
        1   -1    0    0  501    0  0.00000000000E+00  0.00000000000E+00 -0.27757592393E+04  0.27757592393E+04  0.50400001928E-02 0. -1.
    10030    2    1    2    0    0  0.00000000000E+00  0.00000000000E+00 -0.14076716887E+04  0.41438467899E+04  0.38974256421E+04 0.  0.
        1    1    3    3  502    0  0.29078189052E+02 -0.99390273142E+03  0.10780741175E+04  0.14666055992E+04  0.50400001928E-02 0.  1.
       -1    1    3    3    0  502 -0.29078189052E+02  0.99390273142E+03 -0.24857458062E+04  0.26772411908E+04  0.50400001928E-02 0. -1.
</event>
<event>
 5   0  0.8676098E-08  0.3884698E+04  0.7818609E-02  0.8028219E-01
        2   -1    0    0  501    0  0.00000000000E+00  0.00000000000E+00  0.26555877358E+04  0.26555877358E+04  0.25500000920E-02 0.  1.
       -2   -1    0    0    0  501  0.00000000000E+00  0.00000000000E+00 -0.14206724132E+04  0.14206724132E+04  0.25500000920E-02 0. -1.
    10030    2    1    2    0    0  0.00000000000E+00  0.00000000000E+00  0.12349153226E+04  0.40762601490E+04  0.38846983085E+04 0.  0.
        3    1    3    3  502    0  0.18150277266E+04  0.42237862324E+03  0.42734604350E+02  0.18640159887E+04  0.10100000352E+00 0.  1.
       -3    1    3    3    0  502 -0.18150277266E+04 -0.42237862324E+03  0.11921807183E+04  0.22122441603E+04  0.10100000352E+00 0. -1.
</event>
<event>
 5   0  0.8438211E-08  0.3733002E+04  0.7818609E-02  0.8060687E-01
        2   -1    0    0  501    0  0.00000000000E+00  0.00000000000E+00  0.28378228240E+04  0.28378228240E+04  0.25500000920E-02 0.  1.
       -2   -1    0    0    0  501  0.00000000000E+00  0.00000000000E+00 -0.12276405291E+04  0.12276405291E+04  0.25500000920E-02 0. -1.
    10030    2    1    2    0    0  0.00000000000E+00  0.00000000000E+00  0.16101822949E+04  0.40654633531E+04  0.37330021769E+04 0.  0.
        5    1    3    3  502    0  0.11481607583E+04  0.11942394556E+04 -0.13132518607E+03  0.16618511963E+04  0.46999998093E+01 0.  1.
       -5    1    3    3    0  502 -0.11481607583E+04 -0.11942394556E+04  0.17415074809E+04  0.24036121568E+04  0.46999998093E+01 0. -1.
</event>
<event>
 5   0  0.2632875E-08  0.4046320E+04  0.7818609E-02  0.7995267E-01
       -1   -1    0    0    0  501  0.00000000000E+00  0.00000000000E+00  0.13710307786E+04  0.13710307786E+04  0.50400001928E-02 0.  1.
        1   -1    0    0  501    0  0.00000000000E+00  0.00000000000E+00 -0.29854731505E+04  0.29854731505E+04  0.50400001928E-02 0. -1.
    10030    2    1    2    0    0  0.00000000000E+00  0.00000000000E+00 -0.16144423720E+04  0.43565039291E+04  0.40463196008E+04 0.  0.
        1    1    3    3  502    0 -0.98312755968E+03 -0.67590894325E+03  0.95198157991E+03  0.15263229104E+04  0.50400001928E-02 0.  1.
       -1    1    3    3    0  502  0.98312755968E+03  0.67590894325E+03 -0.25664239519E+04  0.28301810188E+04  0.50400001928E-02 0. -1.
</event>
<event>
 5   0  0.2632875E-08  0.3898822E+04  0.7818609E-02  0.8025274E-01
        1   -1    0    0  501    0  0.00000000000E+00  0.00000000000E+00  0.31174750341E+04  0.31174750341E+04  0.50400001928E-02 0.  1.
       -1   -1    0    0    0  501  0.00000000000E+00  0.00000000000E+00 -0.12190004940E+04  0.12190004940E+04  0.50400001928E-02 0. -1.
    10030    2    1    2    0    0  0.00000000000E+00  0.00000000000E+00  0.18984745401E+04  0.43364755281E+04  0.38988221845E+04 0.  0.
        2    1    3    3  502    0  0.33429296868E+03 -0.16275188407E+04 -0.18484290534E+03  0.16717464717E+04  0.25500000920E-02 0. -1.
       -2    1    3    3    0  502 -0.33429296868E+03  0.16275188407E+04  0.20833174454E+04  0.26647290565E+04  0.25500000920E-02 0.  1.
</event>
<event>
 5   0  0.8342802E-08  0.3887349E+04  0.7818609E-02  0.8027666E-01
        2   -1    0    0  501    0  0.00000000000E+00  0.00000000000E+00  0.20485421671E+04  0.20485421671E+04  0.25500000920E-02 0.  1.
       -2   -1    0    0    0  501  0.00000000000E+00  0.00000000000E+00 -0.18441751264E+04  0.18441751264E+04  0.25500000920E-02 0. -1.
    10030    2    1    2    0    0  0.00000000000E+00  0.00000000000E+00  0.20436704061E+03  0.38927172935E+04  0.38873489732E+04 0.  0.
        4    1    3    3  502    0 -0.16159456524E+04  0.70444162013E+03 -0.71769653096E+03  0.19033150741E+04  0.12699999809E+01 0. -1.
       -4    1    3    3    0  502  0.16159456524E+04 -0.70444162013E+03  0.92206357157E+03  0.19894022194E+04  0.12699999809E+01 0.  1.
</event>
<event>
 5   0  0.8342802E-08  0.3897619E+04  0.7818609E-02  0.8025525E-01
        2   -1    0    0  501    0  0.00000000000E+00  0.00000000000E+00  0.25991661628E+04  0.25991661628E+04  0.25500000920E-02 0. -1.
       -2   -1    0    0    0  501  0.00000000000E+00  0.00000000000E+00 -0.14611832582E+04  0.14611832582E+04  0.25500000920E-02 0.  1.
    10030    2    1    2    0    0  0.00000000000E+00  0.00000000000E+00  0.11379829046E+04  0.40603494211E+04  0.38976188025E+04 0.  0.
        4    1    3    3  502    0 -0.16574903199E+04  0.11015516640E+03  0.16305805643E+04  0.23277033554E+04  0.12699999809E+01 0.  1.
       -4    1    3    3    0  502  0.16574903199E+04 -0.11015516640E+03 -0.49259765975E+03  0.17326460656E+04  0.12699999809E+01 0. -1.
</event>
<event>
 5   0  0.8476262E-08  0.3906228E+04  0.7818609E-02  0.8023735E-01
       -2   -1    0    0    0  501  0.00000000000E+00  0.00000000000E+00  0.24286006445E+04  0.24286006445E+04  0.25500000920E-02 0.  1.
        2   -1    0    0  501    0  0.00000000000E+00  0.00000000000E+00 -0.15707208126E+04  0.15707208126E+04  0.25500000920E-02 0. -1.
    10030    2    1    2    0    0  0.00000000000E+00  0.00000000000E+00  0.85787983196E+03  0.39993214571E+04  0.39062276318E+04 0.  0.
        2    1    3    3  502    0 -0.18080949342E+04 -0.53112800596E+03  0.95434572814E+03  0.21123636095E+04  0.25500000920E-02 0. -1.
       -2    1    3    3    0  502  0.18080949342E+04  0.53112800596E+03 -0.96465896174E+02  0.18869578477E+04  0.25500000920E-02 0.  1.
</event>
<event>
 5   0  0.8551754E-08  0.3917639E+04  0.7818609E-02  0.8021371E-01
        2   -1    0    0  501    0  0.00000000000E+00  0.00000000000E+00  0.26602325254E+04  0.26602325254E+04  0.25500000920E-02 0. -1.
       -2   -1    0    0    0  501  0.00000000000E+00  0.00000000000E+00 -0.14423455495E+04  0.14423455495E+04  0.25500000920E-02 0.  1.
    10030    2    1    2    0    0  0.00000000000E+00  0.00000000000E+00  0.12178869759E+04  0.41025780749E+04  0.39176393625E+04 0.  0.
        1    1    3    3  502    0 -0.10958830264E+04  0.14819630027E+04 -0.85537412547E+02  0.18451261739E+04  0.50400001928E-02 0.  1.
       -1    1    3    3    0  502  0.10958830264E+04 -0.14819630027E+04  0.13034243884E+04  0.22574519010E+04  0.50400001928E-02 0. -1.
</event>
<event>
 5   0  0.8342802E-08  0.3864420E+04  0.7818609E-02  0.8032470E-01
        2   -1    0    0  501    0  0.00000000000E+00  0.00000000000E+00  0.23620939783E+04  0.23620939783E+04  0.25500000920E-02 0.  1.
       -2   -1    0    0    0  501  0.00000000000E+00  0.00000000000E+00 -0.15805620856E+04  0.15805620856E+04  0.25500000920E-02 0. -1.
    10030    2    1    2    0    0  0.00000000000E+00  0.00000000000E+00  0.78153189270E+03  0.39426560639E+04  0.38644203626E+04 0.  0.
        4    1    3    3  502    0 -0.33017946466E+03 -0.91235255677E+03 -0.13139989201E+04  0.16334014943E+04  0.12699999809E+01 0. -1.
       -4    1    3    3    0  502  0.33017946466E+03  0.91235255677E+03  0.20955308128E+04  0.23092545696E+04  0.12699999809E+01 0.  1.
</event>
<event>
 5   0  0.8438211E-08  0.3907176E+04  0.7818609E-02  0.8023538E-01
        2   -1    0    0  501    0  0.00000000000E+00  0.00000000000E+00  0.18243941179E+04  0.18243941179E+04  0.25500000920E-02 0. -1.
       -2   -1    0    0    0  501  0.00000000000E+00  0.00000000000E+00 -0.20919303352E+04  0.20919303352E+04  0.25500000920E-02 0.  1.
    10030    2    1    2    0    0  0.00000000000E+00  0.00000000000E+00 -0.26753621729E+03  0.39163244532E+04  0.39071756545E+04 0.  0.
        5    1    3    3  502    0 -0.11974910373E+04  0.10209089397E+04 -0.12941677253E+04  0.20374327078E+04  0.46999998093E+01 0. -1.
       -5    1    3    3    0  502  0.11974910373E+04 -0.10209089397E+04  0.10266315080E+04  0.18788917454E+04  0.46999998093E+01 0.  1.
</event>
<event>
 5   0  0.2632875E-08  0.3881594E+04  0.7818609E-02  0.8028868E-01
       -1   -1    0    0    0  501  0.00000000000E+00  0.00000000000E+00  0.19131942387E+04  0.19131942388E+04  0.50400001928E-02 0. -1.
        1   -1    0    0  501    0  0.00000000000E+00  0.00000000000E+00 -0.19687979645E+04  0.19687979645E+04  0.50400001928E-02 0.  1.
    10030    2    1    2    0    0  0.00000000000E+00  0.00000000000E+00 -0.55603725714E+02  0.38819922032E+04  0.38815939627E+04 0.  0.
        3    1    3    3  502    0 -0.81184442532E+03  0.33873570103E+03 -0.17579676976E+04  0.19657781366E+04  0.10100000352E+00 0.  1.
       -3    1    3    3    0  502  0.81184442532E+03 -0.33873570103E+03  0.17023639719E+04  0.19162140666E+04  0.10100000352E+00 0. -1.
</event>
<event>
 5   0  0.2632875E-08  0.3900749E+04  0.7818609E-02  0.8024874E-01
       -1   -1    0    0    0  501  0.00000000000E+00  0.00000000000E+00  0.19489163906E+04  0.19489163906E+04  0.50400001928E-02 0. -1.
        1   -1    0    0  501    0  0.00000000000E+00  0.00000000000E+00 -0.19518333431E+04  0.19518333431E+04  0.50400001928E-02 0.  1.
    10030    2    1    2    0    0  0.00000000000E+00  0.00000000000E+00 -0.29169524421E+01  0.39007497337E+04  0.39007486431E+04 0.  0.
        3    1    3    3  502    0  0.13047425275E+04 -0.65252519227E+03 -0.12959926517E+04  0.19513429102E+04  0.10100000352E+00 0.  1.
       -3    1    3    3    0  502 -0.13047425275E+04  0.65252519227E+03  0.12930756992E+04  0.19494068236E+04  0.10100000352E+00 0. -1.
</event>
<event>
 5   0  0.2632875E-08  0.3887167E+04  0.7818609E-02  0.8027704E-01
        1   -1    0    0  501    0  0.00000000000E+00  0.00000000000E+00  0.24608352038E+04  0.24608352038E+04  0.50400001928E-02 0. -1.
       -1   -1    0    0    0  501  0.00000000000E+00  0.00000000000E+00 -0.15350546867E+04  0.15350546867E+04  0.50400001928E-02 0.  1.
    10030    2    1    2    0    0  0.00000000000E+00  0.00000000000E+00  0.92578051710E+03  0.39958898905E+04  0.38871668927E+04 0.  0.
        4    1    3    3  502    0 -0.17859896673E+03  0.14034505003E+04 -0.90702900098E+03  0.16805576810E+04  0.12699999809E+01 0.  1.
       -4    1    3    3    0  502  0.17859896673E+03 -0.14034505003E+04  0.18328095181E+04  0.23153322095E+04  0.12699999809E+01 0. -1.
</event>
<event>
 5   0  0.2632875E-08  0.3922437E+04  0.7818609E-02  0.8020379E-01
        1   -1    0    0  501    0  0.00000000000E+00  0.00000000000E+00  0.17868401035E+04  0.17868401035E+04  0.50400001928E-02 0.  1.
       -1   -1    0    0    0  501  0.00000000000E+00  0.00000000000E+00 -0.21526147182E+04  0.21526147182E+04  0.50400001928E-02 0. -1.
    10030    2    1    2    0    0  0.00000000000E+00  0.00000000000E+00 -0.36577461472E+03  0.39394548217E+04  0.39224371536E+04 0.  0.
        3    1    3    3  502    0 -0.18298775504E+04  0.25685228223E+03  0.47719570227E+03  0.19084393343E+04  0.10100000352E+00 0.  1.
       -3    1    3    3    0  502  0.18298775504E+04 -0.25685228223E+03 -0.84297031699E+03  0.20310154874E+04  0.10100000352E+00 0. -1.
</event>
<event>
 5   0  0.8551754E-08  0.3895459E+04  0.7818609E-02  0.8025974E-01
        2   -1    0    0  501    0  0.00000000000E+00  0.00000000000E+00  0.17724698164E+04  0.17724698164E+04  0.25500000920E-02 0. -1.
       -2   -1    0    0    0  501  0.00000000000E+00  0.00000000000E+00 -0.21403184773E+04  0.21403184773E+04  0.25500000920E-02 0.  1.
    10030    2    1    2    0    0  0.00000000000E+00  0.00000000000E+00 -0.36784866092E+03  0.39127882937E+04  0.38954588425E+04 0.  0.
        1    1    3    3  502    0 -0.14108420740E+04  0.17086923872E+03 -0.15217572400E+04  0.20821663603E+04  0.50400001928E-02 0.  1.
       -1    1    3    3    0  502  0.14108420740E+04 -0.17086923872E+03  0.11539085790E+04  0.18306219334E+04  0.50400001928E-02 0. -1.
</event>
<event>
 5   0  0.8342802E-08  0.3828258E+04  0.7818609E-02  0.8040118E-01
        2   -1    0    0  501    0  0.00000000000E+00  0.00000000000E+00  0.25984064165E+04  0.25984064165E+04  0.25500000920E-02 0.  1.
       -2   -1    0    0    0  501  0.00000000000E+00  0.00000000000E+00 -0.14100523586E+04  0.14100523586E+04  0.25500000920E-02 0. -1.
    10030    2    1    2    0    0  0.00000000000E+00  0.00000000000E+00  0.11883540579E+04  0.40084587752E+04  0.38282576174E+04 0.  0.
        4    1    3    3  502    0  0.18793573050E+04 -0.34791451891E+03  0.70328915157E+03  0.20365769408E+04  0.12699999809E+01 0.  1.
       -4    1    3    3    0  502 -0.18793573050E+04  0.34791451891E+03  0.48506490634E+03  0.19718818343E+04  0.12699999809E+01 0. -1.
</event>
<event>
 5   0  0.8476262E-08  0.3853094E+04  0.7818609E-02  0.8034856E-01
        2   -1    0    0  501    0  0.00000000000E+00  0.00000000000E+00  0.23438999669E+04  0.23438999669E+04  0.25500000920E-02 0. -1.
       -2   -1    0    0    0  501  0.00000000000E+00  0.00000000000E+00 -0.15835073829E+04  0.15835073829E+04  0.25500000920E-02 0.  1.
    10030    2    1    2    0    0  0.00000000000E+00  0.00000000000E+00  0.76039258401E+03  0.39274073497E+04  0.38530937711E+04 0.  0.
        2    1    3    3  502    0  0.72004310275E+03  0.73604157348E+03 -0.12795091492E+04  0.16423650418E+04  0.25500000920E-02 0.  1.
       -2    1    3    3    0  502 -0.72004310275E+03 -0.73604157348E+03  0.20399017332E+04  0.22850423079E+04  0.25500000920E-02 0. -1.
</event>
<event>
 5   0  0.2632875E-08  0.3885531E+04  0.7818609E-02  0.8028045E-01
       -3   -1    0    0    0  501  0.00000000000E+00  0.00000000000E+00  0.22309973579E+04  0.22309973601E+04  0.10100000352E+00 0.  1.
        3   -1    0    0  501    0  0.00000000000E+00  0.00000000000E+00 -0.16917718567E+04  0.16917718597E+04  0.10100000352E+00 0. -1.
    10030    2    1    2    0    0  0.00000000000E+00  0.00000000000E+00  0.53922550115E+03  0.39227692199E+04  0.38855313937E+04 0.  0.
        5    1    3    3  502    0  0.19210114201E+04  0.14291562982E+03  0.14991995687E+02  0.19263843342E+04  0.46999998093E+01 0. -1.
       -5    1    3    3    0  502 -0.19210114201E+04 -0.14291562982E+03  0.52423350546E+03  0.19963848856E+04  0.46999998093E+01 0.  1.
</event>
<event>
 5   0  0.2632875E-08  0.3884940E+04  0.7818609E-02  0.8028169E-01
       -1   -1    0    0    0  501  0.00000000000E+00  0.00000000000E+00  0.15006574433E+04  0.15006574433E+04  0.50400001928E-02 0. -1.
        1   -1    0    0  501    0  0.00000000000E+00  0.00000000000E+00 -0.25143579692E+04  0.25143579692E+04  0.50400001928E-02 0.  1.
    10030    2    1    2    0    0  0.00000000000E+00  0.00000000000E+00 -0.10137005259E+04  0.40150154125E+04  0.38849401548E+04 0.  0.
        3    1    3    3  502    0 -0.55724517223E+03  0.16709791458E+04  0.33940453191E+03  0.17938475225E+04  0.10100000352E+00 0.  1.
       -3    1    3    3    0  502  0.55724517223E+03 -0.16709791458E+04 -0.13531050578E+04  0.22211678900E+04  0.10100000352E+00 0. -1.
</event>
<event>
 5   0  0.8551754E-08  0.3910753E+04  0.7818609E-02  0.8022797E-01
        2   -1    0    0  501    0  0.00000000000E+00  0.00000000000E+00  0.25508283309E+04  0.25508283309E+04  0.25500000920E-02 0. -1.
       -2   -1    0    0    0  501  0.00000000000E+00  0.00000000000E+00 -0.14989237339E+04  0.14989237339E+04  0.25500000920E-02 0.  1.
    10030    2    1    2    0    0  0.00000000000E+00  0.00000000000E+00  0.10519045970E+04  0.40497520648E+04  0.39107529333E+04 0.  0.
        1    1    3    3  502    0  0.19388908490E+04  0.18347817297E+03  0.34499830545E+03  0.19778740594E+04  0.50400001928E-02 0.  1.
       -1    1    3    3    0  502 -0.19388908490E+04 -0.18347817297E+03  0.70690629160E+03  0.20718780054E+04  0.50400001928E-02 0. -1.
</event>
<event>
 5   0  0.2632875E-08  0.3901548E+04  0.7818609E-02  0.8024707E-01
        1   -1    0    0  501    0  0.00000000000E+00  0.00000000000E+00  0.11348659405E+04  0.11348659405E+04  0.50400001928E-02 0. -1.
       -1   -1    0    0    0  501  0.00000000000E+00  0.00000000000E+00 -0.33532767721E+04  0.33532767721E+04  0.50400001928E-02 0.  1.
    10030    2    1    2    0    0  0.00000000000E+00  0.00000000000E+00 -0.22184108316E+04  0.44881427126E+04  0.39015482044E+04 0.  0.
        4    1    3    3  502    0 -0.14168416812E+04  0.84583381165E+03  0.87734297388E+02  0.16524448875E+04  0.12699999809E+01 0. -1.
       -4    1    3    3    0  502  0.14168416812E+04 -0.84583381165E+03 -0.23061451290E+04  0.28356978251E+04  0.12699999809E+01 0.  1.
</event>
<event>
 5   0  0.2632875E-08  0.3888896E+04  0.7818609E-02  0.8027343E-01
        1   -1    0    0  501    0  0.00000000000E+00  0.00000000000E+00  0.29498522801E+04  0.29498522801E+04  0.50400001928E-02 0. -1.
       -1   -1    0    0    0  501  0.00000000000E+00  0.00000000000E+00 -0.12817179329E+04  0.12817179329E+04  0.50400001928E-02 0.  1.
    10030    2    1    2    0    0  0.00000000000E+00  0.00000000000E+00  0.16681343472E+04  0.42315702129E+04  0.38888962787E+04 0.  0.
        3    1    3    3  502    0 -0.71631086892E+03 -0.91711048111E+02  0.27985208034E+04  0.28901956464E+04  0.10100000352E+00 0. -1.
       -3    1    3    3    0  502  0.71631086892E+03  0.91711048111E+02 -0.11303864562E+04  0.13413745666E+04  0.10100000352E+00 0.  1.
</event>
<event>
 5   0  0.2632875E-08  0.3894739E+04  0.7818609E-02  0.8026124E-01
        1   -1    0    0  501    0  0.00000000000E+00  0.00000000000E+00  0.11338929179E+04  0.11338929179E+04  0.50400001928E-02 0. -1.
       -1   -1    0    0    0  501  0.00000000000E+00  0.00000000000E+00 -0.33444494515E+04  0.33444494515E+04  0.50400001928E-02 0.  1.
    10030    2    1    2    0    0  0.00000000000E+00  0.00000000000E+00 -0.22105565336E+04  0.44783423693E+04  0.38947387831E+04 0.  0.
        1    1    3    3  502    0  0.25997485753E+03 -0.11441746195E+04  0.68180476355E+03  0.13570483492E+04  0.50400001928E-02 0. -1.
       -1    1    3    3    0  502 -0.25997485753E+03  0.11441746195E+04 -0.28923612972E+04  0.31212940201E+04  0.50400001928E-02 0.  1.
</event>
<event>
 5   0  0.2632875E-08  0.3900801E+04  0.7818609E-02  0.8024863E-01
       -3   -1    0    0    0  501  0.00000000000E+00  0.00000000000E+00  0.32258975270E+04  0.32258975286E+04  0.10100000352E+00 0. -1.
        3   -1    0    0  501    0  0.00000000000E+00  0.00000000000E+00 -0.11792257871E+04  0.11792257914E+04  0.10100000352E+00 0.  1.
    10030    2    1    2    0    0  0.00000000000E+00  0.00000000000E+00  0.20466717399E+04  0.44051233200E+04  0.39008007196E+04 0.  0.
        5    1    3    3  502    0  0.14968510992E+04 -0.71403933997E+03 -0.13583417821E+03  0.16639977182E+04  0.46999998093E+01 0.  1.
       -5    1    3    3    0  502 -0.14968510992E+04  0.71403933997E+03  0.21825059181E+04  0.27411256018E+04  0.46999998093E+01 0. -1.
</event>
<event>
 5   0  0.2632875E-08  0.3911756E+04  0.7818609E-02  0.8022589E-01
        1   -1    0    0  501    0  0.00000000000E+00  0.00000000000E+00  0.21916440022E+04  0.21916440022E+04  0.50400001928E-02 0. -1.
       -1   -1    0    0    0  501  0.00000000000E+00  0.00000000000E+00 -0.17454744099E+04  0.17454744099E+04  0.50400001928E-02 0.  1.
    10030    2    1    2    0    0  0.00000000000E+00  0.00000000000E+00  0.44616959233E+03  0.39371184121E+04  0.39117558827E+04 0.  0.
        3    1    3    3  502    0 -0.17583255775E+04 -0.66750377918E+03  0.76339723395E+03  0.20297895158E+04  0.10100000352E+00 0. -1.
       -3    1    3    3    0  502  0.17583255775E+04  0.66750377918E+03 -0.31722764162E+03  0.19073288962E+04  0.10100000352E+00 0.  1.
</event>
<event>
 5   0  0.8342802E-08  0.3913775E+04  0.7818609E-02  0.8022170E-01
       -2   -1    0    0    0  501  0.00000000000E+00  0.00000000000E+00  0.16478786709E+04  0.16478786709E+04  0.25500000920E-02 0.  1.
        2   -1    0    0  501    0  0.00000000000E+00  0.00000000000E+00 -0.23238412872E+04  0.23238412872E+04  0.25500000920E-02 0. -1.
    10030    2    1    2    0    0  0.00000000000E+00  0.00000000000E+00 -0.67596261635E+03  0.39717199581E+04  0.39137748998E+04 0.  0.
        4    1    3    3  502    0  0.44631497997E+03  0.92389947605E+03  0.13530084070E+04  0.16980637990E+04  0.12699999809E+01 0.  1.
       -4    1    3    3    0  502 -0.44631497997E+03 -0.92389947605E+03 -0.20289710233E+04  0.22736561591E+04  0.12699999809E+01 0. -1.
</event>
<event>
 5   0  0.8551754E-08  0.3878294E+04  0.7818609E-02  0.8029559E-01
       -2   -1    0    0    0  501  0.00000000000E+00  0.00000000000E+00  0.15082559983E+04  0.15082559983E+04  0.25500000920E-02 0. -1.
        2   -1    0    0  501    0  0.00000000000E+00  0.00000000000E+00 -0.24931386126E+04  0.24931386126E+04  0.25500000920E-02 0.  1.
    10030    2    1    2    0    0  0.00000000000E+00  0.00000000000E+00 -0.98488261433E+03  0.40013946109E+04  0.38782940925E+04 0.  0.
        1    1    3    3  502    0 -0.11688834714E+04 -0.15049470119E+04 -0.86320423906E+03  0.20919549796E+04  0.50400001928E-02 0. -1.
       -1    1    3    3    0  502  0.11688834714E+04  0.15049470119E+04 -0.12167837527E+03  0.19094396313E+04  0.50400001928E-02 0.  1.
</event>
<event>
 5   0  0.2632875E-08  0.3907857E+04  0.7818609E-02  0.8023397E-01
       -1   -1    0    0    0  501  0.00000000000E+00  0.00000000000E+00  0.19963551308E+04  0.19963551308E+04  0.50400001928E-02 0. -1.
        1   -1    0    0  501    0  0.00000000000E+00  0.00000000000E+00 -0.19124037605E+04  0.19124037605E+04  0.50400001928E-02 0.  1.
    10030    2    1    2    0    0  0.00000000000E+00  0.00000000000E+00  0.83951370273E+02  0.39087588914E+04  0.39078572438E+04 0.  0.
        4    1    3    3  502    0 -0.13184955281E+04 -0.12695867995E+04 -0.64196153943E+03  0.19396900088E+04  0.12699999809E+01 0.  1.
       -4    1    3    3    0  502  0.13184955281E+04  0.12695867995E+04  0.72591290970E+03  0.19690688826E+04  0.12699999809E+01 0. -1.
</event>
<event>
 5   0  0.8438211E-08  0.3868584E+04  0.7818609E-02  0.8031595E-01
       -2   -1    0    0    0  501  0.00000000000E+00  0.00000000000E+00  0.16443808659E+04  0.16443808659E+04  0.25500000920E-02 0.  1.
        2   -1    0    0  501    0  0.00000000000E+00  0.00000000000E+00 -0.22753155802E+04  0.22753155802E+04  0.25500000920E-02 0. -1.
    10030    2    1    2    0    0  0.00000000000E+00  0.00000000000E+00 -0.63093471435E+03  0.39196964461E+04  0.38685839290E+04 0.  0.
        5    1    3    3  502    0  0.18456566049E+04  0.87940636117E+02 -0.89511104480E+03  0.20531506840E+04  0.46999998093E+01 0. -1.
       -5    1    3    3    0  502 -0.18456566049E+04 -0.87940636117E+02  0.26417633045E+03  0.18665457621E+04  0.46999998093E+01 0.  1.
</event>
<event>
 5   0  0.2632875E-08  0.3883464E+04  0.7818609E-02  0.8028477E-01
        1   -1    0    0  501    0  0.00000000000E+00  0.00000000000E+00  0.25123940058E+04  0.25123940058E+04  0.50400001928E-02 0.  1.
       -1   -1    0    0    0  501  0.00000000000E+00  0.00000000000E+00 -0.15006891913E+04  0.15006891913E+04  0.50400001928E-02 0. -1.
    10030    2    1    2    0    0  0.00000000000E+00  0.00000000000E+00  0.10117048145E+04  0.40130831971E+04  0.38834636750E+04 0.  0.
        4    1    3    3  502    0  0.49354856193E+03  0.10653224249E+04  0.21040227219E+04  0.24094429396E+04  0.12699999809E+01 0.  1.
       -4    1    3    3    0  502 -0.49354856193E+03 -0.10653224249E+04 -0.10923179074E+04  0.16036402576E+04  0.12699999809E+01 0. -1.
</event>
<event>
 5   0  0.2632875E-08  0.3922057E+04  0.7818609E-02  0.8020457E-01
       -1   -1    0    0    0  501  0.00000000000E+00  0.00000000000E+00  0.17759110908E+04  0.17759110908E+04  0.50400001928E-02 0. -1.
        1   -1    0    0  501    0  0.00000000000E+00  0.00000000000E+00 -0.21654426975E+04  0.21654426975E+04  0.50400001928E-02 0.  1.
    10030    2    1    2    0    0  0.00000000000E+00  0.00000000000E+00 -0.38953160670E+03  0.39413537882E+04  0.39220574717E+04 0.  0.
        1    1    3    3  502    0  0.13678485977E+04  0.19196762376E+03  0.12041218725E+04  0.18324221235E+04  0.50400001928E-02 0. -1.
       -1    1    3    3    0  502 -0.13678485977E+04 -0.19196762376E+03 -0.15936534792E+04  0.21089316647E+04  0.50400001928E-02 0.  1.
</event>
<event>
 5   0  0.2632875E-08  0.3912376E+04  0.7818609E-02  0.8022460E-01
        1   -1    0    0  501    0  0.00000000000E+00  0.00000000000E+00  0.29624600363E+04  0.29624600363E+04  0.50400001928E-02 0.  1.
       -1   -1    0    0    0  501  0.00000000000E+00  0.00000000000E+00 -0.12917206027E+04  0.12917206027E+04  0.50400001928E-02 0. -1.
    10030    2    1    2    0    0  0.00000000000E+00  0.00000000000E+00  0.16707394336E+04  0.42541806391E+04  0.39123755769E+04 0.  0.
        3    1    3    3  502    0  0.71715051024E+03  0.67904227967E+03 -0.10007219541E+04  0.14060041649E+04  0.10100000352E+00 0. -1.
       -3    1    3    3    0  502 -0.71715051024E+03 -0.67904227967E+03  0.26714613877E+04  0.28481764742E+04  0.10100000352E+00 0.  1.
</event>
<event>
 5   0  0.2632875E-08  0.3907561E+04  0.7818609E-02  0.8023458E-01
       -1   -1    0    0    0  501  0.00000000000E+00  0.00000000000E+00  0.14063628219E+04  0.14063628219E+04  0.50400001928E-02 0. -1.
        1   -1    0    0  501    0  0.00000000000E+00  0.00000000000E+00 -0.27142775218E+04  0.27142775218E+04  0.50400001928E-02 0.  1.
    10030    2    1    2    0    0  0.00000000000E+00  0.00000000000E+00 -0.13079146999E+04  0.41206403437E+04  0.39075613853E+04 0.  0.
        3    1    3    3  502    0  0.10021335988E+04 -0.19107917368E+03  0.11031806126E+04  0.15025945809E+04  0.10100000352E+00 0. -1.
       -3    1    3    3    0  502 -0.10021335988E+04  0.19107917368E+03 -0.24110953124E+04  0.26180457628E+04  0.10100000352E+00 0.  1.
</event>
<event>
 5   0  0.8438211E-08  0.3902556E+04  0.7818609E-02  0.8024498E-01
       -2   -1    0    0    0  501  0.00000000000E+00  0.00000000000E+00  0.12730773352E+04  0.12730773353E+04  0.25500000920E-02 0.  1.
        2   -1    0    0  501    0  0.00000000000E+00  0.00000000000E+00 -0.29907728341E+04  0.29907728341E+04  0.25500000920E-02 0. -1.
    10030    2    1    2    0    0  0.00000000000E+00  0.00000000000E+00 -0.17176954989E+04  0.42638501694E+04  0.39025556293E+04 0.  0.
        5    1    3    3  502    0 -0.17815267859E+04  0.74454403759E+03 -0.55121447773E+03  0.20079947717E+04  0.46999998093E+01 0.  1.
       -5    1    3    3    0  502  0.17815267859E+04 -0.74454403759E+03 -0.11664810211E+04  0.22558553977E+04  0.46999998093E+01 0. -1.
</event>
<event>
 5   0  0.8551754E-08  0.3865715E+04  0.7818609E-02  0.8032198E-01
        2   -1    0    0  501    0  0.00000000000E+00  0.00000000000E+00  0.20092922119E+04  0.20092922119E+04  0.25500000920E-02 0.  1.
       -2   -1    0    0    0  501  0.00000000000E+00  0.00000000000E+00 -0.18593302458E+04  0.18593302458E+04  0.25500000920E-02 0. -1.
    10030    2    1    2    0    0  0.00000000000E+00  0.00000000000E+00  0.14996196615E+03  0.38686224577E+04  0.38657148277E+04 0.  0.
        1    1    3    3  502    0 -0.18811568237E+03 -0.52231353927E+03  0.19277889018E+04  0.20061328453E+04  0.50400001928E-02 0.  1.
       -1    1    3    3    0  502  0.18811568237E+03  0.52231353927E+03 -0.17778269356E+04  0.18624896124E+04  0.50400001928E-02 0. -1.
</event>
<event>
 5   0  0.2632875E-08  0.3900636E+04  0.7818609E-02  0.8024897E-01
        1   -1    0    0  501    0  0.00000000000E+00  0.00000000000E+00  0.25171204386E+04  0.25171204386E+04  0.50400001928E-02 0.  1.
       -1   -1    0    0    0  501  0.00000000000E+00  0.00000000000E+00 -0.15111474119E+04  0.15111474119E+04  0.50400001928E-02 0. -1.
    10030    2    1    2    0    0  0.00000000000E+00  0.00000000000E+00  0.10059730267E+04  0.40282678506E+04  0.39006358642E+04 0.  0.
        4    1    3    3  502    0 -0.93432753211E+03  0.17023343758E+04  0.69010047585E+03  0.20608616023E+04  0.12699999809E+01 0. -1.
       -4    1    3    3    0  502  0.93432753211E+03 -0.17023343758E+04  0.31587255086E+03  0.19674062482E+04  0.12699999809E+01 0.  1.
</event>
<event>
 5   0  0.2632875E-08  0.3927729E+04  0.7818609E-02  0.8019287E-01
       -1   -1    0    0    0  501  0.00000000000E+00  0.00000000000E+00  0.15323709146E+04  0.15323709146E+04  0.50400001928E-02 0. -1.
        1   -1    0    0  501    0  0.00000000000E+00  0.00000000000E+00 -0.25168601795E+04  0.25168601795E+04  0.50400001928E-02 0.  1.
    10030    2    1    2    0    0  0.00000000000E+00  0.00000000000E+00 -0.98448926488E+03  0.40492310941E+04  0.39277287763E+04 0.  0.
        3    1    3    3  502    0  0.17690401148E+04  0.11791943646E+03  0.37848645514E+03  0.18129147603E+04  0.10100000352E+00 0. -1.
       -3    1    3    3    0  502 -0.17690401148E+04 -0.11791943646E+03 -0.13629757200E+04  0.22363163338E+04  0.10100000352E+00 0.  1.
</event>
<event>
 5   0  0.8438211E-08  0.3902932E+04  0.7818609E-02  0.8024420E-01
       -2   -1    0    0    0  501  0.00000000000E+00  0.00000000000E+00  0.13548501623E+04  0.13548501623E+04  0.25500000920E-02 0. -1.
        2   -1    0    0  501    0  0.00000000000E+00  0.00000000000E+00 -0.28108056068E+04  0.28108056068E+04  0.25500000920E-02 0.  1.
    10030    2    1    2    0    0  0.00000000000E+00  0.00000000000E+00 -0.14559554445E+04  0.41656557692E+04  0.39029324527E+04 0.  0.
        5    1    3    3  502    0  0.50293940099E+03  0.17088672276E+02  0.12844004499E+04  0.13794733304E+04  0.46999998093E+01 0. -1.
       -5    1    3    3    0  502 -0.50293940099E+03 -0.17088672276E+02 -0.27403558944E+04  0.27861824387E+04  0.46999998093E+01 0.  1.
</event>
<event>
 5   0  0.2632875E-08  0.3887613E+04  0.7818609E-02  0.8027610E-01
        1   -1    0    0  501    0  0.00000000000E+00  0.00000000000E+00  0.20729923216E+04  0.20729923216E+04  0.50400001928E-02 0. -1.
       -1   -1    0    0    0  501  0.00000000000E+00  0.00000000000E+00 -0.18226717522E+04  0.18226717522E+04  0.50400001928E-02 0.  1.
    10030    2    1    2    0    0  0.00000000000E+00  0.00000000000E+00  0.25032056932E+03  0.38956640738E+04  0.38876134310E+04 0.  0.
        5    1    3    3  502    0  0.65756326475E+03  0.18254765045E+04  0.82630558095E+01  0.19403206652E+04  0.46999998093E+01 0.  1.
       -5    1    3    3    0  502 -0.65756326475E+03 -0.18254765045E+04  0.24205751351E+03  0.19553434086E+04  0.46999998093E+01 0. -1.
</event>
<event>
 5   0  0.2632875E-08  0.3878550E+04  0.7818609E-02  0.8029505E-01
       -1   -1    0    0    0  501  0.00000000000E+00  0.00000000000E+00  0.16264446835E+04  0.16264446835E+04  0.50400001928E-02 0.  1.
        1   -1    0    0  501    0  0.00000000000E+00  0.00000000000E+00 -0.23122756649E+04  0.23122756649E+04  0.50400001928E-02 0. -1.
    10030    2    1    2    0    0  0.00000000000E+00  0.00000000000E+00 -0.68583098145E+03  0.39387203485E+04  0.38785504829E+04 0.  0.
        3    1    3    3  502    0  0.90741129007E+03  0.13295014187E+04  0.75544541620E+03  0.17781077186E+04  0.10100000352E+00 0.  1.
       -3    1    3    3    0  502 -0.90741129007E+03 -0.13295014187E+04 -0.14412763976E+04  0.21606126299E+04  0.10100000352E+00 0. -1.
</event>
<event>
 5   0  0.8342802E-08  0.3909313E+04  0.7818609E-02  0.8023095E-01
       -2   -1    0    0    0  501  0.00000000000E+00  0.00000000000E+00  0.20138663488E+04  0.20138663488E+04  0.25500000920E-02 0. -1.
        2   -1    0    0  501    0  0.00000000000E+00  0.00000000000E+00 -0.18971870289E+04  0.18971870289E+04  0.25500000920E-02 0.  1.
    10030    2    1    2    0    0  0.00000000000E+00  0.00000000000E+00  0.11667931994E+03  0.39110533777E+04  0.39093125303E+04 0.  0.
        4    1    3    3  502    0  0.16992536360E+04  0.68152803768E+03 -0.62660827464E+03  0.19350924857E+04  0.12699999809E+01 0.  1.
       -4    1    3    3    0  502 -0.16992536360E+04 -0.68152803768E+03  0.74328759458E+03  0.19759608920E+04  0.12699999809E+01 0. -1.
</event>
<event>
 5   0  0.8476262E-08  0.3892713E+04  0.7818609E-02  0.8026546E-01
        2   -1    0    0  501    0  0.00000000000E+00  0.00000000000E+00  0.25895454195E+04  0.25895454195E+04  0.25500000920E-02 0. -1.
       -2   -1    0    0    0  501  0.00000000000E+00  0.00000000000E+00 -0.14629223890E+04  0.14629223890E+04  0.25500000920E-02 0.  1.
    10030    2    1    2    0    0  0.00000000000E+00  0.00000000000E+00  0.11266230305E+04  0.40524678085E+04  0.38927131779E+04 0.  0.
        2    1    3    3  502    0 -0.75022462758E+03 -0.16838724026E+03  0.24247390864E+04  0.25437277550E+04  0.25500000920E-02 0. -1.
       -2    1    3    3    0  502  0.75022462758E+03  0.16838724026E+03 -0.12981160558E+04  0.15087400535E+04  0.25500000920E-02 0.  1.
</event>
<event>
 5   0  0.2632875E-08  0.3902122E+04  0.7818609E-02  0.8024588E-01
       -1   -1    0    0    0  501  0.00000000000E+00  0.00000000000E+00  0.25147155293E+04  0.25147155293E+04  0.50400001928E-02 0.  1.
        1   -1    0    0  501    0  0.00000000000E+00  0.00000000000E+00 -0.15137455001E+04  0.15137455001E+04  0.50400001928E-02 0. -1.
    10030    2    1    2    0    0  0.00000000000E+00  0.00000000000E+00  0.10009700291E+04  0.40284610294E+04  0.39021221491E+04 0.  0.
        2    1    3    3  502    0 -0.97573077020E+03  0.11129687478E+04 -0.81184818414E+03  0.16881491177E+04  0.25500000920E-02 0. -1.
       -2    1    3    3    0  502  0.97573077020E+03 -0.11129687478E+04  0.18128182133E+04  0.23403119117E+04  0.25500000920E-02 0.  1.
</event>
<event>
 5   0  0.8476262E-08  0.3879126E+04  0.7818609E-02  0.8029385E-01
        2   -1    0    0  501    0  0.00000000000E+00  0.00000000000E+00  0.21793709122E+04  0.21793709122E+04  0.25500000920E-02 0.  1.
       -2   -1    0    0    0  501  0.00000000000E+00  0.00000000000E+00 -0.17261424147E+04  0.17261424147E+04  0.25500000920E-02 0. -1.
    10030    2    1    2    0    0  0.00000000000E+00  0.00000000000E+00  0.45322849750E+03  0.39055133269E+04  0.38791259680E+04 0.  0.
        2    1    3    3  502    0 -0.42120906504E+03 -0.17514119530E+04 -0.49733454915E+03  0.18687435777E+04  0.25500000920E-02 0. -1.
       -2    1    3    3    0  502  0.42120906504E+03  0.17514119530E+04  0.95056304666E+03  0.20367697492E+04  0.25500000920E-02 0.  1.
</event>
<event>
 5   0  0.2632875E-08  0.3969010E+04  0.7818609E-02  0.8010828E-01
       -1   -1    0    0    0  501  0.00000000000E+00  0.00000000000E+00  0.16395360774E+04  0.16395360774E+04  0.50400001928E-02 0.  1.
        1   -1    0    0  501    0  0.00000000000E+00  0.00000000000E+00 -0.24020576011E+04  0.24020576011E+04  0.50400001928E-02 0. -1.
    10030    2    1    2    0    0  0.00000000000E+00  0.00000000000E+00 -0.76252152364E+03  0.40415936785E+04  0.39690100010E+04 0.  0.
        2    1    3    3  502    0  0.95947310348E+03  0.16252088044E+04  0.24344669241E+03  0.19029342044E+04  0.25500000920E-02 0. -1.
       -2    1    3    3    0  502 -0.95947310348E+03 -0.16252088044E+04 -0.10059682161E+04  0.21386594741E+04  0.25500000920E-02 0.  1.
</event>
<event>
 5   0  0.2632875E-08  0.4021960E+04  0.7818609E-02  0.8000131E-01
        1   -1    0    0  501    0  0.00000000000E+00  0.00000000000E+00  0.13866304706E+04  0.13866304706E+04  0.50400001928E-02 0.  1.
       -1   -1    0    0    0  501  0.00000000000E+00  0.00000000000E+00 -0.29164520153E+04  0.29164520153E+04  0.50400001928E-02 0. -1.
    10030    2    1    2    0    0  0.00000000000E+00  0.00000000000E+00 -0.15298215447E+04  0.43030824860E+04  0.40219603333E+04 0.  0.
        3    1    3    3  502    0  0.10394425531E+04  0.12082607551E+04  0.54705771759E+03  0.16851133582E+04  0.10100000352E+00 0.  1.
       -3    1    3    3    0  502 -0.10394425531E+04 -0.12082607551E+04 -0.20768792623E+04  0.26179691277E+04  0.10100000352E+00 0. -1.
</event>
<event>
 5   0  0.8476262E-08  0.3931381E+04  0.7818609E-02  0.8018534E-01
       -2   -1    0    0    0  501  0.00000000000E+00  0.00000000000E+00  0.14457157257E+04  0.14457157257E+04  0.25500000920E-02 0.  1.
        2   -1    0    0  501    0  0.00000000000E+00  0.00000000000E+00 -0.26726822544E+04  0.26726822544E+04  0.25500000920E-02 0. -1.
    10030    2    1    2    0    0  0.00000000000E+00  0.00000000000E+00 -0.12269665287E+04  0.41183979801E+04  0.39313808084E+04 0.  0.
        2    1    3    3  502    0  0.98224644172E+03 -0.11157834413E+04  0.73383964508E+03  0.16578001643E+04  0.25500000920E-02 0. -1.
       -2    1    3    3    0  502 -0.98224644172E+03  0.11157834413E+04 -0.19608061738E+04  0.24605978158E+04  0.25500000920E-02 0.  1.
</event>
<event>
 5   0  0.8342802E-08  0.3890133E+04  0.7818609E-02  0.8027085E-01
       -2   -1    0    0    0  501  0.00000000000E+00  0.00000000000E+00  0.16729271230E+04  0.16729271230E+04  0.25500000920E-02 0.  1.
        2   -1    0    0  501    0  0.00000000000E+00  0.00000000000E+00 -0.22614752894E+04  0.22614752894E+04  0.25500000920E-02 0. -1.
    10030    2    1    2    0    0  0.00000000000E+00  0.00000000000E+00 -0.58854816640E+03  0.39344024124E+04  0.38901328253E+04 0.  0.
        4    1    3    3  502    0  0.42867964728E+03 -0.18882830241E+04 -0.10805181902E+03  0.19393441746E+04  0.12699999809E+01 0. -1.
       -4    1    3    3    0  502 -0.42867964728E+03  0.18882830241E+04 -0.48049634738E+03  0.19950582377E+04  0.12699999809E+01 0.  1.
</event>
<event>
 5   0  0.8551754E-08  0.3837965E+04  0.7818609E-02  0.8038056E-01
        2   -1    0    0  501    0  0.00000000000E+00  0.00000000000E+00  0.24330203342E+04  0.24330203342E+04  0.25500000920E-02 0.  1.
       -2   -1    0    0    0  501  0.00000000000E+00  0.00000000000E+00 -0.15135484077E+04  0.15135484077E+04  0.25500000920E-02 0. -1.
    10030    2    1    2    0    0  0.00000000000E+00  0.00000000000E+00  0.91947192646E+03  0.39465687419E+04  0.38379651133E+04 0.  0.
        1    1    3    3  502    0 -0.97735945778E+02  0.18992248251E+03 -0.15012866819E+04  0.15164051457E+04  0.50400001928E-02 0. -1.
       -1    1    3    3    0  502  0.97735945778E+02 -0.18992248251E+03  0.24207586084E+04  0.24301635962E+04  0.50400001928E-02 0.  1.
</event>
<event>
 5   0  0.8551754E-08  0.3888590E+04  0.7818609E-02  0.8027406E-01
       -2   -1    0    0    0  501  0.00000000000E+00  0.00000000000E+00  0.12727376564E+04  0.12727376564E+04  0.25500000920E-02 0. -1.
        2   -1    0    0  501    0  0.00000000000E+00  0.00000000000E+00 -0.29701985713E+04  0.29701985713E+04  0.25500000920E-02 0.  1.
    10030    2    1    2    0    0  0.00000000000E+00  0.00000000000E+00 -0.16974609149E+04  0.42429362278E+04  0.38885902684E+04 0.  0.
        1    1    3    3  502    0  0.57616606787E+03  0.30388577580E+03  0.11501339400E+04  0.13217874195E+04  0.50400001928E-02 0. -1.
       -1    1    3    3    0  502 -0.57616606787E+03 -0.30388577580E+03 -0.28475948549E+04  0.29211488083E+04  0.50400001928E-02 0.  1.
</event>
<event>
 5   0  0.2632875E-08  0.3896383E+04  0.7818609E-02  0.8025782E-01
       -1   -1    0    0    0  501  0.00000000000E+00  0.00000000000E+00  0.21205597996E+04  0.21205597996E+04  0.50400001928E-02 0.  1.
        1   -1    0    0  501    0  0.00000000000E+00  0.00000000000E+00 -0.17898338825E+04  0.17898338825E+04  0.50400001928E-02 0. -1.
    10030    2    1    2    0    0  0.00000000000E+00  0.00000000000E+00  0.33072591708E+03  0.39103936821E+04  0.38963828248E+04 0.  0.
        2    1    3    3  502    0 -0.96545753172E+03 -0.63285754387E+03  0.17403476331E+04  0.20884029306E+04  0.25500000920E-02 0.  1.
       -2    1    3    3    0  502  0.96545753172E+03  0.63285754387E+03 -0.14096217160E+04  0.18219907515E+04  0.25500000920E-02 0. -1.
</event>
<event>
 5   0  0.2632875E-08  0.3932561E+04  0.7818609E-02  0.8018291E-01
        1   -1    0    0  501    0  0.00000000000E+00  0.00000000000E+00  0.19232688835E+04  0.19232688835E+04  0.50400001928E-02 0.  1.
       -1   -1    0    0    0  501  0.00000000000E+00  0.00000000000E+00 -0.20102540849E+04  0.20102540849E+04  0.50400001928E-02 0. -1.
    10030    2    1    2    0    0  0.00000000000E+00  0.00000000000E+00 -0.86985201386E+02  0.39335229684E+04  0.39325610635E+04 0.  0.
        2    1    3    3  502    0  0.22118213793E+03 -0.16868407485E+04 -0.10295866101E+04  0.19885677853E+04  0.25500000920E-02 0. -1.
       -2    1    3    3    0  502 -0.22118213793E+03  0.16868407485E+04  0.94260140871E+03  0.19449551832E+04  0.25500000920E-02 0.  1.
</event>
<event>
 5   0  0.8551754E-08  0.3891969E+04  0.7818609E-02  0.8026702E-01
        2   -1    0    0  501    0  0.00000000000E+00  0.00000000000E+00  0.13218112855E+04  0.13218112855E+04  0.25500000920E-02 0. -1.
       -2   -1    0    0    0  501  0.00000000000E+00  0.00000000000E+00 -0.28648986501E+04  0.28648986501E+04  0.25500000920E-02 0.  1.
    10030    2    1    2    0    0  0.00000000000E+00  0.00000000000E+00 -0.15430873646E+04  0.41867099356E+04  0.38919688423E+04 0.  0.
        1    1    3    3  502    0  0.15801586731E+04  0.51220620318E+03 -0.18620176438E+04  0.24952687897E+04  0.50400001928E-02 0.  1.
       -1    1    3    3    0  502 -0.15801586731E+04 -0.51220620318E+03  0.31893027923E+03  0.16914411459E+04  0.50400001928E-02 0. -1.
</event>
<event>
 5   0  0.8438211E-08  0.3926719E+04  0.7818609E-02  0.8019495E-01
        2   -1    0    0  501    0  0.00000000000E+00  0.00000000000E+00  0.25119385476E+04  0.25119385476E+04  0.25500000920E-02 0. -1.
       -2   -1    0    0    0  501  0.00000000000E+00  0.00000000000E+00 -0.15345840645E+04  0.15345840645E+04  0.25500000920E-02 0.  1.
    10030    2    1    2    0    0  0.00000000000E+00  0.00000000000E+00  0.97735448302E+03  0.40465226121E+04  0.39267191731E+04 0.  0.
        5    1    3    3  502    0 -0.98129341395E+03 -0.16052465465E+04  0.10670545187E+04  0.21629564663E+04  0.46999998093E+01 0. -1.
       -5    1    3    3    0  502  0.98129341395E+03  0.16052465465E+04 -0.89700035676E+02  0.18835661458E+04  0.46999998093E+01 0.  1.
</event>
<event>
 5   0  0.8342802E-08  0.3929406E+04  0.7818609E-02  0.8018941E-01
       -2   -1    0    0    0  501  0.00000000000E+00  0.00000000000E+00  0.14601202816E+04  0.14601202816E+04  0.25500000920E-02 0.  1.
        2   -1    0    0  501    0  0.00000000000E+00  0.00000000000E+00 -0.26436578511E+04  0.26436578511E+04  0.25500000920E-02 0. -1.
    10030    2    1    2    0    0  0.00000000000E+00  0.00000000000E+00 -0.11835375695E+04  0.41037781327E+04  0.39294062890E+04 0.  0.
        4    1    3    3  502    0 -0.99288645528E+03 -0.11230143713E+04  0.73465963708E+03  0.16693445380E+04  0.12699999809E+01 0.  1.
       -4    1    3    3    0  502  0.99288645528E+03  0.11230143713E+04 -0.19181972066E+04  0.24344335948E+04  0.12699999809E+01 0. -1.
</event>
<event>
 5   0  0.2632875E-08  0.3886409E+04  0.7818609E-02  0.8027862E-01
        1   -1    0    0  501    0  0.00000000000E+00  0.00000000000E+00  0.31293674774E+04  0.31293674774E+04  0.50400001928E-02 0.  1.
       -1   -1    0    0    0  501  0.00000000000E+00  0.00000000000E+00 -0.12066478062E+04  0.12066478062E+04  0.50400001928E-02 0. -1.
    10030    2    1    2    0    0  0.00000000000E+00  0.00000000000E+00  0.19227196713E+04  0.43360152836E+04  0.38864093461E+04 0.  0.
        3    1    3    3  502    0 -0.74675172723E+03  0.16067492538E+04  0.71070438083E+02  0.17732265292E+04  0.10100000352E+00 0. -1.
       -3    1    3    3    0  502  0.74675172723E+03 -0.16067492538E+04  0.18516492332E+04  0.25627887544E+04  0.10100000352E+00 0.  1.
</event>
<event>
 5   0  0.8676098E-08  0.3894833E+04  0.7818609E-02  0.8026105E-01
       -2   -1    0    0    0  501  0.00000000000E+00  0.00000000000E+00  0.14818673451E+04  0.14818673451E+04  0.25500000920E-02 0.  1.
        2   -1    0    0  501    0  0.00000000000E+00  0.00000000000E+00 -0.25592242216E+04  0.25592242216E+04  0.25500000920E-02 0. -1.
    10030    2    1    2    0    0  0.00000000000E+00  0.00000000000E+00 -0.10773568765E+04  0.40410915667E+04  0.38948328862E+04 0.  0.
        3    1    3    3  502    0  0.37638192777E+01 -0.14249143492E+03  0.14764475292E+04  0.14833122706E+04  0.10100000352E+00 0.  1.
       -3    1    3    3    0  502 -0.37638192777E+01  0.14249143492E+03 -0.25538044056E+04  0.25577792962E+04  0.10100000352E+00 0. -1.
</event>
<event>
 5   0  0.8551754E-08  0.3889322E+04  0.7818609E-02  0.8027254E-01
       -2   -1    0    0    0  501  0.00000000000E+00  0.00000000000E+00  0.18256340035E+04  0.18256340035E+04  0.25500000920E-02 0. -1.
        2   -1    0    0  501    0  0.00000000000E+00  0.00000000000E+00 -0.20714478378E+04  0.20714478378E+04  0.25500000920E-02 0.  1.
    10030    2    1    2    0    0  0.00000000000E+00  0.00000000000E+00 -0.24581383428E+03  0.38970818412E+04  0.38893215907E+04 0.  0.
        1    1    3    3  502    0 -0.12884182397E+04 -0.54449202066E+03 -0.14766067884E+04  0.20339274148E+04  0.50400001928E-02 0.  1.
       -1    1    3    3    0  502  0.12884182397E+04  0.54449202066E+03  0.12307929542E+04  0.18631544265E+04  0.50400001928E-02 0. -1.
</event>
<event>
 5   0  0.2632875E-08  0.3884618E+04  0.7818609E-02  0.8028236E-01
        1   -1    0    0  501    0  0.00000000000E+00  0.00000000000E+00  0.15921775233E+04  0.15921775233E+04  0.50400001928E-02 0.  1.
       -1   -1    0    0    0  501  0.00000000000E+00  0.00000000000E+00 -0.23694367863E+04  0.23694367864E+04  0.50400001928E-02 0. -1.
    10030    2    1    2    0    0  0.00000000000E+00  0.00000000000E+00 -0.77725926304E+03  0.39616143097E+04  0.38846178675E+04 0.  0.
        4    1    3    3  502    0 -0.13222464330E+04  0.10884931829E+04  0.54572294521E+03  0.17974894115E+04  0.12699999809E+01 0. -1.
       -4    1    3    3    0  502  0.13222464330E+04 -0.10884931829E+04 -0.13229822082E+04  0.21641248982E+04  0.12699999809E+01 0.  1.
</event>
<event>
 5   0  0.8676098E-08  0.3885640E+04  0.7818609E-02  0.8028022E-01
        2   -1    0    0  501    0  0.00000000000E+00  0.00000000000E+00  0.14910657346E+04  0.14910657346E+04  0.25500000920E-02 0.  1.
       -2   -1    0    0    0  501  0.00000000000E+00  0.00000000000E+00 -0.25314440673E+04  0.25314440673E+04  0.25500000920E-02 0. -1.
    10030    2    1    2    0    0  0.00000000000E+00  0.00000000000E+00 -0.10403783327E+04  0.40225098019E+04  0.38856399771E+04 0.  0.
        3    1    3    3  502    0  0.18105162558E+04 -0.87078260585E+02 -0.12441048538E+04  0.21984878060E+04  0.10100000352E+00 0.  1.
       -3    1    3    3    0  502 -0.18105162558E+04  0.87078260585E+02  0.20372652114E+03  0.18240219959E+04  0.10100000352E+00 0. -1.
</event>
<event>
 5   0  0.8551754E-08  0.4002904E+04  0.7818609E-02  0.8003961E-01
        2   -1    0    0  501    0  0.00000000000E+00  0.00000000000E+00  0.21543274961E+04  0.21543274961E+04  0.25500000920E-02 0. -1.
       -2   -1    0    0    0  501  0.00000000000E+00  0.00000000000E+00 -0.18594248511E+04  0.18594248511E+04  0.25500000920E-02 0.  1.
    10030    2    1    2    0    0  0.00000000000E+00  0.00000000000E+00  0.29490264501E+03  0.40137523473E+04  0.40029039878E+04 0.  0.
        1    1    3    3  502    0 -0.10652387812E+04  0.92302374015E+03  0.15722539275E+04  0.21115607731E+04  0.50400001928E-02 0. -1.
       -1    1    3    3    0  502  0.10652387812E+04 -0.92302374015E+03 -0.12773512825E+04  0.19021915742E+04  0.50400001928E-02 0.  1.
</event>
<event>
 5   0  0.2632875E-08  0.3889723E+04  0.7818609E-02  0.8027170E-01
       -1   -1    0    0    0  501  0.00000000000E+00  0.00000000000E+00  0.17150809783E+04  0.17150809783E+04  0.50400001928E-02 0. -1.
        1   -1    0    0  501    0  0.00000000000E+00  0.00000000000E+00 -0.22054276610E+04  0.22054276610E+04  0.50400001928E-02 0.  1.
    10030    2    1    2    0    0  0.00000000000E+00  0.00000000000E+00 -0.49034668268E+03  0.39205086394E+04  0.38897233992E+04 0.  0.
        2    1    3    3  502    0 -0.70802226193E+03 -0.13077240415E+04  0.10181618904E+04  0.18022461894E+04  0.25500000920E-02 0. -1.
       -2    1    3    3    0  502  0.70802226193E+03  0.13077240415E+04 -0.15085085731E+04  0.21182624500E+04  0.25500000920E-02 0.  1.
</event>
<event>
 5   0  0.8438211E-08  0.3897379E+04  0.7818609E-02  0.8025575E-01
        2   -1    0    0  501    0  0.00000000000E+00  0.00000000000E+00  0.14652880797E+04  0.14652880797E+04  0.25500000920E-02 0.  1.
       -2   -1    0    0    0  501  0.00000000000E+00  0.00000000000E+00 -0.25915656658E+04  0.25915656658E+04  0.25500000920E-02 0. -1.
    10030    2    1    2    0    0  0.00000000000E+00  0.00000000000E+00 -0.11262775860E+04  0.40568537455E+04  0.38973787488E+04 0.  0.
        5    1    3    3  502    0  0.60408801721E+02  0.47031920239E+03  0.14043125498E+04  0.14822163145E+04  0.46999998093E+01 0.  1.
       -5    1    3    3    0  502 -0.60408801721E+02 -0.47031920239E+03 -0.25305901358E+04  0.25746374310E+04  0.46999998093E+01 0. -1.
</event>
<event>
 5   0  0.2632875E-08  0.3922930E+04  0.7818609E-02  0.8020277E-01
        1   -1    0    0  501    0  0.00000000000E+00  0.00000000000E+00  0.25505493627E+04  0.25505493627E+04  0.50400001928E-02 0. -1.
       -1   -1    0    0    0  501  0.00000000000E+00  0.00000000000E+00 -0.15084373946E+04  0.15084373947E+04  0.50400001928E-02 0.  1.
    10030    2    1    2    0    0  0.00000000000E+00  0.00000000000E+00  0.10421119681E+04  0.40589867574E+04  0.39229295358E+04 0.  0.
        3    1    3    3  502    0 -0.25111995966E+03  0.18215267972E+04 -0.18550639104E+03  0.18480892128E+04  0.10100000352E+00 0.  1.
       -3    1    3    3    0  502  0.25111995966E+03 -0.18215267972E+04  0.12276183591E+04  0.22108975446E+04  0.10100000352E+00 0. -1.
</event>
<event>
 5   0  0.8551754E-08  0.3875319E+04  0.7818609E-02  0.8030182E-01
        2   -1    0    0  501    0  0.00000000000E+00  0.00000000000E+00  0.25392169449E+04  0.25392169449E+04  0.25500000920E-02 0. -1.
       -2   -1    0    0    0  501  0.00000000000E+00  0.00000000000E+00 -0.14786147593E+04  0.14786147593E+04  0.25500000920E-02 0.  1.
    10030    2    1    2    0    0  0.00000000000E+00  0.00000000000E+00  0.10606021856E+04  0.40178317042E+04  0.38753186459E+04 0.  0.
        1    1    3    3  502    0  0.33904252350E+01 -0.17778268468E+04  0.13292526702E+04  0.22198181127E+04  0.50400001928E-02 0. -1.
       -1    1    3    3    0  502 -0.33904252350E+01  0.17778268468E+04 -0.26865048461E+03  0.17980135915E+04  0.50400001928E-02 0.  1.
</event>
<event>
 5   0  0.8476262E-08  0.3896798E+04  0.7818609E-02  0.8025696E-01
       -2   -1    0    0    0  501  0.00000000000E+00  0.00000000000E+00  0.16190336640E+04  0.16190336640E+04  0.25500000920E-02 0. -1.
        2   -1    0    0  501    0  0.00000000000E+00  0.00000000000E+00 -0.23447680806E+04  0.23447680806E+04  0.25500000920E-02 0.  1.
    10030    2    1    2    0    0  0.00000000000E+00  0.00000000000E+00 -0.72573441665E+03  0.39638017446E+04  0.38967978941E+04 0.  0.
        2    1    3    3  502    0  0.67559559348E+03  0.68372415589E+03 -0.20868095903E+04  0.22975383334E+04  0.25500000920E-02 0.  1.
       -2    1    3    3    0  502 -0.67559559348E+03 -0.68372415589E+03  0.13610751737E+04  0.16662634112E+04  0.25500000920E-02 0. -1.
</event>
<event>
 5   0  0.2632875E-08  0.3894424E+04  0.7818609E-02  0.8026190E-01
        1   -1    0    0  501    0  0.00000000000E+00  0.00000000000E+00  0.18802291453E+04  0.18802291453E+04  0.50400001928E-02 0.  1.
       -1   -1    0    0    0  501  0.00000000000E+00  0.00000000000E+00 -0.20165812519E+04  0.20165812519E+04  0.50400001928E-02 0. -1.
    10030    2    1    2    0    0  0.00000000000E+00  0.00000000000E+00 -0.13635210655E+03  0.38968103972E+04  0.38944241391E+04 0.  0.
        5    1    3    3  502    0 -0.51213267578E+03 -0.18396088047E+04  0.31307226630E+03  0.19350650547E+04  0.46999998093E+01 0.  1.
       -5    1    3    3    0  502  0.51213267578E+03  0.18396088047E+04 -0.44942437285E+03  0.19617453425E+04  0.46999998093E+01 0. -1.
</event>
<event>
 5   0  0.8676098E-08  0.3974614E+04  0.7818609E-02  0.8009687E-01
       -2   -1    0    0    0  501  0.00000000000E+00  0.00000000000E+00  0.24514577541E+04  0.24514577541E+04  0.25500000920E-02 0. -1.
        2   -1    0    0  501    0  0.00000000000E+00  0.00000000000E+00 -0.16110371808E+04  0.16110371808E+04  0.25500000920E-02 0.  1.
    10030    2    1    2    0    0  0.00000000000E+00  0.00000000000E+00  0.84042057333E+03  0.40624949350E+04  0.39746142400E+04 0.  0.
        3    1    3    3  502    0  0.84285855236E+03  0.14978486753E+04  0.14399817595E+04  0.22422106661E+04  0.10100000352E+00 0.  1.
       -3    1    3    3    0  502 -0.84285855236E+03 -0.14978486753E+04 -0.59956118620E+03  0.18202842689E+04  0.10100000352E+00 0. -1.
</event>
<event>
 5   0  0.8438211E-08  0.3908674E+04  0.7818609E-02  0.8023228E-01
        2   -1    0    0  501    0  0.00000000000E+00  0.00000000000E+00  0.11285235591E+04  0.11285235592E+04  0.25500000920E-02 0.  1.
       -2   -1    0    0    0  501  0.00000000000E+00  0.00000000000E+00 -0.33844518482E+04  0.33844518482E+04  0.25500000920E-02 0. -1.
    10030    2    1    2    0    0  0.00000000000E+00  0.00000000000E+00 -0.22559282891E+04  0.45129754074E+04  0.39086742743E+04 0.  0.
        5    1    3    3  502    0  0.18375502087E+04 -0.66294503154E+03 -0.10613896575E+04  0.22232087126E+04  0.46999998093E+01 0.  1.
       -5    1    3    3    0  502 -0.18375502087E+04  0.66294503154E+03 -0.11945386315E+04  0.22897666948E+04  0.46999998093E+01 0. -1.
</event>
<event>
 5   0  0.2632875E-08  0.3889876E+04  0.7818609E-02  0.8027138E-01
       -3   -1    0    0    0  501  0.00000000000E+00  0.00000000000E+00  0.25400638371E+04  0.25400638391E+04  0.10100000352E+00 0.  1.
        3   -1    0    0  501    0  0.00000000000E+00  0.00000000000E+00 -0.14892473352E+04  0.14892473386E+04  0.10100000352E+00 0. -1.
    10030    2    1    2    0    0  0.00000000000E+00  0.00000000000E+00  0.10508165019E+04  0.40293111777E+04  0.38898757366E+04 0.  0.
        5    1    3    3  502    0 -0.14284085170E+03 -0.74797750610E+03 -0.13284047079E+04  0.15311939839E+04  0.46999998093E+01 0. -1.
       -5    1    3    3    0  502  0.14284085170E+03  0.74797750610E+03  0.23792212098E+04  0.24981171938E+04  0.46999998093E+01 0.  1.
</event>
<event>
 5   0  0.8551754E-08  0.3896146E+04  0.7818609E-02  0.8025831E-01
        2   -1    0    0  501    0  0.00000000000E+00  0.00000000000E+00  0.16227459156E+04  0.16227459156E+04  0.25500000920E-02 0. -1.
       -2   -1    0    0    0  501  0.00000000000E+00  0.00000000000E+00 -0.23386215508E+04  0.23386215508E+04  0.25500000920E-02 0.  1.
    10030    2    1    2    0    0  0.00000000000E+00  0.00000000000E+00 -0.71587563522E+03  0.39613674664E+04  0.38961460802E+04 0.  0.
        1    1    3    3  502    0  0.88477317814E+03 -0.17327266649E+04 -0.25716612572E+03  0.19624728503E+04  0.50400001928E-02 0.  1.
       -1    1    3    3    0  502 -0.88477317814E+03  0.17327266649E+04 -0.45870950951E+03  0.19988946161E+04  0.50400001928E-02 0. -1.
</event>
<event>
 5   0  0.2632875E-08  0.3896852E+04  0.7818609E-02  0.8025684E-01
        1   -1    0    0  501    0  0.00000000000E+00  0.00000000000E+00  0.14945945244E+04  0.14945945244E+04  0.50400001928E-02 0.  1.
       -1   -1    0    0    0  501  0.00000000000E+00  0.00000000000E+00 -0.25400632996E+04  0.25400632996E+04  0.50400001928E-02 0. -1.
    10030    2    1    2    0    0  0.00000000000E+00  0.00000000000E+00 -0.10454687752E+04  0.40346578240E+04  0.38968524218E+04 0.  0.
        1    1    3    3  502    0  0.15788255754E+04  0.16169839390E+03  0.64751382268E+03  0.17140918058E+04  0.50400001928E-02 0.  1.
       -1    1    3    3    0  502 -0.15788255754E+04 -0.16169839390E+03 -0.16929825979E+04  0.23205660182E+04  0.50400001928E-02 0. -1.
</event>
<event>
 5   0  0.8676098E-08  0.3908956E+04  0.7818609E-02  0.8023169E-01
       -2   -1    0    0    0  501  0.00000000000E+00  0.00000000000E+00  0.13130532023E+04  0.13130532023E+04  0.25500000920E-02 0. -1.
        2   -1    0    0  501    0  0.00000000000E+00  0.00000000000E+00 -0.29092372956E+04  0.29092372956E+04  0.25500000920E-02 0.  1.
    10030    2    1    2    0    0  0.00000000000E+00  0.00000000000E+00 -0.15961840933E+04  0.42222904979E+04  0.39089555368E+04 0.  0.
        3    1    3    3  502    0 -0.85884063457E+03  0.15235521967E+04  0.14428940376E+03  0.17548897327E+04  0.10100000352E+00 0. -1.
       -3    1    3    3    0  502  0.85884063457E+03 -0.15235521967E+04 -0.17404734971E+04  0.24674007652E+04  0.10100000352E+00 0.  1.
</event>
<event>
 5   0  0.8342802E-08  0.3900015E+04  0.7818609E-02  0.8025026E-01
       -2   -1    0    0    0  501  0.00000000000E+00  0.00000000000E+00  0.19629415425E+04  0.19629415425E+04  0.25500000920E-02 0.  1.
        2   -1    0    0  501    0  0.00000000000E+00  0.00000000000E+00 -0.19371583409E+04  0.19371583409E+04  0.25500000920E-02 0. -1.
    10030    2    1    2    0    0  0.00000000000E+00  0.00000000000E+00  0.25783201586E+02  0.39000998834E+04  0.39000146573E+04 0.  0.
        4    1    3    3  502    0  0.26896280785E+03  0.28186868053E+03  0.19236232886E+04  0.19626816132E+04  0.12699999809E+01 0.  1.
       -4    1    3    3    0  502 -0.26896280785E+03 -0.28186868053E+03 -0.18978400871E+04  0.19374182703E+04  0.12699999809E+01 0. -1.
</event>
<event>
 5   0  0.8476262E-08  0.3898559E+04  0.7818609E-02  0.8025329E-01
       -2   -1    0    0    0  501  0.00000000000E+00  0.00000000000E+00  0.21489344650E+04  0.21489344650E+04  0.25500000920E-02 0.  1.
        2   -1    0    0  501    0  0.00000000000E+00  0.00000000000E+00 -0.17681744065E+04  0.17681744065E+04  0.25500000920E-02 0. -1.
    10030    2    1    2    0    0  0.00000000000E+00  0.00000000000E+00  0.38076005849E+03  0.39171088715E+04  0.38985591812E+04 0.  0.
        2    1    3    3  502    0 -0.11445201421E+04  0.11334954470E+04  0.12933063462E+04  0.20657636818E+04  0.25500000920E-02 0. -1.
       -2    1    3    3    0  502  0.11445201421E+04 -0.11334954470E+04 -0.91254628773E+03  0.18513451897E+04  0.25500000920E-02 0.  1.
</event>
<event>
 5   0  0.8476262E-08  0.3900690E+04  0.7818609E-02  0.8024886E-01
       -2   -1    0    0    0  501  0.00000000000E+00  0.00000000000E+00  0.16815835474E+04  0.16815835474E+04  0.25500000920E-02 0.  1.
        2   -1    0    0  501    0  0.00000000000E+00  0.00000000000E+00 -0.22620613827E+04  0.22620613827E+04  0.25500000920E-02 0. -1.
    10030    2    1    2    0    0  0.00000000000E+00  0.00000000000E+00 -0.58047783532E+03  0.39436449301E+04  0.39006897874E+04 0.  0.
        2    1    3    3  502    0 -0.89951083694E+03  0.15272448965E+04 -0.11129870010E+04  0.20929254129E+04  0.25500000920E-02 0. -1.
       -2    1    3    3    0  502  0.89951083694E+03 -0.15272448965E+04  0.53250916571E+03  0.18507195171E+04  0.25500000920E-02 0.  1.
</event>
<event>
 5   0  0.8551754E-08  0.3899511E+04  0.7818609E-02  0.8025131E-01
        2   -1    0    0  501    0  0.00000000000E+00  0.00000000000E+00  0.18238726505E+04  0.18238726505E+04  0.25500000920E-02 0.  1.
       -2   -1    0    0    0  501  0.00000000000E+00  0.00000000000E+00 -0.20843262033E+04  0.20843262033E+04  0.25500000920E-02 0. -1.
    10030    2    1    2    0    0  0.00000000000E+00  0.00000000000E+00 -0.26045355273E+03  0.39081988538E+04  0.38995105113E+04 0.  0.
        1    1    3    3  502    0  0.16662537222E+03 -0.19423133536E+04 -0.16495045074E+03  0.19564135119E+04  0.50400001928E-02 0. -1.
       -1    1    3    3    0  502 -0.16662537222E+03  0.19423133536E+04 -0.95503101985E+02  0.19517853419E+04  0.50400001928E-02 0.  1.
</event>
<event>
 5   0  0.2632875E-08  0.3890850E+04  0.7818609E-02  0.8026935E-01
        1   -1    0    0  501    0  0.00000000000E+00  0.00000000000E+00  0.20866501096E+04  0.20866501096E+04  0.50400001928E-02 0.  1.
       -1   -1    0    0    0  501  0.00000000000E+00  0.00000000000E+00 -0.18137584077E+04  0.18137584078E+04  0.50400001928E-02 0. -1.
    10030    2    1    2    0    0  0.00000000000E+00  0.00000000000E+00  0.27289170181E+03  0.39004085173E+04  0.38908503853E+04 0.  0.
        1    1    3    3  502    0  0.19399641624E+04 -0.24455398141E+02 -0.75041281085E+01  0.19401328124E+04  0.50400001928E-02 0. -1.
       -1    1    3    3    0  502 -0.19399641624E+04  0.24455398141E+02  0.28039582991E+03  0.19602757049E+04  0.50400001928E-02 0.  1.
</event>
<event>
 5   0  0.8551754E-08  0.3908747E+04  0.7818609E-02  0.8023212E-01
       -2   -1    0    0    0  501  0.00000000000E+00  0.00000000000E+00  0.16790642449E+04  0.16790642449E+04  0.25500000920E-02 0. -1.
        2   -1    0    0  501    0  0.00000000000E+00  0.00000000000E+00 -0.22748245029E+04  0.22748245029E+04  0.25500000920E-02 0.  1.
    10030    2    1    2    0    0  0.00000000000E+00  0.00000000000E+00 -0.59576025801E+03  0.39538887479E+04  0.39087473627E+04 0.  0.
        1    1    3    3  502    0 -0.65352763304E+03 -0.49525455192E+03  0.14966431133E+04  0.17065509213E+04  0.50400001928E-02 0. -1.
       -1    1    3    3    0  502  0.65352763304E+03  0.49525455192E+03 -0.20924033713E+04  0.22473378266E+04  0.50400001928E-02 0.  1.
</event>
<event>
 5   0  0.2632875E-08  0.3968619E+04  0.7818609E-02  0.8010907E-01
       -1   -1    0    0    0  501  0.00000000000E+00  0.00000000000E+00  0.21746366085E+04  0.21746366085E+04  0.50400001928E-02 0. -1.
        1   -1    0    0  501    0  0.00000000000E+00  0.00000000000E+00 -0.18106401534E+04  0.18106401535E+04  0.50400001928E-02 0.  1.
    10030    2    1    2    0    0  0.00000000000E+00  0.00000000000E+00  0.36399645508E+03  0.39852767620E+04  0.39686190861E+04 0.  0.
        2    1    3    3  502    0 -0.57511247349E+03 -0.56495256345E+02  0.20882648372E+04  0.21667478167E+04  0.25500000920E-02 0. -1.
       -2    1    3    3    0  502  0.57511247349E+03  0.56495256345E+02 -0.17242683821E+04  0.18185289452E+04  0.25500000920E-02 0.  1.
</event>
<event>
 5   0  0.2632875E-08  0.3841554E+04  0.7818609E-02  0.8037296E-01
       -1   -1    0    0    0  501  0.00000000000E+00  0.00000000000E+00  0.14193309333E+04  0.14193309333E+04  0.50400001928E-02 0.  1.
        1   -1    0    0  501    0  0.00000000000E+00  0.00000000000E+00 -0.25993821994E+04  0.25993821994E+04  0.50400001928E-02 0. -1.
    10030    2    1    2    0    0  0.00000000000E+00  0.00000000000E+00 -0.11800512661E+04  0.40187131327E+04  0.38415536248E+04 0.  0.
        5    1    3    3  502    0 -0.13546216801E+03 -0.24185035477E+03 -0.25783408169E+04  0.25932036270E+04  0.46999998093E+01 0. -1.
       -5    1    3    3    0  502  0.13546216801E+03  0.24185035477E+03  0.13982895508E+04  0.14255095057E+04  0.46999998093E+01 0.  1.
</event>
<event>
 5   0  0.2632875E-08  0.3890048E+04  0.7818609E-02  0.8027102E-01
        1   -1    0    0  501    0  0.00000000000E+00  0.00000000000E+00  0.24150270002E+04  0.24150270002E+04  0.50400001928E-02 0. -1.
       -1   -1    0    0    0  501  0.00000000000E+00  0.00000000000E+00 -0.15664912725E+04  0.15664912726E+04  0.50400001928E-02 0.  1.
    10030    2    1    2    0    0  0.00000000000E+00  0.00000000000E+00  0.84853572762E+03  0.39815182727E+04  0.38900481842E+04 0.  0.
        4    1    3    3  502    0  0.43060947714E+03 -0.67072039076E+03 -0.13916623003E+04  0.16037505839E+04  0.12699999809E+01 0.  1.
       -4    1    3    3    0  502 -0.43060947714E+03  0.67072039076E+03  0.22401980280E+04  0.23777676888E+04  0.12699999809E+01 0. -1.
</event>
<event>
 5   0  0.8551754E-08  0.3899288E+04  0.7818609E-02  0.8025177E-01
        2   -1    0    0  501    0  0.00000000000E+00  0.00000000000E+00  0.20068754131E+04  0.20068754131E+04  0.25500000920E-02 0. -1.
       -2   -1    0    0    0  501  0.00000000000E+00  0.00000000000E+00 -0.18940449773E+04  0.18940449773E+04  0.25500000920E-02 0.  1.
    10030    2    1    2    0    0  0.00000000000E+00  0.00000000000E+00  0.11283043582E+03  0.39009203905E+04  0.38992882922E+04 0.  0.
        1    1    3    3  502    0  0.43552266397E+03 -0.18613109352E+04 -0.32709091325E+03  0.19393676428E+04  0.50400001928E-02 0. -1.
       -1    1    3    3    0  502 -0.43552266397E+03  0.18613109352E+04  0.43992134906E+03  0.19615527476E+04  0.50400001928E-02 0.  1.
</event>
<event>
 5   0  0.2632875E-08  0.3856572E+04  0.7818609E-02  0.8034123E-01
        1   -1    0    0  501    0  0.00000000000E+00  0.00000000000E+00  0.29434237130E+04  0.29434237130E+04  0.50400001928E-02 0.  1.
       -1   -1    0    0    0  501  0.00000000000E+00  0.00000000000E+00 -0.12632520454E+04  0.12632520454E+04  0.50400001928E-02 0. -1.
    10030    2    1    2    0    0  0.00000000000E+00  0.00000000000E+00  0.16801716676E+04  0.42066757584E+04  0.38565715479E+04 0.  0.
        2    1    3    3  502    0  0.16038977389E+04 -0.10573304221E+04  0.10221203464E+04  0.21760435614E+04  0.25500000920E-02 0. -1.
       -2    1    3    3    0  502 -0.16038977389E+04  0.10573304221E+04  0.65805132115E+03  0.20306321970E+04  0.25500000920E-02 0.  1.
</event>
<event>
 5   0  0.2632875E-08  0.3680994E+04  0.7818609E-02  0.8072187E-01
        1   -1    0    0  501    0  0.00000000000E+00  0.00000000000E+00  0.18428149145E+04  0.18428149145E+04  0.50400001928E-02 0.  1.
       -1   -1    0    0    0  501  0.00000000000E+00  0.00000000000E+00 -0.18381815878E+04  0.18381815879E+04  0.50400001928E-02 0. -1.
    10030    2    1    2    0    0  0.00000000000E+00  0.00000000000E+00  0.46333266845E+01  0.36809965024E+04  0.36809935864E+04 0.  0.
        5    1    3    3  502    0  0.22375049933E+03  0.97077201159E+03 -0.15452451499E+04  0.18385503114E+04  0.46999998093E+01 0. -1.
       -5    1    3    3    0  502 -0.22375049933E+03 -0.97077201159E+03  0.15498784766E+04  0.18424461910E+04  0.46999998093E+01 0.  1.
</event>
<event>
 5   0  0.2632875E-08  0.3887867E+04  0.7818609E-02  0.8027557E-01
        1   -1    0    0  501    0  0.00000000000E+00  0.00000000000E+00  0.28396476484E+04  0.28396476485E+04  0.50400001928E-02 0.  1.
       -1   -1    0    0    0  501  0.00000000000E+00  0.00000000000E+00 -0.13307555850E+04  0.13307555850E+04  0.50400001928E-02 0. -1.
    10030    2    1    2    0    0  0.00000000000E+00  0.00000000000E+00  0.15088920635E+04  0.41704032334E+04  0.38878667506E+04 0.  0.
        5    1    3    3  502    0  0.49635038148E+03 -0.17574243567E+04  0.14691630143E+04  0.23437931059E+04  0.46999998093E+01 0.  1.
       -5    1    3    3    0  502 -0.49635038148E+03  0.17574243567E+04  0.39729049183E+02  0.18266101275E+04  0.46999998093E+01 0. -1.
</event>
<event>
 5   0  0.8551754E-08  0.3923203E+04  0.7818609E-02  0.8020221E-01
        2   -1    0    0  501    0  0.00000000000E+00  0.00000000000E+00  0.17416549625E+04  0.17416549625E+04  0.25500000920E-02 0. -1.
       -2   -1    0    0    0  501  0.00000000000E+00  0.00000000000E+00 -0.22093239294E+04  0.22093239294E+04  0.25500000920E-02 0.  1.
    10030    2    1    2    0    0  0.00000000000E+00  0.00000000000E+00 -0.46766896693E+03  0.39509788920E+04  0.39232027659E+04 0.  0.
        1    1    3    3  502    0  0.16659894069E+04 -0.38594115829E+03  0.73391051782E+03  0.18609395288E+04  0.50400001928E-02 0. -1.
       -1    1    3    3    0  502 -0.16659894069E+04  0.38594115829E+03 -0.12015794848E+04  0.20900393632E+04  0.50400001928E-02 0.  1.
</event>
<event>
 5   0  0.2632875E-08  0.3891190E+04  0.7818609E-02  0.8026864E-01
        1   -1    0    0  501    0  0.00000000000E+00  0.00000000000E+00  0.21001998380E+04  0.21001998380E+04  0.50400001928E-02 0. -1.
       -1   -1    0    0    0  501  0.00000000000E+00  0.00000000000E+00 -0.18023713842E+04  0.18023713842E+04  0.50400001928E-02 0.  1.
    10030    2    1    2    0    0  0.00000000000E+00  0.00000000000E+00  0.29782845378E+03  0.39025712222E+04  0.38911900952E+04 0.  0.
        5    1    3    3  502    0 -0.16073851461E+04 -0.43140051216E+03  0.11595940874E+04  0.20284166109E+04  0.46999998093E+01 0. -1.
       -5    1    3    3    0  502  0.16073851461E+04  0.43140051216E+03 -0.86176563365E+03  0.18741546113E+04  0.46999998093E+01 0.  1.
</event>
<event>
 5   0  0.8476262E-08  0.3908138E+04  0.7818609E-02  0.8023339E-01
        2   -1    0    0  501    0  0.00000000000E+00  0.00000000000E+00  0.14662728204E+04  0.14662728204E+04  0.25500000920E-02 0.  1.
       -2   -1    0    0    0  501  0.00000000000E+00  0.00000000000E+00 -0.26041440633E+04  0.26041440633E+04  0.25500000920E-02 0. -1.
    10030    2    1    2    0    0  0.00000000000E+00  0.00000000000E+00 -0.11378712429E+04  0.40704168837E+04  0.39081380019E+04 0.  0.
        2    1    3    3  502    0 -0.12640110511E+03 -0.58845027506E+03  0.13673273048E+04  0.14939327039E+04  0.25500000920E-02 0.  1.
       -2    1    3    3    0  502  0.12640110511E+03  0.58845027506E+03 -0.25051985476E+04  0.25764841798E+04  0.25500000920E-02 0. -1.
</event>
<event>
 5   0  0.2632875E-08  0.3946750E+04  0.7818609E-02  0.8015376E-01
       -1   -1    0    0    0  501  0.00000000000E+00  0.00000000000E+00  0.15785236304E+04  0.15785236304E+04  0.50400001928E-02 0. -1.
        1   -1    0    0  501    0  0.00000000000E+00  0.00000000000E+00 -0.24669941787E+04  0.24669941787E+04  0.50400001928E-02 0.  1.
    10030    2    1    2    0    0  0.00000000000E+00  0.00000000000E+00 -0.88847054830E+03  0.40455178092E+04  0.39467498564E+04 0.  0.
        2    1    3    3  502    0  0.99863356420E+03 -0.16943952447E+04 -0.60940231232E+03  0.20590326416E+04  0.25500000920E-02 0.  1.
       -2    1    3    3    0  502 -0.99863356420E+03  0.16943952447E+04 -0.27906823598E+03  0.19864851676E+04  0.25500000920E-02 0. -1.
</event>
<event>
 5   0  0.8438211E-08  0.3904008E+04  0.7818609E-02  0.8024196E-01
       -2   -1    0    0    0  501  0.00000000000E+00  0.00000000000E+00  0.15169324962E+04  0.15169324962E+04  0.25500000920E-02 0. -1.
        2   -1    0    0  501    0  0.00000000000E+00  0.00000000000E+00 -0.25118578239E+04  0.25118578239E+04  0.25500000920E-02 0.  1.
    10030    2    1    2    0    0  0.00000000000E+00  0.00000000000E+00 -0.99492532769E+03  0.40287903202E+04  0.39040075610E+04 0.  0.
        5    1    3    3  502    0 -0.13818393271E+04  0.11033048511E+04  0.35572475106E+03  0.18036972332E+04  0.46999998093E+01 0. -1.
       -5    1    3    3    0  502  0.13818393271E+04 -0.11033048511E+04 -0.13506500788E+04  0.22250930870E+04  0.46999998093E+01 0.  1.
</event>
<event>
 5   0  0.8342802E-08  0.4126028E+04  0.7818609E-02  0.7979594E-01
        2   -1    0    0  501    0  0.00000000000E+00  0.00000000000E+00  0.26541668872E+04  0.26541668872E+04  0.25500000920E-02 0. -1.
       -2   -1    0    0    0  501  0.00000000000E+00  0.00000000000E+00 -0.16035268010E+04  0.16035268010E+04  0.25500000920E-02 0.  1.
    10030    2    1    2    0    0  0.00000000000E+00  0.00000000000E+00  0.10506400862E+04  0.42576936882E+04  0.41260284720E+04 0.  0.
        4    1    3    3  502    0  0.18787368031E+02  0.14515259123E+04 -0.98731689686E+03  0.17555844346E+04  0.12699999809E+01 0.  1.
       -4    1    3    3    0  502 -0.18787368031E+02 -0.14515259123E+04  0.20379569830E+04  0.25021092536E+04  0.12699999809E+01 0. -1.
</event>
<event>
 5   0  0.8342802E-08  0.3900431E+04  0.7818609E-02  0.8024939E-01
        2   -1    0    0  501    0  0.00000000000E+00  0.00000000000E+00  0.22851015820E+04  0.22851015820E+04  0.25500000920E-02 0. -1.
       -2   -1    0    0    0  501  0.00000000000E+00  0.00000000000E+00 -0.16644079616E+04  0.16644079616E+04  0.25500000920E-02 0.  1.
    10030    2    1    2    0    0  0.00000000000E+00  0.00000000000E+00  0.62069362043E+03  0.39495095436E+04  0.39004313946E+04 0.  0.
        4    1    3    3  502    0 -0.21768017557E+03 -0.90286809304E+03  0.20467960898E+04  0.22476501726E+04  0.12699999809E+01 0. -1.
       -4    1    3    3    0  502  0.21768017557E+03  0.90286809304E+03 -0.14261024694E+04  0.17018593709E+04  0.12699999809E+01 0.  1.
</event>
<event>
 5   0  0.2632875E-08  0.3924844E+04  0.7818609E-02  0.8019882E-01
       -3   -1    0    0    0  501  0.00000000000E+00  0.00000000000E+00  0.28213090862E+04  0.28213090880E+04  0.10100000352E+00 0. -1.
        3   -1    0    0  501    0  0.00000000000E+00  0.00000000000E+00 -0.13650045466E+04  0.13650045503E+04  0.10100000352E+00 0.  1.
    10030    2    1    2    0    0  0.00000000000E+00  0.00000000000E+00  0.14563045396E+04  0.41863136384E+04  0.39248438143E+04 0.  0.
        1    1    3    3  502    0 -0.17270273870E+04  0.92680178465E+03  0.83219329159E+03  0.21293498581E+04  0.50400001928E-02 0.  1.
       -1    1    3    3    0  502  0.17270273870E+04 -0.92680178465E+03  0.62411124805E+03  0.20569637803E+04  0.50400001928E-02 0. -1.
</event>
<event>
 5   0  0.8342802E-08  0.3887159E+04  0.7818609E-02  0.8027705E-01
       -2   -1    0    0    0  501  0.00000000000E+00  0.00000000000E+00  0.12379337635E+04  0.12379337635E+04  0.25500000920E-02 0.  1.
        2   -1    0    0  501    0  0.00000000000E+00  0.00000000000E+00 -0.30514569398E+04  0.30514569398E+04  0.25500000920E-02 0. -1.
    10030    2    1    2    0    0  0.00000000000E+00  0.00000000000E+00 -0.18135231763E+04  0.42893907033E+04  0.38871591548E+04 0.  0.
        4    1    3    3  502    0 -0.44037848424E+03 -0.18449894722E+04 -0.43914168123E+03  0.19469890578E+04  0.12699999809E+01 0.  1.
       -4    1    3    3    0  502  0.44037848424E+03  0.18449894722E+04 -0.13743814951E+04  0.23424016455E+04  0.12699999809E+01 0. -1.
</event>
<event>
 5   0  0.8438211E-08  0.3864195E+04  0.7818609E-02  0.8032517E-01
       -2   -1    0    0    0  501  0.00000000000E+00  0.00000000000E+00  0.21653552029E+04  0.21653552030E+04  0.25500000920E-02 0. -1.
        2   -1    0    0  501    0  0.00000000000E+00  0.00000000000E+00 -0.17239670843E+04  0.17239670843E+04  0.25500000920E-02 0.  1.
    10030    2    1    2    0    0  0.00000000000E+00  0.00000000000E+00  0.44138811862E+03  0.38893222873E+04  0.38641951792E+04 0.  0.
        5    1    3    3  502    0  0.13314365518E+04  0.62013367049E+03 -0.10427332491E+04  0.18012783737E+04  0.46999998093E+01 0.  1.
       -5    1    3    3    0  502 -0.13314365518E+04 -0.62013367049E+03  0.14841213677E+04  0.20880439136E+04  0.46999998093E+01 0. -1.
</event>
<event>
 5   0  0.2632875E-08  0.3898320E+04  0.7818609E-02  0.8025379E-01
       -1   -1    0    0    0  501  0.00000000000E+00  0.00000000000E+00  0.19761950326E+04  0.19761950326E+04  0.50400001928E-02 0.  1.
        1   -1    0    0  501    0  0.00000000000E+00  0.00000000000E+00 -0.19224952395E+04  0.19224952395E+04  0.50400001928E-02 0. -1.
    10030    2    1    2    0    0  0.00000000000E+00  0.00000000000E+00  0.53699793076E+02  0.38986902721E+04  0.38983204294E+04 0.  0.
        5    1    3    3  502    0 -0.11992101199E+04  0.65896137513E+02  0.15621685745E+04  0.19704923136E+04  0.46999998093E+01 0.  1.
       -5    1    3    3    0  502  0.11992101199E+04 -0.65896137513E+02 -0.15084687814E+04  0.19281979585E+04  0.46999998093E+01 0. -1.
</event>
<event>
 5   0  0.8342802E-08  0.3905955E+04  0.7818609E-02  0.8023792E-01
       -2   -1    0    0    0  501  0.00000000000E+00  0.00000000000E+00  0.19858511863E+04  0.19858511863E+04  0.25500000920E-02 0.  1.
        2   -1    0    0  501    0  0.00000000000E+00  0.00000000000E+00 -0.19206480237E+04  0.19206480237E+04  0.25500000920E-02 0. -1.
    10030    2    1    2    0    0  0.00000000000E+00  0.00000000000E+00  0.65203162565E+02  0.39064992100E+04  0.39059550209E+04 0.  0.
        4    1    3    3  502    0  0.13088140642E+04  0.80548580479E+03  0.12378910144E+04  0.19733670244E+04  0.12699999809E+01 0.  1.
       -4    1    3    3    0  502 -0.13088140642E+04 -0.80548580479E+03 -0.11726878519E+04  0.19331321856E+04  0.12699999809E+01 0. -1.
</event>
<event>
 5   0  0.8551754E-08  0.3918683E+04  0.7818609E-02  0.8021155E-01
       -2   -1    0    0    0  501  0.00000000000E+00  0.00000000000E+00  0.14055206697E+04  0.14055206697E+04  0.25500000920E-02 0. -1.
        2   -1    0    0  501    0  0.00000000000E+00  0.00000000000E+00 -0.27313863550E+04  0.27313863550E+04  0.25500000920E-02 0.  1.
    10030    2    1    2    0    0  0.00000000000E+00  0.00000000000E+00 -0.13258656852E+04  0.41369070247E+04  0.39186834416E+04 0.  0.
        1    1    3    3  502    0 -0.10510280647E+04 -0.15273182336E+04 -0.13319917080E+04  0.22828847736E+04  0.50400001928E-02 0. -1.
       -1    1    3    3    0  502  0.10510280647E+04  0.15273182336E+04  0.61260227493E+01  0.18540222511E+04  0.50400001928E-02 0.  1.
</event>
<event>
 5   0  0.2632875E-08  0.3906743E+04  0.7818609E-02  0.8023628E-01
        1   -1    0    0  501    0  0.00000000000E+00  0.00000000000E+00  0.24223535188E+04  0.24223535188E+04  0.50400001928E-02 0. -1.
       -1   -1    0    0    0  501  0.00000000000E+00  0.00000000000E+00 -0.15751869400E+04  0.15751869401E+04  0.50400001928E-02 0.  1.
    10030    2    1    2    0    0  0.00000000000E+00  0.00000000000E+00  0.84716657879E+03  0.39975404589E+04  0.39067426980E+04 0.  0.
        3    1    3    3  502    0  0.19102745370E+04  0.15696397501E+03  0.80899785166E+03  0.20804480360E+04  0.10100000352E+00 0. -1.
       -3    1    3    3    0  502 -0.19102745370E+04 -0.15696397501E+03  0.38168727134E+02  0.19170924229E+04  0.10100000352E+00 0.  1.
</event>
<event>
 5   0  0.8676098E-08  0.3898200E+04  0.7818609E-02  0.8025404E-01
       -2   -1    0    0    0  501  0.00000000000E+00  0.00000000000E+00  0.23226882152E+04  0.23226882152E+04  0.25500000920E-02 0.  1.
        2   -1    0    0  501    0  0.00000000000E+00  0.00000000000E+00 -0.16356004922E+04  0.16356004922E+04  0.25500000920E-02 0. -1.
    10030    2    1    2    0    0  0.00000000000E+00  0.00000000000E+00  0.68708772299E+03  0.39582887074E+04  0.38981995783E+04 0.  0.
        3    1    3    3  502    0  0.84910593747E+03  0.28954129854E+03 -0.14134974851E+04  0.16741535793E+04  0.10100000352E+00 0. -1.
       -3    1    3    3    0  502 -0.84910593747E+03 -0.28954129854E+03  0.21005852081E+04  0.22841351281E+04  0.10100000352E+00 0.  1.
</event>
<event>
 5   0  0.2632875E-08  0.3914168E+04  0.7818609E-02  0.8022089E-01
        1   -1    0    0  501    0  0.00000000000E+00  0.00000000000E+00  0.29491471635E+04  0.29491471635E+04  0.50400001928E-02 0. -1.
       -1   -1    0    0    0  501  0.00000000000E+00  0.00000000000E+00 -0.12987410998E+04  0.12987410998E+04  0.50400001928E-02 0.  1.
    10030    2    1    2    0    0  0.00000000000E+00  0.00000000000E+00  0.16504060637E+04  0.42478882633E+04  0.39141684331E+04 0.  0.
        3    1    3    3  502    0 -0.54172502731E+03  0.10676531660E+02 -0.12157192229E+04  0.13309970822E+04  0.10100000352E+00 0.  1.
       -3    1    3    3    0  502  0.54172502731E+03 -0.10676531660E+02  0.28661252867E+04  0.29168911811E+04  0.10100000352E+00 0. -1.
</event>
<event>
 5   0  0.2632875E-08  0.3899342E+04  0.7818609E-02  0.8025166E-01
        1   -1    0    0  501    0  0.00000000000E+00  0.00000000000E+00  0.22560445136E+04  0.22560445136E+04  0.50400001928E-02 0.  1.
       -1   -1    0    0    0  501  0.00000000000E+00  0.00000000000E+00 -0.16849033083E+04  0.16849033084E+04  0.50400001928E-02 0. -1.
    10030    2    1    2    0    0  0.00000000000E+00  0.00000000000E+00  0.57114120525E+03  0.39409478220E+04  0.38993419264E+04 0.  0.
        5    1    3    3  502    0 -0.17839039313E+04 -0.40032757579E+03  0.97001088614E+03  0.20696663048E+04  0.46999998093E+01 0.  1.
       -5    1    3    3    0  502  0.17839039313E+04  0.40032757579E+03 -0.39886968089E+03  0.18712815171E+04  0.46999998093E+01 0. -1.
</event>
<event>
 5   0  0.2632875E-08  0.3847616E+04  0.7818609E-02  0.8036013E-01
       -1   -1    0    0    0  501  0.00000000000E+00  0.00000000000E+00  0.23626791089E+04  0.23626791089E+04  0.50400001928E-02 0.  1.
        1   -1    0    0  501    0  0.00000000000E+00  0.00000000000E+00 -0.15664578171E+04  0.15664578171E+04  0.50400001928E-02 0. -1.
    10030    2    1    2    0    0  0.00000000000E+00  0.00000000000E+00  0.79622129178E+03  0.39291369260E+04  0.38476159681E+04 0.  0.
        1    1    3    3  502    0  0.13966077960E+04  0.94359164368E+03 -0.54898692265E+03  0.17726435534E+04  0.50400001928E-02 0. -1.
       -1    1    3    3    0  502 -0.13966077960E+04 -0.94359164368E+03  0.13452082144E+04  0.21564933726E+04  0.50400001928E-02 0.  1.
</event>
<event>
 5   0  0.2632875E-08  0.3901469E+04  0.7818609E-02  0.8024724E-01
        1   -1    0    0  501    0  0.00000000000E+00  0.00000000000E+00  0.24574695398E+04  0.24574695398E+04  0.50400001928E-02 0.  1.
       -1   -1    0    0    0  501  0.00000000000E+00  0.00000000000E+00 -0.15484888488E+04  0.15484888488E+04  0.50400001928E-02 0. -1.
    10030    2    1    2    0    0  0.00000000000E+00  0.00000000000E+00  0.90898069101E+03  0.40059583885E+04  0.39014685330E+04 0.  0.
        1    1    3    3  502    0 -0.17834858517E+04  0.31764074384E+03 -0.28852457144E+03  0.18343837804E+04  0.50400001928E-02 0. -1.
       -1    1    3    3    0  502  0.17834858517E+04 -0.31764074384E+03  0.11975052624E+04  0.21715746082E+04  0.50400001928E-02 0.  1.
</event>
<event>
 5   0  0.8676098E-08  0.3901566E+04  0.7818609E-02  0.8024704E-01
       -2   -1    0    0    0  501  0.00000000000E+00  0.00000000000E+00  0.14498044637E+04  0.14498044637E+04  0.25500000920E-02 0.  1.
        2   -1    0    0  501    0  0.00000000000E+00  0.00000000000E+00 -0.26248738038E+04  0.26248738038E+04  0.25500000920E-02 0. -1.
    10030    2    1    2    0    0  0.00000000000E+00  0.00000000000E+00 -0.11750693401E+04  0.40746782675E+04  0.39015657151E+04 0.  0.
        3    1    3    3  502    0 -0.90683434540E+03 -0.12055166392E+04  0.70425219826E+03  0.16648093183E+04  0.10100000352E+00 0.  1.
       -3    1    3    3    0  502  0.90683434540E+03  0.12055166392E+04 -0.18793215384E+04  0.24098689492E+04  0.10100000352E+00 0. -1.
</event>
<event>
 5   0  0.2632875E-08  0.3884861E+04  0.7818609E-02  0.8028185E-01
       -1   -1    0    0    0  501  0.00000000000E+00  0.00000000000E+00  0.18973108958E+04  0.18973108958E+04  0.50400001928E-02 0.  1.
        1   -1    0    0  501    0  0.00000000000E+00  0.00000000000E+00 -0.19886227807E+04  0.19886227807E+04  0.50400001928E-02 0. -1.
    10030    2    1    2    0    0  0.00000000000E+00  0.00000000000E+00 -0.91311884971E+02  0.38859336765E+04  0.38848607025E+04 0.  0.
        3    1    3    3  502    0 -0.15206823546E+04 -0.11303545166E+04 -0.47339479465E+03  0.19530178695E+04  0.10100000352E+00 0. -1.
       -3    1    3    3    0  502  0.15206823546E+04  0.11303545166E+04  0.38208290968E+03  0.19329158070E+04  0.10100000352E+00 0.  1.
</event>
<event>
 5   0  0.2632875E-08  0.3896757E+04  0.7818609E-02  0.8025704E-01
        1   -1    0    0  501    0  0.00000000000E+00  0.00000000000E+00  0.34708404901E+04  0.34708404901E+04  0.50400001928E-02 0.  1.
       -1   -1    0    0    0  501  0.00000000000E+00  0.00000000000E+00 -0.10937344865E+04  0.10937344866E+04  0.50400001928E-02 0. -1.
    10030    2    1    2    0    0  0.00000000000E+00  0.00000000000E+00  0.23771060036E+04  0.45645749767E+04  0.38967565700E+04 0.  0.
        2    1    3    3  502    0 -0.61311801305E+03  0.14283314318E+04 -0.18757118394E+03  0.15656395901E+04  0.25500000920E-02 0. -1.
       -2    1    3    3    0  502  0.61311801305E+03 -0.14283314318E+04  0.25646771875E+04  0.29989353866E+04  0.25500000920E-02 0.  1.
</event>
<event>
 5   0  0.2632875E-08  0.3882092E+04  0.7818609E-02  0.8028764E-01
        1   -1    0    0  501    0  0.00000000000E+00  0.00000000000E+00  0.14562331509E+04  0.14562331509E+04  0.50400001928E-02 0.  1.
       -1   -1    0    0    0  501  0.00000000000E+00  0.00000000000E+00 -0.25872643895E+04  0.25872643895E+04  0.50400001928E-02 0. -1.
    10030    2    1    2    0    0  0.00000000000E+00  0.00000000000E+00 -0.11310312386E+04  0.40434975404E+04  0.38820923091E+04 0.  0.
        5    1    3    3  502    0 -0.17670072025E+04  0.74245413157E+03 -0.24602901169E+03  0.19323832321E+04  0.46999998093E+01 0.  1.
       -5    1    3    3    0  502  0.17670072025E+04 -0.74245413157E+03 -0.88500222694E+03  0.21111143083E+04  0.46999998093E+01 0. -1.
</event>
<event>
 5   0  0.8342802E-08  0.3939010E+04  0.7818609E-02  0.8016964E-01
        2   -1    0    0  501    0  0.00000000000E+00  0.00000000000E+00  0.21434248326E+04  0.21434248326E+04  0.25500000920E-02 0. -1.
       -2   -1    0    0    0  501  0.00000000000E+00  0.00000000000E+00 -0.18096975142E+04  0.18096975142E+04  0.25500000920E-02 0.  1.
    10030    2    1    2    0    0  0.00000000000E+00  0.00000000000E+00  0.33372731839E+03  0.39531223467E+04  0.39390103281E+04 0.  0.
        4    1    3    3  502    0 -0.28947086324E+03 -0.17498761592E+04  0.10261373110E+04  0.20491020832E+04  0.12699999809E+01 0.  1.
       -4    1    3    3    0  502  0.28947086324E+03  0.17498761592E+04 -0.69240999262E+03  0.19040202636E+04  0.12699999809E+01 0. -1.
</event>
<event>
 5   0  0.8676098E-08  0.3887075E+04  0.7818609E-02  0.8027723E-01
        2   -1    0    0  501    0  0.00000000000E+00  0.00000000000E+00  0.27408460379E+04  0.27408460379E+04  0.25500000920E-02 0. -1.
       -2   -1    0    0    0  501  0.00000000000E+00  0.00000000000E+00 -0.13781652619E+04  0.13781652619E+04  0.25500000920E-02 0.  1.
    10030    2    1    2    0    0  0.00000000000E+00  0.00000000000E+00  0.13626807760E+04  0.41190112998E+04  0.38870754033E+04 0.  0.
        3    1    3    3  502    0 -0.18074602630E+04  0.71280119427E+03  0.73260734823E+03  0.20764661523E+04  0.10100000352E+00 0. -1.
       -3    1    3    3    0  502  0.18074602630E+04 -0.71280119427E+03  0.63007342776E+03  0.20425451475E+04  0.10100000352E+00 0.  1.
</event>
<event>
 5   0  0.2632875E-08  0.3901334E+04  0.7818609E-02  0.8024752E-01
       -1   -1    0    0    0  501  0.00000000000E+00  0.00000000000E+00  0.21130279544E+04  0.21130279544E+04  0.50400001928E-02 0. -1.
        1   -1    0    0  501    0  0.00000000000E+00  0.00000000000E+00 -0.18007817057E+04  0.18007817057E+04  0.50400001928E-02 0.  1.
    10030    2    1    2    0    0  0.00000000000E+00  0.00000000000E+00  0.31224624875E+03  0.39138096601E+04  0.39013341738E+04 0.  0.
        1    1    3    3  502    0  0.89876021952E+03  0.14758452113E+04 -0.75187506716E+03  0.18844641511E+04  0.50400001928E-02 0.  1.
       -1    1    3    3    0  502 -0.89876021952E+03 -0.14758452113E+04  0.10641213159E+04  0.20293455090E+04  0.50400001928E-02 0. -1.
</event>
<event>
 5   0  0.2632875E-08  0.3910738E+04  0.7818609E-02  0.8022800E-01
       -1   -1    0    0    0  501  0.00000000000E+00  0.00000000000E+00  0.21254684427E+04  0.21254684427E+04  0.50400001928E-02 0.  1.
        1   -1    0    0  501    0  0.00000000000E+00  0.00000000000E+00 -0.17988823374E+04  0.17988823374E+04  0.50400001928E-02 0. -1.
    10030    2    1    2    0    0  0.00000000000E+00  0.00000000000E+00  0.32658610525E+03  0.39243507801E+04  0.39107378538E+04 0.  0.
        2    1    3    3  502    0 -0.10190340971E+04 -0.15901091485E+03 -0.15037399460E+04  0.18234442101E+04  0.25500000920E-02 0. -1.
       -2    1    3    3    0  502  0.10190340971E+04  0.15901091485E+03  0.18303260513E+04  0.21009065700E+04  0.25500000920E-02 0.  1.
</event>
<event>
 5   0  0.2632875E-08  0.3930401E+04  0.7818609E-02  0.8018736E-01
        1   -1    0    0  501    0  0.00000000000E+00  0.00000000000E+00  0.18066865678E+04  0.18066865678E+04  0.50400001928E-02 0.  1.
       -1   -1    0    0    0  501  0.00000000000E+00  0.00000000000E+00 -0.21376221952E+04  0.21376221952E+04  0.50400001928E-02 0. -1.
    10030    2    1    2    0    0  0.00000000000E+00  0.00000000000E+00 -0.33093562743E+03  0.39443087630E+04  0.39304011536E+04 0.  0.
        4    1    3    3  502    0 -0.12174095034E+04  0.15358510222E+04 -0.31119677914E+03  0.19843813418E+04  0.12699999809E+01 0.  1.
       -4    1    3    3    0  502  0.12174095034E+04 -0.15358510222E+04 -0.19738848287E+02  0.19599274212E+04  0.12699999809E+01 0. -1.
</event>
<event>
 5   0  0.2632875E-08  0.3868670E+04  0.7818609E-02  0.8031577E-01
        1   -1    0    0  501    0  0.00000000000E+00  0.00000000000E+00  0.11683805191E+04  0.11683805191E+04  0.50400001928E-02 0. -1.
       -1   -1    0    0    0  501  0.00000000000E+00  0.00000000000E+00 -0.32024260493E+04  0.32024260493E+04  0.50400001928E-02 0.  1.
    10030    2    1    2    0    0  0.00000000000E+00  0.00000000000E+00 -0.20340455302E+04  0.43708065684E+04  0.38686701642E+04 0.  0.
        3    1    3    3  502    0 -0.11053873754E+04 -0.32244711118E+03  0.73900049592E+03  0.13682014225E+04  0.10100000352E+00 0. -1.
       -3    1    3    3    0  502  0.11053873754E+04  0.32244711118E+03 -0.27730460261E+04  0.30026051460E+04  0.10100000352E+00 0.  1.
</event>
<event>
 5   0  0.2632875E-08  0.3873764E+04  0.7818609E-02  0.8030508E-01
       -1   -1    0    0    0  501  0.00000000000E+00  0.00000000000E+00  0.15146986271E+04  0.15146986271E+04  0.50400001928E-02 0.  1.
        1   -1    0    0  501    0  0.00000000000E+00  0.00000000000E+00 -0.24767377951E+04  0.24767377951E+04  0.50400001928E-02 0. -1.
    10030    2    1    2    0    0  0.00000000000E+00  0.00000000000E+00 -0.96203916798E+03  0.39914364222E+04  0.38737637191E+04 0.  0.
        1    1    3    3  502    0 -0.17004329756E+04 -0.25082300752E+03 -0.14009602309E+04  0.22174476440E+04  0.50400001928E-02 0. -1.
       -1    1    3    3    0  502  0.17004329756E+04  0.25082300752E+03  0.43892106294E+03  0.17739887781E+04  0.50400001928E-02 0.  1.
</event>
<event>
 5   0  0.8342802E-08  0.3885450E+04  0.7818609E-02  0.8028062E-01
        2   -1    0    0  501    0  0.00000000000E+00  0.00000000000E+00  0.26482045054E+04  0.26482045054E+04  0.25500000920E-02 0.  1.
       -2   -1    0    0    0  501  0.00000000000E+00  0.00000000000E+00 -0.14251843549E+04  0.14251843549E+04  0.25500000920E-02 0. -1.
    10030    2    1    2    0    0  0.00000000000E+00  0.00000000000E+00  0.12230201505E+04  0.40733888604E+04  0.38854495903E+04 0.  0.
        4    1    3    3  502    0 -0.10055881772E+04  0.15454597690E+04  0.12530958564E+04  0.22293282212E+04  0.12699999809E+01 0.  1.
       -4    1    3    3    0  502  0.10055881772E+04 -0.15454597690E+04 -0.30075705879E+02  0.18440606391E+04  0.12699999809E+01 0. -1.
</event>
<event>
 5   0  0.8342802E-08  0.3938589E+04  0.7818609E-02  0.8017051E-01
       -2   -1    0    0    0  501  0.00000000000E+00  0.00000000000E+00  0.35300184467E+04  0.35300184467E+04  0.25500000920E-02 0.  1.
        2   -1    0    0  501    0  0.00000000000E+00  0.00000000000E+00 -0.10986122021E+04  0.10986122021E+04  0.25500000920E-02 0. -1.
    10030    2    1    2    0    0  0.00000000000E+00  0.00000000000E+00  0.24314062446E+04  0.46286306489E+04  0.39385892598E+04 0.  0.
        4    1    3    3  502    0  0.19506288126E+04 -0.47074994602E+02  0.15287366164E+04  0.24787509103E+04  0.12699999809E+01 0.  1.
       -4    1    3    3    0  502 -0.19506288126E+04  0.47074994602E+02  0.90266962816E+03  0.21498797386E+04  0.12699999809E+01 0. -1.
</event>
<event>
 5   0  0.2632875E-08  0.3907554E+04  0.7818609E-02  0.8023460E-01
       -1   -1    0    0    0  501  0.00000000000E+00  0.00000000000E+00  0.25663544062E+04  0.25663544062E+04  0.50400001928E-02 0.  1.
        1   -1    0    0  501    0  0.00000000000E+00  0.00000000000E+00 -0.14874189791E+04  0.14874189791E+04  0.50400001928E-02 0. -1.
    10030    2    1    2    0    0  0.00000000000E+00  0.00000000000E+00  0.10789354271E+04  0.40537733853E+04  0.39075538388E+04 0.  0.
        3    1    3    3  502    0 -0.12815721731E+04  0.12938791085E+04 -0.19460761578E+03  0.18315082628E+04  0.10100000352E+00 0. -1.
       -3    1    3    3    0  502  0.12815721731E+04 -0.12938791085E+04  0.12735430429E+04  0.22222651225E+04  0.10100000352E+00 0.  1.
</event>
<event>
 5   0  0.2632875E-08  0.3885874E+04  0.7818609E-02  0.8027973E-01
        1   -1    0    0  501    0  0.00000000000E+00  0.00000000000E+00  0.21219452139E+04  0.21219452139E+04  0.50400001928E-02 0.  1.
       -1   -1    0    0    0  501  0.00000000000E+00  0.00000000000E+00 -0.17790303510E+04  0.17790303510E+04  0.50400001928E-02 0. -1.
    10030    2    1    2    0    0  0.00000000000E+00  0.00000000000E+00  0.34291486297E+03  0.39009755649E+04  0.38858743874E+04 0.  0.
        4    1    3    3  502    0  0.15583217215E+03  0.12491509940E+04 -0.13142742475E+04  0.18198846893E+04  0.12699999809E+01 0. -1.
       -4    1    3    3    0  502 -0.15583217215E+03 -0.12491509940E+04  0.16571891105E+04  0.20810908756E+04  0.12699999809E+01 0.  1.
</event>
<event>
 5   0  0.8342802E-08  0.3884887E+04  0.7818609E-02  0.8028180E-01
       -2   -1    0    0    0  501  0.00000000000E+00  0.00000000000E+00  0.24559182330E+04  0.24559182330E+04  0.25500000920E-02 0.  1.
        2   -1    0    0  501    0  0.00000000000E+00  0.00000000000E+00 -0.15363239905E+04  0.15363239905E+04  0.25500000920E-02 0. -1.
    10030    2    1    2    0    0  0.00000000000E+00  0.00000000000E+00  0.91959424247E+03  0.39922422235E+04  0.38848866651E+04 0.  0.
        4    1    3    3  502    0  0.19156978772E+03 -0.11873992983E+04  0.20272233506E+04  0.23571703806E+04  0.12699999809E+01 0.  1.
       -4    1    3    3    0  502 -0.19156978772E+03  0.11873992983E+04 -0.11076291081E+04  0.16350718429E+04  0.12699999809E+01 0. -1.
</event>
<event>
 5   0  0.8342802E-08  0.3908699E+04  0.7818609E-02  0.8023222E-01
       -2   -1    0    0    0  501  0.00000000000E+00  0.00000000000E+00  0.12326689451E+04  0.12326689451E+04  0.25500000920E-02 0.  1.
        2   -1    0    0  501    0  0.00000000000E+00  0.00000000000E+00 -0.30985460779E+04  0.30985460779E+04  0.25500000920E-02 0. -1.
    10030    2    1    2    0    0  0.00000000000E+00  0.00000000000E+00 -0.18658771329E+04  0.43312150230E+04  0.39086987733E+04 0.  0.
        4    1    3    3  502    0  0.22589879541E+03 -0.37408888618E+03  0.11778344517E+04  0.12562915144E+04  0.12699999809E+01 0.  1.
       -4    1    3    3    0  502 -0.22589879541E+03  0.37408888618E+03 -0.30437115846E+04  0.30749235086E+04  0.12699999809E+01 0. -1.
</event>
<event>
 5   0  0.8438211E-08  0.3889470E+04  0.7818609E-02  0.8027223E-01
       -2   -1    0    0    0  501  0.00000000000E+00  0.00000000000E+00  0.20122184533E+04  0.20122184533E+04  0.25500000920E-02 0. -1.
        2   -1    0    0  501    0  0.00000000000E+00  0.00000000000E+00 -0.18795147579E+04  0.18795147579E+04  0.25500000920E-02 0.  1.
    10030    2    1    2    0    0  0.00000000000E+00  0.00000000000E+00  0.13270369537E+03  0.38917332112E+04  0.38894700303E+04 0.  0.
        5    1    3    3  502    0 -0.42880107413E+03  0.93629799792E+03 -0.15842892057E+04  0.18895816149E+04  0.46999998093E+01 0.  1.
       -5    1    3    3    0  502  0.42880107413E+03 -0.93629799792E+03  0.17169929011E+04  0.20021515963E+04  0.46999998093E+01 0. -1.
</event>
<event>
 5   0  0.8551754E-08  0.3910074E+04  0.7818609E-02  0.8022937E-01
       -2   -1    0    0    0  501  0.00000000000E+00  0.00000000000E+00  0.16895797682E+04  0.16895797682E+04  0.25500000920E-02 0. -1.
        2   -1    0    0  501    0  0.00000000000E+00  0.00000000000E+00 -0.22622018198E+04  0.22622018198E+04  0.25500000920E-02 0.  1.
    10030    2    1    2    0    0  0.00000000000E+00  0.00000000000E+00 -0.57262205156E+03  0.39517815880E+04  0.39100743862E+04 0.  0.
        1    1    3    3  502    0 -0.12630896470E+04 -0.90890303735E+03 -0.14824340889E+04  0.21492117195E+04  0.50400001928E-02 0.  1.
       -1    1    3    3    0  502  0.12630896470E+04  0.90890303735E+03  0.90981203729E+03  0.18025698685E+04  0.50400001928E-02 0. -1.
</event>
<event>
 5   0  0.8438211E-08  0.3747455E+04  0.7818609E-02  0.8057526E-01
       -2   -1    0    0    0  501  0.00000000000E+00  0.00000000000E+00  0.20364380763E+04  0.20364380763E+04  0.25500000920E-02 0.  1.
        2   -1    0    0  501    0  0.00000000000E+00  0.00000000000E+00 -0.17240173580E+04  0.17240173580E+04  0.25500000920E-02 0. -1.
    10030    2    1    2    0    0  0.00000000000E+00  0.00000000000E+00  0.31242071834E+03  0.37604554343E+04  0.37474549187E+04 0.  0.
        5    1    3    3  502    0  0.72644794060E+02 -0.40410609038E+03 -0.16783150135E+04  0.17278143340E+04  0.46999998093E+01 0. -1.
       -5    1    3    3    0  502 -0.72644794060E+02  0.40410609038E+03  0.19907357318E+04  0.20326411002E+04  0.46999998093E+01 0.  1.
</event>
<event>
 5   0  0.2632875E-08  0.3895054E+04  0.7818609E-02  0.8026059E-01
       -1   -1    0    0    0  501  0.00000000000E+00  0.00000000000E+00  0.15049929057E+04  0.15049929057E+04  0.50400001928E-02 0. -1.
        1   -1    0    0  501    0  0.00000000000E+00  0.00000000000E+00 -0.25201860789E+04  0.25201860789E+04  0.50400001928E-02 0.  1.
    10030    2    1    2    0    0  0.00000000000E+00  0.00000000000E+00 -0.10151931732E+04  0.40251789845E+04  0.38950543871E+04 0.  0.
        2    1    3    3  502    0  0.12117774808E+03  0.10368257230E+00  0.15010932598E+04  0.15059764381E+04  0.25500000920E-02 0. -1.
       -2    1    3    3    0  502 -0.12117774808E+03 -0.10368257230E+00 -0.25162864330E+04  0.25192025465E+04  0.25500000920E-02 0.  1.
</event>
<event>
 5   0  0.8438211E-08  0.3899752E+04  0.7818609E-02  0.8025081E-01
        2   -1    0    0  501    0  0.00000000000E+00  0.00000000000E+00  0.17059753861E+04  0.17059753861E+04  0.25500000920E-02 0.  1.
       -2   -1    0    0    0  501  0.00000000000E+00  0.00000000000E+00 -0.22286463485E+04  0.22286463485E+04  0.25500000920E-02 0. -1.
    10030    2    1    2    0    0  0.00000000000E+00  0.00000000000E+00 -0.52267096230E+03  0.39346217346E+04  0.38997516920E+04 0.  0.
        5    1    3    3  502    0  0.21344692442E+03  0.17944836011E+04 -0.10001830408E+04  0.20654585905E+04  0.46999998093E+01 0. -1.
       -5    1    3    3    0  502 -0.21344692442E+03 -0.17944836011E+04  0.47751207847E+03  0.18691631441E+04  0.46999998093E+01 0.  1.
</event>
<event>
 5   0  0.2632875E-08  0.3897463E+04  0.7818609E-02  0.8025557E-01
       -1   -1    0    0    0  501  0.00000000000E+00  0.00000000000E+00  0.25062825856E+04  0.25062825856E+04  0.50400001928E-02 0.  1.
        1   -1    0    0  501    0  0.00000000000E+00  0.00000000000E+00 -0.15152139037E+04  0.15152139037E+04  0.50400001928E-02 0. -1.
    10030    2    1    2    0    0  0.00000000000E+00  0.00000000000E+00  0.99106868186E+03  0.40214964893E+04  0.38974628775E+04 0.  0.
        3    1    3    3  502    0  0.13924346160E+04  0.10026256441E+04 -0.45767346479E+03  0.17758370851E+04  0.10100000352E+00 0. -1.
       -3    1    3    3    0  502 -0.13924346160E+04 -0.10026256441E+04  0.14487421467E+04  0.22456594042E+04  0.10100000352E+00 0.  1.
</event>
<event>
 5   0  0.2632875E-08  0.3879192E+04  0.7818609E-02  0.8029371E-01
       -1   -1    0    0    0  501  0.00000000000E+00  0.00000000000E+00  0.25495385014E+04  0.25495385014E+04  0.50400001928E-02 0. -1.
        1   -1    0    0  501    0  0.00000000000E+00  0.00000000000E+00 -0.14755735967E+04  0.14755735967E+04  0.50400001928E-02 0.  1.
    10030    2    1    2    0    0  0.00000000000E+00  0.00000000000E+00  0.10739649047E+04  0.40251120980E+04  0.38791915118E+04 0.  0.
        4    1    3    3  502    0 -0.10964971736E+04 -0.82530905435E+03 -0.88519125774E+03  0.16330971381E+04  0.12699999809E+01 0.  1.
       -4    1    3    3    0  502  0.10964971736E+04  0.82530905435E+03  0.19591561624E+04  0.23920149599E+04  0.12699999809E+01 0. -1.
</event>
<event>
 5   0  0.2632875E-08  0.3891615E+04  0.7818609E-02  0.8026775E-01
        1   -1    0    0  501    0  0.00000000000E+00  0.00000000000E+00  0.25834587309E+04  0.25834587309E+04  0.50400001928E-02 0. -1.
       -1   -1    0    0    0  501  0.00000000000E+00  0.00000000000E+00 -0.14655420788E+04  0.14655420788E+04  0.50400001928E-02 0.  1.
    10030    2    1    2    0    0  0.00000000000E+00  0.00000000000E+00  0.11179166522E+04  0.40490008097E+04  0.38916153350E+04 0.  0.
        5    1    3    3  502    0 -0.24093975820E+02 -0.20499871846E+03 -0.14541132622E+04  0.14686975398E+04  0.46999998093E+01 0.  1.
       -5    1    3    3    0  502  0.24093975820E+02  0.20499871846E+03  0.25720299143E+04  0.25803032699E+04  0.46999998093E+01 0. -1.
</event>
<event>
 5   0  0.2632875E-08  0.3883665E+04  0.7818609E-02  0.8028435E-01
        1   -1    0    0  501    0  0.00000000000E+00  0.00000000000E+00  0.18343149337E+04  0.18343149337E+04  0.50400001928E-02 0. -1.
       -1   -1    0    0    0  501  0.00000000000E+00  0.00000000000E+00 -0.20556520591E+04  0.20556520592E+04  0.50400001928E-02 0.  1.
    10030    2    1    2    0    0  0.00000000000E+00  0.00000000000E+00 -0.22133712544E+03  0.38899669929E+04  0.38836649035E+04 0.  0.
        3    1    3    3  502    0  0.97352755896E+03  0.11886975789E+04  0.10786737128E+04  0.18773105314E+04  0.10100000352E+00 0. -1.
       -3    1    3    3    0  502 -0.97352755896E+03 -0.11886975789E+04 -0.13000108383E+04  0.20126564615E+04  0.10100000352E+00 0.  1.
</event>
<event>
 5   0  0.8476262E-08  0.3825265E+04  0.7818609E-02  0.8040755E-01
       -2   -1    0    0    0  501  0.00000000000E+00  0.00000000000E+00  0.22730691858E+04  0.22730691858E+04  0.25500000920E-02 0. -1.
        2   -1    0    0  501    0  0.00000000000E+00  0.00000000000E+00 -0.16093493946E+04  0.16093493946E+04  0.25500000920E-02 0.  1.
    10030    2    1    2    0    0  0.00000000000E+00  0.00000000000E+00  0.66371979117E+03  0.38824185803E+04  0.38252647061E+04 0.  0.
        2    1    3    3  502    0  0.61013214494E+03 -0.31120679343E+03  0.21443332787E+04  0.22510611082E+04  0.25500000920E-02 0. -1.
       -2    1    3    3    0  502 -0.61013214494E+03  0.31120679343E+03 -0.14806134875E+04  0.16313574722E+04  0.25500000920E-02 0.  1.
</event>
<event>
 5   0  0.2632875E-08  0.3901044E+04  0.7818609E-02  0.8024812E-01
        1   -1    0    0  501    0  0.00000000000E+00  0.00000000000E+00  0.23711278396E+04  0.23711278396E+04  0.50400001928E-02 0. -1.
       -1   -1    0    0    0  501  0.00000000000E+00  0.00000000000E+00 -0.16045259183E+04  0.16045259183E+04  0.50400001928E-02 0.  1.
    10030    2    1    2    0    0  0.00000000000E+00  0.00000000000E+00  0.76660192127E+03  0.39756537579E+04  0.39010440009E+04 0.  0.
        5    1    3    3  502    0  0.66922441703E+03 -0.16999009487E+04  0.10797369890E+04  0.21221165404E+04  0.46999998093E+01 0. -1.
       -5    1    3    3    0  502 -0.66922441703E+03  0.16999009487E+04 -0.31313506769E+03  0.18535372175E+04  0.46999998093E+01 0.  1.
</event>
<event>
 5   0  0.2632875E-08  0.3894666E+04  0.7818609E-02  0.8026140E-01
       -1   -1    0    0    0  501  0.00000000000E+00  0.00000000000E+00  0.21398297334E+04  0.21398297334E+04  0.50400001928E-02 0. -1.
        1   -1    0    0  501    0  0.00000000000E+00  0.00000000000E+00 -0.17721527756E+04  0.17721527756E+04  0.50400001928E-02 0.  1.
    10030    2    1    2    0    0  0.00000000000E+00  0.00000000000E+00  0.36767695786E+03  0.39119825090E+04  0.38946656860E+04 0.  0.
        2    1    3    3  502    0  0.10579758135E+04  0.15393208099E+04  0.73699921206E+03  0.20079813785E+04  0.25500000920E-02 0. -1.
       -2    1    3    3    0  502 -0.10579758135E+04 -0.15393208099E+04 -0.36932225420E+03  0.19040011305E+04  0.25500000920E-02 0.  1.
</event>
<event>
 5   0  0.2632875E-08  0.3902890E+04  0.7818609E-02  0.8024428E-01
       -1   -1    0    0    0  501  0.00000000000E+00  0.00000000000E+00  0.28524754595E+04  0.28524754595E+04  0.50400001928E-02 0.  1.
        1   -1    0    0  501    0  0.00000000000E+00  0.00000000000E+00 -0.13350290334E+04  0.13350290334E+04  0.50400001928E-02 0. -1.
    10030    2    1    2    0    0  0.00000000000E+00  0.00000000000E+00  0.15174464261E+04  0.41875044929E+04  0.39028899834E+04 0.  0.
        3    1    3    3  502    0 -0.17003909501E+04 -0.91631269427E+03  0.46065261658E+03  0.19857389507E+04  0.10100000352E+00 0. -1.
       -3    1    3    3    0  502  0.17003909501E+04  0.91631269427E+03  0.10567938095E+04  0.22017655422E+04  0.10100000352E+00 0.  1.
</event>
<event>
 5   0  0.8551754E-08  0.3948810E+04  0.7818609E-02  0.8014953E-01
        2   -1    0    0  501    0  0.00000000000E+00  0.00000000000E+00  0.29074371485E+04  0.29074371485E+04  0.25500000920E-02 0.  1.
       -2   -1    0    0    0  501  0.00000000000E+00  0.00000000000E+00 -0.13407946191E+04  0.13407946191E+04  0.25500000920E-02 0. -1.
    10030    2    1    2    0    0  0.00000000000E+00  0.00000000000E+00  0.15666425294E+04  0.42482317676E+04  0.39488104964E+04 0.  0.
        1    1    3    3  502    0 -0.19535343197E+04 -0.37172876167E+02  0.47789679004E+03  0.20114829114E+04  0.50400001928E-02 0.  1.
       -1    1    3    3    0  502  0.19535343197E+04  0.37172876167E+02  0.10887457393E+04  0.22367488562E+04  0.50400001928E-02 0. -1.
</event>
<event>
 5   0  0.8476262E-08  0.3907712E+04  0.7818609E-02  0.8023427E-01
       -2   -1    0    0    0  501  0.00000000000E+00  0.00000000000E+00  0.15945838011E+04  0.15945838011E+04  0.25500000920E-02 0. -1.
        2   -1    0    0  501    0  0.00000000000E+00  0.00000000000E+00 -0.23940748898E+04  0.23940748898E+04  0.25500000920E-02 0.  1.
    10030    2    1    2    0    0  0.00000000000E+00  0.00000000000E+00 -0.79949108869E+03  0.39886586909E+04  0.39077118818E+04 0.  0.
        2    1    3    3  502    0  0.13313957260E+04  0.13832202113E+04 -0.77008397433E+03  0.20685603834E+04  0.25500000920E-02 0. -1.
       -2    1    3    3    0  502 -0.13313957260E+04 -0.13832202113E+04 -0.29407114361E+02  0.19200983075E+04  0.25500000920E-02 0.  1.
</event>
<event>
 5   0  0.2632875E-08  0.3907636E+04  0.7818609E-02  0.8023443E-01
        1   -1    0    0  501    0  0.00000000000E+00  0.00000000000E+00  0.13465262751E+04  0.13465262751E+04  0.50400001928E-02 0. -1.
       -1   -1    0    0    0  501  0.00000000000E+00  0.00000000000E+00 -0.28350016732E+04  0.28350016732E+04  0.50400001928E-02 0.  1.
    10030    2    1    2    0    0  0.00000000000E+00  0.00000000000E+00 -0.14884753981E+04  0.41815279483E+04  0.39076357265E+04 0.  0.
        5    1    3    3  502    0 -0.78584432576E+02 -0.17691193324E+04  0.13910548541E+03  0.17763251818E+04  0.46999998093E+01 0. -1.
       -5    1    3    3    0  502  0.78584432576E+02  0.17691193324E+04 -0.16275808835E+04  0.24052027665E+04  0.46999998093E+01 0.  1.
</event>
<event>
 5   0  0.8551754E-08  0.3894625E+04  0.7818609E-02  0.8026148E-01
       -2   -1    0    0    0  501  0.00000000000E+00  0.00000000000E+00  0.17018211475E+04  0.17018211475E+04  0.25500000920E-02 0. -1.
        2   -1    0    0  501    0  0.00000000000E+00  0.00000000000E+00 -0.22282159475E+04  0.22282159475E+04  0.25500000920E-02 0.  1.
    10030    2    1    2    0    0  0.00000000000E+00  0.00000000000E+00 -0.52639480005E+03  0.39300370950E+04  0.38946245112E+04 0.  0.
        1    1    3    3  502    0  0.57746426846E+03 -0.95851920720E+01  0.16134079405E+04  0.17136633391E+04  0.50400001928E-02 0. -1.
       -1    1    3    3    0  502 -0.57746426846E+03  0.95851920720E+01 -0.21398027406E+04  0.22163737559E+04  0.50400001928E-02 0.  1.
</event>
<event>
 5   0  0.2632875E-08  0.3871518E+04  0.7818609E-02  0.8030979E-01
        1   -1    0    0  501    0  0.00000000000E+00  0.00000000000E+00  0.30454554884E+04  0.30454554884E+04  0.50400001928E-02 0. -1.
       -1   -1    0    0    0  501  0.00000000000E+00  0.00000000000E+00 -0.12304114346E+04  0.12304114346E+04  0.50400001928E-02 0.  1.
    10030    2    1    2    0    0  0.00000000000E+00  0.00000000000E+00  0.18150440538E+04  0.42758669230E+04  0.38715181811E+04 0.  0.
        1    1    3    3  502    0  0.16645669322E+04 -0.63079722115E+03  0.17475334531E+04  0.24945062389E+04  0.50400001928E-02 0. -1.
       -1    1    3    3    0  502 -0.16645669322E+04  0.63079722115E+03  0.67510600683E+02  0.17813606842E+04  0.50400001928E-02 0.  1.
</event>
<event>
 5   0  0.2632875E-08  0.3893255E+04  0.7818609E-02  0.8026434E-01
        1   -1    0    0  501    0  0.00000000000E+00  0.00000000000E+00  0.11814951981E+04  0.11814951981E+04  0.50400001928E-02 0. -1.
       -1   -1    0    0    0  501  0.00000000000E+00  0.00000000000E+00 -0.32072568584E+04  0.32072568584E+04  0.50400001928E-02 0.  1.
    10030    2    1    2    0    0  0.00000000000E+00  0.00000000000E+00 -0.20257616604E+04  0.43887520565E+04  0.38932549761E+04 0.  0.
        3    1    3    3  502    0  0.51348605989E+02 -0.10036491932E+04 -0.28922172104E+04  0.30618407510E+04  0.10100000352E+00 0.  1.
       -3    1    3    3    0  502 -0.51348605989E+02  0.10036491932E+04  0.86645555001E+03  0.13269113055E+04  0.10100000352E+00 0. -1.
</event>
<event>
 5   0  0.8342802E-08  0.3877487E+04  0.7818609E-02  0.8029728E-01
        2   -1    0    0  501    0  0.00000000000E+00  0.00000000000E+00  0.17229691430E+04  0.17229691430E+04  0.25500000920E-02 0. -1.
       -2   -1    0    0    0  501  0.00000000000E+00  0.00000000000E+00 -0.21815398681E+04  0.21815398681E+04  0.25500000920E-02 0.  1.
    10030    2    1    2    0    0  0.00000000000E+00  0.00000000000E+00 -0.45857072511E+03  0.39045090111E+04  0.38774867514E+04 0.  0.
        4    1    3    3  502    0 -0.12509641599E+04 -0.12229046357E+03  0.12570970855E+04  0.17776841626E+04  0.12699999809E+01 0. -1.
       -4    1    3    3    0  502  0.12509641599E+04  0.12229046357E+03 -0.17156678106E+04  0.21268248484E+04  0.12699999809E+01 0.  1.
</event>
<event>
 5   0  0.2632875E-08  0.3920794E+04  0.7818609E-02  0.8020718E-01
        1   -1    0    0  501    0  0.00000000000E+00  0.00000000000E+00  0.20367037820E+04  0.20367037820E+04  0.50400001928E-02 0.  1.
       -1   -1    0    0    0  501  0.00000000000E+00  0.00000000000E+00 -0.18869490274E+04  0.18869490274E+04  0.50400001928E-02 0. -1.
    10030    2    1    2    0    0  0.00000000000E+00  0.00000000000E+00  0.14975475459E+03  0.39236528095E+04  0.39207939098E+04 0.  0.
        2    1    3    3  502    0  0.23502592523E+03 -0.56209646053E+03  0.19395574337E+04  0.20329959801E+04  0.25500000920E-02 0.  1.
       -2    1    3    3    0  502 -0.23502592523E+03  0.56209646053E+03 -0.17898026791E+04  0.18906568294E+04  0.25500000920E-02 0. -1.
</event>
<event>
 5   0  0.8551754E-08  0.3872697E+04  0.7818609E-02  0.8030732E-01
        2   -1    0    0  501    0  0.00000000000E+00  0.00000000000E+00  0.25326324047E+04  0.25326324047E+04  0.25500000920E-02 0.  1.
       -2   -1    0    0    0  501  0.00000000000E+00  0.00000000000E+00 -0.14804537920E+04  0.14804537920E+04  0.25500000920E-02 0. -1.
    10030    2    1    2    0    0  0.00000000000E+00  0.00000000000E+00  0.10521786127E+04  0.40130861967E+04  0.38726968625E+04 0.  0.
        1    1    3    3  502    0 -0.12548197537E+03  0.14516861200E+03 -0.14705773321E+04  0.14830432704E+04  0.50400001928E-02 0. -1.
       -1    1    3    3    0  502  0.12548197537E+03 -0.14516861200E+03  0.25227559448E+04  0.25300429263E+04  0.50400001928E-02 0.  1.
</event>
<event>
 5   0  0.8438211E-08  0.3917426E+04  0.7818609E-02  0.8021415E-01
        2   -1    0    0  501    0  0.00000000000E+00  0.00000000000E+00  0.12864931378E+04  0.12864931378E+04  0.25500000920E-02 0. -1.
       -2   -1    0    0    0  501  0.00000000000E+00  0.00000000000E+00 -0.29821812869E+04  0.29821812869E+04  0.25500000920E-02 0.  1.
    10030    2    1    2    0    0  0.00000000000E+00  0.00000000000E+00 -0.16956881490E+04  0.42686744247E+04  0.39174255634E+04 0.  0.
        5    1    3    3  502    0  0.53104147692E+03 -0.15946579360E+04  0.24811805901E+03  0.16989772348E+04  0.46999998093E+01 0.  1.
       -5    1    3    3    0  502 -0.53104147692E+03  0.15946579360E+04 -0.19438062081E+04  0.25696971899E+04  0.46999998093E+01 0. -1.
</event>
<event>
 5   0  0.8342802E-08  0.3909269E+04  0.7818609E-02  0.8023104E-01
        2   -1    0    0  501    0  0.00000000000E+00  0.00000000000E+00  0.21741767457E+04  0.21741767457E+04  0.25500000920E-02 0.  1.
       -2   -1    0    0    0  501  0.00000000000E+00  0.00000000000E+00 -0.17572609826E+04  0.17572609826E+04  0.25500000920E-02 0. -1.
    10030    2    1    2    0    0  0.00000000000E+00  0.00000000000E+00  0.41691576311E+03  0.39314377283E+04  0.39092689673E+04 0.  0.
        4    1    3    3  502    0  0.47930464198E+03 -0.16502779513E+04 -0.72819052079E+03  0.18663904479E+04  0.12699999809E+01 0.  1.
       -4    1    3    3    0  502 -0.47930464198E+03  0.16502779513E+04  0.11451062839E+04  0.20650472805E+04  0.12699999809E+01 0. -1.
</event>
<event>
 5   0  0.2632875E-08  0.3908079E+04  0.7818609E-02  0.8023351E-01
       -1   -1    0    0    0  501  0.00000000000E+00  0.00000000000E+00  0.14177755382E+04  0.14177755382E+04  0.50400001928E-02 0.  1.
        1   -1    0    0  501    0  0.00000000000E+00  0.00000000000E+00 -0.26931420018E+04  0.26931420018E+04  0.50400001928E-02 0. -1.
    10030    2    1    2    0    0  0.00000000000E+00  0.00000000000E+00 -0.12753664635E+04  0.41109175400E+04  0.39080792475E+04 0.  0.
        3    1    3    3  502    0  0.11004664634E+04  0.15129277014E+04 -0.12311409038E+04  0.22395724150E+04  0.10100000352E+00 0. -1.
       -3    1    3    3    0  502 -0.11004664634E+04 -0.15129277014E+04 -0.44225559735E+02  0.18713451250E+04  0.10100000352E+00 0.  1.
</event>
<event>
 5   0  0.2632875E-08  0.3989849E+04  0.7818609E-02  0.8006597E-01
        1   -1    0    0  501    0  0.00000000000E+00  0.00000000000E+00  0.23532211043E+04  0.23532211043E+04  0.50400001928E-02 0. -1.
       -1   -1    0    0    0  501  0.00000000000E+00  0.00000000000E+00 -0.16911817185E+04  0.16911817185E+04  0.50400001928E-02 0.  1.
    10030    2    1    2    0    0  0.00000000000E+00  0.00000000000E+00  0.66203938585E+03  0.40444028228E+04  0.39898493762E+04 0.  0.
        3    1    3    3  502    0  0.81480742871E+03 -0.13392998123E+04 -0.91957902856E+03  0.18174874781E+04  0.10100000352E+00 0.  1.
       -3    1    3    3    0  502 -0.81480742871E+03  0.13392998123E+04  0.15816184144E+04  0.22269153446E+04  0.10100000352E+00 0. -1.
</event>
<event>
 5   0  0.8676098E-08  0.3930906E+04  0.7818609E-02  0.8018632E-01
        2   -1    0    0  501    0  0.00000000000E+00  0.00000000000E+00  0.16498281817E+04  0.16498281817E+04  0.25500000920E-02 0. -1.
       -2   -1    0    0    0  501  0.00000000000E+00  0.00000000000E+00 -0.23414595533E+04  0.23414595533E+04  0.25500000920E-02 0.  1.
    10030    2    1    2    0    0  0.00000000000E+00  0.00000000000E+00 -0.69163137163E+03  0.39912877350E+04  0.39309062351E+04 0.  0.
        3    1    3    3  502    0 -0.92059991053E+03  0.65112328208E+03  0.12887385293E+04  0.17123996995E+04  0.10100000352E+00 0. -1.
       -3    1    3    3    0  502  0.92059991053E+03 -0.65112328208E+03 -0.19803699009E+04  0.22788880355E+04  0.10100000352E+00 0.  1.
</event>
<event>
 5   0  0.8342802E-08  0.3949087E+04  0.7818609E-02  0.8014897E-01
        2   -1    0    0  501    0  0.00000000000E+00  0.00000000000E+00  0.19914194376E+04  0.19914194376E+04  0.25500000920E-02 0. -1.
       -2   -1    0    0    0  501  0.00000000000E+00  0.00000000000E+00 -0.19578109335E+04  0.19578109335E+04  0.25500000920E-02 0.  1.
    10030    2    1    2    0    0  0.00000000000E+00  0.00000000000E+00  0.33608504096E+02  0.39492303711E+04  0.39490873620E+04 0.  0.
        4    1    3    3  502    0  0.49075611348E+03 -0.13379941601E+04  0.13835106861E+04  0.19862460489E+04  0.12699999809E+01 0. -1.
       -4    1    3    3    0  502 -0.49075611348E+03  0.13379941601E+04 -0.13499021820E+04  0.19629843222E+04  0.12699999809E+01 0.  1.
</event>
<event>
 5   0  0.2632875E-08  0.3873216E+04  0.7818609E-02  0.8030623E-01
       -1   -1    0    0    0  501  0.00000000000E+00  0.00000000000E+00  0.27698217460E+04  0.27698217460E+04  0.50400001928E-02 0. -1.
        1   -1    0    0  501    0  0.00000000000E+00  0.00000000000E+00 -0.13540402176E+04  0.13540402176E+04  0.50400001928E-02 0.  1.
    10030    2    1    2    0    0  0.00000000000E+00  0.00000000000E+00  0.14157815284E+04  0.41238619637E+04  0.38732157388E+04 0.  0.
        4    1    3    3  502    0 -0.64530136864E+03  0.64882524789E+03 -0.11093278399E+04  0.14380535205E+04  0.12699999809E+01 0.  1.
       -4    1    3    3    0  502  0.64530136864E+03 -0.64882524789E+03  0.25251093683E+04  0.26858084432E+04  0.12699999809E+01 0. -1.
</event>
<event>
 5   0  0.2632875E-08  0.3939852E+04  0.7818609E-02  0.8016791E-01
        1   -1    0    0  501    0  0.00000000000E+00  0.00000000000E+00  0.27406213906E+04  0.27406213906E+04  0.50400001928E-02 0.  1.
       -1   -1    0    0    0  501  0.00000000000E+00  0.00000000000E+00 -0.14159595058E+04  0.14159595058E+04  0.50400001928E-02 0. -1.
    10030    2    1    2    0    0  0.00000000000E+00  0.00000000000E+00  0.13246618849E+04  0.41565808964E+04  0.39398522357E+04 0.  0.
        1    1    3    3  502    0  0.16620430837E+04 -0.69120971727E+03 -0.18197374001E+03  0.18092187617E+04  0.50400001928E-02 0. -1.
       -1    1    3    3    0  502 -0.16620430837E+04  0.69120971727E+03  0.15066356249E+04  0.23473621348E+04  0.50400001928E-02 0.  1.
</event>
<event>
 5   0  0.2632875E-08  0.3863457E+04  0.7818609E-02  0.8032673E-01
        1   -1    0    0  501    0  0.00000000000E+00  0.00000000000E+00  0.19348343718E+04  0.19348343718E+04  0.50400001928E-02 0. -1.
       -1   -1    0    0    0  501  0.00000000000E+00  0.00000000000E+00 -0.19286276398E+04  0.19286276398E+04  0.50400001928E-02 0.  1.
    10030    2    1    2    0    0  0.00000000000E+00  0.00000000000E+00  0.62067319868E+01  0.38634620116E+04  0.38634570260E+04 0.  0.
        2    1    3    3  502    0  0.98067807083E+01 -0.19173715053E+04 -0.23177006409E+03  0.19313536768E+04  0.25500000920E-02 0. -1.
       -2    1    3    3    0  502 -0.98067807083E+01  0.19173715053E+04  0.23797679608E+03  0.19321083348E+04  0.25500000920E-02 0.  1.
</event>
<event>
 5   0  0.8342802E-08  0.3876504E+04  0.7818609E-02  0.8029934E-01
       -2   -1    0    0    0  501  0.00000000000E+00  0.00000000000E+00  0.24665758282E+04  0.24665758282E+04  0.25500000920E-02 0. -1.
        2   -1    0    0  501    0  0.00000000000E+00  0.00000000000E+00 -0.15230912872E+04  0.15230912872E+04  0.25500000920E-02 0.  1.
    10030    2    1    2    0    0  0.00000000000E+00  0.00000000000E+00  0.94348454096E+03  0.39896671154E+04  0.38765036583E+04 0.  0.
        4    1    3    3  502    0 -0.16145607879E+04  0.97103089764E+02  0.15708997224E+04  0.22547645329E+04  0.12699999809E+01 0. -1.
       -4    1    3    3    0  502  0.16145607879E+04 -0.97103089764E+02 -0.62741518143E+03  0.17349025825E+04  0.12699999809E+01 0.  1.
</event>
<event>
 5   0  0.8342802E-08  0.3904891E+04  0.7818609E-02  0.8024013E-01
       -2   -1    0    0    0  501  0.00000000000E+00  0.00000000000E+00  0.13635531878E+04  0.13635531878E+04  0.25500000920E-02 0.  1.
        2   -1    0    0  501    0  0.00000000000E+00  0.00000000000E+00 -0.27956687846E+04  0.27956687847E+04  0.25500000920E-02 0. -1.
    10030    2    1    2    0    0  0.00000000000E+00  0.00000000000E+00 -0.14321155969E+04  0.41592219724E+04  0.39048908221E+04 0.  0.
        4    1    3    3  502    0 -0.77193406009E+03  0.39001909638E+03 -0.25805077451E+04  0.27215838999E+04  0.12699999809E+01 0. -1.
       -4    1    3    3    0  502  0.77193406009E+03 -0.39001909638E+03  0.11483921482E+04  0.14376380725E+04  0.12699999809E+01 0.  1.
</event>
<event>
 5   0  0.8438211E-08  0.3988074E+04  0.7818609E-02  0.8006957E-01
       -2   -1    0    0    0  501  0.00000000000E+00  0.00000000000E+00  0.21198365443E+04  0.21198365443E+04  0.25500000920E-02 0.  1.
        2   -1    0    0  501    0  0.00000000000E+00  0.00000000000E+00 -0.18757025217E+04  0.18757025217E+04  0.25500000920E-02 0. -1.
    10030    2    1    2    0    0  0.00000000000E+00  0.00000000000E+00  0.24413402255E+03  0.39955390660E+04  0.39880735960E+04 0.  0.
        5    1    3    3  502    0  0.86151966328E+03 -0.12500244369E+04 -0.11731730377E+04  0.19186282312E+04  0.46999998093E+01 0. -1.
       -5    1    3    3    0  502 -0.86151966328E+03  0.12500244369E+04  0.14173070602E+04  0.20769108349E+04  0.46999998093E+01 0.  1.
</event>
<event>
 5   0  0.2632875E-08  0.3921886E+04  0.7818609E-02  0.8020493E-01
       -1   -1    0    0    0  501  0.00000000000E+00  0.00000000000E+00  0.24819973952E+04  0.24819973952E+04  0.50400001928E-02 0.  1.
        1   -1    0    0  501    0  0.00000000000E+00  0.00000000000E+00 -0.15492752864E+04  0.15492752865E+04  0.50400001928E-02 0. -1.
    10030    2    1    2    0    0  0.00000000000E+00  0.00000000000E+00  0.93272210877E+03  0.40312726817E+04  0.39218858859E+04 0.  0.
        5    1    3    3  502    0 -0.18117963896E+04  0.34046891803E+03  0.11533969870E+04  0.21745969606E+04  0.46999998093E+01 0.  1.
       -5    1    3    3    0  502  0.18117963896E+04 -0.34046891803E+03 -0.22067487827E+03  0.18566757211E+04  0.46999998093E+01 0. -1.
</event>
<event>
 5   0  0.2632875E-08  0.3913357E+04  0.7818609E-02  0.8022257E-01
        1   -1    0    0  501    0  0.00000000000E+00  0.00000000000E+00  0.15843144183E+04  0.15843144183E+04  0.50400001928E-02 0. -1.
       -1   -1    0    0    0  501  0.00000000000E+00  0.00000000000E+00 -0.24165603514E+04  0.24165603514E+04  0.50400001928E-02 0.  1.
    10030    2    1    2    0    0  0.00000000000E+00  0.00000000000E+00 -0.83224593311E+03  0.40008747698E+04  0.39133573348E+04 0.  0.
        2    1    3    3  502    0  0.19444724715E+02  0.16356140717E+04 -0.15139055181E+04  0.22287937111E+04  0.25500000920E-02 0.  1.
       -2    1    3    3    0  502 -0.19444724715E+02 -0.16356140717E+04  0.68165958498E+03  0.17720810587E+04  0.25500000920E-02 0. -1.
</event>
<event>
 5   0  0.8551754E-08  0.3888132E+04  0.7818609E-02  0.8027502E-01
       -2   -1    0    0    0  501  0.00000000000E+00  0.00000000000E+00  0.14636011363E+04  0.14636011363E+04  0.25500000920E-02 0. -1.
        2   -1    0    0  501    0  0.00000000000E+00  0.00000000000E+00 -0.25822562326E+04  0.25822562326E+04  0.25500000920E-02 0.  1.
    10030    2    1    2    0    0  0.00000000000E+00  0.00000000000E+00 -0.11186550963E+04  0.40458573689E+04  0.38881322797E+04 0.  0.
        1    1    3    3  502    0  0.72109946309E+03 -0.61435748510E+03  0.12071760875E+04  0.15345011116E+04  0.50400001928E-02 0. -1.
       -1    1    3    3    0  502 -0.72109946309E+03  0.61435748510E+03 -0.23258311839E+04  0.25113562573E+04  0.50400001928E-02 0.  1.
</event>
<event>
 5   0  0.2632875E-08  0.3905809E+04  0.7818609E-02  0.8023822E-01
        1   -1    0    0  501    0  0.00000000000E+00  0.00000000000E+00  0.22829157868E+04  0.22829157868E+04  0.50400001928E-02 0.  1.
       -1   -1    0    0    0  501  0.00000000000E+00  0.00000000000E+00 -0.16705983370E+04  0.16705983370E+04  0.50400001928E-02 0. -1.
    10030    2    1    2    0    0  0.00000000000E+00  0.00000000000E+00  0.61231744985E+03  0.39535141238E+04  0.39058086573E+04 0.  0.
        4    1    3    3  502    0  0.15299060992E+04  0.38699850739E+01 -0.92242307796E+03  0.17864751879E+04  0.12699999809E+01 0. -1.
       -4    1    3    3    0  502 -0.15299060992E+04 -0.38699850739E+01  0.15347405278E+04  0.21670389359E+04  0.12699999809E+01 0.  1.
</event>
<event>
 5   0  0.8342802E-08  0.3898966E+04  0.7818609E-02  0.8025244E-01
       -2   -1    0    0    0  501  0.00000000000E+00  0.00000000000E+00  0.13496540628E+04  0.13496540628E+04  0.25500000920E-02 0. -1.
        2   -1    0    0  501    0  0.00000000000E+00  0.00000000000E+00 -0.28158950145E+04  0.28158950145E+04  0.25500000920E-02 0.  1.
    10030    2    1    2    0    0  0.00000000000E+00  0.00000000000E+00 -0.14662409517E+04  0.41655490773E+04  0.38989660920E+04 0.  0.
        4    1    3    3  502    0  0.35117104850E+03 -0.13663511749E+03 -0.27766168353E+04  0.28020694002E+04  0.12699999809E+01 0.  1.
       -4    1    3    3    0  502 -0.35117104850E+03  0.13663511749E+03  0.13103758836E+04  0.13634796771E+04  0.12699999809E+01 0. -1.
</event>
<event>
 5   0  0.8476262E-08  0.3888822E+04  0.7818609E-02  0.8027358E-01
        2   -1    0    0  501    0  0.00000000000E+00  0.00000000000E+00  0.21987635102E+04  0.21987635102E+04  0.25500000920E-02 0.  1.
       -2   -1    0    0    0  501  0.00000000000E+00  0.00000000000E+00 -0.17194816435E+04  0.17194816435E+04  0.25500000920E-02 0. -1.
    10030    2    1    2    0    0  0.00000000000E+00  0.00000000000E+00  0.47928186673E+03  0.39182451537E+04  0.38888216694E+04 0.  0.
        2    1    3    3  502    0 -0.13036704060E+04 -0.14085399544E+04 -0.74474447094E+02  0.19206998136E+04  0.25500000920E-02 0. -1.
       -2    1    3    3    0  502  0.13036704060E+04  0.14085399544E+04  0.55375631382E+03  0.19975453401E+04  0.25500000920E-02 0.  1.
</event>
<event>
 5   0  0.2632875E-08  0.3896668E+04  0.7818609E-02  0.8025723E-01
        1   -1    0    0  501    0  0.00000000000E+00  0.00000000000E+00  0.19913689736E+04  0.19913689736E+04  0.50400001928E-02 0.  1.
       -1   -1    0    0    0  501  0.00000000000E+00  0.00000000000E+00 -0.19062288701E+04  0.19062288701E+04  0.50400001928E-02 0. -1.
    10030    2    1    2    0    0  0.00000000000E+00  0.00000000000E+00  0.85140103497E+02  0.38975978438E+04  0.38966678219E+04 0.  0.
        1    1    3    3  502    0 -0.14159866507E+04  0.11925940720E+04 -0.56478670740E+03  0.19355316687E+04  0.50400001928E-02 0. -1.
       -1    1    3    3    0  502  0.14159866507E+04 -0.11925940720E+04  0.64992681089E+03  0.19620661750E+04  0.50400001928E-02 0.  1.
</event>
<event>
 5   0  0.8342802E-08  0.3748958E+04  0.7818609E-02  0.8057198E-01
        2   -1    0    0  501    0  0.00000000000E+00  0.00000000000E+00  0.16489737127E+04  0.16489737127E+04  0.25500000920E-02 0.  1.
       -2   -1    0    0    0  501  0.00000000000E+00  0.00000000000E+00 -0.21308235457E+04  0.21308235457E+04  0.25500000920E-02 0. -1.
    10030    2    1    2    0    0  0.00000000000E+00  0.00000000000E+00 -0.48184983304E+03  0.37797972584E+04  0.37489582624E+04 0.  0.
        4    1    3    3  502    0  0.10715801297E+04  0.15312324812E+04 -0.38603072450E+03  0.19083967667E+04  0.12699999809E+01 0.  1.
       -4    1    3    3    0  502 -0.10715801297E+04 -0.15312324812E+04 -0.95819108539E+02  0.18714004917E+04  0.12699999809E+01 0. -1.
</event>
<event>
 5   0  0.2632875E-08  0.3910674E+04  0.7818609E-02  0.8022813E-01
        1   -1    0    0  501    0  0.00000000000E+00  0.00000000000E+00  0.28705911680E+04  0.28705911680E+04  0.50400001928E-02 0. -1.
       -1   -1    0    0    0  501  0.00000000000E+00  0.00000000000E+00 -0.13319011646E+04  0.13319011646E+04  0.50400001928E-02 0.  1.
    10030    2    1    2    0    0  0.00000000000E+00  0.00000000000E+00  0.15386900033E+04  0.42024923326E+04  0.39106744788E+04 0.  0.
        5    1    3    3  502    0 -0.13028081334E+04 -0.36114251702E+03 -0.74872143494E+03  0.15454251283E+04  0.46999998093E+01 0.  1.
       -5    1    3    3    0  502  0.13028081334E+04  0.36114251702E+03  0.22874114383E+04  0.26570672043E+04  0.46999998093E+01 0. -1.
</event>
<event>
 5   0  0.8438211E-08  0.3891849E+04  0.7818609E-02  0.8026727E-01
        2   -1    0    0  501    0  0.00000000000E+00  0.00000000000E+00  0.24350278088E+04  0.24350278088E+04  0.25500000920E-02 0.  1.
       -2   -1    0    0    0  501  0.00000000000E+00  0.00000000000E+00 -0.15550633609E+04  0.15550633609E+04  0.25500000920E-02 0. -1.
    10030    2    1    2    0    0  0.00000000000E+00  0.00000000000E+00  0.87996444789E+03  0.39900911698E+04  0.38918491894E+04 0.  0.
        5    1    3    3  502    0 -0.89175870716E+03  0.26287642799E+03 -0.13126324889E+04  0.16085284421E+04  0.46999998093E+01 0. -1.
       -5    1    3    3    0  502  0.89175870716E+03 -0.26287642799E+03  0.21925969368E+04  0.23815627276E+04  0.46999998093E+01 0.  1.
</event>
<event>
 5   0  0.8438211E-08  0.3889259E+04  0.7818609E-02  0.8027267E-01
       -2   -1    0    0    0  501  0.00000000000E+00  0.00000000000E+00  0.16987861534E+04  0.16987861534E+04  0.25500000920E-02 0.  1.
        2   -1    0    0  501    0  0.00000000000E+00  0.00000000000E+00 -0.22260508737E+04  0.22260508737E+04  0.25500000920E-02 0. -1.
    10030    2    1    2    0    0  0.00000000000E+00  0.00000000000E+00 -0.52726472032E+03  0.39248370271E+04  0.38892592617E+04 0.  0.
        5    1    3    3  502    0  0.12235582390E+04  0.14603691226E+04  0.12953341202E+03  0.19096004120E+04  0.46999998093E+01 0. -1.
       -5    1    3    3    0  502 -0.12235582390E+04 -0.14603691226E+04 -0.65679813234E+03  0.20152366152E+04  0.46999998093E+01 0.  1.
</event>
<event>
 5   0  0.8551754E-08  0.3907026E+04  0.7818609E-02  0.8023570E-01
        2   -1    0    0  501    0  0.00000000000E+00  0.00000000000E+00  0.22188569846E+04  0.22188569846E+04  0.25500000920E-02 0.  1.
       -2   -1    0    0    0  501  0.00000000000E+00  0.00000000000E+00 -0.17198999888E+04  0.17198999888E+04  0.25500000920E-02 0. -1.
    10030    2    1    2    0    0  0.00000000000E+00  0.00000000000E+00  0.49895699583E+03  0.39387569734E+04  0.39070255197E+04 0.  0.
        1    1    3    3  502    0 -0.18391544106E+04 -0.65826038553E+03  0.27005064773E+03  0.19719845419E+04  0.50400001928E-02 0.  1.
       -1    1    3    3    0  502  0.18391544106E+04  0.65826038553E+03  0.22890634810E+03  0.19667724315E+04  0.50400001928E-02 0. -1.
</event>
<event>
 5   0  0.2632875E-08  0.3910458E+04  0.7818609E-02  0.8022858E-01
        1   -1    0    0  501    0  0.00000000000E+00  0.00000000000E+00  0.22134187344E+04  0.22134187344E+04  0.50400001928E-02 0.  1.
       -1   -1    0    0    0  501  0.00000000000E+00  0.00000000000E+00 -0.17271568233E+04  0.17271568233E+04  0.50400001928E-02 0. -1.
    10030    2    1    2    0    0  0.00000000000E+00  0.00000000000E+00  0.48626191110E+03  0.39405755578E+04  0.39104584233E+04 0.  0.
        4    1    3    3  502    0  0.37834012700E+03  0.88789720093E+03 -0.14703818287E+04  0.17588425245E+04  0.12699999809E+01 0. -1.
       -4    1    3    3    0  502 -0.37834012700E+03 -0.88789720093E+03  0.19566437398E+04  0.21817330332E+04  0.12699999809E+01 0.  1.
</event>
<event>
 5   0  0.2632875E-08  0.3880911E+04  0.7818609E-02  0.8029011E-01
        1   -1    0    0  501    0  0.00000000000E+00  0.00000000000E+00  0.16082564415E+04  0.16082564415E+04  0.50400001928E-02 0.  1.
       -1   -1    0    0    0  501  0.00000000000E+00  0.00000000000E+00 -0.23412732141E+04  0.23412732141E+04  0.50400001928E-02 0. -1.
    10030    2    1    2    0    0  0.00000000000E+00  0.00000000000E+00 -0.73301677268E+03  0.39495296556E+04  0.38809110930E+04 0.  0.
        3    1    3    3  502    0 -0.64094988732E+03 -0.15509063479E+03 -0.22237408424E+04  0.23194596800E+04  0.10100000352E+00 0. -1.
       -3    1    3    3    0  502  0.64094988732E+03  0.15509063479E+03  0.14907240697E+04  0.16300699756E+04  0.10100000352E+00 0.  1.
</event>
<event>
 5   0  0.2632875E-08  0.3893152E+04  0.7818609E-02  0.8026455E-01
       -1   -1    0    0    0  501  0.00000000000E+00  0.00000000000E+00  0.21872532811E+04  0.21872532812E+04  0.50400001928E-02 0. -1.
        1   -1    0    0  501    0  0.00000000000E+00  0.00000000000E+00 -0.17323820728E+04  0.17323820728E+04  0.50400001928E-02 0.  1.
    10030    2    1    2    0    0  0.00000000000E+00  0.00000000000E+00  0.45487120835E+03  0.39196353540E+04  0.38931521280E+04 0.  0.
        3    1    3    3  502    0  0.13904989449E+04  0.12623615637E+04  0.74288931886E+03  0.20196357552E+04  0.10100000352E+00 0. -1.
       -3    1    3    3    0  502 -0.13904989449E+04 -0.12623615637E+04 -0.28801811050E+03  0.18999995988E+04  0.10100000352E+00 0.  1.
</event>
<event>
 5   0  0.8342802E-08  0.3902609E+04  0.7818609E-02  0.8024487E-01
        2   -1    0    0  501    0  0.00000000000E+00  0.00000000000E+00  0.19371216492E+04  0.19371216492E+04  0.25500000920E-02 0.  1.
       -2   -1    0    0    0  501  0.00000000000E+00  0.00000000000E+00 -0.19655916897E+04  0.19655916897E+04  0.25500000920E-02 0. -1.
    10030    2    1    2    0    0  0.00000000000E+00  0.00000000000E+00 -0.28470040451E+02  0.39027133389E+04  0.39026094939E+04 0.  0.
        4    1    3    3  502    0 -0.13399378993E+04 -0.38238549249E+03  0.13517941401E+04  0.19413915754E+04  0.12699999809E+01 0.  1.
       -4    1    3    3    0  502  0.13399378993E+04  0.38238549249E+03 -0.13802641806E+04  0.19613217635E+04  0.12699999809E+01 0. -1.
</event>
<event>
 5   0  0.2632875E-08  0.3956017E+04  0.7818609E-02  0.8013479E-01
        3   -1    0    0  501    0  0.00000000000E+00  0.00000000000E+00  0.17685573445E+04  0.17685573473E+04  0.10100000352E+00 0.  1.
       -3   -1    0    0    0  501  0.00000000000E+00  0.00000000000E+00 -0.22122650467E+04  0.22122650490E+04  0.10100000352E+00 0. -1.
    10030    2    1    2    0    0  0.00000000000E+00  0.00000000000E+00 -0.44370770224E+03  0.39808223964E+04  0.39560169901E+04 0.  0.
        1    1    3    3  502    0 -0.19622779486E+03 -0.17843449394E+04  0.61409298548E+03  0.18972354638E+04  0.50400001928E-02 0.  1.
       -1    1    3    3    0  502  0.19622779486E+03  0.17843449394E+04 -0.10578006877E+04  0.20835869325E+04  0.50400001928E-02 0. -1.
</event>
<event>
 5   0  0.2632875E-08  0.3878441E+04  0.7818609E-02  0.8029528E-01
        1   -1    0    0  501    0  0.00000000000E+00  0.00000000000E+00  0.18350134573E+04  0.18350134573E+04  0.50400001928E-02 0.  1.
       -1   -1    0    0    0  501  0.00000000000E+00  0.00000000000E+00 -0.20493453626E+04  0.20493453626E+04  0.50400001928E-02 0. -1.
    10030    2    1    2    0    0  0.00000000000E+00  0.00000000000E+00 -0.21433190524E+03  0.38843588199E+04  0.38784410884E+04 0.  0.
        1    1    3    3  502    0 -0.24106800195E+03 -0.76199316630E+03 -0.18767316629E+04  0.20398208503E+04  0.50400001928E-02 0. -1.
       -1    1    3    3    0  502  0.24106800195E+03  0.76199316630E+03  0.16623997576E+04  0.18445379696E+04  0.50400001928E-02 0.  1.
</event>
<event>
 5   0  0.2632875E-08  0.3894592E+04  0.7818609E-02  0.8026155E-01
       -1   -1    0    0    0  501  0.00000000000E+00  0.00000000000E+00  0.29124589267E+04  0.29124589267E+04  0.50400001928E-02 0.  1.
        1   -1    0    0  501    0  0.00000000000E+00  0.00000000000E+00 -0.13019795672E+04  0.13019795672E+04  0.50400001928E-02 0. -1.
    10030    2    1    2    0    0  0.00000000000E+00  0.00000000000E+00  0.16104793595E+04  0.42144384938E+04  0.38945921546E+04 0.  0.
        2    1    3    3  502    0  0.17353992145E+04  0.12542280573E+02 -0.15058692284E+03  0.17419656035E+04  0.25500000920E-02 0. -1.
       -2    1    3    3    0  502 -0.17353992145E+04 -0.12542280573E+02  0.17610662823E+04  0.24724728903E+04  0.25500000920E-02 0.  1.
</event>
<event>
 5   0  0.8676098E-08  0.3922349E+04  0.7818609E-02  0.8020397E-01
        2   -1    0    0  501    0  0.00000000000E+00  0.00000000000E+00  0.22769652036E+04  0.22769652036E+04  0.25500000920E-02 0. -1.
       -2   -1    0    0    0  501  0.00000000000E+00  0.00000000000E+00 -0.16891802344E+04  0.16891802344E+04  0.25500000920E-02 0.  1.
    10030    2    1    2    0    0  0.00000000000E+00  0.00000000000E+00  0.58778496917E+03  0.39661454380E+04  0.39223485905E+04 0.  0.
        3    1    3    3  502    0  0.43658499529E+03  0.89796150136E+02 -0.16372849121E+04  0.16968711502E+04  0.10100000352E+00 0.  1.
       -3    1    3    3    0  502 -0.43658499529E+03 -0.89796150136E+02  0.22250698813E+04  0.22692742878E+04  0.10100000352E+00 0. -1.
</event>
<event>
 5   0  0.8342802E-08  0.3891285E+04  0.7818609E-02  0.8026844E-01
       -2   -1    0    0    0  501  0.00000000000E+00  0.00000000000E+00  0.15051477802E+04  0.15051477802E+04  0.25500000920E-02 0. -1.
        2   -1    0    0  501    0  0.00000000000E+00  0.00000000000E+00 -0.25150520677E+04  0.25150520677E+04  0.25500000920E-02 0.  1.
    10030    2    1    2    0    0  0.00000000000E+00  0.00000000000E+00 -0.10099042875E+04  0.40201998479E+04  0.38912851537E+04 0.  0.
        4    1    3    3  502    0  0.15046061419E+04  0.69352761403E+03  0.54899307257E+03  0.17453409983E+04  0.12699999809E+01 0. -1.
       -4    1    3    3    0  502 -0.15046061419E+04 -0.69352761403E+03 -0.15588973601E+04  0.22748588496E+04  0.12699999809E+01 0.  1.
</event>
<event>
 5   0  0.8551754E-08  0.3883755E+04  0.7818609E-02  0.8028416E-01
        2   -1    0    0  501    0  0.00000000000E+00  0.00000000000E+00  0.12475109196E+04  0.12475109196E+04  0.25500000920E-02 0. -1.
       -2   -1    0    0    0  501  0.00000000000E+00  0.00000000000E+00 -0.30227299362E+04  0.30227299362E+04  0.25500000920E-02 0.  1.
    10030    2    1    2    0    0  0.00000000000E+00  0.00000000000E+00 -0.17752190166E+04  0.42702408557E+04  0.38837551943E+04 0.  0.
        1    1    3    3  502    0 -0.80366352769E+03  0.10046359323E+04 -0.24869084081E+04  0.27999789021E+04  0.50400001928E-02 0.  1.
       -1    1    3    3    0  502  0.80366352769E+03 -0.10046359323E+04  0.71168939149E+03  0.14702619536E+04  0.50400001928E-02 0. -1.
</event>
<event>
 5   0  0.8676098E-08  0.4005408E+04  0.7818609E-02  0.8003456E-01
        2   -1    0    0  501    0  0.00000000000E+00  0.00000000000E+00  0.18430837763E+04  0.18430837763E+04  0.25500000920E-02 0.  1.
       -2   -1    0    0    0  501  0.00000000000E+00  0.00000000000E+00 -0.21761480568E+04  0.21761480568E+04  0.25500000920E-02 0. -1.
    10030    2    1    2    0    0  0.00000000000E+00  0.00000000000E+00 -0.33306428050E+03  0.40192318331E+04  0.40054079335E+04 0.  0.
        3    1    3    3  502    0  0.12938783532E+04  0.22656071350E+03  0.13504301174E+04  0.18839088253E+04  0.10100000352E+00 0.  1.
       -3    1    3    3    0  502 -0.12938783532E+04 -0.22656071350E+03 -0.16834943979E+04  0.21353230078E+04  0.10100000352E+00 0. -1.
</event>
<event>
 5   0  0.2632875E-08  0.3910210E+04  0.7818609E-02  0.8022909E-01
       -3   -1    0    0    0  501  0.00000000000E+00  0.00000000000E+00  0.22111748784E+04  0.22111748807E+04  0.10100000352E+00 0. -1.
        3   -1    0    0  501    0  0.00000000000E+00  0.00000000000E+00 -0.17286900405E+04  0.17286900434E+04  0.10100000352E+00 0.  1.
    10030    2    1    2    0    0  0.00000000000E+00  0.00000000000E+00  0.48248483789E+03  0.39398649241E+04  0.39102102247E+04 0.  0.
        2    1    3    3  502    0 -0.10240640594E+03 -0.19152558177E+04 -0.14076888244E+03  0.19231504875E+04  0.25500000920E-02 0. -1.
       -2    1    3    3    0  502  0.10240640594E+03  0.19152558177E+04  0.62325372033E+03  0.20167144367E+04  0.25500000920E-02 0.  1.
</event>
<event>
 5   0  0.2632875E-08  0.3920385E+04  0.7818609E-02  0.8020803E-01
        1   -1    0    0  501    0  0.00000000000E+00  0.00000000000E+00  0.26242264572E+04  0.26242264572E+04  0.50400001928E-02 0. -1.
       -1   -1    0    0    0  501  0.00000000000E+00  0.00000000000E+00 -0.14641857250E+04  0.14641857250E+04  0.50400001928E-02 0.  1.
    10030    2    1    2    0    0  0.00000000000E+00  0.00000000000E+00  0.11600407321E+04  0.40884121822E+04  0.39203851432E+04 0.  0.
        4    1    3    3  502    0 -0.10269611067E+04 -0.15960905477E+04  0.10911271854E+04  0.21892268724E+04  0.12699999809E+01 0.  1.
       -4    1    3    3    0  502  0.10269611067E+04  0.15960905477E+04  0.68913546771E+02  0.18991853098E+04  0.12699999809E+01 0. -1.
</event>
<event>
 5   0  0.2632875E-08  0.3891741E+04  0.7818609E-02  0.8026749E-01
       -1   -1    0    0    0  501  0.00000000000E+00  0.00000000000E+00  0.16916847305E+04  0.16916847305E+04  0.50400001928E-02 0.  1.
        1   -1    0    0  501    0  0.00000000000E+00  0.00000000000E+00 -0.22382489482E+04  0.22382489482E+04  0.50400001928E-02 0. -1.
    10030    2    1    2    0    0  0.00000000000E+00  0.00000000000E+00 -0.54656421765E+03  0.39299336787E+04  0.38917407770E+04 0.  0.
        5    1    3    3  502    0  0.22273616474E+03  0.62951353908E+03 -0.21189198202E+04  0.22216529858E+04  0.46999998093E+01 0. -1.
       -5    1    3    3    0  502 -0.22273616474E+03 -0.62951353908E+03  0.15723556025E+04  0.17082806929E+04  0.46999998093E+01 0.  1.
</event>
<event>
 5   0  0.2632875E-08  0.3895839E+04  0.7818609E-02  0.8025895E-01
       -1   -1    0    0    0  501  0.00000000000E+00  0.00000000000E+00  0.14881849238E+04  0.14881849238E+04  0.50400001928E-02 0.  1.
        1   -1    0    0  501    0  0.00000000000E+00  0.00000000000E+00 -0.25496763986E+04  0.25496763986E+04  0.50400001928E-02 0. -1.
    10030    2    1    2    0    0  0.00000000000E+00  0.00000000000E+00 -0.10614914747E+04  0.40378613224E+04  0.38958387939E+04 0.  0.
        3    1    3    3  502    0 -0.59365176520E+03 -0.43203415091E+03  0.13392769141E+04  0.15273305433E+04  0.10100000352E+00 0.  1.
       -3    1    3    3    0  502  0.59365176520E+03  0.43203415091E+03 -0.24007683888E+04  0.25105307791E+04  0.10100000352E+00 0. -1.
</event>
<event>
 5   0  0.8342802E-08  0.3861770E+04  0.7818609E-02  0.8033028E-01
        2   -1    0    0  501    0  0.00000000000E+00  0.00000000000E+00  0.15517495727E+04  0.15517495727E+04  0.25500000920E-02 0. -1.
       -2   -1    0    0    0  501  0.00000000000E+00  0.00000000000E+00 -0.24026537805E+04  0.24026537805E+04  0.25500000920E-02 0.  1.
    10030    2    1    2    0    0  0.00000000000E+00  0.00000000000E+00 -0.85090420780E+03  0.39544033531E+04  0.38617700486E+04 0.  0.
        4    1    3    3  502    0 -0.36873655612E+03  0.14080422007E+04 -0.17246518125E+04  0.22567620552E+04  0.12699999809E+01 0.  1.
       -4    1    3    3    0  502  0.36873655612E+03 -0.14080422007E+04  0.87374760468E+03  0.16976412979E+04  0.12699999809E+01 0. -1.
</event>
<event>
 5   0  0.8551754E-08  0.3895734E+04  0.7818609E-02  0.8025917E-01
       -2   -1    0    0    0  501  0.00000000000E+00  0.00000000000E+00  0.15106062367E+04  0.15106062367E+04  0.25500000920E-02 0.  1.
        2   -1    0    0  501    0  0.00000000000E+00  0.00000000000E+00 -0.25116969458E+04  0.25116969458E+04  0.25500000920E-02 0. -1.
    10030    2    1    2    0    0  0.00000000000E+00  0.00000000000E+00 -0.10010907091E+04  0.40223031825E+04  0.38957336002E+04 0.  0.
        1    1    3    3  502    0 -0.63800090754E+03 -0.52850930004E+03  0.13196304149E+04  0.15581372437E+04  0.50400001928E-02 0.  1.
       -1    1    3    3    0  502  0.63800090754E+03  0.52850930004E+03 -0.23207211240E+04  0.24641659388E+04  0.50400001928E-02 0. -1.
</event>
<event>
 5   0  0.8476262E-08  0.3897880E+04  0.7818609E-02  0.8025470E-01
        2   -1    0    0  501    0  0.00000000000E+00  0.00000000000E+00  0.24224083241E+04  0.24224083241E+04  0.25500000920E-02 0.  1.
       -2   -1    0    0    0  501  0.00000000000E+00  0.00000000000E+00 -0.15680125074E+04  0.15680125074E+04  0.25500000920E-02 0. -1.
    10030    2    1    2    0    0  0.00000000000E+00  0.00000000000E+00  0.85439581667E+03  0.39904208315E+04  0.38978797058E+04 0.  0.
        2    1    3    3  502    0  0.16095633756E+04 -0.67402639171E+03 -0.46137230612E+03  0.18049571302E+04  0.25500000920E-02 0. -1.
       -2    1    3    3    0  502 -0.16095633756E+04  0.67402639171E+03  0.13157681228E+04  0.21854637013E+04  0.25500000920E-02 0.  1.
</event>
<event>
 5   0  0.2632875E-08  0.3872502E+04  0.7818609E-02  0.8030773E-01
        1   -1    0    0  501    0  0.00000000000E+00  0.00000000000E+00  0.21428476256E+04  0.21428476256E+04  0.50400001928E-02 0.  1.
       -1   -1    0    0    0  501  0.00000000000E+00  0.00000000000E+00 -0.17495727056E+04  0.17495727056E+04  0.50400001928E-02 0. -1.
    10030    2    1    2    0    0  0.00000000000E+00  0.00000000000E+00  0.39327492000E+03  0.38924203312E+04  0.38725018879E+04 0.  0.
        3    1    3    3  502    0  0.72242741923E+03 -0.16512543092E+04 -0.51447979173E+03  0.18743616609E+04  0.10100000352E+00 0.  1.
       -3    1    3    3    0  502 -0.72242741923E+03  0.16512543092E+04  0.90775471172E+03  0.20180586702E+04  0.10100000352E+00 0. -1.
</event>
<event>
 5   0  0.8676098E-08  0.3900695E+04  0.7818609E-02  0.8024885E-01
        2   -1    0    0  501    0  0.00000000000E+00  0.00000000000E+00  0.22939233129E+04  0.22939233129E+04  0.25500000920E-02 0. -1.
       -2   -1    0    0    0  501  0.00000000000E+00  0.00000000000E+00 -0.16582314682E+04  0.16582314682E+04  0.25500000920E-02 0.  1.
    10030    2    1    2    0    0  0.00000000000E+00  0.00000000000E+00  0.63569184469E+03  0.39521547812E+04  0.39006952320E+04 0.  0.
        3    1    3    3  502    0  0.21646134923E+03  0.14052683570E+04 -0.10347644737E+04  0.17585142015E+04  0.10100000352E+00 0.  1.
       -3    1    3    3    0  502 -0.21646134923E+03 -0.14052683570E+04  0.16704563183E+04  0.21936405796E+04  0.10100000352E+00 0. -1.
</event>
<event>
 5   0  0.8438211E-08  0.4038212E+04  0.7818609E-02  0.7996882E-01
       -2   -1    0    0    0  501  0.00000000000E+00  0.00000000000E+00  0.27374498943E+04  0.27374498943E+04  0.25500000920E-02 0.  1.
        2   -1    0    0  501    0  0.00000000000E+00  0.00000000000E+00 -0.14892653484E+04  0.14892653484E+04  0.25500000920E-02 0. -1.
    10030    2    1    2    0    0  0.00000000000E+00  0.00000000000E+00  0.12481845459E+04  0.42267152426E+04  0.40382121145E+04 0.  0.
        5    1    3    3  502    0 -0.17460169510E+04 -0.20457892740E+03  0.16635984263E+04  0.24203325277E+04  0.46999998093E+01 0.  1.
       -5    1    3    3    0  502  0.17460169510E+04  0.20457892740E+03 -0.41541388043E+03  0.18063827149E+04  0.46999998093E+01 0. -1.
</event>
<event>
 5   0  0.8551754E-08  0.3905174E+04  0.7818609E-02  0.8023954E-01
       -2   -1    0    0    0  501  0.00000000000E+00  0.00000000000E+00  0.24124654459E+04  0.24124654459E+04  0.25500000920E-02 0. -1.
        2   -1    0    0  501    0  0.00000000000E+00  0.00000000000E+00 -0.15803737067E+04  0.15803737067E+04  0.25500000920E-02 0.  1.
    10030    2    1    2    0    0  0.00000000000E+00  0.00000000000E+00  0.83209173922E+03  0.39928391527E+04  0.39051744950E+04 0.  0.
        1    1    3    3  502    0 -0.28255695889E+03  0.18466738188E+04 -0.16464207518E+03  0.18754065269E+04  0.50400001928E-02 0. -1.
       -1    1    3    3    0  502  0.28255695889E+03 -0.18466738188E+04  0.99673381439E+03  0.21174326258E+04  0.50400001928E-02 0.  1.
</event>
<event>
 5   0  0.2632875E-08  0.3900975E+04  0.7818609E-02  0.8024826E-01
        1   -1    0    0  501    0  0.00000000000E+00  0.00000000000E+00  0.21831100771E+04  0.21831100771E+04  0.50400001928E-02 0. -1.
       -1   -1    0    0    0  501  0.00000000000E+00  0.00000000000E+00 -0.17426522057E+04  0.17426522058E+04  0.50400001928E-02 0.  1.
    10030    2    1    2    0    0  0.00000000000E+00  0.00000000000E+00  0.44045787137E+03  0.39257622829E+04  0.39009750531E+04 0.  0.
        3    1    3    3  502    0 -0.18200407079E+04 -0.53190983178E+03 -0.23975893202E+03  0.19112719857E+04  0.10100000352E+00 0.  1.
       -3    1    3    3    0  502  0.18200407079E+04  0.53190983178E+03  0.68021680339E+03  0.20144902972E+04  0.10100000352E+00 0. -1.
</event>
<event>
 5   0  0.2632875E-08  0.3900080E+04  0.7818609E-02  0.8025013E-01
       -1   -1    0    0    0  501  0.00000000000E+00  0.00000000000E+00  0.17045258229E+04  0.17045258229E+04  0.50400001928E-02 0. -1.
        1   -1    0    0  501    0  0.00000000000E+00  0.00000000000E+00 -0.22309171861E+04  0.22309171861E+04  0.50400001928E-02 0.  1.
    10030    2    1    2    0    0  0.00000000000E+00  0.00000000000E+00 -0.52639136323E+03  0.39354430091E+04  0.39000799748E+04 0.  0.
        4    1    3    3  502    0  0.12478190093E+04  0.12048228655E+04 -0.11623442120E+04  0.20879885290E+04  0.12699999809E+01 0.  1.
       -4    1    3    3    0  502 -0.12478190093E+04 -0.12048228655E+04  0.63595284875E+03  0.18474544801E+04  0.12699999809E+01 0. -1.
</event>
<event>
 5   0  0.2632875E-08  0.3889778E+04  0.7818609E-02  0.8027159E-01
       -1   -1    0    0    0  501  0.00000000000E+00  0.00000000000E+00  0.18582252329E+04  0.18582252329E+04  0.50400001928E-02 0. -1.
        1   -1    0    0  501    0  0.00000000000E+00  0.00000000000E+00 -0.20355943241E+04  0.20355943241E+04  0.50400001928E-02 0.  1.
    10030    2    1    2    0    0  0.00000000000E+00  0.00000000000E+00 -0.17736909113E+03  0.38938195570E+04  0.38897777505E+04 0.  0.
        5    1    3    3  502    0  0.19009545259E+03  0.12879685105E+04 -0.15350289240E+04  0.20127928489E+04  0.46999998093E+01 0.  1.
       -5    1    3    3    0  502 -0.19009545259E+03 -0.12879685105E+04  0.13576598328E+04  0.18810267081E+04  0.46999998093E+01 0. -1.
</event>
<event>
 5   0  0.8342802E-08  0.3903785E+04  0.7818609E-02  0.8024242E-01
        2   -1    0    0  501    0  0.00000000000E+00  0.00000000000E+00  0.19426050503E+04  0.19426050503E+04  0.25500000920E-02 0.  1.
       -2   -1    0    0    0  501  0.00000000000E+00  0.00000000000E+00 -0.19612243954E+04  0.19612243954E+04  0.25500000920E-02 0. -1.
    10030    2    1    2    0    0  0.00000000000E+00  0.00000000000E+00 -0.18619345084E+02  0.39038294458E+04  0.39037850429E+04 0.  0.
        4    1    3    3  502    0  0.11360269537E+04 -0.99153752052E+03  0.12301312718E+04  0.19460031996E+04  0.12699999809E+01 0.  1.
       -4    1    3    3    0  502 -0.11360269537E+04  0.99153752052E+03 -0.12487506169E+04  0.19578262462E+04  0.12699999809E+01 0. -1.
</event>
<event>
 5   0  0.8438211E-08  0.3856614E+04  0.7818609E-02  0.8034114E-01
        2   -1    0    0  501    0  0.00000000000E+00  0.00000000000E+00  0.18674971744E+04  0.18674971744E+04  0.25500000920E-02 0.  1.
       -2   -1    0    0    0  501  0.00000000000E+00  0.00000000000E+00 -0.19910972066E+04  0.19910972066E+04  0.25500000920E-02 0. -1.
    10030    2    1    2    0    0  0.00000000000E+00  0.00000000000E+00 -0.12360003217E+03  0.38585943810E+04  0.38566142702E+04 0.  0.
        5    1    3    3  502    0  0.19258191368E+04  0.68391491682E+02  0.81613716513E+01  0.19270561594E+04  0.46999998093E+01 0.  1.
       -5    1    3    3    0  502 -0.19258191368E+04 -0.68391491682E+02 -0.13176140382E+03  0.19315382215E+04  0.46999998093E+01 0. -1.
</event>
<event>
 5   0  0.8476262E-08  0.3927285E+04  0.7818609E-02  0.8019378E-01
       -2   -1    0    0    0  501  0.00000000000E+00  0.00000000000E+00  0.31248398975E+04  0.31248398975E+04  0.25500000920E-02 0.  1.
        2   -1    0    0  501    0  0.00000000000E+00  0.00000000000E+00 -0.12339483024E+04  0.12339483024E+04  0.25500000920E-02 0. -1.
    10030    2    1    2    0    0  0.00000000000E+00  0.00000000000E+00  0.18908915951E+04  0.43587882000E+04  0.39272845005E+04 0.  0.
        2    1    3    3  502    0  0.18551512812E+03 -0.96243120329E+03 -0.94303589151E+03  0.13601493949E+04  0.25500000920E-02 0. -1.
       -2    1    3    3    0  502 -0.18551512812E+03  0.96243120329E+03  0.28339274866E+04  0.29986388050E+04  0.25500000920E-02 0.  1.
</event>
<event>
 5   0  0.8676098E-08  0.3906577E+04  0.7818609E-02  0.8023663E-01
       -2   -1    0    0    0  501  0.00000000000E+00  0.00000000000E+00  0.14626328204E+04  0.14626328204E+04  0.25500000920E-02 0.  1.
        2   -1    0    0  501    0  0.00000000000E+00  0.00000000000E+00 -0.26085403940E+04  0.26085403940E+04  0.25500000920E-02 0. -1.
    10030    2    1    2    0    0  0.00000000000E+00  0.00000000000E+00 -0.11459075735E+04  0.40711732144E+04  0.39065774246E+04 0.  0.
        3    1    3    3  502    0 -0.13176328088E+04 -0.12365113966E+04 -0.13459749472E+04  0.22531678192E+04  0.10100000352E+00 0. -1.
       -3    1    3    3    0  502  0.13176328088E+04  0.12365113966E+04  0.20006737370E+03  0.18180053952E+04  0.10100000352E+00 0.  1.
</event>
<event>
 5   0  0.8476262E-08  0.3895761E+04  0.7818609E-02  0.8025911E-01
       -2   -1    0    0    0  501  0.00000000000E+00  0.00000000000E+00  0.15121082185E+04  0.15121082185E+04  0.25500000920E-02 0.  1.
        2   -1    0    0  501    0  0.00000000000E+00  0.00000000000E+00 -0.25092375620E+04  0.25092375620E+04  0.25500000920E-02 0. -1.
    10030    2    1    2    0    0  0.00000000000E+00  0.00000000000E+00 -0.99712934357E+03  0.40213457805E+04  0.38957611527E+04 0.  0.
        2    1    3    3  502    0  0.17416808358E+04  0.35147224246E+03  0.32545074247E+03  0.18063507568E+04  0.25500000920E-02 0.  1.
       -2    1    3    3    0  502 -0.17416808358E+04 -0.35147224246E+03 -0.13225800860E+04  0.22149950237E+04  0.25500000920E-02 0. -1.
</event>
<event>
 5   0  0.8676098E-08  0.3903675E+04  0.7818609E-02  0.8024265E-01
        2   -1    0    0  501    0  0.00000000000E+00  0.00000000000E+00  0.18851477783E+04  0.18851477783E+04  0.25500000920E-02 0.  1.
       -2   -1    0    0    0  501  0.00000000000E+00  0.00000000000E+00 -0.20208860780E+04  0.20208860780E+04  0.25500000920E-02 0. -1.
    10030    2    1    2    0    0  0.00000000000E+00  0.00000000000E+00 -0.13573829968E+03  0.39060338562E+04  0.39036746279E+04 0.  0.
        3    1    3    3  502    0  0.30209019253E+03 -0.79465478845E+02  0.18599752137E+04  0.18860225483E+04  0.10100000352E+00 0.  1.
       -3    1    3    3    0  502 -0.30209019253E+03  0.79465478845E+02 -0.19957135134E+04  0.20200113080E+04  0.10100000352E+00 0. -1.
</event>
<event>
 5   0  0.8676098E-08  0.3922454E+04  0.7818609E-02  0.8020375E-01
        2   -1    0    0  501    0  0.00000000000E+00  0.00000000000E+00  0.15352058758E+04  0.15352058758E+04  0.25500000920E-02 0. -1.
       -2   -1    0    0    0  501  0.00000000000E+00  0.00000000000E+00 -0.25054696483E+04  0.25054696483E+04  0.25500000920E-02 0.  1.
    10030    2    1    2    0    0  0.00000000000E+00  0.00000000000E+00 -0.97026377251E+03  0.40406755241E+04  0.39224541939E+04 0.  0.
        3    1    3    3  502    0 -0.55036960450E+03  0.17367197080E+04 -0.12331790216E+04  0.21999619440E+04  0.10100000352E+00 0.  1.
       -3    1    3    3    0  502  0.55036960450E+03 -0.17367197080E+04  0.26291524908E+03  0.18407135801E+04  0.10100000352E+00 0. -1.
</event>
<event>
 5   0  0.8342802E-08  0.3913203E+04  0.7818609E-02  0.8022289E-01
        2   -1    0    0  501    0  0.00000000000E+00  0.00000000000E+00  0.18651433115E+04  0.18651433115E+04  0.25500000920E-02 0.  1.
       -2   -1    0    0    0  501  0.00000000000E+00  0.00000000000E+00 -0.20525443284E+04  0.20525443284E+04  0.25500000920E-02 0. -1.
    10030    2    1    2    0    0  0.00000000000E+00  0.00000000000E+00 -0.18740101691E+03  0.39176876399E+04  0.39132029468E+04 0.  0.
        4    1    3    3  502    0  0.97970975584E+03 -0.11544826200E+04  0.11469236036E+04  0.18994990632E+04  0.12699999809E+01 0. -1.
       -4    1    3    3    0  502 -0.97970975584E+03  0.11544826200E+04 -0.13343246205E+04  0.20181885767E+04  0.12699999809E+01 0.  1.
</event>
<event>
 5   0  0.2632875E-08  0.3905932E+04  0.7818609E-02  0.8023797E-01
        1   -1    0    0  501    0  0.00000000000E+00  0.00000000000E+00  0.20781508150E+04  0.20781508150E+04  0.50400001928E-02 0. -1.
       -1   -1    0    0    0  501  0.00000000000E+00  0.00000000000E+00 -0.18353217299E+04  0.18353217299E+04  0.50400001928E-02 0.  1.
    10030    2    1    2    0    0  0.00000000000E+00  0.00000000000E+00  0.24282908507E+03  0.39134725449E+04  0.39059315656E+04 0.  0.
        5    1    3    3  502    0  0.12235790384E+04  0.15061210944E+04 -0.99253362815E+02  0.19430439353E+04  0.46999998093E+01 0.  1.
       -5    1    3    3    0  502 -0.12235790384E+04 -0.15061210944E+04  0.34208244789E+03  0.19704286096E+04  0.46999998093E+01 0. -1.
</event>
<event>
 5   0  0.2632875E-08  0.3907732E+04  0.7818609E-02  0.8023423E-01
        1   -1    0    0  501    0  0.00000000000E+00  0.00000000000E+00  0.12880457789E+04  0.12880457789E+04  0.50400001928E-02 0.  1.
       -1   -1    0    0    0  501  0.00000000000E+00  0.00000000000E+00 -0.29638640685E+04  0.29638640685E+04  0.50400001928E-02 0. -1.
    10030    2    1    2    0    0  0.00000000000E+00  0.00000000000E+00 -0.16758182896E+04  0.42519098475E+04  0.39077321314E+04 0.  0.
        4    1    3    3  502    0 -0.16859050354E+04  0.92430792654E+03 -0.12163501671E+04  0.22751110464E+04  0.12699999809E+01 0. -1.
       -4    1    3    3    0  502  0.16859050354E+04 -0.92430792654E+03 -0.45946812254E+03  0.19767988011E+04  0.12699999809E+01 0.  1.
</event>
<event>
 5   0  0.2632875E-08  0.3896437E+04  0.7818609E-02  0.8025771E-01
       -1   -1    0    0    0  501  0.00000000000E+00  0.00000000000E+00  0.15821761372E+04  0.15821761372E+04  0.50400001928E-02 0.  1.
        1   -1    0    0  501    0  0.00000000000E+00  0.00000000000E+00 -0.23989461642E+04  0.23989461642E+04  0.50400001928E-02 0. -1.
    10030    2    1    2    0    0  0.00000000000E+00  0.00000000000E+00 -0.81677002698E+03  0.39811223015E+04  0.38964370266E+04 0.  0.
        2    1    3    3  502    0 -0.16650632334E+04  0.40357558220E+03 -0.13560379846E+04  0.21849823426E+04  0.25500000920E-02 0. -1.
       -2    1    3    3    0  502  0.16650632334E+04 -0.40357558220E+03  0.53926795763E+03  0.17961399589E+04  0.25500000920E-02 0.  1.
</event>
<event>
 5   0  0.2632875E-08  0.3890769E+04  0.7818609E-02  0.8026952E-01
        1   -1    0    0  501    0  0.00000000000E+00  0.00000000000E+00  0.21920453280E+04  0.21920453280E+04  0.50400001928E-02 0.  1.
       -1   -1    0    0    0  501  0.00000000000E+00  0.00000000000E+00 -0.17264792782E+04  0.17264792782E+04  0.50400001928E-02 0. -1.
    10030    2    1    2    0    0  0.00000000000E+00  0.00000000000E+00  0.46556604980E+03  0.39185246061E+04  0.38907689911E+04 0.  0.
        3    1    3    3  502    0 -0.16439976980E+04 -0.38253252603E+03 -0.74130910825E+03  0.18435288901E+04  0.10100000352E+00 0. -1.
       -3    1    3    3    0  502  0.16439976980E+04  0.38253252603E+03  0.12068751580E+04  0.20749957161E+04  0.10100000352E+00 0.  1.
</event>
<event>
 5   0  0.8551754E-08  0.3906228E+04  0.7818609E-02  0.8023735E-01
        2   -1    0    0  501    0  0.00000000000E+00  0.00000000000E+00  0.14058049095E+04  0.14058049095E+04  0.25500000920E-02 0. -1.
       -2   -1    0    0    0  501  0.00000000000E+00  0.00000000000E+00 -0.27135017762E+04  0.27135017762E+04  0.25500000920E-02 0.  1.
    10030    2    1    2    0    0  0.00000000000E+00  0.00000000000E+00 -0.13076968666E+04  0.41193066857E+04  0.39062279089E+04 0.  0.
        1    1    3    3  502    0 -0.47123249768E+03  0.41848852911E+03 -0.26033265177E+04  0.26785260263E+04  0.50400001928E-02 0.  1.
       -1    1    3    3    0  502  0.47123249768E+03 -0.41848852911E+03  0.12956296510E+04  0.14407806594E+04  0.50400001928E-02 0. -1.
</event>
<event>
 5   0  0.2632875E-08  0.3897778E+04  0.7818609E-02  0.8025491E-01
        1   -1    0    0  501    0  0.00000000000E+00  0.00000000000E+00  0.21513548697E+04  0.21513548697E+04  0.50400001928E-02 0. -1.
       -1   -1    0    0    0  501  0.00000000000E+00  0.00000000000E+00 -0.17654776055E+04  0.17654776055E+04  0.50400001928E-02 0.  1.
    10030    2    1    2    0    0  0.00000000000E+00  0.00000000000E+00  0.38587726416E+03  0.39168324753E+04  0.38977782616E+04 0.  0.
        3    1    3    3  502    0  0.14717399278E+04  0.12773165802E+04  0.16806337501E+03  0.19559655849E+04  0.10100000352E+00 0.  1.
       -3    1    3    3    0  502 -0.14717399278E+04 -0.12773165802E+04  0.21781388916E+03  0.19608668903E+04  0.10100000352E+00 0. -1.
</event>
<event>
 5   0  0.8676098E-08  0.3896804E+04  0.7818609E-02  0.8025694E-01
       -2   -1    0    0    0  501  0.00000000000E+00  0.00000000000E+00  0.15355069192E+04  0.15355069193E+04  0.25500000920E-02 0.  1.
        2   -1    0    0  501    0  0.00000000000E+00  0.00000000000E+00 -0.24723244429E+04  0.24723244429E+04  0.25500000920E-02 0. -1.
    10030    2    1    2    0    0  0.00000000000E+00  0.00000000000E+00 -0.93681752366E+03  0.40078313622E+04  0.38968044799E+04 0.  0.
        3    1    3    3  502    0 -0.12951506700E+04 -0.13015503862E+04  0.20194590374E+03  0.18472224620E+04  0.10100000352E+00 0.  1.
       -3    1    3    3    0  502  0.12951506700E+04  0.13015503862E+04 -0.11387634274E+04  0.21606089002E+04  0.10100000352E+00 0. -1.
</event>
<event>
 5   0  0.2632875E-08  0.3904856E+04  0.7818609E-02  0.8024020E-01
       -1   -1    0    0    0  501  0.00000000000E+00  0.00000000000E+00  0.24690879667E+04  0.24690879667E+04  0.50400001928E-02 0.  1.
        1   -1    0    0  501    0  0.00000000000E+00  0.00000000000E+00 -0.15438795062E+04  0.15438795062E+04  0.50400001928E-02 0. -1.
    10030    2    1    2    0    0  0.00000000000E+00  0.00000000000E+00  0.92520846049E+03  0.40129674728E+04  0.39048555982E+04 0.  0.
        1    1    3    3  502    0 -0.13236926628E+03 -0.16013126348E+04 -0.67727133044E+03  0.17436800831E+04  0.50400001928E-02 0. -1.
       -1    1    3    3    0  502  0.13236926628E+03  0.16013126348E+04  0.16024797909E+04  0.22692873898E+04  0.50400001928E-02 0.  1.
</event>
<event>
 5   0  0.8342802E-08  0.3919948E+04  0.7818609E-02  0.8020893E-01
       -2   -1    0    0    0  501  0.00000000000E+00  0.00000000000E+00  0.24300145663E+04  0.24300145663E+04  0.25500000920E-02 0.  1.
        2   -1    0    0  501    0  0.00000000000E+00  0.00000000000E+00 -0.15808540758E+04  0.15808540758E+04  0.25500000920E-02 0. -1.
    10030    2    1    2    0    0  0.00000000000E+00  0.00000000000E+00  0.84916049056E+03  0.40108686421E+04  0.39199481789E+04 0.  0.
        4    1    3    3  502    0  0.32813050396E+03 -0.15312795207E+04  0.16304789640E+04  0.22607409987E+04  0.12699999809E+01 0.  1.
       -4    1    3    3    0  502 -0.32813050396E+03  0.15312795207E+04 -0.78131847348E+03  0.17501276434E+04  0.12699999809E+01 0. -1.
</event>
<event>
 5   0  0.8342802E-08  0.3900643E+04  0.7818609E-02  0.8024896E-01
        2   -1    0    0  501    0  0.00000000000E+00  0.00000000000E+00  0.24571092222E+04  0.24571092222E+04  0.25500000920E-02 0.  1.
       -2   -1    0    0    0  501  0.00000000000E+00  0.00000000000E+00 -0.15480602537E+04  0.15480602537E+04  0.25500000920E-02 0. -1.
    10030    2    1    2    0    0  0.00000000000E+00  0.00000000000E+00  0.90904896852E+03  0.40051694759E+04  0.39006425757E+04 0.  0.
        4    1    3    3  502    0 -0.12352945395E+04  0.10444538575E+04 -0.66412637310E+03  0.17486857671E+04  0.12699999809E+01 0. -1.
       -4    1    3    3    0  502  0.12352945395E+04 -0.10444538575E+04  0.15731753416E+04  0.22564837088E+04  0.12699999809E+01 0.  1.
</event>
<event>
 5   0  0.2632875E-08  0.3923630E+04  0.7818609E-02  0.8020133E-01
        1   -1    0    0  501    0  0.00000000000E+00  0.00000000000E+00  0.22434203002E+04  0.22434203002E+04  0.50400001928E-02 0.  1.
       -1   -1    0    0    0  501  0.00000000000E+00  0.00000000000E+00 -0.17155581459E+04  0.17155581459E+04  0.50400001928E-02 0. -1.
    10030    2    1    2    0    0  0.00000000000E+00  0.00000000000E+00  0.52786215432E+03  0.39589784461E+04  0.39236299370E+04 0.  0.
        5    1    3    3  502    0 -0.11969628548E+04 -0.11509649414E+04  0.13179740624E+04  0.21200278515E+04  0.46999998093E+01 0.  1.
       -5    1    3    3    0  502  0.11969628548E+04  0.11509649414E+04 -0.79011190804E+03  0.18389505946E+04  0.46999998093E+01 0. -1.
</event>
<event>
 5   0  0.2632875E-08  0.3815071E+04  0.7818609E-02  0.8042928E-01
       -1   -1    0    0    0  501  0.00000000000E+00  0.00000000000E+00  0.29517314411E+04  0.29517314411E+04  0.50400001928E-02 0.  1.
        1   -1    0    0  501    0  0.00000000000E+00  0.00000000000E+00 -0.12327315042E+04  0.12327315042E+04  0.50400001928E-02 0. -1.
    10030    2    1    2    0    0  0.00000000000E+00  0.00000000000E+00  0.17189999369E+04  0.41844629453E+04  0.38150713437E+04 0.  0.
        3    1    3    3  502    0  0.10374417813E+04  0.73643150963E+03 -0.69940939082E+03  0.14518231036E+04  0.10100000352E+00 0. -1.
       -3    1    3    3    0  502 -0.10374417813E+04 -0.73643150963E+03  0.24184093277E+04  0.27326398417E+04  0.10100000352E+00 0.  1.
</event>
<event>
 5   0  0.2632875E-08  0.3894625E+04  0.7818609E-02  0.8026148E-01
       -1   -1    0    0    0  501  0.00000000000E+00  0.00000000000E+00  0.25782385976E+04  0.25782385976E+04  0.50400001928E-02 0.  1.
        1   -1    0    0  501    0  0.00000000000E+00  0.00000000000E+00 -0.14707816278E+04  0.14707816278E+04  0.50400001928E-02 0. -1.
    10030    2    1    2    0    0  0.00000000000E+00  0.00000000000E+00  0.11074569698E+04  0.40490202254E+04  0.38946249942E+04 0.  0.
        2    1    3    3  502    0 -0.53334109327E+02 -0.51916952150E+03  0.25041734293E+04  0.25579808606E+04  0.25500000920E-02 0.  1.
       -2    1    3    3    0  502  0.53334109327E+02  0.51916952150E+03 -0.13967164595E+04  0.14910393648E+04  0.25500000920E-02 0. -1.
</event>
<event>
 5   0  0.8342802E-08  0.3861413E+04  0.7818609E-02  0.8033103E-01
       -2   -1    0    0    0  501  0.00000000000E+00  0.00000000000E+00  0.17543154031E+04  0.17543154031E+04  0.25500000920E-02 0.  1.
        2   -1    0    0  501    0  0.00000000000E+00  0.00000000000E+00 -0.21248327460E+04  0.21248327460E+04  0.25500000920E-02 0. -1.
    10030    2    1    2    0    0  0.00000000000E+00  0.00000000000E+00 -0.37051734291E+03  0.38791481491E+04  0.38614125992E+04 0.  0.
        4    1    3    3  502    0  0.21373894212E+03 -0.15258946834E+03 -0.21068057265E+04  0.21231108929E+04  0.12699999809E+01 0. -1.
       -4    1    3    3    0  502 -0.21373894212E+03  0.15258946834E+03  0.17362883836E+04  0.17560372562E+04  0.12699999809E+01 0.  1.
</event>
<event>
 5   0  0.2632875E-08  0.3899805E+04  0.7818609E-02  0.8025070E-01
        1   -1    0    0  501    0  0.00000000000E+00  0.00000000000E+00  0.32431599505E+04  0.32431599505E+04  0.50400001928E-02 0.  1.
       -1   -1    0    0    0  501  0.00000000000E+00  0.00000000000E+00 -0.11723503388E+04  0.11723503389E+04  0.50400001928E-02 0. -1.
    10030    2    1    2    0    0  0.00000000000E+00  0.00000000000E+00  0.20708096117E+04  0.44155102894E+04  0.38998049525E+04 0.  0.
        3    1    3    3  502    0 -0.12868857409E+03 -0.15086554837E+04 -0.35569117676E+03  0.15553515169E+04  0.10100000352E+00 0. -1.
       -3    1    3    3    0  502  0.12868857409E+03  0.15086554837E+04  0.24265007884E+04  0.28601587725E+04  0.10100000352E+00 0.  1.
</event>
<event>
 5   0  0.8476262E-08  0.3912540E+04  0.7818609E-02  0.8022426E-01
       -2   -1    0    0    0  501  0.00000000000E+00  0.00000000000E+00  0.19817075053E+04  0.19817075053E+04  0.25500000920E-02 0.  1.
        2   -1    0    0  501    0  0.00000000000E+00  0.00000000000E+00 -0.19311593016E+04  0.19311593016E+04  0.25500000920E-02 0. -1.
    10030    2    1    2    0    0  0.00000000000E+00  0.00000000000E+00  0.50548203740E+02  0.39128668069E+04  0.39125402908E+04 0.  0.
        2    1    3    3  502    0  0.48037585446E+03 -0.14635971099E+04 -0.11806936146E+04  0.19408541607E+04  0.25500000920E-02 0. -1.
       -2    1    3    3    0  502 -0.48037585446E+03  0.14635971099E+04  0.12312418183E+04  0.19720126462E+04  0.25500000920E-02 0.  1.
</event>
<event>
 5   0  0.8342802E-08  0.3898342E+04  0.7818609E-02  0.8025374E-01
       -2   -1    0    0    0  501  0.00000000000E+00  0.00000000000E+00  0.13945565254E+04  0.13945565254E+04  0.25500000920E-02 0.  1.
        2   -1    0    0  501    0  0.00000000000E+00  0.00000000000E+00 -0.27243549984E+04  0.27243549984E+04  0.25500000920E-02 0. -1.
    10030    2    1    2    0    0  0.00000000000E+00  0.00000000000E+00 -0.13297984730E+04  0.41189115237E+04  0.38983417195E+04 0.  0.
        4    1    3    3  502    0 -0.35663419589E+03 -0.12565458096E+04 -0.21935378277E+04  0.25529796583E+04  0.12699999809E+01 0. -1.
       -4    1    3    3    0  502  0.35663419589E+03  0.12565458096E+04  0.86373935478E+03  0.15659318654E+04  0.12699999809E+01 0.  1.
</event>
<event>
 5   0  0.2632875E-08  0.3917153E+04  0.7818609E-02  0.8021471E-01
       -1   -1    0    0    0  501  0.00000000000E+00  0.00000000000E+00  0.27653923346E+04  0.27653923346E+04  0.50400001928E-02 0. -1.
        1   -1    0    0  501    0  0.00000000000E+00  0.00000000000E+00 -0.13871528554E+04  0.13871528554E+04  0.50400001928E-02 0.  1.
    10030    2    1    2    0    0  0.00000000000E+00  0.00000000000E+00  0.13782394792E+04  0.41525451901E+04  0.39171529832E+04 0.  0.
        5    1    3    3  502    0 -0.12882390887E+04  0.13782582666E+04  0.13134174111E+03  0.18911447703E+04  0.46999998093E+01 0. -1.
       -5    1    3    3    0  502  0.12882390887E+04 -0.13782582666E+04  0.12468977381E+04  0.22614004198E+04  0.46999998093E+01 0.  1.
</event>
<event>
 5   0  0.2632875E-08  0.3900776E+04  0.7818609E-02  0.8024868E-01
        1   -1    0    0  501    0  0.00000000000E+00  0.00000000000E+00  0.16379463839E+04  0.16379463839E+04  0.50400001928E-02 0. -1.
       -1   -1    0    0    0  501  0.00000000000E+00  0.00000000000E+00 -0.23224288996E+04  0.23224288997E+04  0.50400001928E-02 0.  1.
    10030    2    1    2    0    0  0.00000000000E+00  0.00000000000E+00 -0.68448251579E+03  0.39603752835E+04  0.39007763422E+04 0.  0.
        2    1    3    3  502    0  0.16893710435E+04 -0.47847091384E+03  0.51991218922E+03  0.18311792983E+04  0.25500000920E-02 0. -1.
       -2    1    3    3    0  502 -0.16893710435E+04  0.47847091384E+03 -0.12043947050E+04  0.21291959852E+04  0.25500000920E-02 0.  1.
</event>
<event>
 5   0  0.8476262E-08  0.3892935E+04  0.7818609E-02  0.8026500E-01
        2   -1    0    0  501    0  0.00000000000E+00  0.00000000000E+00  0.17615395127E+04  0.17615395127E+04  0.25500000920E-02 0.  1.
       -2   -1    0    0    0  501  0.00000000000E+00  0.00000000000E+00 -0.21508096475E+04  0.21508096475E+04  0.25500000920E-02 0. -1.
    10030    2    1    2    0    0  0.00000000000E+00  0.00000000000E+00 -0.38927013486E+03  0.39123491602E+04  0.38929352311E+04 0.  0.
        2    1    3    3  502    0  0.19053689351E+03 -0.18989735798E+04 -0.57907537500E+03  0.19944255450E+04  0.25500000920E-02 0.  1.
       -2    1    3    3    0  502 -0.19053689351E+03  0.18989735798E+04  0.18980524014E+03  0.19179236152E+04  0.25500000920E-02 0. -1.
</event>
<event>
 5   0  0.8676098E-08  0.3911529E+04  0.7818609E-02  0.8022636E-01
       -2   -1    0    0    0  501  0.00000000000E+00  0.00000000000E+00  0.13963580038E+04  0.13963580038E+04  0.25500000920E-02 0.  1.
        2   -1    0    0  501    0  0.00000000000E+00  0.00000000000E+00 -0.27392801439E+04  0.27392801440E+04  0.25500000920E-02 0. -1.
    10030    2    1    2    0    0  0.00000000000E+00  0.00000000000E+00 -0.13429221402E+04  0.41356381477E+04  0.39115294981E+04 0.  0.
        3    1    3    3  502    0 -0.24851772015E+03 -0.14365785610E+04  0.70687807016E+03  0.16202455479E+04  0.10100000352E+00 0.  1.
       -3    1    3    3    0  502  0.24851772015E+03  0.14365785610E+04 -0.20498002103E+04  0.25153925999E+04  0.10100000352E+00 0. -1.
</event>
<event>
 5   0  0.8438211E-08  0.3898521E+04  0.7818609E-02  0.8025337E-01
        2   -1    0    0  501    0  0.00000000000E+00  0.00000000000E+00  0.21702748075E+04  0.21702748075E+04  0.25500000920E-02 0. -1.
       -2   -1    0    0    0  501  0.00000000000E+00  0.00000000000E+00 -0.17507532228E+04  0.17507532228E+04  0.25500000920E-02 0.  1.
    10030    2    1    2    0    0  0.00000000000E+00  0.00000000000E+00  0.41952158474E+03  0.39210280303E+04  0.38985205469E+04 0.  0.
        5    1    3    3  502    0 -0.18895507555E+04 -0.41871050655E+03 -0.23684762882E+02  0.19355370324E+04  0.46999998093E+01 0.  1.
       -5    1    3    3    0  502  0.18895507555E+04  0.41871050655E+03  0.44320634762E+03  0.19854909979E+04  0.46999998093E+01 0. -1.
</event>
<event>
 5   0  0.2632875E-08  0.3896068E+04  0.7818609E-02  0.8025847E-01
       -1   -1    0    0    0  501  0.00000000000E+00  0.00000000000E+00  0.18313093762E+04  0.18313093763E+04  0.50400001928E-02 0.  1.
        1   -1    0    0  501    0  0.00000000000E+00  0.00000000000E+00 -0.20721984720E+04  0.20721984720E+04  0.50400001928E-02 0. -1.
    10030    2    1    2    0    0  0.00000000000E+00  0.00000000000E+00 -0.24088909576E+03  0.39035078483E+04  0.38960680134E+04 0.  0.
        2    1    3    3  502    0 -0.95448302602E+02  0.19341343055E+04 -0.33262856184E+03  0.19648479968E+04  0.25500000920E-02 0. -1.
       -2    1    3    3    0  502  0.95448302602E+02 -0.19341343055E+04  0.91739466078E+02  0.19386598515E+04  0.25500000920E-02 0.  1.
</event>
<event>
 5   0  0.8476262E-08  0.3899774E+04  0.7818609E-02  0.8025076E-01
        2   -1    0    0  501    0  0.00000000000E+00  0.00000000000E+00  0.19118511835E+04  0.19118511835E+04  0.25500000920E-02 0.  1.
       -2   -1    0    0    0  501  0.00000000000E+00  0.00000000000E+00 -0.19886790939E+04  0.19886790939E+04  0.25500000920E-02 0. -1.
    10030    2    1    2    0    0  0.00000000000E+00  0.00000000000E+00 -0.76827910382E+02  0.39005302773E+04  0.38997735725E+04 0.  0.
        2    1    3    3  502    0 -0.12712975080E+04  0.14779556781E+04  0.42834400769E+00  0.19495000702E+04  0.25500000920E-02 0. -1.
       -2    1    3    3    0  502  0.12712975080E+04 -0.14779556781E+04 -0.77256254389E+02  0.19510302071E+04  0.25500000920E-02 0.  1.
</event>
<event>
 5   0  0.2632875E-08  0.3854969E+04  0.7818609E-02  0.8034461E-01
       -1   -1    0    0    0  501  0.00000000000E+00  0.00000000000E+00  0.33584705962E+04  0.33584705962E+04  0.50400001928E-02 0.  1.
        1   -1    0    0  501    0  0.00000000000E+00  0.00000000000E+00 -0.11062165103E+04  0.11062165103E+04  0.50400001928E-02 0. -1.
    10030    2    1    2    0    0  0.00000000000E+00  0.00000000000E+00  0.22522540860E+04  0.44646871065E+04  0.38549685461E+04 0.  0.
        2    1    3    3  502    0 -0.11056687580E+04  0.39515368379E+03  0.28964697131E+04  0.31254098348E+04  0.25500000920E-02 0.  1.
       -2    1    3    3    0  502  0.11056687580E+04 -0.39515368379E+03 -0.64421562718E+03  0.13392772717E+04  0.25500000920E-02 0. -1.
</event>
<event>
 5   0  0.8438211E-08  0.3902812E+04  0.7818609E-02  0.8024445E-01
       -2   -1    0    0    0  501  0.00000000000E+00  0.00000000000E+00  0.15343303698E+04  0.15343303698E+04  0.25500000920E-02 0. -1.
        2   -1    0    0  501    0  0.00000000000E+00  0.00000000000E+00 -0.24818551411E+04  0.24818551411E+04  0.25500000920E-02 0.  1.
    10030    2    1    2    0    0  0.00000000000E+00  0.00000000000E+00 -0.94752477126E+03  0.40161855109E+04  0.39028121740E+04 0.  0.
        5    1    3    3  502    0 -0.80014614947E+03 -0.44511955991E+03 -0.22470736391E+04  0.24264639525E+04  0.46999998093E+01 0.  1.
       -5    1    3    3    0  502  0.80014614947E+03  0.44511955991E+03  0.12995488679E+04  0.15897215584E+04  0.46999998093E+01 0. -1.
</event>
<event>
 5   0  0.2632875E-08  0.3896501E+04  0.7818609E-02  0.8025757E-01
        1   -1    0    0  501    0  0.00000000000E+00  0.00000000000E+00  0.23546610723E+04  0.23546610723E+04  0.50400001928E-02 0. -1.
       -1   -1    0    0    0  501  0.00000000000E+00  0.00000000000E+00 -0.16119861276E+04  0.16119861276E+04  0.50400001928E-02 0.  1.
    10030    2    1    2    0    0  0.00000000000E+00  0.00000000000E+00  0.74267494470E+03  0.39666471998E+04  0.38965014994E+04 0.  0.
        1    1    3    3  502    0 -0.17061857753E+02  0.89633533988E+03 -0.13895335667E+04  0.16536358975E+04  0.50400001928E-02 0.  1.
       -1    1    3    3    0  502  0.17061857753E+02 -0.89633533988E+03  0.21322085114E+04  0.23130113023E+04  0.50400001928E-02 0. -1.
</event>
<event>
 5   0  0.2632875E-08  0.3896162E+04  0.7818609E-02  0.8025828E-01
       -1   -1    0    0    0  501  0.00000000000E+00  0.00000000000E+00  0.13623577268E+04  0.13623577268E+04  0.50400001928E-02 0. -1.
        1   -1    0    0  501    0  0.00000000000E+00  0.00000000000E+00 -0.27856264030E+04  0.27856264030E+04  0.50400001928E-02 0.  1.
    10030    2    1    2    0    0  0.00000000000E+00  0.00000000000E+00 -0.14232686762E+04  0.41479841298E+04  0.38961620367E+04 0.  0.
        4    1    3    3  502    0  0.31269458596E+03  0.15234081017E+04  0.53742513805E+03  0.16454110551E+04  0.12699999809E+01 0. -1.
       -4    1    3    3    0  502 -0.31269458596E+03 -0.15234081017E+04 -0.19606938142E+04  0.25025730747E+04  0.12699999809E+01 0.  1.
</event>
<event>
 5   0  0.2632875E-08  0.3898048E+04  0.7818609E-02  0.8025435E-01
        1   -1    0    0  501    0  0.00000000000E+00  0.00000000000E+00  0.14971680783E+04  0.14971680783E+04  0.50400001928E-02 0.  1.
       -1   -1    0    0    0  501  0.00000000000E+00  0.00000000000E+00 -0.25372536384E+04  0.25372536384E+04  0.50400001928E-02 0. -1.
    10030    2    1    2    0    0  0.00000000000E+00  0.00000000000E+00 -0.10400855602E+04  0.40344217167E+04  0.38980483086E+04 0.  0.
        1    1    3    3  502    0  0.15108791106E+04 -0.30394336435E+03 -0.17549139275E+04  0.23355642035E+04  0.50400001928E-02 0. -1.
       -1    1    3    3    0  502 -0.15108791106E+04  0.30394336435E+03  0.71482836739E+03  0.16988575133E+04  0.50400001928E-02 0.  1.
</event>
<event>
 5   0  0.8438211E-08  0.3903216E+04  0.7818609E-02  0.8024361E-01
       -2   -1    0    0    0  501  0.00000000000E+00  0.00000000000E+00  0.27100958802E+04  0.27100958802E+04  0.25500000920E-02 0.  1.
        2   -1    0    0  501    0  0.00000000000E+00  0.00000000000E+00 -0.14054015254E+04  0.14054015254E+04  0.25500000920E-02 0. -1.
    10030    2    1    2    0    0  0.00000000000E+00  0.00000000000E+00  0.13046943548E+04  0.41154974055E+04  0.39032155379E+04 0.  0.
        5    1    3    3  502    0  0.15750978117E+04  0.72830151596E+03  0.15938821101E+04  0.23562339624E+04  0.46999998093E+01 0.  1.
       -5    1    3    3    0  502 -0.15750978117E+04 -0.72830151596E+03 -0.28918775529E+03  0.17592634432E+04  0.46999998093E+01 0. -1.
</event>
<event>
 5   0  0.2632875E-08  0.3916375E+04  0.7818609E-02  0.8021632E-01
       -1   -1    0    0    0  501  0.00000000000E+00  0.00000000000E+00  0.16154474075E+04  0.16154474075E+04  0.50400001928E-02 0.  1.
        1   -1    0    0  501    0  0.00000000000E+00  0.00000000000E+00 -0.23736451485E+04  0.23736451485E+04  0.50400001928E-02 0. -1.
    10030    2    1    2    0    0  0.00000000000E+00  0.00000000000E+00 -0.75819774096E+03  0.39890925560E+04  0.39163753147E+04 0.  0.
        5    1    3    3  502    0 -0.77976465010E+03  0.13507154047E+04 -0.15851497856E+04  0.22237776299E+04  0.46999998093E+01 0. -1.
       -5    1    3    3    0  502  0.77976465010E+03 -0.13507154047E+04  0.82695204467E+03  0.17653149261E+04  0.46999998093E+01 0.  1.
</event>
<event>
 5   0  0.2632875E-08  0.3850197E+04  0.7818609E-02  0.8035468E-01
        1   -1    0    0  501    0  0.00000000000E+00  0.00000000000E+00  0.24411058763E+04  0.24411058764E+04  0.50400001928E-02 0. -1.
       -1   -1    0    0    0  501  0.00000000000E+00  0.00000000000E+00 -0.15181661750E+04  0.15181661750E+04  0.50400001928E-02 0.  1.
    10030    2    1    2    0    0  0.00000000000E+00  0.00000000000E+00  0.92293970139E+03  0.39592720513E+04  0.38501970708E+04 0.  0.
        3    1    3    3  502    0 -0.57728168384E+03  0.28589671050E+03  0.23269782251E+04  0.24145017585E+04  0.10100000352E+00 0. -1.
       -3    1    3    3    0  502  0.57728168384E+03 -0.28589671050E+03 -0.14040385237E+04  0.15447702929E+04  0.10100000352E+00 0.  1.
</event>
<event>
 5   0  0.8551754E-08  0.3890798E+04  0.7818609E-02  0.8026946E-01
        2   -1    0    0  501    0  0.00000000000E+00  0.00000000000E+00  0.22655619942E+04  0.22655619942E+04  0.25500000920E-02 0.  1.
       -2   -1    0    0    0  501  0.00000000000E+00  0.00000000000E+00 -0.16704803732E+04  0.16704803732E+04  0.25500000920E-02 0. -1.
    10030    2    1    2    0    0  0.00000000000E+00  0.00000000000E+00  0.59508162103E+03  0.39360423675E+04  0.38907977823E+04 0.  0.
        1    1    3    3  502    0 -0.39719230286E+02 -0.94626501420E+03 -0.14215081621E+04  0.17081219363E+04  0.50400001928E-02 0. -1.
       -1    1    3    3    0  502  0.39719230286E+02  0.94626501420E+03  0.20165897831E+04  0.22279204312E+04  0.50400001928E-02 0.  1.
</event>
<event>
 5   0  0.2632875E-08  0.3933777E+04  0.7818609E-02  0.8018041E-01
       -1   -1    0    0    0  501  0.00000000000E+00  0.00000000000E+00  0.18089309503E+04  0.18089309503E+04  0.50400001928E-02 0.  1.
        1   -1    0    0  501    0  0.00000000000E+00  0.00000000000E+00 -0.21386388045E+04  0.21386388045E+04  0.50400001928E-02 0. -1.
    10030    2    1    2    0    0  0.00000000000E+00  0.00000000000E+00 -0.32970785426E+03  0.39475697548E+04  0.39337767730E+04 0.  0.
        3    1    3    3  502    0  0.66237007147E+03  0.71458296429E+03 -0.18794368627E+04  0.21169898100E+04  0.10100000352E+00 0. -1.
       -3    1    3    3    0  502 -0.66237007147E+03 -0.71458296429E+03  0.15497290085E+04  0.18305799448E+04  0.10100000352E+00 0.  1.
</event>
<event>
 5   0  0.8676098E-08  0.3876491E+04  0.7818609E-02  0.8029936E-01
        2   -1    0    0  501    0  0.00000000000E+00  0.00000000000E+00  0.14305723741E+04  0.14305723741E+04  0.25500000920E-02 0. -1.
       -2   -1    0    0    0  501  0.00000000000E+00  0.00000000000E+00 -0.26260787462E+04  0.26260787462E+04  0.25500000920E-02 0.  1.
    10030    2    1    2    0    0  0.00000000000E+00  0.00000000000E+00 -0.11955063721E+04  0.40566511203E+04  0.38764910455E+04 0.  0.
        3    1    3    3  502    0  0.12413312968E+04 -0.10125107964E+04  0.54415882126E+03  0.16918009144E+04  0.10100000352E+00 0. -1.
       -3    1    3    3    0  502 -0.12413312968E+04  0.10125107964E+04 -0.17396651933E+04  0.23648502059E+04  0.10100000352E+00 0.  1.
</event>
<event>
 5   0  0.2632875E-08  0.3893659E+04  0.7818609E-02  0.8026349E-01
        1   -1    0    0  501    0  0.00000000000E+00  0.00000000000E+00  0.25604673741E+04  0.25604673741E+04  0.50400001928E-02 0. -1.
       -1   -1    0    0    0  501  0.00000000000E+00  0.00000000000E+00 -0.14802549730E+04  0.14802549730E+04  0.50400001928E-02 0.  1.
    10030    2    1    2    0    0  0.00000000000E+00  0.00000000000E+00  0.10802124011E+04  0.40407223472E+04  0.38936587235E+04 0.  0.
        3    1    3    3  502    0 -0.36983234990E+03  0.11579085395E+04  0.21182730879E+04  0.24422549085E+04  0.10100000352E+00 0. -1.
       -3    1    3    3    0  502  0.36983234990E+03 -0.11579085395E+04 -0.10380606867E+04  0.15984674387E+04  0.10100000352E+00 0.  1.
</event>
<event>
 5   0  0.2632875E-08  0.3898578E+04  0.7818609E-02  0.8025325E-01
        1   -1    0    0  501    0  0.00000000000E+00  0.00000000000E+00  0.20747000857E+04  0.20747000857E+04  0.50400001928E-02 0.  1.
       -1   -1    0    0    0  501  0.00000000000E+00  0.00000000000E+00 -0.18314586952E+04  0.18314586952E+04  0.50400001928E-02 0. -1.
    10030    2    1    2    0    0  0.00000000000E+00  0.00000000000E+00  0.24324139042E+03  0.39061587809E+04  0.38985779520E+04 0.  0.
        1    1    3    3  502    0 -0.18219246474E+04  0.59168129882E+03 -0.23995681599E+03  0.19305635068E+04  0.50400001928E-02 0.  1.
       -1    1    3    3    0  502  0.18219246474E+04 -0.59168129882E+03  0.48319820641E+03  0.19755952741E+04  0.50400001928E-02 0. -1.
</event>
<event>
 5   0  0.8551754E-08  0.3913464E+04  0.7818609E-02  0.8022235E-01
        2   -1    0    0  501    0  0.00000000000E+00  0.00000000000E+00  0.26584930783E+04  0.26584930783E+04  0.25500000920E-02 0.  1.
       -2   -1    0    0    0  501  0.00000000000E+00  0.00000000000E+00 -0.14402147172E+04  0.14402147172E+04  0.25500000920E-02 0. -1.
    10030    2    1    2    0    0  0.00000000000E+00  0.00000000000E+00  0.12182783611E+04  0.40987077955E+04  0.39134643767E+04 0.  0.
        1    1    3    3  502    0  0.80297312901E+03  0.29614630093E+03  0.24520713885E+04  0.25971373802E+04  0.50400001928E-02 0.  1.
       -1    1    3    3    0  502 -0.80297312901E+03 -0.29614630093E+03 -0.12337930274E+04  0.15015704153E+04  0.50400001928E-02 0. -1.
</event>
<event>
 5   0  0.2632875E-08  0.3905923E+04  0.7818609E-02  0.8023798E-01
        1   -1    0    0  501    0  0.00000000000E+00  0.00000000000E+00  0.18717662352E+04  0.18717662352E+04  0.50400001928E-02 0.  1.
       -1   -1    0    0    0  501  0.00000000000E+00  0.00000000000E+00 -0.20376790279E+04  0.20376790279E+04  0.50400001928E-02 0. -1.
    10030    2    1    2    0    0  0.00000000000E+00  0.00000000000E+00 -0.16591279269E+03  0.39094452631E+04  0.39059230933E+04 0.  0.
        3    1    3    3  502    0  0.10493019607E+04 -0.44387650716E+03  0.15046636737E+04  0.18873456863E+04  0.10100000352E+00 0.  1.
       -3    1    3    3    0  502 -0.10493019607E+04  0.44387650716E+03 -0.16705764664E+04  0.20220995768E+04  0.10100000352E+00 0. -1.
</event>
<event>
 5   0  0.2632875E-08  0.3795022E+04  0.7818609E-02  0.8047224E-01
       -1   -1    0    0    0  501  0.00000000000E+00  0.00000000000E+00  0.25623962189E+04  0.25623962189E+04  0.50400001928E-02 0.  1.
        1   -1    0    0  501    0  0.00000000000E+00  0.00000000000E+00 -0.14051491308E+04  0.14051491308E+04  0.50400001928E-02 0. -1.
    10030    2    1    2    0    0  0.00000000000E+00  0.00000000000E+00  0.11572470882E+04  0.39675453497E+04  0.37950224346E+04 0.  0.
        3    1    3    3  502    0  0.11579829044E+04 -0.15029352006E+04  0.54886581871E+03  0.19750929906E+04  0.10100000352E+00 0.  1.
       -3    1    3    3    0  502 -0.11579829044E+04  0.15029352006E+04  0.60838126944E+03  0.19924523591E+04  0.10100000352E+00 0. -1.
</event>
<event>
 5   0  0.8676098E-08  0.3862780E+04  0.7818609E-02  0.8032815E-01
        2   -1    0    0  501    0  0.00000000000E+00  0.00000000000E+00  0.29152860130E+04  0.29152860130E+04  0.25500000920E-02 0. -1.
       -2   -1    0    0    0  501  0.00000000000E+00  0.00000000000E+00 -0.12795546393E+04  0.12795546393E+04  0.25500000920E-02 0.  1.
    10030    2    1    2    0    0  0.00000000000E+00  0.00000000000E+00  0.16357313737E+04  0.41948406523E+04  0.38627802127E+04 0.  0.
        3    1    3    3  502    0  0.69274769115E+03 -0.98974483709E+03 -0.81858295987E+03  0.14593054096E+04  0.10100000352E+00 0.  1.
       -3    1    3    3    0  502 -0.69274769115E+03  0.98974483709E+03  0.24543143335E+04  0.27355352427E+04  0.10100000352E+00 0. -1.
</event>
<event>
 5   0  0.8438211E-08  0.3898378E+04  0.7818609E-02  0.8025367E-01
       -2   -1    0    0    0  501  0.00000000000E+00  0.00000000000E+00  0.22399555825E+04  0.22399555825E+04  0.25500000920E-02 0.  1.
        2   -1    0    0  501    0  0.00000000000E+00  0.00000000000E+00 -0.16961661802E+04  0.16961661802E+04  0.25500000920E-02 0. -1.
    10030    2    1    2    0    0  0.00000000000E+00  0.00000000000E+00  0.54378940232E+03  0.39361217626E+04  0.38983775620E+04 0.  0.
        5    1    3    3  502    0  0.93393893282E+03  0.62637716625E+03  0.18793911044E+04  0.21901423008E+04  0.46999998093E+01 0.  1.
       -5    1    3    3    0  502 -0.93393893282E+03 -0.62637716625E+03 -0.13356017020E+04  0.17459794618E+04  0.46999998093E+01 0. -1.
</event>
<event>
 5   0  0.8476262E-08  0.3793798E+04  0.7818609E-02  0.8047487E-01
        2   -1    0    0  501    0  0.00000000000E+00  0.00000000000E+00  0.20954469596E+04  0.20954469596E+04  0.25500000920E-02 0.  1.
       -2   -1    0    0    0  501  0.00000000000E+00  0.00000000000E+00 -0.17171640404E+04  0.17171640404E+04  0.25500000920E-02 0. -1.
    10030    2    1    2    0    0  0.00000000000E+00  0.00000000000E+00  0.37828291918E+03  0.38126110000E+04  0.37937981853E+04 0.  0.
        2    1    3    3  502    0  0.76098892379E+03 -0.10879846074E+03  0.19318933415E+04  0.20792193560E+04  0.25500000920E-02 0.  1.
       -2    1    3    3    0  502 -0.76098892379E+03  0.10879846074E+03 -0.15536104224E+04  0.17333916441E+04  0.25500000920E-02 0. -1.
</event>
<event>
 5   0  0.8476262E-08  0.3912328E+04  0.7818609E-02  0.8022470E-01
        2   -1    0    0  501    0  0.00000000000E+00  0.00000000000E+00  0.17372742615E+04  0.17372742615E+04  0.25500000920E-02 0. -1.
       -2   -1    0    0    0  501  0.00000000000E+00  0.00000000000E+00 -0.22026325853E+04  0.22026325853E+04  0.25500000920E-02 0.  1.
    10030    2    1    2    0    0  0.00000000000E+00  0.00000000000E+00 -0.46535832377E+03  0.39399068469E+04  0.39123276438E+04 0.  0.
        2    1    3    3  502    0  0.42922404656E+03 -0.15530707134E+04  0.88433554329E+03  0.18380183014E+04  0.25500000920E-02 0. -1.
       -2    1    3    3    0  502 -0.42922404656E+03  0.15530707134E+04 -0.13496938671E+04  0.21018885455E+04  0.25500000920E-02 0.  1.
</event>
<event>
 5   0  0.8676098E-08  0.3909869E+04  0.7818609E-02  0.8022980E-01
        2   -1    0    0  501    0  0.00000000000E+00  0.00000000000E+00  0.27308050371E+04  0.27308050371E+04  0.25500000920E-02 0.  1.
       -2   -1    0    0    0  501  0.00000000000E+00  0.00000000000E+00 -0.13995026351E+04  0.13995026351E+04  0.25500000920E-02 0. -1.
    10030    2    1    2    0    0  0.00000000000E+00  0.00000000000E+00  0.13313024020E+04  0.41303076722E+04  0.39098689724E+04 0.  0.
        3    1    3    3  502    0 -0.48859611234E+03 -0.10584747652E+04 -0.99211640715E+03  0.15308134978E+04  0.10100000352E+00 0. -1.
       -3    1    3    3    0  502  0.48859611234E+03  0.10584747652E+04  0.23234188092E+04  0.25994941744E+04  0.10100000352E+00 0.  1.
</event>
<event>
 5   0  0.2632875E-08  0.3839815E+04  0.7818609E-02  0.8037664E-01
        1   -1    0    0  501    0  0.00000000000E+00  0.00000000000E+00  0.14550201306E+04  0.14550201306E+04  0.50400001928E-02 0. -1.
       -1   -1    0    0    0  501  0.00000000000E+00  0.00000000000E+00 -0.25333294764E+04  0.25333294764E+04  0.50400001928E-02 0.  1.
    10030    2    1    2    0    0  0.00000000000E+00  0.00000000000E+00 -0.10783093458E+04  0.39883496070E+04  0.38398153006E+04 0.  0.
        2    1    3    3  502    0  0.18101689064E+04  0.32716071021E+03 -0.11102410559E+04  0.21485764595E+04  0.25500000920E-02 0.  1.
       -2    1    3    3    0  502 -0.18101689064E+04 -0.32716071021E+03  0.31931710082E+02  0.18397731475E+04  0.25500000920E-02 0. -1.
</event>
<event>
 5   0  0.8551754E-08  0.3900739E+04  0.7818609E-02  0.8024875E-01
        2   -1    0    0  501    0  0.00000000000E+00  0.00000000000E+00  0.19647430454E+04  0.19647430454E+04  0.25500000920E-02 0.  1.
       -2   -1    0    0    0  501  0.00000000000E+00  0.00000000000E+00 -0.19361014444E+04  0.19361014444E+04  0.25500000920E-02 0. -1.
    10030    2    1    2    0    0  0.00000000000E+00  0.00000000000E+00  0.28641601007E+02  0.39008444899E+04  0.39007393393E+04 0.  0.
        1    1    3    3  502    0  0.91138696409E+03 -0.43000355942E+03 -0.16555782752E+04  0.19381611607E+04  0.50400001928E-02 0. -1.
       -1    1    3    3    0  502 -0.91138696409E+03  0.43000355942E+03  0.16842198762E+04  0.19626833292E+04  0.50400001928E-02 0.  1.
</event>
<event>
 5   0  0.2632875E-08  0.3894167E+04  0.7818609E-02  0.8026244E-01
        1   -1    0    0  501    0  0.00000000000E+00  0.00000000000E+00  0.28409251777E+04  0.28409251777E+04  0.50400001928E-02 0.  1.
       -1   -1    0    0    0  501  0.00000000000E+00  0.00000000000E+00 -0.13344713680E+04  0.13344713680E+04  0.50400001928E-02 0. -1.
    10030    2    1    2    0    0  0.00000000000E+00  0.00000000000E+00  0.15064538097E+04  0.41753965457E+04  0.38941665646E+04 0.  0.
        3    1    3    3  502    0 -0.96606539984E+03  0.10140659906E+04 -0.69705328997E+03  0.15644473431E+04  0.10100000352E+00 0. -1.
       -3    1    3    3    0  502  0.96606539984E+03 -0.10140659906E+04  0.22035070997E+04  0.26109492026E+04  0.10100000352E+00 0.  1.
</event>
<event>
 5   0  0.2632875E-08  0.3921633E+04  0.7818609E-02  0.8020545E-01
        1   -1    0    0  501    0  0.00000000000E+00  0.00000000000E+00  0.15933464383E+04  0.15933464383E+04  0.50400001928E-02 0.  1.
       -1   -1    0    0    0  501  0.00000000000E+00  0.00000000000E+00 -0.24130351936E+04  0.24130351936E+04  0.50400001928E-02 0. -1.
    10030    2    1    2    0    0  0.00000000000E+00  0.00000000000E+00 -0.81968875530E+03  0.40063816318E+04  0.39216328391E+04 0.  0.
        3    1    3    3  502    0 -0.96826638877E+03  0.12065869594E+04 -0.16406240390E+04  0.22550031347E+04  0.10100000352E+00 0. -1.
       -3    1    3    3    0  502  0.96826638877E+03 -0.12065869594E+04  0.82093528365E+03  0.17513784971E+04  0.10100000352E+00 0.  1.
</event>
<event>
 5   0  0.2632875E-08  0.3779146E+04  0.7818609E-02  0.8050645E-01
       -1   -1    0    0    0  501  0.00000000000E+00  0.00000000000E+00  0.13835322371E+04  0.13835322371E+04  0.50400001928E-02 0.  1.
        1   -1    0    0  501    0  0.00000000000E+00  0.00000000000E+00 -0.25807037849E+04  0.25807037849E+04  0.50400001928E-02 0. -1.
    10030    2    1    2    0    0  0.00000000000E+00  0.00000000000E+00 -0.11971715479E+04  0.39642360220E+04  0.37791464014E+04 0.  0.
        4    1    3    3  502    0  0.15863019418E+04 -0.87690907487E+03 -0.11587450481E+04  0.21512821933E+04  0.12699999809E+01 0. -1.
       -4    1    3    3    0  502 -0.15863019418E+04  0.87690907487E+03 -0.38426499775E+02  0.18129538287E+04  0.12699999809E+01 0.  1.
</event>
<event>
 5   0  0.8342802E-08  0.3857342E+04  0.7818609E-02  0.8033960E-01
        2   -1    0    0  501    0  0.00000000000E+00  0.00000000000E+00  0.15093127937E+04  0.15093127937E+04  0.25500000920E-02 0.  1.
       -2   -1    0    0    0  501  0.00000000000E+00  0.00000000000E+00 -0.24645466328E+04  0.24645466328E+04  0.25500000920E-02 0. -1.
    10030    2    1    2    0    0  0.00000000000E+00  0.00000000000E+00 -0.95523383916E+03  0.39738594265E+04  0.38573419675E+04 0.  0.
        4    1    3    3  502    0 -0.66435381233E+03  0.11288999236E+04 -0.19360014130E+04  0.23374952640E+04  0.12699999809E+01 0. -1.
       -4    1    3    3    0  502  0.66435381233E+03 -0.11288999236E+04  0.98076757382E+03  0.16363641625E+04  0.12699999809E+01 0.  1.
</event>
<event>
 5   0  0.2632875E-08  0.3890936E+04  0.7818609E-02  0.8026917E-01
       -1   -1    0    0    0  501  0.00000000000E+00  0.00000000000E+00  0.19200285854E+04  0.19200285854E+04  0.50400001928E-02 0.  1.
        1   -1    0    0  501    0  0.00000000000E+00  0.00000000000E+00 -0.19712445447E+04  0.19712445447E+04  0.50400001928E-02 0. -1.
    10030    2    1    2    0    0  0.00000000000E+00  0.00000000000E+00 -0.51215959296E+02  0.38912731301E+04  0.38909360697E+04 0.  0.
        3    1    3    3  502    0 -0.17624455397E+04 -0.11899562944E+03  0.78961392360E+03  0.19349068192E+04  0.10100000352E+00 0.  1.
       -3    1    3    3    0  502  0.17624455397E+04  0.11899562944E+03 -0.84082988290E+03  0.19563663109E+04  0.10100000352E+00 0. -1.
</event>
<event>
 5   0  0.8438211E-08  0.3902721E+04  0.7818609E-02  0.8024464E-01
        2   -1    0    0  501    0  0.00000000000E+00  0.00000000000E+00  0.30062341756E+04  0.30062341756E+04  0.25500000920E-02 0.  1.
       -2   -1    0    0    0  501  0.00000000000E+00  0.00000000000E+00 -0.12666369478E+04  0.12666369478E+04  0.25500000920E-02 0. -1.
    10030    2    1    2    0    0  0.00000000000E+00  0.00000000000E+00  0.17395972279E+04  0.42728711234E+04  0.39027207333E+04 0.  0.
        5    1    3    3  502    0  0.14609630635E+04  0.10722614116E+04  0.16620510371E+04  0.24589821771E+04  0.46999998093E+01 0.  1.
       -5    1    3    3    0  502 -0.14609630635E+04 -0.10722614116E+04  0.77546190793E+02  0.18138889462E+04  0.46999998093E+01 0. -1.
</event>
<event>
 5   0  0.2632875E-08  0.3955583E+04  0.7818609E-02  0.8013567E-01
        1   -1    0    0  501    0  0.00000000000E+00  0.00000000000E+00  0.16857781433E+04  0.16857781433E+04  0.50400001928E-02 0. -1.
       -1   -1    0    0    0  501  0.00000000000E+00  0.00000000000E+00 -0.23203875830E+04  0.23203875830E+04  0.50400001928E-02 0.  1.
    10030    2    1    2    0    0  0.00000000000E+00  0.00000000000E+00 -0.63460943972E+03  0.40061657263E+04  0.39555827238E+04 0.  0.
        3    1    3    3  502    0  0.56155602548E+03  0.24697341518E+03 -0.22215928432E+04  0.23047376876E+04  0.10100000352E+00 0.  1.
       -3    1    3    3    0  502 -0.56155602548E+03 -0.24697341518E+03  0.15869834035E+04  0.17014280386E+04  0.10100000352E+00 0. -1.
</event>
<event>
 5   0  0.8551754E-08  0.3906113E+04  0.7818609E-02  0.8023759E-01
        2   -1    0    0  501    0  0.00000000000E+00  0.00000000000E+00  0.18715380417E+04  0.18715380417E+04  0.25500000920E-02 0. -1.
       -2   -1    0    0    0  501  0.00000000000E+00  0.00000000000E+00 -0.20381257996E+04  0.20381257996E+04  0.25500000920E-02 0.  1.
    10030    2    1    2    0    0  0.00000000000E+00  0.00000000000E+00 -0.16658775786E+03  0.39096638413E+04  0.39061131411E+04 0.  0.
        1    1    3    3  502    0  0.17961923762E+04 -0.75010417574E+02  0.68061437826E+03  0.19222823796E+04  0.50400001928E-02 0. -1.
       -1    1    3    3    0  502 -0.17961923762E+04  0.75010417574E+02 -0.84720213612E+03  0.19873814617E+04  0.50400001928E-02 0.  1.
</event>
<event>
 5   0  0.2632875E-08  0.3920773E+04  0.7818609E-02  0.8020723E-01
        1   -1    0    0  501    0  0.00000000000E+00  0.00000000000E+00  0.20418925876E+04  0.20418925876E+04  0.50400001928E-02 0.  1.
       -1   -1    0    0    0  501  0.00000000000E+00  0.00000000000E+00 -0.18821336809E+04  0.18821336809E+04  0.50400001928E-02 0. -1.
    10030    2    1    2    0    0  0.00000000000E+00  0.00000000000E+00  0.15975890677E+03  0.39240262685E+04  0.39207727870E+04 0.  0.
        3    1    3    3  502    0  0.83919099402E+03  0.13526943661E+04  0.12249841274E+04  0.20086337882E+04  0.10100000352E+00 0. -1.
       -3    1    3    3    0  502 -0.83919099402E+03 -0.13526943661E+04 -0.10652252206E+04  0.19153924803E+04  0.10100000352E+00 0.  1.
</event>
<event>
 5   0  0.8438211E-08  0.3892985E+04  0.7818609E-02  0.8026490E-01
       -2   -1    0    0    0  501  0.00000000000E+00  0.00000000000E+00  0.33321427746E+04  0.33321427746E+04  0.25500000920E-02 0.  1.
        2   -1    0    0  501    0  0.00000000000E+00  0.00000000000E+00 -0.11370559179E+04  0.11370559179E+04  0.25500000920E-02 0. -1.
    10030    2    1    2    0    0  0.00000000000E+00  0.00000000000E+00  0.21950868568E+04  0.44691986925E+04  0.38929847989E+04 0.  0.
        5    1    3    3  502    0 -0.15975766324E+04 -0.10873998498E+04  0.83047040265E+03  0.21034240442E+04  0.46999998093E+01 0. -1.
       -5    1    3    3    0  502  0.15975766324E+04  0.10873998498E+04  0.13646164541E+04  0.23657746483E+04  0.46999998093E+01 0.  1.
</event>
<event>
 5   0  0.8676098E-08  0.3904760E+04  0.7818609E-02  0.8024040E-01
        2   -1    0    0  501    0  0.00000000000E+00  0.00000000000E+00  0.18740835692E+04  0.18740835692E+04  0.25500000920E-02 0. -1.
       -2   -1    0    0    0  501  0.00000000000E+00  0.00000000000E+00 -0.20339473453E+04  0.20339473453E+04  0.25500000920E-02 0.  1.
    10030    2    1    2    0    0  0.00000000000E+00  0.00000000000E+00 -0.15986377618E+03  0.39080309145E+04  0.39047598136E+04 0.  0.
        3    1    3    3  502    0  0.41710993677E+03 -0.16451858629E+04 -0.10457118025E+04  0.19935221110E+04  0.10100000352E+00 0.  1.
       -3    1    3    3    0  502 -0.41710993677E+03  0.16451858629E+04  0.88584802629E+03  0.19145088035E+04  0.10100000352E+00 0. -1.
</event>
<event>
 5   0  0.8676098E-08  0.3900405E+04  0.7818609E-02  0.8024945E-01
       -2   -1    0    0    0  501  0.00000000000E+00  0.00000000000E+00  0.24165130858E+04  0.24165130858E+04  0.25500000920E-02 0.  1.
        2   -1    0    0  501    0  0.00000000000E+00  0.00000000000E+00 -0.15738749643E+04  0.15738749643E+04  0.25500000920E-02 0. -1.
    10030    2    1    2    0    0  0.00000000000E+00  0.00000000000E+00  0.84263812145E+03  0.39903880501E+04  0.39004048235E+04 0.  0.
        3    1    3    3  502    0 -0.11291337263E+03  0.12793736037E+04 -0.10801016592E+04  0.16781435731E+04  0.10100000352E+00 0. -1.
       -3    1    3    3    0  502  0.11291337263E+03 -0.12793736037E+04  0.19227397806E+04  0.23122444771E+04  0.10100000352E+00 0.  1.
</event>
<event>
 5   0  0.2632875E-08  0.3867087E+04  0.7818609E-02  0.8031910E-01
        1   -1    0    0  501    0  0.00000000000E+00  0.00000000000E+00  0.28618045689E+04  0.28618045689E+04  0.50400001928E-02 0.  1.
       -1   -1    0    0    0  501  0.00000000000E+00  0.00000000000E+00 -0.13063748957E+04  0.13063748957E+04  0.50400001928E-02 0. -1.
    10030    2    1    2    0    0  0.00000000000E+00  0.00000000000E+00  0.15554296731E+04  0.41681794646E+04  0.38670865753E+04 0.  0.
        1    1    3    3  502    0 -0.20779876683E+02  0.12739636241E+04  0.23453161487E+04  0.26690678066E+04  0.50400001928E-02 0.  1.
       -1    1    3    3    0  502  0.20779876683E+02 -0.12739636241E+04 -0.78988647559E+03  0.14991116580E+04  0.50400001928E-02 0. -1.
</event>
<event>
 5   0  0.2632875E-08  0.3888117E+04  0.7818609E-02  0.8027505E-01
        1   -1    0    0  501    0  0.00000000000E+00  0.00000000000E+00  0.15032197202E+04  0.15032197202E+04  0.50400001928E-02 0. -1.
       -1   -1    0    0    0  501  0.00000000000E+00  0.00000000000E+00 -0.25141786084E+04  0.25141786084E+04  0.50400001928E-02 0.  1.
    10030    2    1    2    0    0  0.00000000000E+00  0.00000000000E+00 -0.10109588882E+04  0.40173983287E+04  0.38881166980E+04 0.  0.
        4    1    3    3  502    0 -0.75604283695E+03  0.17905319731E+04 -0.46218472745E+03  0.19978042580E+04  0.12699999809E+01 0.  1.
       -4    1    3    3    0  502  0.75604283695E+03 -0.17905319731E+04 -0.54877416078E+03  0.20195940707E+04  0.12699999809E+01 0. -1.
</event>
<event>
 5   0  0.2632875E-08  0.3902956E+04  0.7818609E-02  0.8024415E-01
       -1   -1    0    0    0  501  0.00000000000E+00  0.00000000000E+00  0.29142457095E+04  0.29142457095E+04  0.50400001928E-02 0. -1.
        1   -1    0    0  501    0  0.00000000000E+00  0.00000000000E+00 -0.13067760662E+04  0.13067760662E+04  0.50400001928E-02 0.  1.
    10030    2    1    2    0    0  0.00000000000E+00  0.00000000000E+00  0.16074696433E+04  0.42210217757E+04  0.39029560818E+04 0.  0.
        1    1    3    3  502    0 -0.36280931889E+02 -0.17330655677E+04 -0.16565627138E+03  0.17413427486E+04  0.50400001928E-02 0.  1.
       -1    1    3    3    0  502  0.36280931889E+02  0.17330655677E+04  0.17731259147E+04  0.24796790270E+04  0.50400001928E-02 0. -1.
</event>
<event>
 5   0  0.2632875E-08  0.3889949E+04  0.7818609E-02  0.8027123E-01
        1   -1    0    0  501    0  0.00000000000E+00  0.00000000000E+00  0.16097585992E+04  0.16097585992E+04  0.50400001928E-02 0. -1.
       -1   -1    0    0    0  501  0.00000000000E+00  0.00000000000E+00 -0.23499958371E+04  0.23499958371E+04  0.50400001928E-02 0.  1.
    10030    2    1    2    0    0  0.00000000000E+00  0.00000000000E+00 -0.74023723789E+03  0.39597544362E+04  0.38899491034E+04 0.  0.
        5    1    3    3  502    0  0.13069274385E+04 -0.10013207922E+04 -0.14241717225E+04  0.21769221032E+04  0.46999998093E+01 0. -1.
       -5    1    3    3    0  502 -0.13069274385E+04  0.10013207922E+04  0.68393448457E+03  0.17828323330E+04  0.46999998093E+01 0.  1.
</event>
<event>
 5   0  0.2632875E-08  0.3884247E+04  0.7818609E-02  0.8028313E-01
       -1   -1    0    0    0  501  0.00000000000E+00  0.00000000000E+00  0.24635928102E+04  0.24635928102E+04  0.50400001928E-02 0. -1.
        1   -1    0    0  501    0  0.00000000000E+00  0.00000000000E+00 -0.15310340877E+04  0.15310340877E+04  0.50400001928E-02 0.  1.
    10030    2    1    2    0    0  0.00000000000E+00  0.00000000000E+00  0.93255872252E+03  0.39946268979E+04  0.38842474538E+04 0.  0.
        4    1    3    3  502    0 -0.90002963365E+03  0.87744587257E+03 -0.10562916487E+04  0.16418642638E+04  0.12699999809E+01 0.  1.
       -4    1    3    3    0  502  0.90002963365E+03 -0.87744587257E+03  0.19888503712E+04  0.23527626341E+04  0.12699999809E+01 0. -1.
</event>
<event>
 5   0  0.2632875E-08  0.3755704E+04  0.7818609E-02  0.8055728E-01
        1   -1    0    0  501    0  0.00000000000E+00  0.00000000000E+00  0.12758400037E+04  0.12758400037E+04  0.50400001928E-02 0.  1.
       -1   -1    0    0    0  501  0.00000000000E+00  0.00000000000E+00 -0.27639263162E+04  0.27639263162E+04  0.50400001928E-02 0. -1.
    10030    2    1    2    0    0  0.00000000000E+00  0.00000000000E+00 -0.14880863125E+04  0.40397663199E+04  0.37557038016E+04 0.  0.
        2    1    3    3  502    0 -0.98431337990E+03  0.12038783395E+04  0.38825456698E+03  0.16027905337E+04  0.25500000920E-02 0.  1.
       -2    1    3    3    0  502  0.98431337990E+03 -0.12038783395E+04 -0.18763408795E+04  0.24369757861E+04  0.25500000920E-02 0. -1.
</event>
<event>
 5   0  0.8476262E-08  0.3890948E+04  0.7818609E-02  0.8026914E-01
       -2   -1    0    0    0  501  0.00000000000E+00  0.00000000000E+00  0.30437276223E+04  0.30437276223E+04  0.25500000920E-02 0.  1.
        2   -1    0    0  501    0  0.00000000000E+00  0.00000000000E+00 -0.12434980360E+04  0.12434980360E+04  0.25500000920E-02 0. -1.
    10030    2    1    2    0    0  0.00000000000E+00  0.00000000000E+00  0.18002295863E+04  0.42872256583E+04  0.38909481212E+04 0.  0.
        2    1    3    3  502    0  0.75129598088E+03 -0.11564134502E+04 -0.61191809880E+03  0.15087019183E+04  0.25500000920E-02 0. -1.
       -2    1    3    3    0  502 -0.75129598088E+03  0.11564134502E+04  0.24121476851E+04  0.27785237400E+04  0.25500000920E-02 0.  1.
</event>
<event>
 5   0  0.2632875E-08  0.3891761E+04  0.7818609E-02  0.8026745E-01
       -1   -1    0    0    0  501  0.00000000000E+00  0.00000000000E+00  0.19954899254E+04  0.19954899254E+04  0.50400001928E-02 0.  1.
        1   -1    0    0  501    0  0.00000000000E+00  0.00000000000E+00 -0.18975043962E+04  0.18975043962E+04  0.50400001928E-02 0. -1.
    10030    2    1    2    0    0  0.00000000000E+00  0.00000000000E+00  0.97985529249E+02  0.38929943216E+04  0.38917609926E+04 0.  0.
        5    1    3    3  502    0  0.16888650183E+03  0.82460937839E+03  0.18039505089E+04  0.19906689343E+04  0.46999998093E+01 0.  1.
       -5    1    3    3    0  502 -0.16888650183E+03 -0.82460937839E+03 -0.17059649796E+04  0.19023253873E+04  0.46999998093E+01 0. -1.
</event>
<event>
 5   0  0.2632875E-08  0.3899094E+04  0.7818609E-02  0.8025218E-01
        1   -1    0    0  501    0  0.00000000000E+00  0.00000000000E+00  0.13068924932E+04  0.13068924932E+04  0.50400001928E-02 0.  1.
       -1   -1    0    0    0  501  0.00000000000E+00  0.00000000000E+00 -0.29082213100E+04  0.29082213100E+04  0.50400001928E-02 0. -1.
    10030    2    1    2    0    0  0.00000000000E+00  0.00000000000E+00 -0.16013288168E+04  0.42151138032E+04  0.38990935350E+04 0.  0.
        3    1    3    3  502    0 -0.14984483253E+04  0.11938998498E+04 -0.41090386468E+03  0.19594862161E+04  0.10100000352E+00 0. -1.
       -3    1    3    3    0  502  0.14984483253E+04 -0.11938998498E+04 -0.11904249521E+04  0.22556275871E+04  0.10100000352E+00 0.  1.
</event>
<event>
 5   0  0.8476262E-08  0.3879209E+04  0.7818609E-02  0.8029367E-01
       -2   -1    0    0    0  501  0.00000000000E+00  0.00000000000E+00  0.15916397326E+04  0.15916397326E+04  0.25500000920E-02 0. -1.
        2   -1    0    0  501    0  0.00000000000E+00  0.00000000000E+00 -0.23636414554E+04  0.23636414554E+04  0.25500000920E-02 0.  1.
    10030    2    1    2    0    0  0.00000000000E+00  0.00000000000E+00 -0.77200172281E+03  0.39552811879E+04  0.38792090193E+04 0.  0.
        2    1    3    3  502    0  0.11849168614E+04 -0.14942521198E+04 -0.74684535474E+03  0.20480711291E+04  0.25500000920E-02 0.  1.
       -2    1    3    3    0  502 -0.11849168614E+04  0.14942521198E+04 -0.25156368064E+02  0.19072100589E+04  0.25500000920E-02 0. -1.
</event>
<event>
 5   0  0.2632875E-08  0.3900109E+04  0.7818609E-02  0.8025007E-01
        1   -1    0    0  501    0  0.00000000000E+00  0.00000000000E+00  0.24053516575E+04  0.24053516576E+04  0.50400001928E-02 0. -1.
       -1   -1    0    0    0  501  0.00000000000E+00  0.00000000000E+00 -0.15809383151E+04  0.15809383151E+04  0.50400001928E-02 0.  1.
    10030    2    1    2    0    0  0.00000000000E+00  0.00000000000E+00  0.82441334243E+03  0.39862899727E+04  0.39001090225E+04 0.  0.
        2    1    3    3  502    0  0.10277010583E+04 -0.16238526713E+04  0.75065144330E+03  0.20631394894E+04  0.25500000920E-02 0.  1.
       -2    1    3    3    0  502 -0.10277010583E+04  0.16238526713E+04  0.73761899133E+02  0.19231504833E+04  0.25500000920E-02 0. -1.
</event>
<event>
 5   0  0.2632875E-08  0.3896162E+04  0.7818609E-02  0.8025828E-01
       -1   -1    0    0    0  501  0.00000000000E+00  0.00000000000E+00  0.29240798720E+04  0.29240798720E+04  0.50400001928E-02 0. -1.
        1   -1    0    0  501    0  0.00000000000E+00  0.00000000000E+00 -0.12978509536E+04  0.12978509536E+04  0.50400001928E-02 0.  1.
    10030    2    1    2    0    0  0.00000000000E+00  0.00000000000E+00  0.16262289184E+04  0.42219308256E+04  0.38961621375E+04 0.  0.
        5    1    3    3  502    0  0.92640617026E+03 -0.23319423703E+03  0.26528290343E+04  0.28195978294E+04  0.46999998093E+01 0. -1.
       -5    1    3    3    0  502 -0.92640617026E+03  0.23319423703E+03 -0.10266001158E+04  0.14023329962E+04  0.46999998093E+01 0.  1.
</event>
<event>
 5   0  0.8551754E-08  0.3878278E+04  0.7818609E-02  0.8029562E-01
       -2   -1    0    0    0  501  0.00000000000E+00  0.00000000000E+00  0.19905619841E+04  0.19905619841E+04  0.25500000920E-02 0.  1.
        2   -1    0    0  501    0  0.00000000000E+00  0.00000000000E+00 -0.18890447440E+04  0.18890447440E+04  0.25500000920E-02 0. -1.
    10030    2    1    2    0    0  0.00000000000E+00  0.00000000000E+00  0.10151724004E+03  0.38796067281E+04  0.38782783055E+04 0.  0.
        1    1    3    3  502    0  0.29670849567E+03 -0.10933333617E+03  0.19645973987E+04  0.19898825717E+04  0.50400001928E-02 0.  1.
       -1    1    3    3    0  502 -0.29670849567E+03  0.10933333617E+03 -0.18630801587E+04  0.18897241565E+04  0.50400001928E-02 0. -1.
</event>
<event>
 5   0  0.8476262E-08  0.3892419E+04  0.7818609E-02  0.8026608E-01
       -2   -1    0    0    0  501  0.00000000000E+00  0.00000000000E+00  0.15391493299E+04  0.15391493299E+04  0.25500000920E-02 0.  1.
        2   -1    0    0  501    0  0.00000000000E+00  0.00000000000E+00 -0.24609250592E+04  0.24609250592E+04  0.25500000920E-02 0. -1.
    10030    2    1    2    0    0  0.00000000000E+00  0.00000000000E+00 -0.92177572924E+03  0.40000743891E+04  0.38924188654E+04 0.  0.
        2    1    3    3  502    0 -0.18433963430E+04 -0.40795077513E+03 -0.94639197663E+03  0.21119165906E+04  0.25500000920E-02 0.  1.
       -2    1    3    3    0  502  0.18433963430E+04  0.40795077513E+03  0.24616247385E+02  0.18881577985E+04  0.25500000920E-02 0. -1.
</event>
<event>
 5   0  0.8342802E-08  0.3904827E+04  0.7818609E-02  0.8024026E-01
       -2   -1    0    0    0  501  0.00000000000E+00  0.00000000000E+00  0.18200746105E+04  0.18200746105E+04  0.25500000920E-02 0. -1.
        2   -1    0    0  501    0  0.00000000000E+00  0.00000000000E+00 -0.20943751084E+04  0.20943751085E+04  0.25500000920E-02 0.  1.
    10030    2    1    2    0    0  0.00000000000E+00  0.00000000000E+00 -0.27430049790E+03  0.39144497190E+04  0.39048272483E+04 0.  0.
        4    1    3    3  502    0  0.47102770125E+03 -0.13316825554E+04 -0.14883113505E+04  0.20519058976E+04  0.12699999809E+01 0.  1.
       -4    1    3    3    0  502 -0.47102770125E+03  0.13316825554E+04  0.12140108526E+04  0.18625438214E+04  0.12699999809E+01 0. -1.
</event>
<event>
 5   0  0.8438211E-08  0.3897861E+04  0.7818609E-02  0.8025474E-01
       -2   -1    0    0    0  501  0.00000000000E+00  0.00000000000E+00  0.19302331990E+04  0.19302331990E+04  0.25500000920E-02 0.  1.
        2   -1    0    0  501    0  0.00000000000E+00  0.00000000000E+00 -0.19678091944E+04  0.19678091944E+04  0.25500000920E-02 0. -1.
    10030    2    1    2    0    0  0.00000000000E+00  0.00000000000E+00 -0.37575995370E+02  0.38980423935E+04  0.38978612784E+04 0.  0.
        5    1    3    3  502    0  0.18986620086E+04  0.39838764800E+03  0.16744204302E+03  0.19472259933E+04  0.46999998093E+01 0. -1.
       -5    1    3    3    0  502 -0.18986620086E+04 -0.39838764800E+03 -0.20501803839E+03  0.19508164002E+04  0.46999998093E+01 0.  1.
</event>
<event>
 5   0  0.8342802E-08  0.3903116E+04  0.7818609E-02  0.8024381E-01
       -2   -1    0    0    0  501  0.00000000000E+00  0.00000000000E+00  0.34106443644E+04  0.34106443644E+04  0.25500000920E-02 0. -1.
        2   -1    0    0  501    0  0.00000000000E+00  0.00000000000E+00 -0.11166743010E+04  0.11166743010E+04  0.25500000920E-02 0.  1.
    10030    2    1    2    0    0  0.00000000000E+00  0.00000000000E+00  0.22939700635E+04  0.45273186654E+04  0.39031161457E+04 0.  0.
        4    1    3    3  502    0  0.13962096831E+04 -0.10260818865E+04  0.21885502734E+04  0.27914153093E+04  0.12699999809E+01 0. -1.
       -4    1    3    3    0  502 -0.13962096831E+04  0.10260818865E+04  0.10541979008E+03  0.17359033562E+04  0.12699999809E+01 0.  1.
</event>
<event>
 5   0  0.8551754E-08  0.3885236E+04  0.7818609E-02  0.8028107E-01
       -2   -1    0    0    0  501  0.00000000000E+00  0.00000000000E+00  0.19193230224E+04  0.19193230224E+04  0.25500000920E-02 0.  1.
        2   -1    0    0  501    0  0.00000000000E+00  0.00000000000E+00 -0.19661959085E+04  0.19661959085E+04  0.25500000920E-02 0. -1.
    10030    2    1    2    0    0  0.00000000000E+00  0.00000000000E+00 -0.46872886100E+02  0.38855189309E+04  0.38852361955E+04 0.  0.
        1    1    3    3  502    0 -0.83879540338E+03 -0.26519217218E+03  0.17087001228E+04  0.19218638679E+04  0.50400001928E-02 0.  1.
       -1    1    3    3    0  502  0.83879540338E+03  0.26519217218E+03 -0.17555730089E+04  0.19636550630E+04  0.50400001928E-02 0. -1.
</event>
<event>
 5   0  0.2632875E-08  0.3911311E+04  0.7818609E-02  0.8022681E-01
        1   -1    0    0  501    0  0.00000000000E+00  0.00000000000E+00  0.24184451653E+04  0.24184451653E+04  0.50400001928E-02 0. -1.
       -1   -1    0    0    0  501  0.00000000000E+00  0.00000000000E+00 -0.15814241649E+04  0.15814241649E+04  0.50400001928E-02 0.  1.
    10030    2    1    2    0    0  0.00000000000E+00  0.00000000000E+00  0.83702100037E+03  0.39998693301E+04  0.39113105864E+04 0.  0.
        4    1    3    3  502    0 -0.97050149284E+03  0.23775617302E+03 -0.13006791331E+04  0.16401734559E+04  0.12699999809E+01 0.  1.
       -4    1    3    3    0  502  0.97050149284E+03 -0.23775617302E+03  0.21377001334E+04  0.23596958742E+04  0.12699999809E+01 0. -1.
</event>
<event>
 5   0  0.8476262E-08  0.3866375E+04  0.7818609E-02  0.8032059E-01
        2   -1    0    0  501    0  0.00000000000E+00  0.00000000000E+00  0.20660451437E+04  0.20660451437E+04  0.25500000920E-02 0. -1.
       -2   -1    0    0    0  501  0.00000000000E+00  0.00000000000E+00 -0.18088732067E+04  0.18088732067E+04  0.25500000920E-02 0.  1.
    10030    2    1    2    0    0  0.00000000000E+00  0.00000000000E+00  0.25717193698E+03  0.38749183505E+04  0.38663748936E+04 0.  0.
        2    1    3    3  502    0  0.45171820971E+03  0.97586613756E+03  0.17386381284E+04  0.20443156804E+04  0.25500000920E-02 0. -1.
       -2    1    3    3    0  502 -0.45171820971E+03 -0.97586613756E+03 -0.14814661914E+04  0.18306026701E+04  0.25500000920E-02 0.  1.
</event>
<event>
 5   0  0.8676098E-08  0.3953644E+04  0.7818609E-02  0.8013964E-01
       -2   -1    0    0    0  501  0.00000000000E+00  0.00000000000E+00  0.26322296289E+04  0.26322296289E+04  0.25500000920E-02 0. -1.
        2   -1    0    0  501    0  0.00000000000E+00  0.00000000000E+00 -0.14846065811E+04  0.14846065811E+04  0.25500000920E-02 0.  1.
    10030    2    1    2    0    0  0.00000000000E+00  0.00000000000E+00  0.11476230478E+04  0.41168362100E+04  0.39536441064E+04 0.  0.
        3    1    3    3  502    0  0.62413159643E+03  0.18200271410E+04  0.10145020630E+03  0.19267410823E+04  0.10100000352E+00 0. -1.
       -3    1    3    3    0  502 -0.62413159643E+03 -0.18200271410E+04  0.10461728415E+04  0.21900951277E+04  0.10100000352E+00 0.  1.
</event>
<event>
 5   0  0.2632875E-08  0.3890134E+04  0.7818609E-02  0.8027084E-01
       -1   -1    0    0    0  501  0.00000000000E+00  0.00000000000E+00  0.25781501517E+04  0.25781501517E+04  0.50400001928E-02 0. -1.
        1   -1    0    0  501    0  0.00000000000E+00  0.00000000000E+00 -0.14674421039E+04  0.14674421039E+04  0.50400001928E-02 0.  1.
    10030    2    1    2    0    0  0.00000000000E+00  0.00000000000E+00  0.11107080478E+04  0.40455922556E+04  0.38901342304E+04 0.  0.
        2    1    3    3  502    0 -0.10093308485E+04  0.75744226276E+03 -0.98393696115E+03  0.16001873286E+04  0.25500000920E-02 0.  1.
       -2    1    3    3    0  502  0.10093308485E+04 -0.75744226276E+03  0.20946450090E+04  0.24454049269E+04  0.25500000920E-02 0. -1.
</event>
<event>
 5   0  0.8551754E-08  0.3900516E+04  0.7818609E-02  0.8024922E-01
       -2   -1    0    0    0  501  0.00000000000E+00  0.00000000000E+00  0.17316949761E+04  0.17316949761E+04  0.25500000920E-02 0.  1.
        2   -1    0    0  501    0  0.00000000000E+00  0.00000000000E+00 -0.21964060530E+04  0.21964060530E+04  0.25500000920E-02 0. -1.
    10030    2    1    2    0    0  0.00000000000E+00  0.00000000000E+00 -0.46471107690E+03  0.39281010291E+04  0.39005155185E+04 0.  0.
        1    1    3    3  502    0  0.14289895381E+04  0.77809111955E+03  0.85045484362E+03  0.18359494360E+04  0.50400001928E-02 0.  1.
       -1    1    3    3    0  502 -0.14289895381E+04 -0.77809111955E+03 -0.13151659205E+04  0.20921515932E+04  0.50400001928E-02 0. -1.
</event>
<event>
 5   0  0.2632875E-08  0.3942058E+04  0.7818609E-02  0.8016338E-01
       -1   -1    0    0    0  501  0.00000000000E+00  0.00000000000E+00  0.12979529959E+04  0.12979529959E+04  0.50400001928E-02 0.  1.
        1   -1    0    0  501    0  0.00000000000E+00  0.00000000000E+00 -0.29931404535E+04  0.29931404535E+04  0.50400001928E-02 0. -1.
    10030    2    1    2    0    0  0.00000000000E+00  0.00000000000E+00 -0.16951874577E+04  0.42910934494E+04  0.39420581521E+04 0.  0.
        1    1    3    3  502    0  0.67448944730E+03 -0.14102657502E+04 -0.21543740031E+04  0.26617875284E+04  0.50400001928E-02 0. -1.
       -1    1    3    3    0  502 -0.67448944730E+03  0.14102657502E+04  0.45918654543E+03  0.16293059210E+04  0.50400001928E-02 0.  1.
</event>
<event>
 5   0  0.8476262E-08  0.3902007E+04  0.7818609E-02  0.8024612E-01
       -2   -1    0    0    0  501  0.00000000000E+00  0.00000000000E+00  0.15321127447E+04  0.15321127447E+04  0.25500000920E-02 0. -1.
        2   -1    0    0  501    0  0.00000000000E+00  0.00000000000E+00 -0.24844215189E+04  0.24844215189E+04  0.25500000920E-02 0.  1.
    10030    2    1    2    0    0  0.00000000000E+00  0.00000000000E+00 -0.95230877430E+03  0.40165342636E+04  0.39020065978E+04 0.  0.
        2    1    3    3  502    0  0.80165109723E+03  0.80426674603E+03  0.11568921517E+04  0.16210764730E+04  0.25500000920E-02 0. -1.
       -2    1    3    3    0  502 -0.80165109723E+03 -0.80426674603E+03 -0.21092009260E+04  0.23954577906E+04  0.25500000920E-02 0.  1.
</event>
<event>
 5   0  0.2632875E-08  0.3876544E+04  0.7818609E-02  0.8029925E-01
       -1   -1    0    0    0  501  0.00000000000E+00  0.00000000000E+00  0.13605120978E+04  0.13605120978E+04  0.50400001928E-02 0. -1.
        1   -1    0    0  501    0  0.00000000000E+00  0.00000000000E+00 -0.27613850343E+04  0.27613850343E+04  0.50400001928E-02 0.  1.
    10030    2    1    2    0    0  0.00000000000E+00  0.00000000000E+00 -0.14008729365E+04  0.41218971322E+04  0.38765436905E+04 0.  0.
        5    1    3    3  502    0 -0.15415404337E+04  0.11491323506E+04 -0.96093989647E+03  0.21494835758E+04  0.46999998093E+01 0. -1.
       -5    1    3    3    0  502  0.15415404337E+04 -0.11491323506E+04 -0.43993304002E+03  0.19724135564E+04  0.46999998093E+01 0.  1.
</event>
<event>
 5   0  0.8438211E-08  0.3896469E+04  0.7818609E-02  0.8025764E-01
        2   -1    0    0  501    0  0.00000000000E+00  0.00000000000E+00  0.30201765234E+04  0.30201765234E+04  0.25500000920E-02 0. -1.
       -2   -1    0    0    0  501  0.00000000000E+00  0.00000000000E+00 -0.12567538010E+04  0.12567538010E+04  0.25500000920E-02 0.  1.
    10030    2    1    2    0    0  0.00000000000E+00  0.00000000000E+00  0.17634227224E+04  0.42769303244E+04  0.38964693379E+04 0.  0.
        5    1    3    3  502    0 -0.80195442113E+02 -0.75044786220E+03 -0.10897697387E+04  0.13256030614E+04  0.46999998093E+01 0.  1.
       -5    1    3    3    0  502  0.80195442113E+02  0.75044786220E+03  0.28531924612E+04  0.29513272630E+04  0.46999998093E+01 0. -1.
</event>
<event>
 5   0  0.2632875E-08  0.3811871E+04  0.7818609E-02  0.8043612E-01
        1   -1    0    0  501    0  0.00000000000E+00  0.00000000000E+00  0.10802521036E+04  0.10802521036E+04  0.50400001928E-02 0.  1.
       -1   -1    0    0    0  501  0.00000000000E+00  0.00000000000E+00 -0.33627241394E+04  0.33627241394E+04  0.50400001928E-02 0. -1.
    10030    2    1    2    0    0  0.00000000000E+00  0.00000000000E+00 -0.22824720358E+04  0.44429762430E+04  0.38118708401E+04 0.  0.
        4    1    3    3  502    0  0.16451996419E+04  0.50611279094E+01 -0.19699708385E+02  0.16453258547E+04  0.12699999809E+01 0.  1.
       -4    1    3    3    0  502 -0.16451996419E+04 -0.50611279094E+01 -0.22627723274E+04  0.27976503883E+04  0.12699999809E+01 0. -1.
</event>
<event>
 5   0  0.8342802E-08  0.3896965E+04  0.7818609E-02  0.8025661E-01
       -2   -1    0    0    0  501  0.00000000000E+00  0.00000000000E+00  0.13549990856E+04  0.13549990856E+04  0.25500000920E-02 0. -1.
        2   -1    0    0  501    0  0.00000000000E+00  0.00000000000E+00 -0.28019083556E+04  0.28019083556E+04  0.25500000920E-02 0.  1.
    10030    2    1    2    0    0  0.00000000000E+00  0.00000000000E+00 -0.14469092700E+04  0.41569074411E+04  0.38969645929E+04 0.  0.
        4    1    3    3  502    0 -0.10138193125E+04  0.15813272966E+04 -0.12758342940E+04  0.22707224349E+04  0.12699999809E+01 0.  1.
       -4    1    3    3    0  502  0.10138193125E+04 -0.15813272966E+04 -0.17107497602E+03  0.18861850063E+04  0.12699999809E+01 0. -1.
</event>
<event>
 5   0  0.2632875E-08  0.3902461E+04  0.7818609E-02  0.8024518E-01
       -1   -1    0    0    0  501  0.00000000000E+00  0.00000000000E+00  0.14986032071E+04  0.14986032071E+04  0.50400001928E-02 0.  1.
        1   -1    0    0  501    0  0.00000000000E+00  0.00000000000E+00 -0.25405659832E+04  0.25405659832E+04  0.50400001928E-02 0. -1.
    10030    2    1    2    0    0  0.00000000000E+00  0.00000000000E+00 -0.10419627762E+04  0.40391691903E+04  0.39024609314E+04 0.  0.
        1    1    3    3  502    0  0.61337983856E+03 -0.99679886261E+03  0.10949466255E+04  0.16027323269E+04  0.50400001928E-02 0.  1.
       -1    1    3    3    0  502 -0.61337983856E+03  0.99679886261E+03 -0.21369094017E+04  0.24364368635E+04  0.50400001928E-02 0. -1.
</event>
<event>
 5   0  0.8551754E-08  0.3890299E+04  0.7818609E-02  0.8027050E-01
       -2   -1    0    0    0  501  0.00000000000E+00  0.00000000000E+00  0.25117881805E+04  0.25117881805E+04  0.25500000920E-02 0. -1.
        2   -1    0    0  501    0  0.00000000000E+00  0.00000000000E+00 -0.15063395727E+04  0.15063395727E+04  0.25500000920E-02 0.  1.
    10030    2    1    2    0    0  0.00000000000E+00  0.00000000000E+00  0.10054486078E+04  0.40181277532E+04  0.38902986695E+04 0.  0.
        1    1    3    3  502    0  0.50036194180E+03  0.11677704972E+04 -0.10186154749E+04  0.16283818633E+04  0.50400001928E-02 0.  1.
       -1    1    3    3    0  502 -0.50036194180E+03 -0.11677704972E+04  0.20240640828E+04  0.23897458899E+04  0.50400001928E-02 0. -1.
</event>
<event>
 5   0  0.2632875E-08  0.3911339E+04  0.7818609E-02  0.8022675E-01
        1   -1    0    0  501    0  0.00000000000E+00  0.00000000000E+00  0.12007999302E+04  0.12007999302E+04  0.50400001928E-02 0.  1.
       -1   -1    0    0    0  501  0.00000000000E+00  0.00000000000E+00 -0.31850795362E+04  0.31850795362E+04  0.50400001928E-02 0. -1.
    10030    2    1    2    0    0  0.00000000000E+00  0.00000000000E+00 -0.19842796060E+04  0.43858794663E+04  0.39113390467E+04 0.  0.
        4    1    3    3  502    0  0.14015281326E+04  0.12984628601E+04 -0.52392176537E+03  0.19811063916E+04  0.12699999809E+01 0.  1.
       -4    1    3    3    0  502 -0.14015281326E+04 -0.12984628601E+04 -0.14603578406E+04  0.24047730748E+04  0.12699999809E+01 0. -1.
</event>
<event>
 5   0  0.8676098E-08  0.3875281E+04  0.7818609E-02  0.8030190E-01
       -2   -1    0    0    0  501  0.00000000000E+00  0.00000000000E+00  0.13599653265E+04  0.13599653265E+04  0.25500000920E-02 0.  1.
        2   -1    0    0  501    0  0.00000000000E+00  0.00000000000E+00 -0.27606955960E+04  0.27606955960E+04  0.25500000920E-02 0. -1.
    10030    2    1    2    0    0  0.00000000000E+00  0.00000000000E+00 -0.14007302694E+04  0.41206609225E+04  0.38752807834E+04 0.  0.
        3    1    3    3  502    0 -0.88080549450E+03 -0.15228813050E+04 -0.15638593086E+04  0.23538567789E+04  0.10100000352E+00 0.  1.
       -3    1    3    3    0  502  0.88080549450E+03  0.15228813050E+04  0.16312903920E+03  0.17668041436E+04  0.10100000352E+00 0. -1.
</event>
<event>
 5   0  0.2632875E-08  0.3793472E+04  0.7818609E-02  0.8047557E-01
       -1   -1    0    0    0  501  0.00000000000E+00  0.00000000000E+00  0.13986738167E+04  0.13986738167E+04  0.50400001928E-02 0. -1.
        1   -1    0    0  501    0  0.00000000000E+00  0.00000000000E+00 -0.25721556599E+04  0.25721556599E+04  0.50400001928E-02 0.  1.
    10030    2    1    2    0    0  0.00000000000E+00  0.00000000000E+00 -0.11734818432E+04  0.39708294766E+04  0.37934716416E+04 0.  0.
        3    1    3    3  502    0 -0.11566771995E+04  0.15027022938E+04 -0.54499610969E+03  0.19730780769E+04  0.10100000352E+00 0.  1.
       -3    1    3    3    0  502  0.11566771995E+04 -0.15027022938E+04 -0.62848573350E+03  0.19977513997E+04  0.10100000352E+00 0. -1.
</event>
<event>
 5   0  0.8551754E-08  0.3901203E+04  0.7818609E-02  0.8024779E-01
        2   -1    0    0  501    0  0.00000000000E+00  0.00000000000E+00  0.14278964615E+04  0.14278964615E+04  0.25500000920E-02 0. -1.
       -2   -1    0    0    0  501  0.00000000000E+00  0.00000000000E+00 -0.26646510594E+04  0.26646510594E+04  0.25500000920E-02 0.  1.
    10030    2    1    2    0    0  0.00000000000E+00  0.00000000000E+00 -0.12367545979E+04  0.40925475209E+04  0.39012027985E+04 0.  0.
        1    1    3    3  502    0  0.71196702838E+03 -0.18253165626E+03  0.12770723471E+04  0.14734750201E+04  0.50400001928E-02 0. -1.
       -1    1    3    3    0  502 -0.71196702838E+03  0.18253165626E+03 -0.25138269450E+04  0.26190725008E+04  0.50400001928E-02 0.  1.
</event>
<event>
 5   0  0.2632875E-08  0.3895744E+04  0.7818609E-02  0.8025915E-01
       -1   -1    0    0    0  501  0.00000000000E+00  0.00000000000E+00  0.12138683952E+04  0.12138683952E+04  0.50400001928E-02 0. -1.
        1   -1    0    0  501    0  0.00000000000E+00  0.00000000000E+00 -0.31257134674E+04  0.31257134674E+04  0.50400001928E-02 0.  1.
    10030    2    1    2    0    0  0.00000000000E+00  0.00000000000E+00 -0.19118450722E+04  0.43395818627E+04  0.38957437240E+04 0.  0.
        4    1    3    3  502    0  0.96577622483E+03 -0.11398568485E+04 -0.23482026891E+04  0.27831735184E+04  0.12699999809E+01 0.  1.
       -4    1    3    3    0  502 -0.96577622483E+03  0.11398568485E+04  0.43635761690E+03  0.15564083443E+04  0.12699999809E+01 0. -1.
</event>
<event>
 5   0  0.8676098E-08  0.3892271E+04  0.7818609E-02  0.8026639E-01
       -2   -1    0    0    0  501  0.00000000000E+00  0.00000000000E+00  0.36169766040E+04  0.36169766040E+04  0.25500000920E-02 0.  1.
        2   -1    0    0  501    0  0.00000000000E+00  0.00000000000E+00 -0.10471297187E+04  0.10471297187E+04  0.25500000920E-02 0. -1.
    10030    2    1    2    0    0  0.00000000000E+00  0.00000000000E+00  0.25698468853E+04  0.46641063227E+04  0.38922711591E+04 0.  0.
        3    1    3    3  502    0 -0.16251026822E+04  0.24976382769E+02  0.22049711541E+01  0.16252961021E+04  0.10100000352E+00 0. -1.
       -3    1    3    3    0  502  0.16251026822E+04 -0.24976382769E+02  0.25676419141E+04  0.30388102206E+04  0.10100000352E+00 0.  1.
</event>
<event>
 5   0  0.2632875E-08  0.3904809E+04  0.7818609E-02  0.8024030E-01
        1   -1    0    0  501    0  0.00000000000E+00  0.00000000000E+00  0.13627712359E+04  0.13627712359E+04  0.50400001928E-02 0. -1.
       -1   -1    0    0    0  501  0.00000000000E+00  0.00000000000E+00 -0.27971553615E+04  0.27971553615E+04  0.50400001928E-02 0.  1.
    10030    2    1    2    0    0  0.00000000000E+00  0.00000000000E+00 -0.14343841256E+04  0.41599265974E+04  0.39048087631E+04 0.  0.
        4    1    3    3  502    0  0.29952583770E+03  0.65137089003E+03 -0.26518465765E+04  0.27470514451E+04  0.12699999809E+01 0.  1.
       -4    1    3    3    0  502 -0.29952583770E+03 -0.65137089003E+03  0.12174624509E+04  0.14128751523E+04  0.12699999809E+01 0. -1.
</event>
<event>
 5   0  0.2632875E-08  0.3905187E+04  0.7818609E-02  0.8023951E-01
        1   -1    0    0  501    0  0.00000000000E+00  0.00000000000E+00  0.20657938529E+04  0.20657938529E+04  0.50400001928E-02 0. -1.
       -1   -1    0    0    0  501  0.00000000000E+00  0.00000000000E+00 -0.18455962967E+04  0.18455962967E+04  0.50400001928E-02 0.  1.
    10030    2    1    2    0    0  0.00000000000E+00  0.00000000000E+00  0.22019755622E+03  0.39113901496E+04  0.39051870555E+04 0.  0.
        4    1    3    3  502    0 -0.54808576412E+03  0.18679075183E+04  0.26246987543E+03  0.19642730335E+04  0.12699999809E+01 0.  1.
       -4    1    3    3    0  502  0.54808576412E+03 -0.18679075183E+04 -0.42272319213E+02  0.19471171161E+04  0.12699999809E+01 0. -1.
</event>
<event>
 5   0  0.2632875E-08  0.3894847E+04  0.7818609E-02  0.8026102E-01
       -1   -1    0    0    0  501  0.00000000000E+00  0.00000000000E+00  0.18596574817E+04  0.18596574817E+04  0.50400001928E-02 0.  1.
        1   -1    0    0  501    0  0.00000000000E+00  0.00000000000E+00 -0.20393314124E+04  0.20393314124E+04  0.50400001928E-02 0. -1.
    10030    2    1    2    0    0  0.00000000000E+00  0.00000000000E+00 -0.17967393069E+03  0.38989888942E+04  0.38948468103E+04 0.  0.
        5    1    3    3  502    0  0.64155935240E+03  0.16377660233E+04  0.74685083499E+03  0.19109380444E+04  0.46999998093E+01 0.  1.
       -5    1    3    3    0  502 -0.64155935240E+03 -0.16377660233E+04 -0.92652476568E+03  0.19880508498E+04  0.46999998093E+01 0. -1.
</event>
<event>
 5   0  0.8476262E-08  0.3921780E+04  0.7818609E-02  0.8020515E-01
        2   -1    0    0  501    0  0.00000000000E+00  0.00000000000E+00  0.25934526241E+04  0.25934526241E+04  0.25500000920E-02 0. -1.
       -2   -1    0    0    0  501  0.00000000000E+00  0.00000000000E+00 -0.14826144276E+04  0.14826144276E+04  0.25500000920E-02 0.  1.
    10030    2    1    2    0    0  0.00000000000E+00  0.00000000000E+00  0.11108381965E+04  0.40760670518E+04  0.39217803497E+04 0.  0.
        2    1    3    3  502    0  0.26177747594E+03  0.85987669597E+03  0.23667298056E+04  0.25316645418E+04  0.25500000920E-02 0. -1.
       -2    1    3    3    0  502 -0.26177747594E+03 -0.85987669597E+03 -0.12558916091E+04  0.15444025100E+04  0.25500000920E-02 0.  1.
</event>
<event>
 5   0  0.8342802E-08  0.3910190E+04  0.7818609E-02  0.8022913E-01
        2   -1    0    0  501    0  0.00000000000E+00  0.00000000000E+00  0.15687739087E+04  0.15687739087E+04  0.25500000920E-02 0.  1.
       -2   -1    0    0    0  501  0.00000000000E+00  0.00000000000E+00 -0.24365497940E+04  0.24365497940E+04  0.25500000920E-02 0. -1.
    10030    2    1    2    0    0  0.00000000000E+00  0.00000000000E+00 -0.86777588533E+03  0.40053237027E+04  0.39101896343E+04 0.  0.
        4    1    3    3  502    0  0.13699154846E+04 -0.13453701480E+04 -0.81123198982E+03  0.20844155594E+04  0.12699999809E+01 0. -1.
       -4    1    3    3    0  502 -0.13699154846E+04  0.13453701480E+04 -0.56543895503E+02  0.19209081433E+04  0.12699999809E+01 0.  1.
</event>
<event>
 5   0  0.8438211E-08  0.4013593E+04  0.7818609E-02  0.8001810E-01
       -2   -1    0    0    0  501  0.00000000000E+00  0.00000000000E+00  0.25110285561E+04  0.25110285561E+04  0.25500000920E-02 0. -1.
        2   -1    0    0  501    0  0.00000000000E+00  0.00000000000E+00 -0.16038178198E+04  0.16038178198E+04  0.25500000920E-02 0.  1.
    10030    2    1    2    0    0  0.00000000000E+00  0.00000000000E+00  0.90721073628E+03  0.41148463758E+04  0.40135930756E+04 0.  0.
        5    1    3    3  502    0  0.71104625368E+03  0.13025280899E+04 -0.93141756097E+03  0.17520636297E+04  0.46999998093E+01 0.  1.
       -5    1    3    3    0  502 -0.71104625368E+03 -0.13025280899E+04  0.18386282972E+04  0.23627827461E+04  0.46999998093E+01 0. -1.
</event>
<event>
 5   0  0.8438211E-08  0.3783688E+04  0.7818609E-02  0.8049664E-01
        2   -1    0    0  501    0  0.00000000000E+00  0.00000000000E+00  0.28759689162E+04  0.28759689162E+04  0.25500000920E-02 0.  1.
       -2   -1    0    0    0  501  0.00000000000E+00  0.00000000000E+00 -0.12444757860E+04  0.12444757860E+04  0.25500000920E-02 0. -1.
    10030    2    1    2    0    0  0.00000000000E+00  0.00000000000E+00  0.16314931302E+04  0.41204447022E+04  0.37836879774E+04 0.  0.
        5    1    3    3  502    0  0.15206080707E+03 -0.21552699773E+03  0.28558396721E+04  0.28679987271E+04  0.46999998093E+01 0.  1.
       -5    1    3    3    0  502 -0.15206080707E+03  0.21552699773E+03 -0.12243465419E+04  0.12524459751E+04  0.46999998093E+01 0. -1.
</event>
<event>
 5   0  0.2632875E-08  0.3923240E+04  0.7818609E-02  0.8020213E-01
       -1   -1    0    0    0  501  0.00000000000E+00  0.00000000000E+00  0.28772995866E+04  0.28772995866E+04  0.50400001928E-02 0.  1.
        1   -1    0    0  501    0  0.00000000000E+00  0.00000000000E+00 -0.13373488851E+04  0.13373488851E+04  0.50400001928E-02 0. -1.
    10030    2    1    2    0    0  0.00000000000E+00  0.00000000000E+00  0.15399507015E+04  0.42146484717E+04  0.39232401886E+04 0.  0.
        4    1    3    3  502    0  0.56228366211E+03  0.14810377613E+04 -0.47280906202E+03  0.16532349468E+04  0.12699999809E+01 0. -1.
       -4    1    3    3    0  502 -0.56228366211E+03 -0.14810377613E+04  0.20127597635E+04  0.25614135250E+04  0.12699999809E+01 0.  1.
</event>
<event>
 5   0  0.2632875E-08  0.3921558E+04  0.7818609E-02  0.8020560E-01
       -1   -1    0    0    0  501  0.00000000000E+00  0.00000000000E+00  0.21614930815E+04  0.21614930816E+04  0.50400001928E-02 0.  1.
        1   -1    0    0  501    0  0.00000000000E+00  0.00000000000E+00 -0.17787030087E+04  0.17787030087E+04  0.50400001928E-02 0. -1.
    10030    2    1    2    0    0  0.00000000000E+00  0.00000000000E+00  0.38279007287E+03  0.39401960902E+04  0.39215579799E+04 0.  0.
        1    1    3    3  502    0  0.13579908293E+04 -0.12229749870E+04  0.90529807397E+03  0.20394537293E+04  0.50400001928E-02 0.  1.
       -1    1    3    3    0  502 -0.13579908293E+04  0.12229749870E+04 -0.52250800109E+03  0.19007423609E+04  0.50400001928E-02 0. -1.
</event>
<event>
 5   0  0.8676098E-08  0.3903284E+04  0.7818609E-02  0.8024346E-01
        2   -1    0    0  501    0  0.00000000000E+00  0.00000000000E+00  0.18149499823E+04  0.18149499823E+04  0.25500000920E-02 0. -1.
       -2   -1    0    0    0  501  0.00000000000E+00  0.00000000000E+00 -0.20986292785E+04  0.20986292785E+04  0.25500000920E-02 0.  1.
    10030    2    1    2    0    0  0.00000000000E+00  0.00000000000E+00 -0.28367929625E+03  0.39135792608E+04  0.39032843462E+04 0.  0.
        3    1    3    3  502    0 -0.18954937894E+03  0.20358935892E+03 -0.20786512931E+04  0.20971811564E+04  0.10100000352E+00 0.  1.
       -3    1    3    3    0  502  0.18954937894E+03 -0.20358935892E+03  0.17949719969E+04  0.18163981044E+04  0.10100000352E+00 0. -1.
</event>
<event>
 5   0  0.8551754E-08  0.3977251E+04  0.7818609E-02  0.8009151E-01
       -2   -1    0    0    0  501  0.00000000000E+00  0.00000000000E+00  0.12893963295E+04  0.12893963295E+04  0.25500000920E-02 0.  1.
        2   -1    0    0  501    0  0.00000000000E+00  0.00000000000E+00 -0.30670412250E+04  0.30670412250E+04  0.25500000920E-02 0. -1.
    10030    2    1    2    0    0  0.00000000000E+00  0.00000000000E+00 -0.17776448955E+04  0.43564375546E+04  0.39772511603E+04 0.  0.
        1    1    3    3  502    0 -0.11191429900E+04 -0.76476366787E+03 -0.24826391066E+04  0.28285758666E+04  0.50400001928E-02 0. -1.
       -1    1    3    3    0  502  0.11191429900E+04  0.76476366787E+03  0.70499421109E+03  0.15278616879E+04  0.50400001928E-02 0.  1.
</event>
<event>
 5   0  0.8438211E-08  0.3903058E+04  0.7818609E-02  0.8024394E-01
       -2   -1    0    0    0  501  0.00000000000E+00  0.00000000000E+00  0.11641435405E+04  0.11641435405E+04  0.25500000920E-02 0. -1.
        2   -1    0    0  501    0  0.00000000000E+00  0.00000000000E+00 -0.32714739141E+04  0.32714739141E+04  0.25500000920E-02 0.  1.
    10030    2    1    2    0    0  0.00000000000E+00  0.00000000000E+00 -0.21073303736E+04  0.44356174546E+04  0.39030578910E+04 0.  0.
        5    1    3    3  502    0 -0.80828258471E+03 -0.10370794128E+04 -0.26925099373E+04  0.29964122376E+04  0.46999998093E+01 0.  1.
       -5    1    3    3    0  502  0.80828258471E+03  0.10370794128E+04  0.58517956366E+03  0.14392052171E+04  0.46999998093E+01 0. -1.
</event>
<event>
 5   0  0.2632875E-08  0.3899871E+04  0.7818609E-02  0.8025056E-01
        1   -1    0    0  501    0  0.00000000000E+00  0.00000000000E+00  0.15461194130E+04  0.15461194130E+04  0.50400001928E-02 0. -1.
       -1   -1    0    0    0  501  0.00000000000E+00  0.00000000000E+00 -0.24592209555E+04  0.24592209555E+04  0.50400001928E-02 0.  1.
    10030    2    1    2    0    0  0.00000000000E+00  0.00000000000E+00 -0.91310154255E+03  0.40053403685E+04  0.38998714134E+04 0.  0.
        5    1    3    3  502    0  0.41187851822E+03  0.18360965412E+04  0.68481571713E+02  0.18829780238E+04  0.46999998093E+01 0.  1.
       -5    1    3    3    0  502 -0.41187851822E+03 -0.18360965412E+04 -0.98158311426E+03  0.21223623448E+04  0.46999998093E+01 0. -1.
</event>
<event>
 5   0  0.8476262E-08  0.3933700E+04  0.7818609E-02  0.8018057E-01
        2   -1    0    0  501    0  0.00000000000E+00  0.00000000000E+00  0.12910389905E+04  0.12910389905E+04  0.25500000920E-02 0. -1.
       -2   -1    0    0    0  501  0.00000000000E+00  0.00000000000E+00 -0.29964224893E+04  0.29964224893E+04  0.25500000920E-02 0.  1.
    10030    2    1    2    0    0  0.00000000000E+00  0.00000000000E+00 -0.17053834987E+04  0.42874614798E+04  0.39336996661E+04 0.  0.
        2    1    3    3  502    0 -0.36502395319E+03 -0.43460019202E+03 -0.29052314783E+04  0.29601502927E+04  0.25500000920E-02 0.  1.
       -2    1    3    3    0  502  0.36502395319E+03  0.43460019202E+03  0.11998479795E+04  0.13273111871E+04  0.25500000920E-02 0. -1.
</event>
<event>
 5   0  0.2632875E-08  0.3893593E+04  0.7818609E-02  0.8026363E-01
       -1   -1    0    0    0  501  0.00000000000E+00  0.00000000000E+00  0.20519911062E+04  0.20519911062E+04  0.50400001928E-02 0. -1.
        1   -1    0    0  501    0  0.00000000000E+00  0.00000000000E+00 -0.18469947663E+04  0.18469947663E+04  0.50400001928E-02 0.  1.
    10030    2    1    2    0    0  0.00000000000E+00  0.00000000000E+00  0.20499633988E+03  0.38989858724E+04  0.38935931136E+04 0.  0.
        1    1    3    3  502    0  0.83188576717E+03  0.15434916057E+04  0.94961105882E+03  0.19940314515E+04  0.50400001928E-02 0. -1.
       -1    1    3    3    0  502 -0.83188576717E+03 -0.15434916057E+04 -0.74461471894E+03  0.19049544210E+04  0.50400001928E-02 0.  1.
</event>
<event>
 5   0  0.8676098E-08  0.3871685E+04  0.7818609E-02  0.8030944E-01
       -2   -1    0    0    0  501  0.00000000000E+00  0.00000000000E+00  0.17856999881E+04  0.17856999881E+04  0.25500000920E-02 0.  1.
        2   -1    0    0  501    0  0.00000000000E+00  0.00000000000E+00 -0.20986088678E+04  0.20986088678E+04  0.25500000920E-02 0. -1.
    10030    2    1    2    0    0  0.00000000000E+00  0.00000000000E+00 -0.31290887969E+03  0.38843088559E+04  0.38716848168E+04 0.  0.
        3    1    3    3  502    0  0.93990764615E+03  0.97577251692E+03 -0.15436876009E+04  0.20539059880E+04  0.10100000352E+00 0. -1.
       -3    1    3    3    0  502 -0.93990764615E+03 -0.97577251692E+03  0.12307787212E+04  0.18304028679E+04  0.10100000352E+00 0.  1.
</event>
<event>
 5   0  0.8476262E-08  0.3897847E+04  0.7818609E-02  0.8025477E-01
        2   -1    0    0  501    0  0.00000000000E+00  0.00000000000E+00  0.16105139964E+04  0.16105139964E+04  0.25500000920E-02 0. -1.
       -2   -1    0    0    0  501  0.00000000000E+00  0.00000000000E+00 -0.23584412497E+04  0.23584412497E+04  0.25500000920E-02 0.  1.
    10030    2    1    2    0    0  0.00000000000E+00  0.00000000000E+00 -0.74792725338E+03  0.39689552461E+04  0.38978469146E+04 0.  0.
        2    1    3    3  502    0 -0.12782149056E+04  0.54981040805E+03 -0.17634746525E+04  0.22463231468E+04  0.25500000920E-02 0.  1.
       -2    1    3    3    0  502  0.12782149056E+04 -0.54981040805E+03  0.10155473991E+04  0.17226320993E+04  0.25500000920E-02 0. -1.
</event>
<event>
 5   0  0.2632875E-08  0.3826911E+04  0.7818609E-02  0.8040404E-01
       -1   -1    0    0    0  501  0.00000000000E+00  0.00000000000E+00  0.27040310048E+04  0.27040310048E+04  0.50400001928E-02 0. -1.
        1   -1    0    0  501    0  0.00000000000E+00  0.00000000000E+00 -0.13540201143E+04  0.13540201143E+04  0.50400001928E-02 0.  1.
    10030    2    1    2    0    0  0.00000000000E+00  0.00000000000E+00  0.13500108905E+04  0.40580511191E+04  0.38269112194E+04 0.  0.
        3    1    3    3  502    0 -0.14483197822E+04 -0.28542917732E+03 -0.61598890192E+03  0.15995444178E+04  0.10100000352E+00 0.  1.
       -3    1    3    3    0  502  0.14483197822E+04  0.28542917732E+03  0.19659997924E+04  0.24585067014E+04  0.10100000352E+00 0. -1.
</event>
<event>
 5   0  0.8438211E-08  0.3887449E+04  0.7818609E-02  0.8027645E-01
        2   -1    0    0  501    0  0.00000000000E+00  0.00000000000E+00  0.21216331018E+04  0.21216331018E+04  0.25500000920E-02 0. -1.
       -2   -1    0    0    0  501  0.00000000000E+00  0.00000000000E+00 -0.17807343889E+04  0.17807343889E+04  0.25500000920E-02 0.  1.
    10030    2    1    2    0    0  0.00000000000E+00  0.00000000000E+00  0.34089871286E+03  0.39023674907E+04  0.38874490479E+04 0.  0.
        5    1    3    3  502    0 -0.13025313503E+02  0.69916346616E+03  0.19909811954E+04  0.21102197567E+04  0.46999998093E+01 0. -1.
       -5    1    3    3    0  502  0.13025313503E+02 -0.69916346616E+03 -0.16500824826E+04  0.17921477340E+04  0.46999998093E+01 0.  1.
</event>
<event>
 5   0  0.8476262E-08  0.3897961E+04  0.7818609E-02  0.8025453E-01
       -2   -1    0    0    0  501  0.00000000000E+00  0.00000000000E+00  0.12467447042E+04  0.12467447042E+04  0.25500000920E-02 0.  1.
        2   -1    0    0  501    0  0.00000000000E+00  0.00000000000E+00 -0.30467545438E+04  0.30467545438E+04  0.25500000920E-02 0. -1.
    10030    2    1    2    0    0  0.00000000000E+00  0.00000000000E+00 -0.18000098395E+04  0.42934992480E+04  0.38979610529E+04 0.  0.
        2    1    3    3  502    0  0.10912570828E+03 -0.76662051285E+03 -0.28700441906E+04  0.29726703630E+04  0.25500000920E-02 0. -1.
       -2    1    3    3    0  502 -0.10912570828E+03  0.76662051285E+03  0.10700343511E+04  0.13208288850E+04  0.25500000920E-02 0.  1.
</event>
<event>
 5   0  0.8438211E-08  0.3929457E+04  0.7818609E-02  0.8018931E-01
        2   -1    0    0  501    0  0.00000000000E+00  0.00000000000E+00  0.22368504731E+04  0.22368504731E+04  0.25500000920E-02 0.  1.
       -2   -1    0    0    0  501  0.00000000000E+00  0.00000000000E+00 -0.17257109244E+04  0.17257109244E+04  0.25500000920E-02 0. -1.
    10030    2    1    2    0    0  0.00000000000E+00  0.00000000000E+00  0.51113954870E+03  0.39625613976E+04  0.39294566026E+04 0.  0.
        5    1    3    3  502    0  0.14571753599E+04  0.75035514806E+03  0.13480910204E+04  0.21222074279E+04  0.46999998093E+01 0.  1.
       -5    1    3    3    0  502 -0.14571753599E+04 -0.75035514806E+03 -0.83695147173E+03  0.18403539697E+04  0.46999998093E+01 0. -1.
</event>
<event>
 5   0  0.2632875E-08  0.3901775E+04  0.7818609E-02  0.8024660E-01
       -1   -1    0    0    0  501  0.00000000000E+00  0.00000000000E+00  0.29096647077E+04  0.29096647077E+04  0.50400001928E-02 0.  1.
        1   -1    0    0  501    0  0.00000000000E+00  0.00000000000E+00 -0.13080415069E+04  0.13080415069E+04  0.50400001928E-02 0. -1.
    10030    2    1    2    0    0  0.00000000000E+00  0.00000000000E+00  0.16016232008E+04  0.42177062146E+04  0.39017750877E+04 0.  0.
        1    1    3    3  502    0  0.49336181073E+03  0.72493737582E+03  0.26846258279E+04  0.28242089001E+04  0.50400001928E-02 0.  1.
       -1    1    3    3    0  502 -0.49336181073E+03 -0.72493737582E+03 -0.10830026272E+04  0.13934973145E+04  0.50400001928E-02 0. -1.
</event>
<event>
 5   0  0.8342802E-08  0.3895697E+04  0.7818609E-02  0.8025925E-01
       -2   -1    0    0    0  501  0.00000000000E+00  0.00000000000E+00  0.15559013327E+04  0.15559013327E+04  0.25500000920E-02 0.  1.
        2   -1    0    0  501    0  0.00000000000E+00  0.00000000000E+00 -0.24385312206E+04  0.24385312206E+04  0.25500000920E-02 0. -1.
    10030    2    1    2    0    0  0.00000000000E+00  0.00000000000E+00 -0.88262988796E+03  0.39944325533E+04  0.38956971011E+04 0.  0.
        4    1    3    3  502    0  0.95284410190E+03 -0.44670991968E+03  0.12393282286E+04  0.16258529164E+04  0.12699999809E+01 0.  1.
       -4    1    3    3    0  502 -0.95284410190E+03  0.44670991968E+03 -0.21219581165E+04  0.23685796368E+04  0.12699999809E+01 0. -1.
</event>
<event>
 5   0  0.8676098E-08  0.3933499E+04  0.7818609E-02  0.8018098E-01
       -2   -1    0    0    0  501  0.00000000000E+00  0.00000000000E+00  0.22306893014E+04  0.22306893014E+04  0.25500000920E-02 0.  1.
        2   -1    0    0  501    0  0.00000000000E+00  0.00000000000E+00 -0.17340393875E+04  0.17340393875E+04  0.25500000920E-02 0. -1.
    10030    2    1    2    0    0  0.00000000000E+00  0.00000000000E+00  0.49664991391E+03  0.39647286889E+04  0.39334987529E+04 0.  0.
        3    1    3    3  502    0  0.20726713863E+03  0.10466580480E+04  0.19136076472E+04  0.21909694142E+04  0.10100000352E+00 0.  1.
       -3    1    3    3    0  502 -0.20726713863E+03 -0.10466580480E+04 -0.14169577333E+04  0.17737592747E+04  0.10100000352E+00 0. -1.
</event>
<event>
 5   0  0.8438211E-08  0.3942532E+04  0.7818609E-02  0.8016241E-01
       -2   -1    0    0    0  501  0.00000000000E+00  0.00000000000E+00  0.14603834447E+04  0.14603834447E+04  0.25500000920E-02 0.  1.
        2   -1    0    0  501    0  0.00000000000E+00  0.00000000000E+00 -0.26608689099E+04  0.26608689099E+04  0.25500000920E-02 0. -1.
    10030    2    1    2    0    0  0.00000000000E+00  0.00000000000E+00 -0.12004854652E+04  0.41212523547E+04  0.39425316256E+04 0.  0.
        5    1    3    3  502    0 -0.96038204051E+03 -0.12967562815E+04  0.58331823039E+03  0.17158650196E+04  0.46999998093E+01 0.  1.
       -5    1    3    3    0  502  0.96038204051E+03  0.12967562815E+04 -0.17838036956E+04  0.24053873351E+04  0.46999998093E+01 0. -1.
</event>
<event>
 5   0  0.8676098E-08  0.3864170E+04  0.7818609E-02  0.8032523E-01
       -2   -1    0    0    0  501  0.00000000000E+00  0.00000000000E+00  0.15882240572E+04  0.15882240572E+04  0.25500000920E-02 0. -1.
        2   -1    0    0  501    0  0.00000000000E+00  0.00000000000E+00 -0.23503940140E+04  0.23503940140E+04  0.25500000920E-02 0.  1.
    10030    2    1    2    0    0  0.00000000000E+00  0.00000000000E+00 -0.76216995683E+03  0.39386180712E+04  0.38641699326E+04 0.  0.
        3    1    3    3  502    0  0.17603815248E+04 -0.71762169698E+03 -0.29433249590E+02  0.19012601976E+04  0.10100000352E+00 0.  1.
       -3    1    3    3    0  502 -0.17603815248E+04  0.71762169698E+03 -0.73273670724E+03  0.20373578736E+04  0.10100000352E+00 0. -1.
</event>
<event>
 5   0  0.2632875E-08  0.3879452E+04  0.7818609E-02  0.8029316E-01
        1   -1    0    0  501    0  0.00000000000E+00  0.00000000000E+00  0.20328320978E+04  0.20328320978E+04  0.50400001928E-02 0. -1.
       -1   -1    0    0    0  501  0.00000000000E+00  0.00000000000E+00 -0.18508840552E+04  0.18508840552E+04  0.50400001928E-02 0.  1.
    10030    2    1    2    0    0  0.00000000000E+00  0.00000000000E+00  0.18194804260E+03  0.38837161531E+04  0.38794517741E+04 0.  0.
        3    1    3    3  502    0  0.16943372141E+04  0.68043895603E+02  0.10338840451E+04  0.19860324256E+04  0.10100000352E+00 0. -1.
       -3    1    3    3    0  502 -0.16943372141E+04 -0.68043895603E+02 -0.85193600251E+03  0.18976837274E+04  0.10100000352E+00 0.  1.
</event>
<event>
 5   0  0.2632875E-08  0.3885785E+04  0.7818609E-02  0.8027992E-01
        1   -1    0    0  501    0  0.00000000000E+00  0.00000000000E+00  0.19026708796E+04  0.19026708796E+04  0.50400001928E-02 0. -1.
       -1   -1    0    0    0  501  0.00000000000E+00  0.00000000000E+00 -0.19839640619E+04  0.19839640619E+04  0.50400001928E-02 0.  1.
    10030    2    1    2    0    0  0.00000000000E+00  0.00000000000E+00 -0.81293182334E+02  0.38866349415E+04  0.38857846809E+04 0.  0.
        5    1    3    3  502    0  0.95219630622E+03  0.65482990795E+03 -0.16028233333E+04  0.19759920905E+04  0.46999998093E+01 0.  1.
       -5    1    3    3    0  502 -0.95219630622E+03 -0.65482990795E+03  0.15215301509E+04  0.19106428510E+04  0.46999998093E+01 0. -1.
</event>
<event>
 5   0  0.8342802E-08  0.3932905E+04  0.7818609E-02  0.8018220E-01
       -2   -1    0    0    0  501  0.00000000000E+00  0.00000000000E+00  0.15782334126E+04  0.15782334126E+04  0.25500000920E-02 0.  1.
        2   -1    0    0  501    0  0.00000000000E+00  0.00000000000E+00 -0.24501667001E+04  0.24501667001E+04  0.25500000920E-02 0. -1.
    10030    2    1    2    0    0  0.00000000000E+00  0.00000000000E+00 -0.87193328751E+03  0.40284001126E+04  0.39329047547E+04 0.  0.
        4    1    3    3  502    0  0.14710255624E+04  0.60208801828E+03  0.74994883675E+03  0.17575127475E+04  0.12699999809E+01 0.  1.
       -4    1    3    3    0  502 -0.14710255624E+04 -0.60208801828E+03 -0.16218821243E+04  0.22708873651E+04  0.12699999809E+01 0. -1.
</event>
<event>
 5   0  0.2632875E-08  0.3897507E+04  0.7818609E-02  0.8025548E-01
       -1   -1    0    0    0  501  0.00000000000E+00  0.00000000000E+00  0.13660621011E+04  0.13660621011E+04  0.50400001928E-02 0.  1.
        1   -1    0    0  501    0  0.00000000000E+00  0.00000000000E+00 -0.27799915663E+04  0.27799915663E+04  0.50400001928E-02 0. -1.
    10030    2    1    2    0    0  0.00000000000E+00  0.00000000000E+00 -0.14139294653E+04  0.41460536674E+04  0.38975074702E+04 0.  0.
        5    1    3    3  502    0 -0.29523867401E+03  0.12358406499E+03 -0.27518350474E+04  0.27703893434E+04  0.46999998093E+01 0. -1.
       -5    1    3    3    0  502  0.29523867401E+03 -0.12358406499E+03  0.13379055822E+04  0.13756643241E+04  0.46999998093E+01 0.  1.
</event>
<event>
 5   0  0.2632875E-08  0.3901693E+04  0.7818609E-02  0.8024677E-01
       -1   -1    0    0    0  501  0.00000000000E+00  0.00000000000E+00  0.17484928123E+04  0.17484928123E+04  0.50400001928E-02 0.  1.
        1   -1    0    0  501    0  0.00000000000E+00  0.00000000000E+00 -0.21766185614E+04  0.21766185614E+04  0.50400001928E-02 0. -1.
    10030    2    1    2    0    0  0.00000000000E+00  0.00000000000E+00 -0.42812574905E+03  0.39251113737E+04  0.39016929196E+04 0.  0.
        5    1    3    3  502    0  0.18911931417E+04 -0.41079300652E+03  0.33212011175E+02  0.19355845425E+04  0.46999998093E+01 0. -1.
       -5    1    3    3    0  502 -0.18911931417E+04  0.41079300652E+03 -0.46133776023E+03  0.19895268313E+04  0.46999998093E+01 0.  1.
</event>
<event>
 5   0  0.2632875E-08  0.3912613E+04  0.7818609E-02  0.8022411E-01
        1   -1    0    0  501    0  0.00000000000E+00  0.00000000000E+00  0.20102565306E+04  0.20102565306E+04  0.50400001928E-02 0. -1.
       -1   -1    0    0    0  501  0.00000000000E+00  0.00000000000E+00 -0.19038046651E+04  0.19038046651E+04  0.50400001928E-02 0.  1.
    10030    2    1    2    0    0  0.00000000000E+00  0.00000000000E+00  0.10645186557E+03  0.39140611957E+04  0.39126133267E+04 0.  0.
        3    1    3    3  502    0 -0.11166341497E+04 -0.15978968605E+04  0.21757169123E+03  0.19615003574E+04  0.10100000352E+00 0. -1.
       -3    1    3    3    0  502  0.11166341497E+04  0.15978968605E+04 -0.11111982565E+03  0.19525608383E+04  0.10100000352E+00 0.  1.
</event>
<event>
 5   0  0.8551754E-08  0.3908256E+04  0.7818609E-02  0.8023314E-01
        2   -1    0    0  501    0  0.00000000000E+00  0.00000000000E+00  0.24832942925E+04  0.24832942925E+04  0.25500000920E-02 0. -1.
       -2   -1    0    0    0  501  0.00000000000E+00  0.00000000000E+00 -0.15377221329E+04  0.15377221329E+04  0.25500000920E-02 0.  1.
    10030    2    1    2    0    0  0.00000000000E+00  0.00000000000E+00  0.94557215951E+03  0.40210164254E+04  0.39082561820E+04 0.  0.
        1    1    3    3  502    0 -0.96473156659E+03 -0.10639624182E+04  0.18361189892E+04  0.23311061678E+04  0.50400001928E-02 0. -1.
       -1    1    3    3    0  502  0.96473156659E+03  0.10639624182E+04 -0.89054682972E+03  0.16899102576E+04  0.50400001928E-02 0.  1.
</event>
<event>
 5   0  0.2632875E-08  0.3894712E+04  0.7818609E-02  0.8026130E-01
       -1   -1    0    0    0  501  0.00000000000E+00  0.00000000000E+00  0.14034929144E+04  0.14034929144E+04  0.50400001928E-02 0. -1.
        1   -1    0    0  501    0  0.00000000000E+00  0.00000000000E+00 -0.27019701690E+04  0.27019701690E+04  0.50400001928E-02 0.  1.
    10030    2    1    2    0    0  0.00000000000E+00  0.00000000000E+00 -0.12984772546E+04  0.41054630834E+04  0.38947123062E+04 0.  0.
        2    1    3    3  502    0 -0.33836134554E+03  0.36779132144E+03 -0.26332211595E+04  0.26802262090E+04  0.25500000920E-02 0.  1.
       -2    1    3    3    0  502  0.33836134554E+03 -0.36779132144E+03  0.13347439049E+04  0.14252368744E+04  0.25500000920E-02 0. -1.
</event>
<event>
 5   0  0.2632875E-08  0.3886600E+04  0.7818609E-02  0.8027822E-01
       -1   -1    0    0    0  501  0.00000000000E+00  0.00000000000E+00  0.23516930000E+04  0.23516930000E+04  0.50400001928E-02 0. -1.
        1   -1    0    0  501    0  0.00000000000E+00  0.00000000000E+00 -0.16058280970E+04  0.16058280970E+04  0.50400001928E-02 0.  1.
    10030    2    1    2    0    0  0.00000000000E+00  0.00000000000E+00  0.74586490303E+03  0.39575210970E+04  0.38865998996E+04 0.  0.
        5    1    3    3  502    0 -0.83126542500E+03 -0.71919835041E+03 -0.12588531643E+04  0.16712216649E+04  0.46999998093E+01 0.  1.
       -5    1    3    3    0  502  0.83126542500E+03  0.71919835041E+03  0.20047180673E+04  0.22862994321E+04  0.46999998093E+01 0. -1.
</event>
<event>
 5   0  0.2632875E-08  0.3896877E+04  0.7818609E-02  0.8025679E-01
       -1   -1    0    0    0  501  0.00000000000E+00  0.00000000000E+00  0.18043182409E+04  0.18043182409E+04  0.50400001928E-02 0. -1.
        1   -1    0    0  501    0  0.00000000000E+00  0.00000000000E+00 -0.21040701685E+04  0.21040701685E+04  0.50400001928E-02 0.  1.
    10030    2    1    2    0    0  0.00000000000E+00  0.00000000000E+00 -0.29975192756E+03  0.39083884094E+04  0.38968767931E+04 0.  0.
        2    1    3    3  502    0  0.21946026304E+03 -0.10870495316E+04 -0.17566611770E+04  0.20774258067E+04  0.25500000920E-02 0.  1.
       -2    1    3    3    0  502 -0.21946026304E+03  0.10870495316E+04  0.14569092495E+04  0.18309626027E+04  0.25500000920E-02 0. -1.
</event>
<event>
 5   0  0.2632875E-08  0.3926203E+04  0.7818609E-02  0.8019601E-01
       -1   -1    0    0    0  501  0.00000000000E+00  0.00000000000E+00  0.15408694101E+04  0.15408694101E+04  0.50400001928E-02 0.  1.
        1   -1    0    0  501    0  0.00000000000E+00  0.00000000000E+00 -0.25010348989E+04  0.25010348989E+04  0.50400001928E-02 0. -1.
    10030    2    1    2    0    0  0.00000000000E+00  0.00000000000E+00 -0.96016548880E+03  0.40419043090E+04  0.39262033413E+04 0.  0.
        3    1    3    3  502    0  0.54264413164E+03 -0.13312640961E+04  0.89611406788E+03  0.16940328155E+04  0.10100000352E+00 0.  1.
       -3    1    3    3    0  502 -0.54264413164E+03  0.13312640961E+04 -0.18562795567E+04  0.23478714935E+04  0.10100000352E+00 0. -1.
</event>
<event>
 5   0  0.8438211E-08  0.3873328E+04  0.7818609E-02  0.8030600E-01
       -2   -1    0    0    0  501  0.00000000000E+00  0.00000000000E+00  0.14823658740E+04  0.14823658740E+04  0.25500000920E-02 0.  1.
        2   -1    0    0  501    0  0.00000000000E+00  0.00000000000E+00 -0.25301894574E+04  0.25301894574E+04  0.25500000920E-02 0. -1.
    10030    2    1    2    0    0  0.00000000000E+00  0.00000000000E+00 -0.10478235835E+04  0.40125553314E+04  0.38733275133E+04 0.  0.
        5    1    3    3  502    0  0.12300471391E+04 -0.14943654528E+04 -0.45441580250E+03  0.19881297449E+04  0.46999998093E+01 0.  1.
       -5    1    3    3    0  502 -0.12300471391E+04  0.14943654528E+04 -0.59340778095E+03  0.20244255865E+04  0.46999998093E+01 0. -1.
</event>
<event>
 5   0  0.8551754E-08  0.3907164E+04  0.7818609E-02  0.8023541E-01
        2   -1    0    0  501    0  0.00000000000E+00  0.00000000000E+00  0.27837322387E+04  0.27837322387E+04  0.25500000920E-02 0. -1.
       -2   -1    0    0    0  501  0.00000000000E+00  0.00000000000E+00 -0.13709949030E+04  0.13709949030E+04  0.25500000920E-02 0.  1.
    10030    2    1    2    0    0  0.00000000000E+00  0.00000000000E+00  0.14127373358E+04  0.41547271417E+04  0.39071640408E+04 0.  0.
        1    1    3    3  502    0  0.17342211906E+04 -0.15791804428E+02 -0.24989426093E+03  0.17522042291E+04  0.50400001928E-02 0.  1.
       -1    1    3    3    0  502 -0.17342211906E+04  0.15791804428E+02  0.16626315967E+04  0.24025229126E+04  0.50400001928E-02 0. -1.
</event>
<event>
 5   0  0.2632875E-08  0.3993775E+04  0.7818609E-02  0.8005803E-01
       -1   -1    0    0    0  501  0.00000000000E+00  0.00000000000E+00  0.16405493395E+04  0.16405493395E+04  0.50400001928E-02 0.  1.
        1   -1    0    0  501    0  0.00000000000E+00  0.00000000000E+00 -0.24306249265E+04  0.24306249265E+04  0.50400001928E-02 0. -1.
    10030    2    1    2    0    0  0.00000000000E+00  0.00000000000E+00 -0.79007558701E+03  0.40711742660E+04  0.39937752154E+04 0.  0.
        1    1    3    3  502    0 -0.32062892464E+03 -0.19223189791E+04 -0.83872804580E+03  0.21216922255E+04  0.50400001928E-02 0.  1.
       -1    1    3    3    0  502  0.32062892464E+03  0.19223189791E+04  0.48652458790E+02  0.19494820406E+04  0.50400001928E-02 0. -1.
</event>
<event>
 5   0  0.8476262E-08  0.3939860E+04  0.7818609E-02  0.8016790E-01
       -2   -1    0    0    0  501  0.00000000000E+00  0.00000000000E+00  0.18034967037E+04  0.18034967037E+04  0.25500000920E-02 0.  1.
        2   -1    0    0  501    0  0.00000000000E+00  0.00000000000E+00 -0.21517226010E+04  0.21517226010E+04  0.25500000920E-02 0. -1.
    10030    2    1    2    0    0  0.00000000000E+00  0.00000000000E+00 -0.34822589724E+03  0.39552193047E+04  0.39398602098E+04 0.  0.
        2    1    3    3  502    0  0.14861721151E+04 -0.35676833321E+03 -0.14217908105E+04  0.20874578578E+04  0.25500000920E-02 0. -1.
       -2    1    3    3    0  502 -0.14861721151E+04  0.35676833321E+03  0.10735649133E+04  0.18677614469E+04  0.25500000920E-02 0.  1.
</event>
<event>
 5   0  0.8438211E-08  0.3892429E+04  0.7818609E-02  0.8026606E-01
       -2   -1    0    0    0  501  0.00000000000E+00  0.00000000000E+00  0.16203185651E+04  0.16203185651E+04  0.25500000920E-02 0.  1.
        2   -1    0    0  501    0  0.00000000000E+00  0.00000000000E+00 -0.23376576390E+04  0.23376576390E+04  0.25500000920E-02 0. -1.
    10030    2    1    2    0    0  0.00000000000E+00  0.00000000000E+00 -0.71733907388E+03  0.39579762041E+04  0.38924285845E+04 0.  0.
        5    1    3    3  502    0  0.14275869111E+04 -0.12269391481E+04 -0.86130519339E+03  0.20700852127E+04  0.46999998093E+01 0.  1.
       -5    1    3    3    0  502 -0.14275869111E+04  0.12269391481E+04  0.14396611951E+03  0.18878909914E+04  0.46999998093E+01 0. -1.
</event>
<event>
 5   0  0.2632875E-08  0.3902177E+04  0.7818609E-02  0.8024577E-01
        1   -1    0    0  501    0  0.00000000000E+00  0.00000000000E+00  0.18911164918E+04  0.18911164918E+04  0.50400001928E-02 0.  1.
       -1   -1    0    0    0  501  0.00000000000E+00  0.00000000000E+00 -0.20129623743E+04  0.20129623743E+04  0.50400001928E-02 0. -1.
    10030    2    1    2    0    0  0.00000000000E+00  0.00000000000E+00 -0.12184588252E+03  0.39040788661E+04  0.39021770044E+04 0.  0.
        2    1    3    3  502    0 -0.10748804227E+04 -0.13392512738E+04  0.86569499066E+03  0.19231197868E+04  0.25500000920E-02 0.  1.
       -2    1    3    3    0  502  0.10748804227E+04  0.13392512738E+04 -0.98754087318E+03  0.19809590793E+04  0.25500000920E-02 0. -1.
</event>
<event>
 5   0  0.8476262E-08  0.3902282E+04  0.7818609E-02  0.8024555E-01
        2   -1    0    0  501    0  0.00000000000E+00  0.00000000000E+00  0.24278325820E+04  0.24278325820E+04  0.25500000920E-02 0. -1.
       -2   -1    0    0    0  501  0.00000000000E+00  0.00000000000E+00 -0.15680449605E+04  0.15680449605E+04  0.25500000920E-02 0.  1.
    10030    2    1    2    0    0  0.00000000000E+00  0.00000000000E+00  0.85978762149E+03  0.39958775425E+04  0.39022817147E+04 0.  0.
        2    1    3    3  502    0  0.94050229507E+03  0.13524177465E+04 -0.64083031510E+03  0.17675524945E+04  0.25500000920E-02 0.  1.
       -2    1    3    3    0  502 -0.94050229507E+03 -0.13524177465E+04  0.15006179366E+04  0.22283250480E+04  0.25500000920E-02 0. -1.
</event>
<event>
 5   0  0.8676098E-08  0.3903337E+04  0.7818609E-02  0.8024335E-01
        2   -1    0    0  501    0  0.00000000000E+00  0.00000000000E+00  0.21336623575E+04  0.21336623575E+04  0.25500000920E-02 0. -1.
       -2   -1    0    0    0  501  0.00000000000E+00  0.00000000000E+00 -0.17851985217E+04  0.17851985217E+04  0.25500000920E-02 0.  1.
    10030    2    1    2    0    0  0.00000000000E+00  0.00000000000E+00  0.34846383588E+03  0.39188608792E+04  0.39033374880E+04 0.  0.
        3    1    3    3  502    0  0.29027772065E+02  0.18784489949E+04 -0.35664090468E+03  0.19122254007E+04  0.10100000352E+00 0.  1.
       -3    1    3    3    0  502 -0.29027772065E+02 -0.18784489949E+04  0.70510474056E+03  0.20066354785E+04  0.10100000352E+00 0. -1.
</event>
<event>
 5   0  0.2632875E-08  0.3796859E+04  0.7818609E-02  0.8046829E-01
        1   -1    0    0  501    0  0.00000000000E+00  0.00000000000E+00  0.17277554878E+04  0.17277554878E+04  0.50400001928E-02 0.  1.
       -1   -1    0    0    0  501  0.00000000000E+00  0.00000000000E+00 -0.20859632879E+04  0.20859632879E+04  0.50400001928E-02 0. -1.
    10030    2    1    2    0    0  0.00000000000E+00  0.00000000000E+00 -0.35820780007E+03  0.38137187757E+04  0.37968589745E+04 0.  0.
        5    1    3    3  502    0 -0.10677956248E+04  0.14161470399E+04 -0.85912751929E+03  0.19707313666E+04  0.46999998093E+01 0. -1.
       -5    1    3    3    0  502  0.10677956248E+04 -0.14161470399E+04  0.50091971923E+03  0.18429874091E+04  0.46999998093E+01 0.  1.
</event>
<event>
 5   0  0.8551754E-08  0.3898749E+04  0.7818609E-02  0.8025289E-01
       -2   -1    0    0    0  501  0.00000000000E+00  0.00000000000E+00  0.19489201393E+04  0.19489201393E+04  0.25500000920E-02 0. -1.
        2   -1    0    0  501    0  0.00000000000E+00  0.00000000000E+00 -0.19498290989E+04  0.19498290989E+04  0.25500000920E-02 0.  1.
    10030    2    1    2    0    0  0.00000000000E+00  0.00000000000E+00 -0.90895960567E+00  0.38987492383E+04  0.38987491323E+04 0.  0.
        1    1    3    3  502    0  0.13432914279E+04 -0.10296724832E+04 -0.96761732398E+03  0.19496001048E+04  0.50400001928E-02 0.  1.
       -1    1    3    3    0  502 -0.13432914279E+04  0.10296724832E+04  0.96670836437E+03  0.19491491335E+04  0.50400001928E-02 0. -1.
</event>
<event>
 5   0  0.2632875E-08  0.3917717E+04  0.7818609E-02  0.8021354E-01
        1   -1    0    0  501    0  0.00000000000E+00  0.00000000000E+00  0.21716546400E+04  0.21716546400E+04  0.50400001928E-02 0. -1.
       -1   -1    0    0    0  501  0.00000000000E+00  0.00000000000E+00 -0.17669139299E+04  0.17669139299E+04  0.50400001928E-02 0.  1.
    10030    2    1    2    0    0  0.00000000000E+00  0.00000000000E+00  0.40474071015E+03  0.39385685699E+04  0.39177171079E+04 0.  0.
        4    1    3    3  502    0  0.11279349194E+04 -0.12471716098E+04 -0.80769148136E+03  0.18654868931E+04  0.12699999809E+01 0.  1.
       -4    1    3    3    0  502 -0.11279349194E+04  0.12471716098E+04  0.12124321915E+04  0.20730816767E+04  0.12699999809E+01 0. -1.
</event>
<event>
 5   0  0.2632875E-08  0.3876221E+04  0.7818609E-02  0.8029993E-01
        1   -1    0    0  501    0  0.00000000000E+00  0.00000000000E+00  0.23966238136E+04  0.23966238136E+04  0.50400001928E-02 0. -1.
       -1   -1    0    0    0  501  0.00000000000E+00  0.00000000000E+00 -0.15673180178E+04  0.15673180178E+04  0.50400001928E-02 0.  1.
    10030    2    1    2    0    0  0.00000000000E+00  0.00000000000E+00  0.82930579583E+03  0.39639418314E+04  0.38762206774E+04 0.  0.
        2    1    3    3  502    0  0.60851029830E+03  0.98072379978E+03  0.20068620348E+04  0.23150808153E+04  0.25500000920E-02 0. -1.
       -2    1    3    3    0  502 -0.60851029830E+03 -0.98072379978E+03 -0.11775562390E+04  0.16488610161E+04  0.25500000920E-02 0.  1.
</event>
<event>
 5   0  0.8342802E-08  0.3883860E+04  0.7818609E-02  0.8028394E-01
       -2   -1    0    0    0  501  0.00000000000E+00  0.00000000000E+00  0.26452764624E+04  0.26452764624E+04  0.25500000920E-02 0.  1.
        2   -1    0    0  501    0  0.00000000000E+00  0.00000000000E+00 -0.14255944173E+04  0.14255944173E+04  0.25500000920E-02 0. -1.
    10030    2    1    2    0    0  0.00000000000E+00  0.00000000000E+00  0.12196820451E+04  0.40708708798E+04  0.38838596046E+04 0.  0.
        4    1    3    3  502    0  0.89072622487E+03  0.10064727112E+04  0.20790140501E+04  0.24756174097E+04  0.12699999809E+01 0.  1.
       -4    1    3    3    0  502 -0.89072622487E+03 -0.10064727112E+04 -0.85933200497E+03  0.15952534700E+04  0.12699999809E+01 0. -1.
</event>
<event>
 5   0  0.8476262E-08  0.3907433E+04  0.7818609E-02  0.8023485E-01
        2   -1    0    0  501    0  0.00000000000E+00  0.00000000000E+00  0.14609595468E+04  0.14609595468E+04  0.25500000920E-02 0. -1.
       -2   -1    0    0    0  501  0.00000000000E+00  0.00000000000E+00 -0.26126724401E+04  0.26126724401E+04  0.25500000920E-02 0.  1.
    10030    2    1    2    0    0  0.00000000000E+00  0.00000000000E+00 -0.11517128933E+04  0.40736319869E+04  0.39074332977E+04 0.  0.
        2    1    3    3  502    0 -0.38808729641E+03 -0.49779314311E+02 -0.25714089190E+04  0.26010062588E+04  0.25500000920E-02 0.  1.
       -2    1    3    3    0  502  0.38808729641E+03  0.49779314311E+02  0.14196960256E+04  0.14726257281E+04  0.25500000920E-02 0. -1.
</event>
<event>
 5   0  0.8438211E-08  0.3779293E+04  0.7818609E-02  0.8050613E-01
        2   -1    0    0  501    0  0.00000000000E+00  0.00000000000E+00  0.16590414754E+04  0.16590414754E+04  0.25500000920E-02 0. -1.
       -2   -1    0    0    0  501  0.00000000000E+00  0.00000000000E+00 -0.21523059320E+04  0.21523059320E+04  0.25500000920E-02 0.  1.
    10030    2    1    2    0    0  0.00000000000E+00  0.00000000000E+00 -0.49326445663E+03  0.38113474074E+04  0.37792934837E+04 0.  0.
        5    1    3    3  502    0 -0.80118326563E+03 -0.11039716568E+04  0.10721649082E+04  0.17349950215E+04  0.46999998093E+01 0. -1.
       -5    1    3    3    0  502  0.80118326563E+03  0.11039716568E+04 -0.15654293648E+04  0.20763523859E+04  0.46999998093E+01 0.  1.
</event>
<event>
 5   0  0.2632875E-08  0.3888809E+04  0.7818609E-02  0.8027361E-01
        1   -1    0    0  501    0  0.00000000000E+00  0.00000000000E+00  0.30065299827E+04  0.30065299827E+04  0.50400001928E-02 0. -1.
       -1   -1    0    0    0  501  0.00000000000E+00  0.00000000000E+00 -0.12574990455E+04  0.12574990455E+04  0.50400001928E-02 0.  1.
    10030    2    1    2    0    0  0.00000000000E+00  0.00000000000E+00  0.17490309372E+04  0.42640290282E+04  0.38888088579E+04 0.  0.
        2    1    3    3  502    0 -0.12954091623E+04 -0.63314419084E+03  0.23048963785E+04  0.27187320169E+04  0.25500000920E-02 0. -1.
       -2    1    3    3    0  502  0.12954091623E+04  0.63314419084E+03 -0.55586544130E+03  0.15452970112E+04  0.25500000920E-02 0.  1.
</event>
<event>
 5   0  0.8342802E-08  0.3932081E+04  0.7818609E-02  0.8018390E-01
       -2   -1    0    0    0  501  0.00000000000E+00  0.00000000000E+00  0.18910361891E+04  0.18910361891E+04  0.25500000920E-02 0.  1.
        2   -1    0    0  501    0  0.00000000000E+00  0.00000000000E+00 -0.20440201946E+04  0.20440201946E+04  0.25500000920E-02 0. -1.
    10030    2    1    2    0    0  0.00000000000E+00  0.00000000000E+00 -0.15298400555E+03  0.39350563837E+04  0.39320814637E+04 0.  0.
        4    1    3    3  502    0  0.79274706534E+03 -0.92491595213E+03  0.14678531332E+04  0.19074883648E+04  0.12699999809E+01 0.  1.
       -4    1    3    3    0  502 -0.79274706534E+03  0.92491595213E+03 -0.16208371388E+04  0.20275680189E+04  0.12699999809E+01 0. -1.
</event>
<event>
 5   0  0.8676098E-08  0.3907298E+04  0.7818609E-02  0.8023513E-01
        2   -1    0    0  501    0  0.00000000000E+00  0.00000000000E+00  0.15193287626E+04  0.15193287626E+04  0.25500000920E-02 0.  1.
       -2   -1    0    0    0  501  0.00000000000E+00  0.00000000000E+00 -0.25121251398E+04  0.25121251398E+04  0.25500000920E-02 0. -1.
    10030    2    1    2    0    0  0.00000000000E+00  0.00000000000E+00 -0.99279637720E+03  0.40314539025E+04  0.39072977774E+04 0.  0.
        3    1    3    3  502    0  0.11057886407E+02  0.14561319867E+04  0.84740816244E+03  0.16847976862E+04  0.10100000352E+00 0.  1.
       -3    1    3    3    0  502 -0.11057886407E+02 -0.14561319867E+04 -0.18402045396E+04  0.23466562163E+04  0.10100000352E+00 0. -1.
</event>
<event>
 5   0  0.2632875E-08  0.3882380E+04  0.7818609E-02  0.8028704E-01
       -1   -1    0    0    0  501  0.00000000000E+00  0.00000000000E+00  0.11445011313E+04  0.11445011313E+04  0.50400001928E-02 0. -1.
        1   -1    0    0  501    0  0.00000000000E+00  0.00000000000E+00 -0.32924545527E+04  0.32924545527E+04  0.50400001928E-02 0.  1.
    10030    2    1    2    0    0  0.00000000000E+00  0.00000000000E+00 -0.21479534214E+04  0.44369556840E+04  0.38823796622E+04 0.  0.
        5    1    3    3  502    0  0.19189831744E+04 -0.26879359520E+03 -0.94143903428E+03  0.21543156606E+04  0.46999998093E+01 0. -1.
       -5    1    3    3    0  502 -0.19189831744E+04  0.26879359520E+03 -0.12065143871E+04  0.22826400234E+04  0.46999998093E+01 0.  1.
</event>
<event>
 5   0  0.8676098E-08  0.3945604E+04  0.7818609E-02  0.8015611E-01
        2   -1    0    0  501    0  0.00000000000E+00  0.00000000000E+00  0.18146640431E+04  0.18146640431E+04  0.25500000920E-02 0.  1.
       -2   -1    0    0    0  501  0.00000000000E+00  0.00000000000E+00 -0.21447203444E+04  0.21447203444E+04  0.25500000920E-02 0. -1.
    10030    2    1    2    0    0  0.00000000000E+00  0.00000000000E+00 -0.33005630130E+03  0.39593843876E+04  0.39456035745E+04 0.  0.
        3    1    3    3  502    0  0.18523377433E+04  0.24242084340E+03 -0.80129625731E+03  0.20327318276E+04  0.10100000352E+00 0. -1.
       -3    1    3    3    0  502 -0.18523377433E+04 -0.24242084340E+03  0.47123995602E+03  0.19266525600E+04  0.10100000352E+00 0.  1.
</event>
<event>
 5   0  0.2632875E-08  0.3920897E+04  0.7818609E-02  0.8020697E-01
        1   -1    0    0  501    0  0.00000000000E+00  0.00000000000E+00  0.19345568780E+04  0.19345568780E+04  0.50400001928E-02 0. -1.
       -1   -1    0    0    0  501  0.00000000000E+00  0.00000000000E+00 -0.19866870375E+04  0.19866870375E+04  0.50400001928E-02 0.  1.
    10030    2    1    2    0    0  0.00000000000E+00  0.00000000000E+00 -0.52130159586E+02  0.39212439155E+04  0.39208973834E+04 0.  0.
        2    1    3    3  502    0  0.62126863755E+03 -0.27657934735E+03 -0.18649467658E+04  0.19850685869E+04  0.25500000920E-02 0.  1.
       -2    1    3    3    0  502 -0.62126863755E+03  0.27657934735E+03  0.18128166062E+04  0.19361753286E+04  0.25500000920E-02 0. -1.
</event>
<event>
 5   0  0.2632875E-08  0.3896943E+04  0.7818609E-02  0.8025665E-01
        1   -1    0    0  501    0  0.00000000000E+00  0.00000000000E+00  0.15379280491E+04  0.15379280491E+04  0.50400001928E-02 0. -1.
       -1   -1    0    0    0  501  0.00000000000E+00  0.00000000000E+00 -0.24686077918E+04  0.24686077918E+04  0.50400001928E-02 0.  1.
    10030    2    1    2    0    0  0.00000000000E+00  0.00000000000E+00 -0.93067974266E+03  0.40065358409E+04  0.38969429891E+04 0.  0.
        1    1    3    3  502    0  0.43269648726E+03 -0.67643683652E+03 -0.22905830378E+04  0.24272543536E+04  0.50400001928E-02 0.  1.
       -1    1    3    3    0  502 -0.43269648726E+03  0.67643683652E+03  0.13599032951E+04  0.15792814873E+04  0.50400001928E-02 0. -1.
</event>
<event>
 5   0  0.8342802E-08  0.3881737E+04  0.7818609E-02  0.8028838E-01
        2   -1    0    0  501    0  0.00000000000E+00  0.00000000000E+00  0.19878422906E+04  0.19878422906E+04  0.25500000920E-02 0. -1.
       -2   -1    0    0    0  501  0.00000000000E+00  0.00000000000E+00 -0.18950046513E+04  0.18950046513E+04  0.25500000920E-02 0.  1.
    10030    2    1    2    0    0  0.00000000000E+00  0.00000000000E+00  0.92837639241E+02  0.38828469419E+04  0.38817369240E+04 0.  0.
        4    1    3    3  502    0 -0.41693435292E+03  0.99058134579E+03 -0.15701754751E+04  0.19027712140E+04  0.12699999809E+01 0.  1.
       -4    1    3    3    0  502  0.41693435292E+03 -0.99058134579E+03  0.16630131143E+04  0.19800757280E+04  0.12699999809E+01 0. -1.
</event>
<event>
 5   0  0.8342802E-08  0.3900550E+04  0.7818609E-02  0.8024915E-01
        2   -1    0    0  501    0  0.00000000000E+00  0.00000000000E+00  0.19855866154E+04  0.19855866154E+04  0.25500000920E-02 0.  1.
       -2   -1    0    0    0  501  0.00000000000E+00  0.00000000000E+00 -0.19155910781E+04  0.19155910781E+04  0.25500000920E-02 0. -1.
    10030    2    1    2    0    0  0.00000000000E+00  0.00000000000E+00  0.69995537340E+02  0.39011776935E+04  0.39005497075E+04 0.  0.
        4    1    3    3  502    0  0.10700379400E+04 -0.10859898309E+04 -0.11814279916E+04  0.19287635464E+04  0.12699999809E+01 0. -1.
       -4    1    3    3    0  502 -0.10700379400E+04  0.10859898309E+04  0.12514235289E+04  0.19724141471E+04  0.12699999809E+01 0.  1.
</event>
<event>
 5   0  0.8342802E-08  0.3899576E+04  0.7818609E-02  0.8025117E-01
       -2   -1    0    0    0  501  0.00000000000E+00  0.00000000000E+00  0.24301055055E+04  0.24301055055E+04  0.25500000920E-02 0.  1.
        2   -1    0    0  501    0  0.00000000000E+00  0.00000000000E+00 -0.15644069954E+04  0.15644069954E+04  0.25500000920E-02 0. -1.
    10030    2    1    2    0    0  0.00000000000E+00  0.00000000000E+00  0.86569851006E+03  0.39945125009E+04  0.38995764141E+04 0.  0.
        4    1    3    3  502    0  0.44679019459E+03  0.92291764783E+03  0.21316182639E+04  0.23654167706E+04  0.12699999809E+01 0.  1.
       -4    1    3    3    0  502 -0.44679019459E+03 -0.92291764783E+03 -0.12659197538E+04  0.16290957304E+04  0.12699999809E+01 0. -1.
</event>
<event>
 5   0  0.2632875E-08  0.3883526E+04  0.7818609E-02  0.8028464E-01
        1   -1    0    0  501    0  0.00000000000E+00  0.00000000000E+00  0.20220643755E+04  0.20220643755E+04  0.50400001928E-02 0. -1.
       -1   -1    0    0    0  501  0.00000000000E+00  0.00000000000E+00 -0.18646508673E+04  0.18646508673E+04  0.50400001928E-02 0.  1.
    10030    2    1    2    0    0  0.00000000000E+00  0.00000000000E+00  0.15741350813E+03  0.38867152428E+04  0.38835262798E+04 0.  0.
        3    1    3    3  502    0 -0.51267957706E+03  0.73118443557E+03 -0.16469402493E+04  0.18734682337E+04  0.10100000352E+00 0.  1.
       -3    1    3    3    0  502  0.51267957706E+03 -0.73118443557E+03  0.18043537574E+04  0.20132470091E+04  0.10100000352E+00 0. -1.
</event>
<event>
 5   0  0.8676098E-08  0.3914904E+04  0.7818609E-02  0.8021937E-01
        2   -1    0    0  501    0  0.00000000000E+00  0.00000000000E+00  0.13066197092E+04  0.13066197092E+04  0.25500000920E-02 0. -1.
       -2   -1    0    0    0  501  0.00000000000E+00  0.00000000000E+00 -0.29324659834E+04  0.29324659834E+04  0.25500000920E-02 0.  1.
    10030    2    1    2    0    0  0.00000000000E+00  0.00000000000E+00 -0.16258462742E+04  0.42390856926E+04  0.39149037538E+04 0.  0.
        3    1    3    3  502    0  0.19132953631E+04  0.41229969876E+03 -0.84590261056E+03  0.21321916951E+04  0.10100000352E+00 0.  1.
       -3    1    3    3    0  502 -0.19132953631E+04 -0.41229969876E+03 -0.77994366366E+03  0.21068939975E+04  0.10100000352E+00 0. -1.
</event>
<event>
 5   0  0.8551754E-08  0.3891261E+04  0.7818609E-02  0.8026849E-01
        2   -1    0    0  501    0  0.00000000000E+00  0.00000000000E+00  0.17622227534E+04  0.17622227534E+04  0.25500000920E-02 0.  1.
       -2   -1    0    0    0  501  0.00000000000E+00  0.00000000000E+00 -0.21481272522E+04  0.21481272522E+04  0.25500000920E-02 0. -1.
    10030    2    1    2    0    0  0.00000000000E+00  0.00000000000E+00 -0.38590449886E+03  0.39103500056E+04  0.38912613487E+04 0.  0.
        1    1    3    3  502    0  0.93970166282E+03 -0.16918649856E+04  0.81101761928E+01  0.19353325604E+04  0.50400001928E-02 0.  1.
       -1    1    3    3    0  502 -0.93970166282E+03  0.16918649856E+04 -0.39401467505E+03  0.19750174452E+04  0.50400001928E-02 0. -1.
</event>
<event>
 5   0  0.2632875E-08  0.3910681E+04  0.7818609E-02  0.8022811E-01
       -1   -1    0    0    0  501  0.00000000000E+00  0.00000000000E+00  0.16244515730E+04  0.16244515730E+04  0.50400001928E-02 0.  1.
        1   -1    0    0  501    0  0.00000000000E+00  0.00000000000E+00 -0.23536290288E+04  0.23536290288E+04  0.50400001928E-02 0. -1.
    10030    2    1    2    0    0  0.00000000000E+00  0.00000000000E+00 -0.72917745582E+03  0.39780806018E+04  0.39106809525E+04 0.  0.
        2    1    3    3  502    0  0.99962792121E+03 -0.99245456505E+03 -0.17441084645E+04  0.22419046324E+04  0.25500000920E-02 0. -1.
       -2    1    3    3    0  502 -0.99962792121E+03  0.99245456505E+03  0.10149310087E+04  0.17361759695E+04  0.25500000920E-02 0.  1.
</event>
<event>
 5   0  0.2632875E-08  0.3903929E+04  0.7818609E-02  0.8024213E-01
       -1   -1    0    0    0  501  0.00000000000E+00  0.00000000000E+00  0.19523811716E+04  0.19523811716E+04  0.50400001928E-02 0. -1.
        1   -1    0    0  501    0  0.00000000000E+00  0.00000000000E+00 -0.19515477090E+04  0.19515477090E+04  0.50400001928E-02 0.  1.
    10030    2    1    2    0    0  0.00000000000E+00  0.00000000000E+00  0.83346265561E+00  0.39039288806E+04  0.39039287917E+04 0.  0.
        1    1    3    3  502    0  0.17112192425E+04 -0.75366154139E+03  0.56067381690E+03  0.19520840515E+04  0.50400001928E-02 0. -1.
       -1    1    3    3    0  502 -0.17112192425E+04  0.75366154139E+03 -0.55984035425E+03  0.19518448292E+04  0.50400001928E-02 0.  1.
</event>
<event>
 5   0  0.2632875E-08  0.3894989E+04  0.7818609E-02  0.8026072E-01
       -1   -1    0    0    0  501  0.00000000000E+00  0.00000000000E+00  0.13830451576E+04  0.13830451576E+04  0.50400001928E-02 0.  1.
        1   -1    0    0  501    0  0.00000000000E+00  0.00000000000E+00 -0.27423072474E+04  0.27423072475E+04  0.50400001928E-02 0. -1.
    10030    2    1    2    0    0  0.00000000000E+00  0.00000000000E+00 -0.13592620898E+04  0.41253524051E+04  0.38949889650E+04 0.  0.
        2    1    3    3  502    0  0.33175404072E+03 -0.24815913887E+03 -0.26950927239E+04  0.27267505372E+04  0.25500000920E-02 0. -1.
       -2    1    3    3    0  502 -0.33175404072E+03  0.24815913887E+03  0.13358306341E+04  0.13986018678E+04  0.25500000920E-02 0.  1.
</event>
<event>
 5   0  0.8676098E-08  0.3906933E+04  0.7818609E-02  0.8023589E-01
        2   -1    0    0  501    0  0.00000000000E+00  0.00000000000E+00  0.21150578240E+04  0.21150578240E+04  0.25500000920E-02 0.  1.
       -2   -1    0    0    0  501  0.00000000000E+00  0.00000000000E+00 -0.18042205843E+04  0.18042205843E+04  0.25500000920E-02 0. -1.
    10030    2    1    2    0    0  0.00000000000E+00  0.00000000000E+00  0.31083723971E+03  0.39192784083E+04  0.39069327422E+04 0.  0.
        3    1    3    3  502    0  0.54490604187E+03  0.10921988000E+04  0.16854299359E+04  0.20809841163E+04  0.10100000352E+00 0.  1.
       -3    1    3    3    0  502 -0.54490604187E+03 -0.10921988000E+04 -0.13745926962E+04  0.18382942920E+04  0.10100000352E+00 0. -1.
</event>
<event>
 5   0  0.2632875E-08  0.3912089E+04  0.7818609E-02  0.8022520E-01
        1   -1    0    0  501    0  0.00000000000E+00  0.00000000000E+00  0.24025682755E+04  0.24025682755E+04  0.50400001928E-02 0. -1.
       -1   -1    0    0    0  501  0.00000000000E+00  0.00000000000E+00 -0.15925085592E+04  0.15925085592E+04  0.50400001928E-02 0.  1.
    10030    2    1    2    0    0  0.00000000000E+00  0.00000000000E+00  0.81005971629E+03  0.39950768347E+04  0.39120892335E+04 0.  0.
        2    1    3    3  502    0  0.86447773820E+03  0.48742581844E+03 -0.13163140936E+04  0.16485109891E+04  0.25500000920E-02 0.  1.
       -2    1    3    3    0  502 -0.86447773820E+03 -0.48742581844E+03  0.21263738098E+04  0.23465658456E+04  0.25500000920E-02 0. -1.
</event>
<event>
 5   0  0.8342802E-08  0.3876563E+04  0.7818609E-02  0.8029921E-01
        2   -1    0    0  501    0  0.00000000000E+00  0.00000000000E+00  0.18775216447E+04  0.18775216447E+04  0.25500000920E-02 0.  1.
       -2   -1    0    0    0  501  0.00000000000E+00  0.00000000000E+00 -0.20010080180E+04  0.20010080180E+04  0.25500000920E-02 0. -1.
    10030    2    1    2    0    0  0.00000000000E+00  0.00000000000E+00 -0.12348637338E+03  0.38785296627E+04  0.38765633569E+04 0.  0.
        4    1    3    3  502    0 -0.58156487392E+03 -0.81585246977E+03  0.15983456398E+04  0.18864101760E+04  0.12699999809E+01 0.  1.
       -4    1    3    3    0  502  0.58156487392E+03  0.81585246977E+03 -0.17218320131E+04  0.19921194867E+04  0.12699999809E+01 0. -1.
</event>
<event>
 5   0  0.2632875E-08  0.3898033E+04  0.7818609E-02  0.8025438E-01
        1   -1    0    0  501    0  0.00000000000E+00  0.00000000000E+00  0.22095121838E+04  0.22095121838E+04  0.50400001928E-02 0.  1.
       -1   -1    0    0    0  501  0.00000000000E+00  0.00000000000E+00 -0.17192323811E+04  0.17192323811E+04  0.50400001928E-02 0. -1.
    10030    2    1    2    0    0  0.00000000000E+00  0.00000000000E+00  0.49027980267E+03  0.39287445649E+04  0.38980327823E+04 0.  0.
        3    1    3    3  502    0  0.32076740648E+03  0.48226126742E+03 -0.16304890097E+04  0.17303069323E+04  0.10100000352E+00 0. -1.
       -3    1    3    3    0  502 -0.32076740648E+03 -0.48226126742E+03  0.21207688123E+04  0.21984376327E+04  0.10100000352E+00 0.  1.
</event>
<event>
 5   0  0.2632875E-08  0.3939295E+04  0.7818609E-02  0.8016906E-01
        1   -1    0    0  501    0  0.00000000000E+00  0.00000000000E+00  0.27510975894E+04  0.27510975894E+04  0.50400001928E-02 0.  1.
       -1   -1    0    0    0  501  0.00000000000E+00  0.00000000000E+00 -0.14101682064E+04  0.14101682064E+04  0.50400001928E-02 0. -1.
    10030    2    1    2    0    0  0.00000000000E+00  0.00000000000E+00  0.13409293830E+04  0.41612657957E+04  0.39392945324E+04 0.  0.
        1    1    3    3  502    0 -0.34145164881E+03  0.80240768465E+03  0.25360670372E+04  0.26818059844E+04  0.50400001928E-02 0.  1.
       -1    1    3    3    0  502  0.34145164881E+03 -0.80240768465E+03 -0.11951376542E+04  0.14794598113E+04  0.50400001928E-02 0. -1.
</event>
<event>
 5   0  0.8342802E-08  0.3901787E+04  0.7818609E-02  0.8024658E-01
        2   -1    0    0  501    0  0.00000000000E+00  0.00000000000E+00  0.18783044358E+04  0.18783044358E+04  0.25500000920E-02 0.  1.
       -2   -1    0    0    0  501  0.00000000000E+00  0.00000000000E+00 -0.20262873440E+04  0.20262873440E+04  0.25500000920E-02 0. -1.
    10030    2    1    2    0    0  0.00000000000E+00  0.00000000000E+00 -0.14798290828E+03  0.39045917798E+04  0.39017865172E+04 0.  0.
        4    1    3    3  502    0  0.14297899889E+04 -0.10792482589E+04  0.69916137665E+03  0.19229936194E+04  0.12699999809E+01 0.  1.
       -4    1    3    3    0  502 -0.14297899889E+04  0.10792482589E+04 -0.84714428492E+03  0.19815981604E+04  0.12699999809E+01 0. -1.
</event>
<event>
 5   0  0.8438211E-08  0.3896368E+04  0.7818609E-02  0.8025785E-01
        2   -1    0    0  501    0  0.00000000000E+00  0.00000000000E+00  0.20399368757E+04  0.20399368757E+04  0.25500000920E-02 0.  1.
       -2   -1    0    0    0  501  0.00000000000E+00  0.00000000000E+00 -0.18605578383E+04  0.18605578383E+04  0.25500000920E-02 0. -1.
    10030    2    1    2    0    0  0.00000000000E+00  0.00000000000E+00  0.17937903739E+03  0.39004947140E+04  0.38963678182E+04 0.  0.
        5    1    3    3  502    0  0.68316154138E+03 -0.11948967362E+04 -0.12905059166E+04  0.18867738372E+04  0.46999998093E+01 0. -1.
       -5    1    3    3    0  502 -0.68316154138E+03  0.11948967362E+04  0.14698849540E+04  0.20137208768E+04  0.46999998093E+01 0.  1.
</event>
<event>
 5   0  0.2632875E-08  0.3772477E+04  0.7818609E-02  0.8052087E-01
        1   -1    0    0  501    0  0.00000000000E+00  0.00000000000E+00  0.28845031859E+04  0.28845031859E+04  0.50400001928E-02 0.  1.
       -1   -1    0    0    0  501  0.00000000000E+00  0.00000000000E+00 -0.12334520134E+04  0.12334520134E+04  0.50400001928E-02 0. -1.
    10030    2    1    2    0    0  0.00000000000E+00  0.00000000000E+00  0.16510511724E+04  0.41179551993E+04  0.37724773094E+04 0.  0.
        2    1    3    3  502    0  0.11043451795E+04  0.14324271700E+04  0.14097703791E+04  0.22932244536E+04  0.25500000920E-02 0.  1.
       -2    1    3    3    0  502 -0.11043451795E+04 -0.14324271700E+04  0.24128079337E+03  0.18247307457E+04  0.25500000920E-02 0. -1.
</event>
<event>
 5   0  0.2632875E-08  0.3906841E+04  0.7818609E-02  0.8023608E-01
        1   -1    0    0  501    0  0.00000000000E+00  0.00000000000E+00  0.23376575209E+04  0.23376575209E+04  0.50400001928E-02 0.  1.
       -1   -1    0    0    0  501  0.00000000000E+00  0.00000000000E+00 -0.16323401603E+04  0.16323401603E+04  0.50400001928E-02 0. -1.
    10030    2    1    2    0    0  0.00000000000E+00  0.00000000000E+00  0.70531736067E+03  0.39699976812E+04  0.39068413085E+04 0.  0.
        4    1    3    3  502    0 -0.17254578279E+04  0.85788312259E+03  0.67827985531E+03  0.20428493197E+04  0.12699999809E+01 0.  1.
       -4    1    3    3    0  502  0.17254578279E+04 -0.85788312259E+03  0.27037505357E+02  0.19271483616E+04  0.12699999809E+01 0. -1.
</event>
<event>
 5   0  0.2632875E-08  0.3828975E+04  0.7818609E-02  0.8039965E-01
        1   -1    0    0  501    0  0.00000000000E+00  0.00000000000E+00  0.25811769655E+04  0.25811769655E+04  0.50400001928E-02 0.  1.
       -1   -1    0    0    0  501  0.00000000000E+00  0.00000000000E+00 -0.14199962086E+04  0.14199962086E+04  0.50400001928E-02 0. -1.
    10030    2    1    2    0    0  0.00000000000E+00  0.00000000000E+00  0.11611807569E+04  0.40011731741E+04  0.38289745388E+04 0.  0.
        1    1    3    3  502    0  0.27282296493E+03  0.17266498026E+04 -0.23523111472E+03  0.17638269724E+04  0.50400001928E-02 0.  1.
       -1    1    3    3    0  502 -0.27282296493E+03 -0.17266498026E+04  0.13964118716E+04  0.22373462017E+04  0.50400001928E-02 0. -1.
</event>
<event>
 5   0  0.2632875E-08  0.3930368E+04  0.7818609E-02  0.8018743E-01
       -3   -1    0    0    0  501  0.00000000000E+00  0.00000000000E+00  0.17001377974E+04  0.17001378004E+04  0.10100000352E+00 0.  1.
        3   -1    0    0  501    0  0.00000000000E+00  0.00000000000E+00 -0.22715503015E+04  0.22715503037E+04  0.10100000352E+00 0. -1.
    10030    2    1    2    0    0  0.00000000000E+00  0.00000000000E+00 -0.57141250409E+03  0.39716881041E+04  0.39303681947E+04 0.  0.
        2    1    3    3  502    0 -0.12055145238E+04  0.13060037693E+04  0.56158187619E+03  0.18639434852E+04  0.25500000920E-02 0. -1.
       -2    1    3    3    0  502  0.12055145238E+04 -0.13060037693E+04 -0.11329943803E+04  0.21077446188E+04  0.25500000920E-02 0.  1.
</event>
<event>
 5   0  0.2632875E-08  0.3871013E+04  0.7818609E-02  0.8031085E-01
        1   -1    0    0  501    0  0.00000000000E+00  0.00000000000E+00  0.27144249759E+04  0.27144249759E+04  0.50400001928E-02 0. -1.
       -1   -1    0    0    0  501  0.00000000000E+00  0.00000000000E+00 -0.13801031194E+04  0.13801031194E+04  0.50400001928E-02 0.  1.
    10030    2    1    2    0    0  0.00000000000E+00  0.00000000000E+00  0.13343218565E+04  0.40945280953E+04  0.38710134987E+04 0.  0.
        3    1    3    3  502    0  0.16272116323E+03  0.84100492863E+03  0.25030094812E+04  0.26455290473E+04  0.10100000352E+00 0. -1.
       -3    1    3    3    0  502 -0.16272116323E+03 -0.84100492863E+03 -0.11686876247E+04  0.14489990481E+04  0.10100000352E+00 0.  1.
</event>
<event>
 5   0  0.8551754E-08  0.3905565E+04  0.7818609E-02  0.8023873E-01
       -2   -1    0    0    0  501  0.00000000000E+00  0.00000000000E+00  0.25259339122E+04  0.25259339122E+04  0.25500000920E-02 0.  1.
        2   -1    0    0  501    0  0.00000000000E+00  0.00000000000E+00 -0.15096832092E+04  0.15096832092E+04  0.25500000920E-02 0. -1.
    10030    2    1    2    0    0  0.00000000000E+00  0.00000000000E+00  0.10162507030E+04  0.40356171214E+04  0.39055652676E+04 0.  0.
        1    1    3    3  502    0 -0.13891313913E+04  0.12982754418E+04  0.48156491272E+02  0.19019790200E+04  0.50400001928E-02 0. -1.
       -1    1    3    3    0  502  0.13891313913E+04 -0.12982754418E+04  0.96809421173E+03  0.21336381014E+04  0.50400001928E-02 0.  1.
</event>
<event>
 5   0  0.2632875E-08  0.3886842E+04  0.7818609E-02  0.8027771E-01
        1   -1    0    0  501    0  0.00000000000E+00  0.00000000000E+00  0.13018794580E+04  0.13018794580E+04  0.50400001928E-02 0. -1.
       -1   -1    0    0    0  501  0.00000000000E+00  0.00000000000E+00 -0.29011022266E+04  0.29011022266E+04  0.50400001928E-02 0.  1.
    10030    2    1    2    0    0  0.00000000000E+00  0.00000000000E+00 -0.15992227686E+04  0.42029816846E+04  0.38868421087E+04 0.  0.
        5    1    3    3  502    0 -0.13142604292E+04  0.90789346268E+03  0.39736062040E+03  0.16460463444E+04  0.46999998093E+01 0. -1.
       -5    1    3    3    0  502  0.13142604292E+04 -0.90789346268E+03 -0.19965833890E+04  0.25569353403E+04  0.46999998093E+01 0.  1.
</event>
<event>
 5   0  0.2632875E-08  0.3900263E+04  0.7818609E-02  0.8024974E-01
       -1   -1    0    0    0  501  0.00000000000E+00  0.00000000000E+00  0.32072202176E+04  0.32072202176E+04  0.50400001928E-02 0. -1.
        1   -1    0    0  501    0  0.00000000000E+00  0.00000000000E+00 -0.11857662992E+04  0.11857662993E+04  0.50400001928E-02 0.  1.
    10030    2    1    2    0    0  0.00000000000E+00  0.00000000000E+00  0.20214539184E+04  0.43929865169E+04  0.39002634005E+04 0.  0.
        1    1    3    3  502    0 -0.88422835845E+03 -0.11515319896E+04  0.24771766663E+04  0.28712871590E+04  0.50400001928E-02 0. -1.
       -1    1    3    3    0  502  0.88422835845E+03  0.11515319896E+04 -0.45572274798E+03  0.15216993579E+04  0.50400001928E-02 0.  1.
</event>
<event>
 5   0  0.2632875E-08  0.3919855E+04  0.7818609E-02  0.8020912E-01
        1   -1    0    0  501    0  0.00000000000E+00  0.00000000000E+00  0.16164002857E+04  0.16164002857E+04  0.50400001928E-02 0.  1.
       -1   -1    0    0    0  501  0.00000000000E+00  0.00000000000E+00 -0.23764628369E+04  0.23764628369E+04  0.50400001928E-02 0. -1.
    10030    2    1    2    0    0  0.00000000000E+00  0.00000000000E+00 -0.76006255119E+03  0.39928631225E+04  0.39198546955E+04 0.  0.
        3    1    3    3  502    0  0.12619886308E+04 -0.11337036329E+04 -0.13798502486E+04  0.21867523752E+04  0.10100000352E+00 0. -1.
       -3    1    3    3    0  502 -0.12619886308E+04  0.11337036329E+04  0.61978769743E+03  0.18061107473E+04  0.10100000352E+00 0.  1.
</event>
<event>
 5   0  0.2632875E-08  0.3905996E+04  0.7818609E-02  0.8023783E-01
        1   -1    0    0  501    0  0.00000000000E+00  0.00000000000E+00  0.21930682762E+04  0.21930682762E+04  0.50400001928E-02 0. -1.
       -1   -1    0    0    0  501  0.00000000000E+00  0.00000000000E+00 -0.17392072696E+04  0.17392072696E+04  0.50400001928E-02 0.  1.
    10030    2    1    2    0    0  0.00000000000E+00  0.00000000000E+00  0.45386100658E+03  0.39322755458E+04  0.39059955395E+04 0.  0.
        4    1    3    3  502    0 -0.14058023434E+03 -0.62623733488E+03  0.20838630138E+04  0.21804638669E+04  0.12699999809E+01 0. -1.
       -4    1    3    3    0  502  0.14058023434E+03  0.62623733488E+03 -0.16300020072E+04  0.17518116789E+04  0.12699999809E+01 0.  1.
</event>
<event>
 5   0  0.2632875E-08  0.3921367E+04  0.7818609E-02  0.8020600E-01
        1   -1    0    0  501    0  0.00000000000E+00  0.00000000000E+00  0.21130824505E+04  0.21130824505E+04  0.50400001928E-02 0. -1.
       -1   -1    0    0    0  501  0.00000000000E+00  0.00000000000E+00 -0.18192757249E+04  0.18192757249E+04  0.50400001928E-02 0.  1.
    10030    2    1    2    0    0  0.00000000000E+00  0.00000000000E+00  0.29380672560E+03  0.39323581754E+04  0.39213669080E+04 0.  0.
        5    1    3    3  502    0 -0.53837583000E+03 -0.12575743075E+04  0.15554455822E+04  0.20714185290E+04  0.46999998093E+01 0. -1.
       -5    1    3    3    0  502  0.53837583000E+03  0.12575743075E+04 -0.12616388566E+04  0.18609396464E+04  0.46999998093E+01 0.  1.
</event>
<event>
 5   0  0.8551754E-08  0.3934199E+04  0.7818609E-02  0.8017954E-01
       -2   -1    0    0    0  501  0.00000000000E+00  0.00000000000E+00  0.15819638126E+04  0.15819638126E+04  0.25500000920E-02 0.  1.
        2   -1    0    0  501    0  0.00000000000E+00  0.00000000000E+00 -0.24459983618E+04  0.24459983618E+04  0.25500000920E-02 0. -1.
    10030    2    1    2    0    0  0.00000000000E+00  0.00000000000E+00 -0.86403454924E+03  0.40279621744E+04  0.39341992293E+04 0.  0.
        1    1    3    3  502    0  0.18693269947E+04  0.35772624830E+03 -0.94098618239E+03  0.21231595506E+04  0.50400001928E-02 0. -1.
       -1    1    3    3    0  502 -0.18693269947E+04 -0.35772624830E+03  0.76951633153E+02  0.19048026238E+04  0.50400001928E-02 0.  1.
</event>
<event>
 5   0  0.8676098E-08  0.3902906E+04  0.7818609E-02  0.8024425E-01
        2   -1    0    0  501    0  0.00000000000E+00  0.00000000000E+00  0.15547763674E+04  0.15547763674E+04  0.25500000920E-02 0. -1.
       -2   -1    0    0    0  501  0.00000000000E+00  0.00000000000E+00 -0.24493352075E+04  0.24493352075E+04  0.25500000920E-02 0.  1.
    10030    2    1    2    0    0  0.00000000000E+00  0.00000000000E+00 -0.89455884016E+03  0.40041115749E+04  0.39029058387E+04 0.  0.
        3    1    3    3  502    0 -0.13996072146E+04  0.68420554549E+03 -0.16529690298E+04  0.22714189854E+04  0.10100000352E+00 0.  1.
       -3    1    3    3    0  502  0.13996072146E+04 -0.68420554549E+03  0.75841018960E+03  0.17326925895E+04  0.10100000352E+00 0. -1.
</event>
<event>
 5   0  0.2632875E-08  0.3915815E+04  0.7818609E-02  0.8021748E-01
       -1   -1    0    0    0  501  0.00000000000E+00  0.00000000000E+00  0.19233858466E+04  0.19233858466E+04  0.50400001928E-02 0. -1.
        1   -1    0    0  501    0  0.00000000000E+00  0.00000000000E+00 -0.19930488292E+04  0.19930488292E+04  0.50400001928E-02 0.  1.
    10030    2    1    2    0    0  0.00000000000E+00  0.00000000000E+00 -0.69662982627E+02  0.39164346758E+04  0.39158150669E+04 0.  0.
        3    1    3    3  502    0 -0.14787111426E+04 -0.81619997636E+03 -0.10252572660E+04  0.19758343848E+04  0.10100000352E+00 0.  1.
       -3    1    3    3    0  502  0.14787111426E+04  0.81619997636E+03  0.95559428334E+03  0.19406002909E+04  0.10100000352E+00 0. -1.
</event>
<event>
 5   0  0.2632875E-08  0.3844188E+04  0.7818609E-02  0.8036738E-01
       -1   -1    0    0    0  501  0.00000000000E+00  0.00000000000E+00  0.14601230800E+04  0.14601230800E+04  0.50400001928E-02 0.  1.
        1   -1    0    0  501    0  0.00000000000E+00  0.00000000000E+00 -0.25302293268E+04  0.25302293268E+04  0.50400001928E-02 0. -1.
    10030    2    1    2    0    0  0.00000000000E+00  0.00000000000E+00 -0.10701062468E+04  0.39903524068E+04  0.38441884645E+04 0.  0.
        2    1    3    3  502    0 -0.29522982108E+03  0.18839813237E+04 -0.28527998999E+03  0.19281937008E+04  0.25500000920E-02 0. -1.
       -2    1    3    3    0  502  0.29522982108E+03 -0.18839813237E+04 -0.78482625684E+03  0.20621587060E+04  0.25500000920E-02 0.  1.
</event>
<event>
 5   0  0.2632875E-08  0.3936239E+04  0.7818609E-02  0.8017534E-01
       -1   -1    0    0    0  501  0.00000000000E+00  0.00000000000E+00  0.31915001293E+04  0.31915001293E+04  0.50400001928E-02 0.  1.
        1   -1    0    0  501    0  0.00000000000E+00  0.00000000000E+00 -0.12136906289E+04  0.12136906289E+04  0.50400001928E-02 0. -1.
    10030    2    1    2    0    0  0.00000000000E+00  0.00000000000E+00  0.19778095003E+04  0.44051907582E+04  0.39362387118E+04 0.  0.
        4    1    3    3  502    0 -0.57093278708E+03 -0.10053042880E+04  0.27714239424E+04  0.30028974741E+04  0.12699999809E+01 0.  1.
       -4    1    3    3    0  502  0.57093278708E+03  0.10053042880E+04 -0.79361444205E+03  0.14022932840E+04  0.12699999809E+01 0. -1.
</event>
<event>
 5   0  0.2632875E-08  0.3870237E+04  0.7818609E-02  0.8031248E-01
        1   -1    0    0  501    0  0.00000000000E+00  0.00000000000E+00  0.23933745631E+04  0.23933745631E+04  0.50400001928E-02 0.  1.
       -1   -1    0    0    0  501  0.00000000000E+00  0.00000000000E+00 -0.15646038239E+04  0.15646038239E+04  0.50400001928E-02 0. -1.
    10030    2    1    2    0    0  0.00000000000E+00  0.00000000000E+00  0.82877073918E+03  0.39579783871E+04  0.38702366819E+04 0.  0.
        2    1    3    3  502    0  0.17692454331E+04 -0.72224552679E+03  0.72594770782E+03  0.20442279907E+04  0.25500000920E-02 0. -1.
       -2    1    3    3    0  502 -0.17692454331E+04  0.72224552679E+03  0.10282303136E+03  0.19137503963E+04  0.25500000920E-02 0.  1.
</event>
<event>
 5   0  0.2632875E-08  0.3880348E+04  0.7818609E-02  0.8029129E-01
        1   -1    0    0  501    0  0.00000000000E+00  0.00000000000E+00  0.21158658003E+04  0.21158658003E+04  0.50400001928E-02 0.  1.
       -1   -1    0    0    0  501  0.00000000000E+00  0.00000000000E+00 -0.17790707490E+04  0.17790707490E+04  0.50400001928E-02 0. -1.
    10030    2    1    2    0    0  0.00000000000E+00  0.00000000000E+00  0.33679505132E+03  0.38949365493E+04  0.38803478989E+04 0.  0.
        1    1    3    3  502    0  0.19046906398E+04 -0.25049275183E+03 -0.10406710710E+03  0.19239082657E+04  0.50400001928E-02 0. -1.
       -1    1    3    3    0  502 -0.19046906398E+04  0.25049275183E+03  0.44086215842E+03  0.19710282836E+04  0.50400001928E-02 0.  1.
</event>
<event>
 5   0  0.2632875E-08  0.3960684E+04  0.7818609E-02  0.8012525E-01
       -1   -1    0    0    0  501  0.00000000000E+00  0.00000000000E+00  0.21191983407E+04  0.21191983407E+04  0.50400001928E-02 0.  1.
        1   -1    0    0  501    0  0.00000000000E+00  0.00000000000E+00 -0.18505836137E+04  0.18505836137E+04  0.50400001928E-02 0. -1.
    10030    2    1    2    0    0  0.00000000000E+00  0.00000000000E+00  0.26861472706E+03  0.39697819544E+04  0.39606836397E+04 0.  0.
        5    1    3    3  502    0 -0.95601233201E+03  0.55594523561E+03 -0.15122374597E+04  0.18734777577E+04  0.46999998093E+01 0. -1.
       -5    1    3    3    0  502  0.95601233201E+03 -0.55594523561E+03  0.17808521868E+04  0.20963041967E+04  0.46999998093E+01 0.  1.
</event>
<event>
 5   0  0.8438211E-08  0.3798348E+04  0.7818609E-02  0.8046509E-01
       -2   -1    0    0    0  501  0.00000000000E+00  0.00000000000E+00  0.12892984996E+04  0.12892984996E+04  0.25500000920E-02 0.  1.
        2   -1    0    0  501    0  0.00000000000E+00  0.00000000000E+00 -0.27975388680E+04  0.27975388680E+04  0.25500000920E-02 0. -1.
    10030    2    1    2    0    0  0.00000000000E+00  0.00000000000E+00 -0.15082403684E+04  0.40868373676E+04  0.37983484122E+04 0.  0.
        5    1    3    3  502    0  0.54629610768E+03 -0.55334361798E+03  0.11101688003E+04  0.13554060100E+04  0.46999998093E+01 0.  1.
       -5    1    3    3    0  502 -0.54629610768E+03  0.55334361798E+03 -0.26184091687E+04  0.27314313576E+04  0.46999998093E+01 0. -1.
</event>
<event>
 5   0  0.8342802E-08  0.3901066E+04  0.7818609E-02  0.8024808E-01
       -2   -1    0    0    0  501  0.00000000000E+00  0.00000000000E+00  0.13094483968E+04  0.13094483968E+04  0.25500000920E-02 0.  1.
        2   -1    0    0  501    0  0.00000000000E+00  0.00000000000E+00 -0.29054820117E+04  0.29054820117E+04  0.25500000920E-02 0. -1.
    10030    2    1    2    0    0  0.00000000000E+00  0.00000000000E+00 -0.15960336149E+04  0.42149304085E+04  0.39010658863E+04 0.  0.
        4    1    3    3  502    0  0.11354021116E+04 -0.96625296013E+03  0.56086643060E+03  0.15929078768E+04  0.12699999809E+01 0.  1.
       -4    1    3    3    0  502 -0.11354021116E+04  0.96625296013E+03 -0.21569000455E+04  0.26220225318E+04  0.12699999809E+01 0. -1.
</event>
<event>
 5   0  0.2632875E-08  0.3910399E+04  0.7818609E-02  0.8022870E-01
        3   -1    0    0  501    0  0.00000000000E+00  0.00000000000E+00  0.17763777823E+04  0.17763777851E+04  0.10100000352E+00 0. -1.
       -3   -1    0    0    0  501  0.00000000000E+00  0.00000000000E+00 -0.21520228767E+04  0.21520228790E+04  0.10100000352E+00 0.  1.
    10030    2    1    2    0    0  0.00000000000E+00  0.00000000000E+00 -0.37564509440E+03  0.39284006642E+04  0.39103992816E+04 0.  0.
        2    1    3    3  502    0 -0.10622754401E+04 -0.46471429941E+03 -0.17693687133E+04  0.21154323753E+04  0.25500000920E-02 0.  1.
       -2    1    3    3    0  502  0.10622754401E+04  0.46471429941E+03  0.13937236189E+04  0.18129682889E+04  0.25500000920E-02 0. -1.
</event>
<event>
 5   0  0.8551754E-08  0.3883092E+04  0.7818609E-02  0.8028555E-01
       -2   -1    0    0    0  501  0.00000000000E+00  0.00000000000E+00  0.15906042893E+04  0.15906042893E+04  0.25500000920E-02 0. -1.
        2   -1    0    0  501    0  0.00000000000E+00  0.00000000000E+00 -0.23699178756E+04  0.23699178756E+04  0.25500000920E-02 0.  1.
    10030    2    1    2    0    0  0.00000000000E+00  0.00000000000E+00 -0.77931358629E+03  0.39605221649E+04  0.38830923441E+04 0.  0.
        1    1    3    3  502    0 -0.26227425108E+03 -0.17339914424E+04  0.46007490658E+03  0.18130590240E+04  0.50400001928E-02 0.  1.
       -1    1    3    3    0  502  0.26227425108E+03  0.17339914424E+04 -0.12393884929E+04  0.21474631408E+04  0.50400001928E-02 0. -1.
</event>
<event>
 5   0  0.8342802E-08  0.3919562E+04  0.7818609E-02  0.8020973E-01
        2   -1    0    0  501    0  0.00000000000E+00  0.00000000000E+00  0.22463887793E+04  0.22463887793E+04  0.25500000920E-02 0. -1.
       -2   -1    0    0    0  501  0.00000000000E+00  0.00000000000E+00 -0.17097400606E+04  0.17097400606E+04  0.25500000920E-02 0.  1.
    10030    2    1    2    0    0  0.00000000000E+00  0.00000000000E+00  0.53664871872E+03  0.39561288398E+04  0.39195616528E+04 0.  0.
        4    1    3    3  502    0  0.93990683242E+03 -0.46868838311E+03  0.19383438566E+04  0.22046024979E+04  0.12699999809E+01 0.  1.
       -4    1    3    3    0  502 -0.93990683242E+03  0.46868838311E+03 -0.14016951379E+04  0.17515263420E+04  0.12699999809E+01 0. -1.
</event>
<event>
 5   0  0.8342802E-08  0.3894500E+04  0.7818609E-02  0.8026174E-01
        2   -1    0    0  501    0  0.00000000000E+00  0.00000000000E+00  0.17148230956E+04  0.17148230956E+04  0.25500000920E-02 0.  1.
       -2   -1    0    0    0  501  0.00000000000E+00  0.00000000000E+00 -0.22111797806E+04  0.22111797806E+04  0.25500000920E-02 0. -1.
    10030    2    1    2    0    0  0.00000000000E+00  0.00000000000E+00 -0.49635668496E+03  0.39260028762E+04  0.38944997914E+04 0.  0.
        4    1    3    3  502    0 -0.79996037545E+03 -0.97816342181E+03 -0.17417297441E+04  0.21518281522E+04  0.12699999809E+01 0. -1.
       -4    1    3    3    0  502  0.79996037545E+03  0.97816342181E+03  0.12453730591E+04  0.17741747240E+04  0.12699999809E+01 0.  1.
</event>
<event>
 5   0  0.2632875E-08  0.3645554E+04  0.7818609E-02  0.8080136E-01
       -1   -1    0    0    0  501  0.00000000000E+00  0.00000000000E+00  0.26161512821E+04  0.26161512821E+04  0.50400001928E-02 0. -1.
        1   -1    0    0  501    0  0.00000000000E+00  0.00000000000E+00 -0.12700013311E+04  0.12700013311E+04  0.50400001928E-02 0.  1.
    10030    2    1    2    0    0  0.00000000000E+00  0.00000000000E+00  0.13461499509E+04  0.38861526132E+04  0.36455537910E+04 0.  0.
        1    1    3    3  502    0  0.52853326991E+02 -0.56181579455E+03  0.25206941482E+04  0.25830852579E+04  0.50400001928E-02 0. -1.
       -1    1    3    3    0  502 -0.52853326991E+02  0.56181579455E+03 -0.11745441972E+04  0.13030673553E+04  0.50400001928E-02 0.  1.
</event>
<event>
 5   0  0.2632875E-08  0.3902818E+04  0.7818609E-02  0.8024443E-01
       -1   -1    0    0    0  501  0.00000000000E+00  0.00000000000E+00  0.16595462136E+04  0.16595462136E+04  0.50400001928E-02 0. -1.
        1   -1    0    0  501    0  0.00000000000E+00  0.00000000000E+00 -0.22946019636E+04  0.22946019636E+04  0.50400001928E-02 0.  1.
    10030    2    1    2    0    0  0.00000000000E+00  0.00000000000E+00 -0.63505574999E+03  0.39541481772E+04  0.39028184689E+04 0.  0.
        5    1    3    3  502    0  0.82911853891E+03 -0.16427814619E+04  0.34048092182E+03  0.18713946220E+04  0.46999998093E+01 0. -1.
       -5    1    3    3    0  502 -0.82911853891E+03  0.16427814619E+04 -0.97553667181E+03  0.20827535551E+04  0.46999998093E+01 0.  1.
</event>
<event>
 5   0  0.2632875E-08  0.3906452E+04  0.7818609E-02  0.8023689E-01
        1   -1    0    0  501    0  0.00000000000E+00  0.00000000000E+00  0.21624144484E+04  0.21624144484E+04  0.50400001928E-02 0. -1.
       -1   -1    0    0    0  501  0.00000000000E+00  0.00000000000E+00 -0.17642744420E+04  0.17642744420E+04  0.50400001928E-02 0.  1.
    10030    2    1    2    0    0  0.00000000000E+00  0.00000000000E+00  0.39814000636E+03  0.39266888904E+04  0.39064523774E+04 0.  0.
        3    1    3    3  502    0 -0.58036215199E+03 -0.89311572157E+03 -0.14466703266E+04  0.17964773764E+04  0.10100000352E+00 0.  1.
       -3    1    3    3    0  502  0.58036215199E+03  0.89311572157E+03  0.18448103330E+04  0.21302115140E+04  0.10100000352E+00 0. -1.
</event>
<event>
 5   0  0.8342802E-08  0.3922848E+04  0.7818609E-02  0.8020294E-01
       -2   -1    0    0    0  501  0.00000000000E+00  0.00000000000E+00  0.31863693389E+04  0.31863693389E+04  0.25500000920E-02 0.  1.
        2   -1    0    0  501    0  0.00000000000E+00  0.00000000000E+00 -0.12073881097E+04  0.12073881097E+04  0.25500000920E-02 0. -1.
    10030    2    1    2    0    0  0.00000000000E+00  0.00000000000E+00  0.19789812292E+04  0.43937574487E+04  0.39228481760E+04 0.  0.
        4    1    3    3  502    0  0.16918999721E+04  0.68500987430E+02  0.20982564806E+04  0.26962751662E+04  0.12699999809E+01 0.  1.
       -4    1    3    3    0  502 -0.16918999721E+04 -0.68500987430E+02 -0.11927525142E+03  0.16974822824E+04  0.12699999809E+01 0. -1.
</event>
<event>
 5   0  0.2632875E-08  0.3884598E+04  0.7818609E-02  0.8028240E-01
       -1   -1    0    0    0  501  0.00000000000E+00  0.00000000000E+00  0.23147825607E+04  0.23147825607E+04  0.50400001928E-02 0. -1.
        1   -1    0    0  501    0  0.00000000000E+00  0.00000000000E+00 -0.16297537476E+04  0.16297537477E+04  0.50400001928E-02 0.  1.
    10030    2    1    2    0    0  0.00000000000E+00  0.00000000000E+00  0.68502881304E+03  0.39445363083E+04  0.38845980761E+04 0.  0.
        1    1    3    3  502    0 -0.19029272411E+04  0.68667127710E+02 -0.46380980968E+02  0.19047305465E+04  0.50400001928E-02 0.  1.
       -1    1    3    3    0  502  0.19029272411E+04 -0.68667127710E+02  0.73140979401E+03  0.20398057619E+04  0.50400001928E-02 0. -1.
</event>
<event>
 5   0  0.8551754E-08  0.3807065E+04  0.7818609E-02  0.8044640E-01
       -2   -1    0    0    0  501  0.00000000000E+00  0.00000000000E+00  0.15937926277E+04  0.15937926277E+04  0.25500000920E-02 0. -1.
        2   -1    0    0  501    0  0.00000000000E+00  0.00000000000E+00 -0.22734682155E+04  0.22734682155E+04  0.25500000920E-02 0.  1.
    10030    2    1    2    0    0  0.00000000000E+00  0.00000000000E+00 -0.67967558786E+03  0.38672608432E+04  0.38070654742E+04 0.  0.
        1    1    3    3  502    0  0.64937131476E+03  0.17128897085E+04  0.18580183147E+03  0.18412486465E+04  0.50400001928E-02 0. -1.
       -1    1    3    3    0  502 -0.64937131476E+03 -0.17128897085E+04 -0.86547741933E+03  0.20260121967E+04  0.50400001928E-02 0.  1.
</event>
<event>
 5   0  0.2632875E-08  0.3905069E+04  0.7818609E-02  0.8023976E-01
       -1   -1    0    0    0  501  0.00000000000E+00  0.00000000000E+00  0.24722096718E+04  0.24722096718E+04  0.50400001928E-02 0. -1.
        1   -1    0    0  501    0  0.00000000000E+00  0.00000000000E+00 -0.15420987216E+04  0.15420987216E+04  0.50400001928E-02 0.  1.
    10030    2    1    2    0    0  0.00000000000E+00  0.00000000000E+00  0.93011095020E+03  0.40143083934E+04  0.39050692052E+04 0.  0.
        5    1    3    3  502    0 -0.12600366580E+04  0.10957606994E+04 -0.57517333967E+03  0.17661342958E+04  0.46999998093E+01 0.  1.
       -5    1    3    3    0  502  0.12600366580E+04 -0.10957606994E+04  0.15052842899E+04  0.22481740976E+04  0.46999998093E+01 0. -1.
</event>
<event>
 5   0  0.8676098E-08  0.3853358E+04  0.7818609E-02  0.8034800E-01
        2   -1    0    0  501    0  0.00000000000E+00  0.00000000000E+00  0.28069471562E+04  0.28069471562E+04  0.25500000920E-02 0.  1.
       -2   -1    0    0    0  501  0.00000000000E+00  0.00000000000E+00 -0.13224657129E+04  0.13224657129E+04  0.25500000920E-02 0. -1.
    10030    2    1    2    0    0  0.00000000000E+00  0.00000000000E+00  0.14844814433E+04  0.41294128691E+04  0.38533576902E+04 0.  0.
        3    1    3    3  502    0 -0.11885053815E+04 -0.14494922143E+03  0.23598623084E+04  0.26462247530E+04  0.10100000352E+00 0.  1.
       -3    1    3    3    0  502  0.11885053815E+04  0.14494922143E+03 -0.87538086514E+03  0.14831881161E+04  0.10100000352E+00 0. -1.
</event>
<event>
 5   0  0.8551754E-08  0.3895681E+04  0.7818609E-02  0.8025928E-01
       -2   -1    0    0    0  501  0.00000000000E+00  0.00000000000E+00  0.11833212370E+04  0.11833212370E+04  0.25500000920E-02 0. -1.
        2   -1    0    0  501    0  0.00000000000E+00  0.00000000000E+00 -0.32062999060E+04  0.32062999060E+04  0.25500000920E-02 0.  1.
    10030    2    1    2    0    0  0.00000000000E+00  0.00000000000E+00 -0.20229786689E+04  0.43896211430E+04  0.38956810809E+04 0.  0.
        1    1    3    3  502    0 -0.18013474100E+04 -0.67799432062E+03 -0.13486881886E+04  0.23502103354E+04  0.50400001928E-02 0. -1.
       -1    1    3    3    0  502  0.18013474100E+04  0.67799432062E+03 -0.67429048035E+03  0.20394108077E+04  0.50400001928E-02 0.  1.
</event>
<event>
 5   0  0.2632875E-08  0.3893102E+04  0.7818609E-02  0.8026465E-01
       -1   -1    0    0    0  501  0.00000000000E+00  0.00000000000E+00  0.36190257773E+04  0.36190257773E+04  0.50400001928E-02 0.  1.
        1   -1    0    0  501    0  0.00000000000E+00  0.00000000000E+00 -0.10469836113E+04  0.10469836113E+04  0.50400001928E-02 0. -1.
    10030    2    1    2    0    0  0.00000000000E+00  0.00000000000E+00  0.25720421660E+04  0.46660093886E+04  0.38931019394E+04 0.  0.
        5    1    3    3  502    0  0.48512507465E+03 -0.15708716645E+04  0.36983129890E+02  0.16444980894E+04  0.46999998093E+01 0. -1.
       -5    1    3    3    0  502 -0.48512507465E+03  0.15708716645E+04  0.25350590361E+04  0.30215112992E+04  0.46999998093E+01 0.  1.
</event>
<event>
 5   0  0.2632875E-08  0.3892347E+04  0.7818609E-02  0.8026623E-01
       -1   -1    0    0    0  501  0.00000000000E+00  0.00000000000E+00  0.12723256342E+04  0.12723256342E+04  0.50400001928E-02 0.  1.
        1   -1    0    0  501    0  0.00000000000E+00  0.00000000000E+00 -0.29769038026E+04  0.29769038026E+04  0.50400001928E-02 0. -1.
    10030    2    1    2    0    0  0.00000000000E+00  0.00000000000E+00 -0.17045781684E+04  0.42492294368E+04  0.38923468595E+04 0.  0.
        2    1    3    3  502    0 -0.15318134673E+04 -0.11235216307E+04 -0.13139553512E+04  0.23098121175E+04  0.25500000920E-02 0. -1.
       -2    1    3    3    0  502  0.15318134673E+04  0.11235216307E+04 -0.39062281724E+03  0.19394173193E+04  0.25500000920E-02 0.  1.
</event>
<event>
 5   0  0.8476262E-08  0.3901841E+04  0.7818609E-02  0.8024646E-01
        2   -1    0    0  501    0  0.00000000000E+00  0.00000000000E+00  0.20832375828E+04  0.20832375828E+04  0.25500000920E-02 0.  1.
       -2   -1    0    0    0  501  0.00000000000E+00  0.00000000000E+00 -0.18270073514E+04  0.18270073514E+04  0.25500000920E-02 0. -1.
    10030    2    1    2    0    0  0.00000000000E+00  0.00000000000E+00  0.25623023144E+03  0.39102449343E+04  0.39018407854E+04 0.  0.
        2    1    3    3  502    0  0.17188685213E+04  0.54388363915E+03 -0.61899176925E+03  0.19061661042E+04  0.25500000920E-02 0. -1.
       -2    1    3    3    0  502 -0.17188685213E+04 -0.54388363915E+03  0.87522200069E+03  0.20040788300E+04  0.25500000920E-02 0.  1.
</event>
<event>
 5   0  0.8476262E-08  0.3904364E+04  0.7818609E-02  0.8024122E-01
        2   -1    0    0  501    0  0.00000000000E+00  0.00000000000E+00  0.21190002045E+04  0.21190002045E+04  0.25500000920E-02 0.  1.
       -2   -1    0    0    0  501  0.00000000000E+00  0.00000000000E+00 -0.17984964943E+04  0.17984964943E+04  0.25500000920E-02 0. -1.
    10030    2    1    2    0    0  0.00000000000E+00  0.00000000000E+00  0.32050371015E+03  0.39174966988E+04  0.39043639376E+04 0.  0.
        2    1    3    3  502    0 -0.18144664344E+04 -0.32208547337E+03  0.80661347984E+03  0.20116293892E+04  0.25500000920E-02 0.  1.
       -2    1    3    3    0  502  0.18144664344E+04  0.32208547337E+03 -0.48610976969E+03  0.19058673096E+04  0.25500000920E-02 0. -1.
</event>
<event>
 5   0  0.2632875E-08  0.3892230E+04  0.7818609E-02  0.8026647E-01
        1   -1    0    0  501    0  0.00000000000E+00  0.00000000000E+00  0.22583363815E+04  0.22583363815E+04  0.50400001928E-02 0.  1.
       -1   -1    0    0    0  501  0.00000000000E+00  0.00000000000E+00 -0.16770587970E+04  0.16770587970E+04  0.50400001928E-02 0. -1.
    10030    2    1    2    0    0  0.00000000000E+00  0.00000000000E+00  0.58127758450E+03  0.39353951784E+04  0.38922296412E+04 0.  0.
        3    1    3    3  502    0 -0.17791148713E+04 -0.55246856668E+02 -0.50489127105E+03  0.18501938132E+04  0.10100000352E+00 0. -1.
       -3    1    3    3    0  502  0.17791148713E+04  0.55246856668E+02  0.10861688555E+04  0.20852013652E+04  0.10100000352E+00 0.  1.
</event>
<event>
 5   0  0.2632875E-08  0.3908888E+04  0.7818609E-02  0.8023183E-01
        1   -1    0    0  501    0  0.00000000000E+00  0.00000000000E+00  0.26522875107E+04  0.26522875107E+04  0.50400001928E-02 0.  1.
       -1   -1    0    0    0  501  0.00000000000E+00  0.00000000000E+00 -0.14402103320E+04  0.14402103321E+04  0.50400001928E-02 0. -1.
    10030    2    1    2    0    0  0.00000000000E+00  0.00000000000E+00  0.12120771786E+04  0.40924978427E+04  0.39088882698E+04 0.  0.
        2    1    3    3  502    0  0.61020598130E+03 -0.11435617825E+03  0.25463083131E+04  0.26208995975E+04  0.25500000920E-02 0.  1.
       -2    1    3    3    0  502 -0.61020598130E+03  0.11435617825E+03 -0.13342311345E+04  0.14715982452E+04  0.25500000920E-02 0. -1.
</event>
<event>
 5   0  0.8551754E-08  0.3917416E+04  0.7818609E-02  0.8021417E-01
        2   -1    0    0  501    0  0.00000000000E+00  0.00000000000E+00  0.26675402830E+04  0.26675402830E+04  0.25500000920E-02 0. -1.
       -2   -1    0    0    0  501  0.00000000000E+00  0.00000000000E+00 -0.14382302634E+04  0.14382302634E+04  0.25500000920E-02 0.  1.
    10030    2    1    2    0    0  0.00000000000E+00  0.00000000000E+00  0.12293100196E+04  0.41057705464E+04  0.39174160688E+04 0.  0.
        1    1    3    3  502    0 -0.13842026746E+04  0.61588658579E+03  0.19157979651E+04  0.24424608849E+04  0.50400001928E-02 0.  1.
       -1    1    3    3    0  502  0.13842026746E+04 -0.61588658579E+03 -0.68648794548E+03  0.16633096616E+04  0.50400001928E-02 0. -1.
</event>
<event>
 5   0  0.2632875E-08  0.3830482E+04  0.7818609E-02  0.8039645E-01
        1   -1    0    0  501    0  0.00000000000E+00  0.00000000000E+00  0.18992964259E+04  0.18992964259E+04  0.50400001928E-02 0. -1.
       -1   -1    0    0    0  501  0.00000000000E+00  0.00000000000E+00 -0.19313189506E+04  0.19313189507E+04  0.50400001928E-02 0.  1.
    10030    2    1    2    0    0  0.00000000000E+00  0.00000000000E+00 -0.32022524708E+02  0.38306153766E+04  0.38304815260E+04 0.  0.
        4    1    3    3  502    0 -0.22358972874E+03  0.16415627995E+04  0.94497225070E+03  0.19072742223E+04  0.12699999809E+01 0. -1.
       -4    1    3    3    0  502  0.22358972874E+03 -0.16415627995E+04 -0.97699477541E+03  0.19233411543E+04  0.12699999809E+01 0.  1.
</event>
<event>
 5   0  0.8551754E-08  0.3895764E+04  0.7818609E-02  0.8025911E-01
        2   -1    0    0  501    0  0.00000000000E+00  0.00000000000E+00  0.20035095957E+04  0.20035095957E+04  0.25500000920E-02 0. -1.
       -2   -1    0    0    0  501  0.00000000000E+00  0.00000000000E+00 -0.18937987935E+04  0.18937987935E+04  0.25500000920E-02 0.  1.
    10030    2    1    2    0    0  0.00000000000E+00  0.00000000000E+00  0.10971080223E+03  0.38973083892E+04  0.38957638815E+04 0.  0.
        1    1    3    3  502    0 -0.72522346065E+02 -0.11623350024E+04  0.16168718511E+04  0.19926255874E+04  0.50400001928E-02 0. -1.
       -1    1    3    3    0  502  0.72522346065E+02  0.11623350024E+04 -0.15071610488E+04  0.19046828019E+04  0.50400001928E-02 0.  1.
</event>
<event>
 5   0  0.2632875E-08  0.3898161E+04  0.7818609E-02  0.8025412E-01
       -1   -1    0    0    0  501  0.00000000000E+00  0.00000000000E+00  0.15405677839E+04  0.15405677840E+04  0.50400001928E-02 0.  1.
        1   -1    0    0  501    0  0.00000000000E+00  0.00000000000E+00 -0.24659186820E+04  0.24659186820E+04  0.50400001928E-02 0. -1.
    10030    2    1    2    0    0  0.00000000000E+00  0.00000000000E+00 -0.92535089809E+03  0.40064864660E+04  0.38981610431E+04 0.  0.
        1    1    3    3  502    0 -0.94669554260E+03  0.13625420753E+04 -0.15139188300E+04  0.22460417586E+04  0.50400001928E-02 0.  1.
       -1    1    3    3    0  502  0.94669554260E+03 -0.13625420753E+04  0.58856793191E+03  0.17604447074E+04  0.50400001928E-02 0. -1.
</event>
<event>
 5   0  0.8342802E-08  0.3909726E+04  0.7818609E-02  0.8023009E-01
       -2   -1    0    0    0  501  0.00000000000E+00  0.00000000000E+00  0.11363029215E+04  0.11363029215E+04  0.25500000920E-02 0. -1.
        2   -1    0    0  501    0  0.00000000000E+00  0.00000000000E+00 -0.33630909138E+04  0.33630909138E+04  0.25500000920E-02 0.  1.
    10030    2    1    2    0    0  0.00000000000E+00  0.00000000000E+00 -0.22267879923E+04  0.44993938352E+04  0.39097263487E+04 0.  0.
        4    1    3    3  502    0  0.15111620769E+04 -0.80433867752E+03 -0.27152865992E+02  0.17121070124E+04  0.12699999809E+01 0. -1.
       -4    1    3    3    0  502 -0.15111620769E+04  0.80433867752E+03 -0.21996351263E+04  0.27872868228E+04  0.12699999809E+01 0.  1.
</event>
<event>
 5   0  0.8676098E-08  0.3907153E+04  0.7818609E-02  0.8023543E-01
        2   -1    0    0  501    0  0.00000000000E+00  0.00000000000E+00  0.19764431760E+04  0.19764431760E+04  0.25500000920E-02 0. -1.
       -2   -1    0    0    0  501  0.00000000000E+00  0.00000000000E+00 -0.19309739396E+04  0.19309739396E+04  0.25500000920E-02 0.  1.
    10030    2    1    2    0    0  0.00000000000E+00  0.00000000000E+00  0.45469236346E+02  0.39074171156E+04  0.39071525519E+04 0.  0.
        3    1    3    3  502    0  0.43404715484E+03  0.13040858070E+04 -0.13656761863E+04  0.19375521104E+04  0.10100000352E+00 0.  1.
       -3    1    3    3    0  502 -0.43404715484E+03 -0.13040858070E+04  0.14111454226E+04  0.19698650052E+04  0.10100000352E+00 0. -1.
</event>
<event>
 5   0  0.8476262E-08  0.3811036E+04  0.7818609E-02  0.8043791E-01
       -2   -1    0    0    0  501  0.00000000000E+00  0.00000000000E+00  0.19925769212E+04  0.19925769212E+04  0.25500000920E-02 0.  1.
        2   -1    0    0  501    0  0.00000000000E+00  0.00000000000E+00 -0.18222627401E+04  0.18222627401E+04  0.25500000920E-02 0. -1.
    10030    2    1    2    0    0  0.00000000000E+00  0.00000000000E+00  0.17031418106E+03  0.38148396613E+04  0.38110359118E+04 0.  0.
        2    1    3    3  502    0  0.82633256231E+03  0.28142920675E+03 -0.16103371169E+04  0.18317241965E+04  0.25500000920E-02 0. -1.
       -2    1    3    3    0  502 -0.82633256231E+03 -0.28142920675E+03  0.17806512979E+04  0.19831154648E+04  0.25500000920E-02 0.  1.
</event>
<event>
 5   0  0.8551754E-08  0.3904942E+04  0.7818609E-02  0.8024002E-01
        2   -1    0    0  501    0  0.00000000000E+00  0.00000000000E+00  0.17321528365E+04  0.17321528365E+04  0.25500000920E-02 0.  1.
       -2   -1    0    0    0  501  0.00000000000E+00  0.00000000000E+00 -0.22008117203E+04  0.22008117203E+04  0.25500000920E-02 0. -1.
    10030    2    1    2    0    0  0.00000000000E+00  0.00000000000E+00 -0.46865888378E+03  0.39329645568E+04  0.39049416200E+04 0.  0.
        1    1    3    3  502    0 -0.11913688055E+04 -0.93323049191E+03 -0.14768206812E+04  0.21145396913E+04  0.50400001928E-02 0. -1.
       -1    1    3    3    0  502  0.11913688055E+04  0.93323049191E+03  0.10081617974E+04  0.18184248655E+04  0.50400001928E-02 0.  1.
</event>
<event>
 5   0  0.2632875E-08  0.3898013E+04  0.7818609E-02  0.8025443E-01
        1   -1    0    0  501    0  0.00000000000E+00  0.00000000000E+00  0.21786210412E+04  0.21786210412E+04  0.50400001928E-02 0.  1.
       -1   -1    0    0    0  501  0.00000000000E+00  0.00000000000E+00 -0.17435922491E+04  0.17435922491E+04  0.50400001928E-02 0. -1.
    10030    2    1    2    0    0  0.00000000000E+00  0.00000000000E+00  0.43502879207E+03  0.39222132903E+04  0.38980132176E+04 0.  0.
        4    1    3    3  502    0  0.83573256262E+03  0.42269208971E+03 -0.15023389352E+04  0.17703506455E+04  0.12699999809E+01 0. -1.
       -4    1    3    3    0  502 -0.83573256262E+03 -0.42269208971E+03  0.19373677272E+04  0.21518626449E+04  0.12699999809E+01 0.  1.
</event>
<event>
 5   0  0.8476262E-08  0.3908985E+04  0.7818609E-02  0.8023163E-01
        2   -1    0    0  501    0  0.00000000000E+00  0.00000000000E+00  0.25337091350E+04  0.25337091350E+04  0.25500000920E-02 0. -1.
       -2   -1    0    0    0  501  0.00000000000E+00  0.00000000000E+00 -0.15076876227E+04  0.15076876227E+04  0.25500000920E-02 0.  1.
    10030    2    1    2    0    0  0.00000000000E+00  0.00000000000E+00  0.10260215123E+04  0.40413967577E+04  0.39089854962E+04 0.  0.
        2    1    3    3  502    0 -0.81848268573E+03  0.41671743186E+03  0.22966972278E+04  0.24735370386E+04  0.25500000920E-02 0. -1.
       -2    1    3    3    0  502  0.81848268573E+03 -0.41671743186E+03 -0.12706757156E+04  0.15678597192E+04  0.25500000920E-02 0.  1.
</event>
<event>
 5   0  0.2632875E-08  0.3906678E+04  0.7818609E-02  0.8023642E-01
       -1   -1    0    0    0  501  0.00000000000E+00  0.00000000000E+00  0.20419938198E+04  0.20419938199E+04  0.50400001928E-02 0. -1.
        1   -1    0    0  501    0  0.00000000000E+00  0.00000000000E+00 -0.18685330947E+04  0.18685330947E+04  0.50400001928E-02 0.  1.
    10030    2    1    2    0    0  0.00000000000E+00  0.00000000000E+00  0.17346072515E+03  0.39105269146E+04  0.39066778887E+04 0.  0.
        5    1    3    3  502    0 -0.15543461747E+04  0.11051220165E+04  0.50931242626E+03  0.19740080901E+04  0.46999998093E+01 0.  1.
       -5    1    3    3    0  502  0.15543461747E+04 -0.11051220165E+04 -0.33585170111E+03  0.19365188244E+04  0.46999998093E+01 0. -1.
</event>
<event>
 5   0  0.2632875E-08  0.3896579E+04  0.7818609E-02  0.8025741E-01
       -1   -1    0    0    0  501  0.00000000000E+00  0.00000000000E+00  0.18007409660E+04  0.18007409660E+04  0.50400001928E-02 0. -1.
        1   -1    0    0  501    0  0.00000000000E+00  0.00000000000E+00 -0.21079278865E+04  0.21079278865E+04  0.50400001928E-02 0.  1.
    10030    2    1    2    0    0  0.00000000000E+00  0.00000000000E+00 -0.30718692051E+03  0.39086688526E+04  0.38965790631E+04 0.  0.
        4    1    3    3  502    0 -0.72005099198E+03  0.74714622026E+03 -0.18076880363E+04  0.20843316806E+04  0.12699999809E+01 0.  1.
       -4    1    3    3    0  502  0.72005099198E+03 -0.74714622026E+03  0.15005011158E+04  0.18243371719E+04  0.12699999809E+01 0. -1.
</event>
<event>
 5   0  0.2632875E-08  0.3867725E+04  0.7818609E-02  0.8031775E-01
        1   -1    0    0  501    0  0.00000000000E+00  0.00000000000E+00  0.23434405726E+04  0.23434405726E+04  0.50400001928E-02 0. -1.
       -1   -1    0    0    0  501  0.00000000000E+00  0.00000000000E+00 -0.15958689507E+04  0.15958689507E+04  0.50400001928E-02 0.  1.
    10030    2    1    2    0    0  0.00000000000E+00  0.00000000000E+00  0.74757162194E+03  0.39393095234E+04  0.38677249373E+04 0.  0.
        4    1    3    3  502    0  0.42833235990E+03 -0.18179261242E+04 -0.13699216810E+03  0.18727232766E+04  0.12699999809E+01 0. -1.
       -4    1    3    3    0  502 -0.42833235990E+03  0.18179261242E+04  0.88456379004E+03  0.20665862468E+04  0.12699999809E+01 0.  1.
</event>
<event>
 5   0  0.2632875E-08  0.3898475E+04  0.7818609E-02  0.8025346E-01
       -1   -1    0    0    0  501  0.00000000000E+00  0.00000000000E+00  0.18415324846E+04  0.18415324846E+04  0.50400001928E-02 0. -1.
        1   -1    0    0  501    0  0.00000000000E+00  0.00000000000E+00 -0.20632416644E+04  0.20632416644E+04  0.50400001928E-02 0.  1.
    10030    2    1    2    0    0  0.00000000000E+00  0.00000000000E+00 -0.22170917978E+03  0.39047741490E+04  0.38984748549E+04 0.  0.
        5    1    3    3  502    0  0.16073805581E+04 -0.55103957145E+02  0.99219494533E+03  0.18897570226E+04  0.46999998093E+01 0. -1.
       -5    1    3    3    0  502 -0.16073805581E+04  0.55103957145E+02 -0.12139041251E+04  0.20150171264E+04  0.46999998093E+01 0.  1.
</event>
<event>
 5   0  0.8676098E-08  0.3905568E+04  0.7818609E-02  0.8023872E-01
        2   -1    0    0  501    0  0.00000000000E+00  0.00000000000E+00  0.18148723156E+04  0.18148723156E+04  0.25500000920E-02 0. -1.
       -2   -1    0    0    0  501  0.00000000000E+00  0.00000000000E+00 -0.21011755986E+04  0.21011755986E+04  0.25500000920E-02 0.  1.
    10030    2    1    2    0    0  0.00000000000E+00  0.00000000000E+00 -0.28630328298E+03  0.39160479142E+04  0.39055680376E+04 0.  0.
        3    1    3    3  502    0  0.53860272329E+03  0.15104591316E+02 -0.20251656231E+04  0.20956184895E+04  0.10100000352E+00 0.  1.
       -3    1    3    3    0  502 -0.53860272329E+03 -0.15104591316E+02  0.17388623401E+04  0.18204294247E+04  0.10100000352E+00 0. -1.
</event>
<event>
 5   0  0.8342802E-08  0.3909704E+04  0.7818609E-02  0.8023014E-01
       -2   -1    0    0    0  501  0.00000000000E+00  0.00000000000E+00  0.18240837093E+04  0.18240837093E+04  0.25500000920E-02 0.  1.
        2   -1    0    0  501    0  0.00000000000E+00  0.00000000000E+00 -0.20949948222E+04  0.20949948222E+04  0.25500000920E-02 0. -1.
    10030    2    1    2    0    0  0.00000000000E+00  0.00000000000E+00 -0.27091111287E+03  0.39190785314E+04  0.39097037873E+04 0.  0.
        4    1    3    3  502    0 -0.29480487607E+03 -0.13162046509E+04 -0.15538182553E+04  0.20575853279E+04  0.12699999809E+01 0. -1.
       -4    1    3    3    0  502  0.29480487607E+03  0.13162046509E+04  0.12829071424E+04  0.18614932036E+04  0.12699999809E+01 0.  1.
</event>
<event>
 5   0  0.8438211E-08  0.3883723E+04  0.7818609E-02  0.8028423E-01
       -2   -1    0    0    0  501  0.00000000000E+00  0.00000000000E+00  0.12392894874E+04  0.12392894874E+04  0.25500000920E-02 0.  1.
        2   -1    0    0  501    0  0.00000000000E+00  0.00000000000E+00 -0.30427316856E+04  0.30427316856E+04  0.25500000920E-02 0. -1.
    10030    2    1    2    0    0  0.00000000000E+00  0.00000000000E+00 -0.18034421982E+04  0.42820211730E+04  0.38837226425E+04 0.  0.
        5    1    3    3  502    0 -0.29367795144E+03 -0.56330716965E+02 -0.30171874849E+04  0.30319733340E+04  0.46999998093E+01 0. -1.
       -5    1    3    3    0  502  0.29367795144E+03  0.56330716965E+02  0.12137452867E+04  0.12500478390E+04  0.46999998093E+01 0.  1.
</event>
<event>
 5   0  0.2632875E-08  0.3904320E+04  0.7818609E-02  0.8024131E-01
        1   -1    0    0  501    0  0.00000000000E+00  0.00000000000E+00  0.14024388802E+04  0.14024388802E+04  0.50400001928E-02 0. -1.
       -1   -1    0    0    0  501  0.00000000000E+00  0.00000000000E+00 -0.27173579701E+04  0.27173579701E+04  0.50400001928E-02 0.  1.
    10030    2    1    2    0    0  0.00000000000E+00  0.00000000000E+00 -0.13149190899E+04  0.41197968503E+04  0.39043198992E+04 0.  0.
        2    1    3    3  502    0 -0.14557258443E+04 -0.78759453952E+03  0.43479427346E+03  0.17112828383E+04  0.25500000920E-02 0.  1.
       -2    1    3    3    0  502  0.14557258443E+04  0.78759453952E+03 -0.17497133633E+04  0.24085140120E+04  0.25500000920E-02 0. -1.
</event>
<event>
 5   0  0.2632875E-08  0.3898702E+04  0.7818609E-02  0.8025299E-01
        1   -1    0    0  501    0  0.00000000000E+00  0.00000000000E+00  0.21958533262E+04  0.21958533262E+04  0.50400001928E-02 0.  1.
       -1   -1    0    0    0  501  0.00000000000E+00  0.00000000000E+00 -0.17305204901E+04  0.17305204901E+04  0.50400001928E-02 0. -1.
    10030    2    1    2    0    0  0.00000000000E+00  0.00000000000E+00  0.46533283606E+03  0.39263738163E+04  0.38987019246E+04 0.  0.
        2    1    3    3  502    0 -0.57491332568E+03 -0.14304935229E+04  0.14340846640E+04  0.21055725764E+04  0.25500000920E-02 0.  1.
       -2    1    3    3    0  502  0.57491332568E+03  0.14304935229E+04 -0.96875182792E+03  0.18208012399E+04  0.25500000920E-02 0. -1.
</event>
<event>
 5   0  0.2632875E-08  0.3869436E+04  0.7818609E-02  0.8031416E-01
       -1   -1    0    0    0  501  0.00000000000E+00  0.00000000000E+00  0.18500288539E+04  0.18500288540E+04  0.50400001928E-02 0. -1.
        1   -1    0    0  501    0  0.00000000000E+00  0.00000000000E+00 -0.20232844782E+04  0.20232844782E+04  0.50400001928E-02 0.  1.
    10030    2    1    2    0    0  0.00000000000E+00  0.00000000000E+00 -0.17325562426E+03  0.38733133322E+04  0.38694364781E+04 0.  0.
        4    1    3    3  502    0 -0.11352299784E+04  0.14727191876E+03  0.14746454159E+04  0.18668199799E+04  0.12699999809E+01 0. -1.
       -4    1    3    3    0  502  0.11352299784E+04 -0.14727191876E+03 -0.16479010401E+04  0.20064933523E+04  0.12699999809E+01 0.  1.
</event>
<event>
 5   0  0.2632875E-08  0.3903389E+04  0.7818609E-02  0.8024325E-01
       -1   -1    0    0    0  501  0.00000000000E+00  0.00000000000E+00  0.19278192798E+04  0.19278192798E+04  0.50400001928E-02 0.  1.
        1   -1    0    0  501    0  0.00000000000E+00  0.00000000000E+00 -0.19758650622E+04  0.19758650622E+04  0.50400001928E-02 0. -1.
    10030    2    1    2    0    0  0.00000000000E+00  0.00000000000E+00 -0.48045782446E+02  0.39036843420E+04  0.39033886618E+04 0.  0.
        3    1    3    3  502    0 -0.13623076908E+04  0.39615622144E+03 -0.13643813886E+04  0.19683390409E+04  0.10100000352E+00 0. -1.
       -3    1    3    3    0  502  0.13623076908E+04 -0.39615622144E+03  0.13163356062E+04  0.19353453011E+04  0.10100000352E+00 0.  1.
</event>
<event>
 5   0  0.8342802E-08  0.3882599E+04  0.7818609E-02  0.8028658E-01
       -2   -1    0    0    0  501  0.00000000000E+00  0.00000000000E+00  0.25420959514E+04  0.25420959514E+04  0.25500000920E-02 0. -1.
        2   -1    0    0  501    0  0.00000000000E+00  0.00000000000E+00 -0.14824943977E+04  0.14824943977E+04  0.25500000920E-02 0.  1.
    10030    2    1    2    0    0  0.00000000000E+00  0.00000000000E+00  0.10596015537E+04  0.40245903492E+04  0.38825986177E+04 0.  0.
        4    1    3    3  502    0  0.12610141070E+04  0.14673058245E+04  0.69532285529E+03  0.20558741320E+04  0.12699999809E+01 0.  1.
       -4    1    3    3    0  502 -0.12610141070E+04 -0.14673058245E+04  0.36427869842E+03  0.19687162172E+04  0.12699999809E+01 0. -1.
</event>
<event>
 5   0  0.8438211E-08  0.3903139E+04  0.7818609E-02  0.8024377E-01
        2   -1    0    0  501    0  0.00000000000E+00  0.00000000000E+00  0.22700054646E+04  0.22700054646E+04  0.25500000920E-02 0.  1.
       -2   -1    0    0    0  501  0.00000000000E+00  0.00000000000E+00 -0.16778037409E+04  0.16778037409E+04  0.25500000920E-02 0. -1.
    10030    2    1    2    0    0  0.00000000000E+00  0.00000000000E+00  0.59220172378E+03  0.39478092055E+04  0.39031390753E+04 0.  0.
        5    1    3    3  502    0 -0.81341821945E+03  0.12002689673E+03 -0.14940550284E+04  0.17053674600E+04  0.46999998093E+01 0. -1.
       -5    1    3    3    0  502  0.81341821945E+03 -0.12002689673E+03  0.20862567522E+04  0.22424417455E+04  0.46999998093E+01 0.  1.
</event>
<event>
 5   0  0.2632875E-08  0.3898450E+04  0.7818609E-02  0.8025352E-01
       -1   -1    0    0    0  501  0.00000000000E+00  0.00000000000E+00  0.22112323869E+04  0.22112323869E+04  0.50400001928E-02 0.  1.
        1   -1    0    0  501    0  0.00000000000E+00  0.00000000000E+00 -0.17182623690E+04  0.17182623690E+04  0.50400001928E-02 0. -1.
    10030    2    1    2    0    0  0.00000000000E+00  0.00000000000E+00  0.49297001789E+03  0.39294947559E+04  0.38984496403E+04 0.  0.
        5    1    3    3  502    0 -0.15474675920E+04 -0.26735381572E+03  0.14103756966E+04  0.21107618782E+04  0.46999998093E+01 0.  1.
       -5    1    3    3    0  502  0.15474675920E+04  0.26735381572E+03 -0.91740567866E+03  0.18187328777E+04  0.46999998093E+01 0. -1.
</event>
<event>
 5   0  0.8551754E-08  0.3890619E+04  0.7818609E-02  0.8026983E-01
        2   -1    0    0  501    0  0.00000000000E+00  0.00000000000E+00  0.29584950061E+04  0.29584950061E+04  0.25500000920E-02 0. -1.
       -2   -1    0    0    0  501  0.00000000000E+00  0.00000000000E+00 -0.12791058837E+04  0.12791058837E+04  0.25500000920E-02 0.  1.
    10030    2    1    2    0    0  0.00000000000E+00  0.00000000000E+00  0.16793891224E+04  0.42376008899E+04  0.38906186497E+04 0.  0.
        1    1    3    3  502    0 -0.14638701718E+04  0.10235438160E+04  0.47782117316E+00  0.17862133276E+04  0.50400001928E-02 0.  1.
       -1    1    3    3    0  502  0.14638701718E+04 -0.10235438160E+04  0.16789113012E+04  0.24513875623E+04  0.50400001928E-02 0. -1.
</event>
<event>
 5   0  0.8476262E-08  0.3893912E+04  0.7818609E-02  0.8026297E-01
        2   -1    0    0  501    0  0.00000000000E+00  0.00000000000E+00  0.13180010981E+04  0.13180010981E+04  0.25500000920E-02 0.  1.
       -2   -1    0    0    0  501  0.00000000000E+00  0.00000000000E+00 -0.28760505903E+04  0.28760505903E+04  0.25500000920E-02 0. -1.
    10030    2    1    2    0    0  0.00000000000E+00  0.00000000000E+00 -0.15580494921E+04  0.41940516884E+04  0.38939120875E+04 0.  0.
        2    1    3    3  502    0 -0.41122916825E+03 -0.55271848356E+03  0.11823334138E+04  0.13684003260E+04  0.25500000920E-02 0.  1.
       -2    1    3    3    0  502  0.41122916825E+03  0.55271848356E+03 -0.27403829059E+04  0.28256513624E+04  0.25500000920E-02 0. -1.
</event>
<event>
 5   0  0.8476262E-08  0.3826993E+04  0.7818609E-02  0.8040387E-01
       -2   -1    0    0    0  501  0.00000000000E+00  0.00000000000E+00  0.15754732877E+04  0.15754732877E+04  0.25500000920E-02 0. -1.
        2   -1    0    0  501    0  0.00000000000E+00  0.00000000000E+00 -0.23240437964E+04  0.23240437964E+04  0.25500000920E-02 0.  1.
    10030    2    1    2    0    0  0.00000000000E+00  0.00000000000E+00 -0.74857050872E+03  0.38995170841E+04  0.38269930340E+04 0.  0.
        2    1    3    3  502    0 -0.13737908290E+04 -0.12180759515E+04 -0.92344072802E+03  0.20551771319E+04  0.25500000920E-02 0. -1.
       -2    1    3    3    0  502  0.13737908290E+04  0.12180759515E+04  0.17487021930E+03  0.18443399521E+04  0.25500000920E-02 0.  1.
</event>
<event>
 5   0  0.2632875E-08  0.3899685E+04  0.7818609E-02  0.8025095E-01
       -1   -1    0    0    0  501  0.00000000000E+00  0.00000000000E+00  0.14535700807E+04  0.14535700807E+04  0.50400001928E-02 0.  1.
        1   -1    0    0  501    0  0.00000000000E+00  0.00000000000E+00 -0.26155497768E+04  0.26155497768E+04  0.50400001928E-02 0. -1.
    10030    2    1    2    0    0  0.00000000000E+00  0.00000000000E+00 -0.11619796961E+04  0.40691198575E+04  0.38996845514E+04 0.  0.
        4    1    3    3  502    0 -0.31859720645E+03 -0.16942237807E+04  0.36962829082E+03  0.17631009856E+04  0.12699999809E+01 0.  1.
       -4    1    3    3    0  502  0.31859720645E+03  0.16942237807E+04 -0.15316079869E+04  0.23060188719E+04  0.12699999809E+01 0. -1.
</event>
<event>
 5   0  0.2632875E-08  0.3896033E+04  0.7818609E-02  0.8025855E-01
       -1   -1    0    0    0  501  0.00000000000E+00  0.00000000000E+00  0.15584857600E+04  0.15584857600E+04  0.50400001928E-02 0.  1.
        1   -1    0    0  501    0  0.00000000000E+00  0.00000000000E+00 -0.24349069791E+04  0.24349069791E+04  0.50400001928E-02 0. -1.
    10030    2    1    2    0    0  0.00000000000E+00  0.00000000000E+00 -0.87642121911E+03  0.39933927391E+04  0.38960327790E+04 0.  0.
        1    1    3    3  502    0 -0.95539375558E+03 -0.51622372071E+03  0.12194556232E+04  0.16328919667E+04  0.50400001928E-02 0.  1.
       -1    1    3    3    0  502  0.95539375558E+03  0.51622372071E+03 -0.20958768423E+04  0.23605007723E+04  0.50400001928E-02 0. -1.
</event>
<event>
 5   0  0.8438211E-08  0.3864260E+04  0.7818609E-02  0.8032504E-01
       -2   -1    0    0    0  501  0.00000000000E+00  0.00000000000E+00  0.17662071108E+04  0.17662071108E+04  0.25500000920E-02 0.  1.
        2   -1    0    0  501    0  0.00000000000E+00  0.00000000000E+00 -0.21136399825E+04  0.21136399825E+04  0.25500000920E-02 0. -1.
    10030    2    1    2    0    0  0.00000000000E+00  0.00000000000E+00 -0.34743287169E+03  0.38798470933E+04  0.38642598084E+04 0.  0.
        5    1    3    3  502    0 -0.28747893921E+03 -0.90640925119E+03 -0.18624288998E+04  0.20911445115E+04  0.46999998093E+01 0. -1.
       -5    1    3    3    0  502  0.28747893921E+03  0.90640925119E+03  0.15149960281E+04  0.17887025818E+04  0.46999998093E+01 0.  1.
</event>
<event>
 5   0  0.2632875E-08  0.3888329E+04  0.7818609E-02  0.8027461E-01
        1   -1    0    0  501    0  0.00000000000E+00  0.00000000000E+00  0.24801319820E+04  0.24801319820E+04  0.50400001928E-02 0.  1.
       -1   -1    0    0    0  501  0.00000000000E+00  0.00000000000E+00 -0.15240216059E+04  0.15240216059E+04  0.50400001928E-02 0. -1.
    10030    2    1    2    0    0  0.00000000000E+00  0.00000000000E+00  0.95611037608E+03  0.40041535879E+04  0.38883285489E+04 0.  0.
        5    1    3    3  502    0 -0.88539338000E+03 -0.14062140003E+04 -0.56116017402E+03  0.17539333177E+04  0.46999998093E+01 0. -1.
       -5    1    3    3    0  502  0.88539338000E+03  0.14062140003E+04  0.15172705501E+04  0.22502202702E+04  0.46999998093E+01 0.  1.
</event>
<event>
 5   0  0.8476262E-08  0.3902899E+04  0.7818609E-02  0.8024427E-01
       -2   -1    0    0    0  501  0.00000000000E+00  0.00000000000E+00  0.29047677504E+04  0.29047677504E+04  0.25500000920E-02 0. -1.
        2   -1    0    0  501    0  0.00000000000E+00  0.00000000000E+00 -0.13110016370E+04  0.13110016370E+04  0.25500000920E-02 0.  1.
    10030    2    1    2    0    0  0.00000000000E+00  0.00000000000E+00  0.15937661133E+04  0.42157693874E+04  0.39028990640E+04 0.  0.
        2    1    3    3  502    0 -0.33410455127E+02  0.15386469905E+04 -0.49913519364E+03  0.16179266861E+04  0.25500000920E-02 0.  1.
       -2    1    3    3    0  502  0.33410455127E+02 -0.15386469905E+04  0.20929013070E+04  0.25978427013E+04  0.25500000920E-02 0. -1.
</event>
<event>
 5   0  0.8342802E-08  0.3880986E+04  0.7818609E-02  0.8028995E-01
       -2   -1    0    0    0  501  0.00000000000E+00  0.00000000000E+00  0.13632224874E+04  0.13632224874E+04  0.25500000920E-02 0.  1.
        2   -1    0    0  501    0  0.00000000000E+00  0.00000000000E+00 -0.27622142147E+04  0.27622142147E+04  0.25500000920E-02 0. -1.
    10030    2    1    2    0    0  0.00000000000E+00  0.00000000000E+00 -0.13989917273E+04  0.41254367021E+04  0.38809857163E+04 0.  0.
        4    1    3    3  502    0 -0.62465866654E+03 -0.11318163840E+04 -0.22378196648E+04  0.25843848865E+04  0.12699999809E+01 0. -1.
       -4    1    3    3    0  502  0.62465866654E+03  0.11318163840E+04  0.83882793745E+03  0.15410518156E+04  0.12699999809E+01 0.  1.
</event>
<event>
 5   0  0.2632875E-08  0.3911758E+04  0.7818609E-02  0.8022588E-01
       -1   -1    0    0    0  501  0.00000000000E+00  0.00000000000E+00  0.14460198495E+04  0.14460198495E+04  0.50400001928E-02 0. -1.
        1   -1    0    0  501    0  0.00000000000E+00  0.00000000000E+00 -0.26455122082E+04  0.26455122082E+04  0.50400001928E-02 0.  1.
    10030    2    1    2    0    0  0.00000000000E+00  0.00000000000E+00 -0.11994923588E+04  0.40915320577E+04  0.39117582569E+04 0.  0.
        4    1    3    3  502    0 -0.99100258930E+03 -0.14241326791E+04  0.34464467231E+03  0.17689040626E+04  0.12699999809E+01 0. -1.
       -4    1    3    3    0  502  0.99100258930E+03  0.14241326791E+04 -0.15441370311E+04  0.23226279950E+04  0.12699999809E+01 0.  1.
</event>
<event>
 5   0  0.8438211E-08  0.3910274E+04  0.7818609E-02  0.8022896E-01
        2   -1    0    0  501    0  0.00000000000E+00  0.00000000000E+00  0.24418873018E+04  0.24418873018E+04  0.25500000920E-02 0.  1.
       -2   -1    0    0    0  501  0.00000000000E+00  0.00000000000E+00 -0.15654121824E+04  0.15654121824E+04  0.25500000920E-02 0. -1.
    10030    2    1    2    0    0  0.00000000000E+00  0.00000000000E+00  0.87647511941E+03  0.40072994842E+04  0.39102737144E+04 0.  0.
        5    1    3    3  502    0 -0.16990718386E+04  0.17637955512E+03  0.14129329140E+04  0.22168347637E+04  0.46999998093E+01 0.  1.
       -5    1    3    3    0  502  0.16990718386E+04 -0.17637955512E+03 -0.53645779463E+03  0.17904647205E+04  0.46999998093E+01 0. -1.
</event>
<event>
 5   0  0.8676098E-08  0.3917614E+04  0.7818609E-02  0.8021376E-01
        2   -1    0    0  501    0  0.00000000000E+00  0.00000000000E+00  0.16886461866E+04  0.16886461866E+04  0.25500000920E-02 0.  1.
       -2   -1    0    0    0  501  0.00000000000E+00  0.00000000000E+00 -0.22721902693E+04  0.22721902693E+04  0.25500000920E-02 0. -1.
    10030    2    1    2    0    0  0.00000000000E+00  0.00000000000E+00 -0.58354408276E+03  0.39608364559E+04  0.39176142911E+04 0.  0.
        3    1    3    3  502    0 -0.17243846802E+04  0.79989259695E+03 -0.76984702436E+03  0.20508522968E+04  0.10100000352E+00 0. -1.
       -3    1    3    3    0  502  0.17243846802E+04 -0.79989259695E+03  0.18630294160E+03  0.19099841592E+04  0.10100000352E+00 0.  1.
</event>
<event>
 5   0  0.8342802E-08  0.3895867E+04  0.7818609E-02  0.8025889E-01
        2   -1    0    0  501    0  0.00000000000E+00  0.00000000000E+00  0.24524585887E+04  0.24524585887E+04  0.25500000920E-02 0. -1.
       -2   -1    0    0    0  501  0.00000000000E+00  0.00000000000E+00 -0.15472007487E+04  0.15472007487E+04  0.25500000920E-02 0.  1.
    10030    2    1    2    0    0  0.00000000000E+00  0.00000000000E+00  0.90525784004E+03  0.39996593374E+04  0.38958674333E+04 0.  0.
        4    1    3    3  502    0  0.49963410520E+03 -0.96034802542E+03  0.21151992420E+04  0.23761254208E+04  0.12699999809E+01 0. -1.
       -4    1    3    3    0  502 -0.49963410520E+03  0.96034802542E+03 -0.12099414020E+04  0.16235339165E+04  0.12699999809E+01 0.  1.
</event>
<event>
 5   0  0.2632875E-08  0.3975517E+04  0.7818609E-02  0.8009504E-01
        1   -1    0    0  501    0  0.00000000000E+00  0.00000000000E+00  0.11901146898E+04  0.11901146898E+04  0.50400001928E-02 0. -1.
       -1   -1    0    0    0  501  0.00000000000E+00  0.00000000000E+00 -0.33200033316E+04  0.33200033316E+04  0.50400001928E-02 0.  1.
    10030    2    1    2    0    0  0.00000000000E+00  0.00000000000E+00 -0.21298886417E+04  0.45101180214E+04  0.39755174432E+04 0.  0.
        2    1    3    3  502    0  0.54674774738E+03  0.76622865083E+03 -0.30511296790E+04  0.31930286192E+04  0.25500000920E-02 0.  1.
       -2    1    3    3    0  502 -0.54674774738E+03 -0.76622865083E+03  0.92124103731E+03  0.13170894022E+04  0.25500000920E-02 0. -1.
</event>
<event>
 5   0  0.8438211E-08  0.3887027E+04  0.7818609E-02  0.8027733E-01
       -2   -1    0    0    0  501  0.00000000000E+00  0.00000000000E+00  0.27375295112E+04  0.27375295112E+04  0.25500000920E-02 0.  1.
        2   -1    0    0  501    0  0.00000000000E+00  0.00000000000E+00 -0.13798002683E+04  0.13798002683E+04  0.25500000920E-02 0. -1.
    10030    2    1    2    0    0  0.00000000000E+00  0.00000000000E+00  0.13577292429E+04  0.41173297795E+04  0.38870266035E+04 0.  0.
        5    1    3    3  502    0  0.97768711430E+03  0.70354031181E+03  0.22944820997E+04  0.25914303501E+04  0.46999998093E+01 0.  1.
       -5    1    3    3    0  502 -0.97768711430E+03 -0.70354031181E+03 -0.93675285678E+03  0.15258994293E+04  0.46999998093E+01 0. -1.
</event>
<event>
 5   0  0.2632875E-08  0.3904403E+04  0.7818609E-02  0.8024114E-01
       -1   -1    0    0    0  501  0.00000000000E+00  0.00000000000E+00  0.31613975915E+04  0.31613975915E+04  0.50400001928E-02 0. -1.
        1   -1    0    0  501    0  0.00000000000E+00  0.00000000000E+00 -0.12055080660E+04  0.12055080660E+04  0.50400001928E-02 0.  1.
    10030    2    1    2    0    0  0.00000000000E+00  0.00000000000E+00  0.19558895255E+04  0.43669056575E+04  0.39044027951E+04 0.  0.
        5    1    3    3  502    0  0.14322904591E+04  0.66996345984E+02  0.24596883776E+04  0.28471096702E+04  0.46999998093E+01 0.  1.
       -5    1    3    3    0  502 -0.14322904591E+04 -0.66996345984E+02 -0.50379885213E+03  0.15197959873E+04  0.46999998093E+01 0. -1.
</event>
<event>
 5   0  0.8342802E-08  0.3904352E+04  0.7818609E-02  0.8024125E-01
        2   -1    0    0  501    0  0.00000000000E+00  0.00000000000E+00  0.19082050352E+04  0.19082050352E+04  0.25500000920E-02 0. -1.
       -2   -1    0    0    0  501  0.00000000000E+00  0.00000000000E+00 -0.19971606803E+04  0.19971606803E+04  0.25500000920E-02 0.  1.
    10030    2    1    2    0    0  0.00000000000E+00  0.00000000000E+00 -0.88955645123E+02  0.39053657155E+04  0.39043524771E+04 0.  0.
        4    1    3    3  502    0 -0.13418503803E+04  0.12455636104E+04  0.63319287028E+03  0.19372470092E+04  0.12699999809E+01 0. -1.
       -4    1    3    3    0  502  0.13418503803E+04 -0.12455636104E+04 -0.72214851540E+03  0.19681187063E+04  0.12699999809E+01 0.  1.
</event>
<event>
 5   0  0.2632875E-08  0.3911105E+04  0.7818609E-02  0.8022724E-01
       -1   -1    0    0    0  501  0.00000000000E+00  0.00000000000E+00  0.17350482897E+04  0.17350482897E+04  0.50400001928E-02 0. -1.
        1   -1    0    0  501    0  0.00000000000E+00  0.00000000000E+00 -0.22040800944E+04  0.22040800944E+04  0.50400001928E-02 0.  1.
    10030    2    1    2    0    0  0.00000000000E+00  0.00000000000E+00 -0.46903180466E+03  0.39391283841E+04  0.39111049069E+04 0.  0.
        1    1    3    3  502    0 -0.16877766585E+03 -0.16924597532E+04 -0.12064586593E+04  0.20852933638E+04  0.50400001928E-02 0.  1.
       -1    1    3    3    0  502  0.16877766585E+03  0.16924597532E+04  0.73742685460E+03  0.18538350203E+04  0.50400001928E-02 0. -1.
</event>
<event>
 5   0  0.8438211E-08  0.3920490E+04  0.7818609E-02  0.8020781E-01
       -2   -1    0    0    0  501  0.00000000000E+00  0.00000000000E+00  0.14767663988E+04  0.14767663988E+04  0.25500000920E-02 0.  1.
        2   -1    0    0  501    0  0.00000000000E+00  0.00000000000E+00 -0.26020096680E+04  0.26020096680E+04  0.25500000920E-02 0. -1.
    10030    2    1    2    0    0  0.00000000000E+00  0.00000000000E+00 -0.11252432692E+04  0.40787760668E+04  0.39204899934E+04 0.  0.
        5    1    3    3  502    0  0.86726397927E+03 -0.17176455501E+04 -0.17323072137E+03  0.19319637725E+04  0.46999998093E+01 0.  1.
       -5    1    3    3    0  502 -0.86726397927E+03  0.17176455501E+04 -0.95201254785E+03  0.21468122943E+04  0.46999998093E+01 0. -1.
</event>
<event>
 5   0  0.2632875E-08  0.3943221E+04  0.7818609E-02  0.8016100E-01
       -1   -1    0    0    0  501  0.00000000000E+00  0.00000000000E+00  0.26887565555E+04  0.26887565555E+04  0.50400001928E-02 0. -1.
        1   -1    0    0  501    0  0.00000000000E+00  0.00000000000E+00 -0.14457421464E+04  0.14457421464E+04  0.50400001928E-02 0.  1.
    10030    2    1    2    0    0  0.00000000000E+00  0.00000000000E+00  0.12430144091E+04  0.41344987019E+04  0.39432213601E+04 0.  0.
        5    1    3    3  502    0  0.26237051662E+03 -0.11851173328E+04  0.22505406788E+04  0.25570093503E+04  0.46999998093E+01 0. -1.
       -5    1    3    3    0  502 -0.26237051662E+03  0.11851173328E+04 -0.10075262696E+04  0.15774893517E+04  0.46999998093E+01 0.  1.
</event>
<event>
 5   0  0.2632875E-08  0.3901980E+04  0.7818609E-02  0.8024617E-01
        1   -1    0    0  501    0  0.00000000000E+00  0.00000000000E+00  0.18515395515E+04  0.18515395515E+04  0.50400001928E-02 0.  1.
       -1   -1    0    0    0  501  0.00000000000E+00  0.00000000000E+00 -0.20557823201E+04  0.20557823201E+04  0.50400001928E-02 0. -1.
    10030    2    1    2    0    0  0.00000000000E+00  0.00000000000E+00 -0.20424276852E+03  0.39073218716E+04  0.39019801511E+04 0.  0.
        5    1    3    3  502    0 -0.71234886216E+03 -0.16419481304E+04  0.67541155921E+03  0.19130178851E+04  0.46999998093E+01 0. -1.
       -5    1    3    3    0  502  0.71234886216E+03  0.16419481304E+04 -0.87965432773E+03  0.19943039865E+04  0.46999998093E+01 0.  1.
</event>
<event>
 5   0  0.8438211E-08  0.3876738E+04  0.7818609E-02  0.8029885E-01
        2   -1    0    0  501    0  0.00000000000E+00  0.00000000000E+00  0.23536198582E+04  0.23536198582E+04  0.25500000920E-02 0. -1.
       -2   -1    0    0    0  501  0.00000000000E+00  0.00000000000E+00 -0.15963807440E+04  0.15963807440E+04  0.25500000920E-02 0.  1.
    10030    2    1    2    0    0  0.00000000000E+00  0.00000000000E+00  0.75723911420E+03  0.39500006022E+04  0.38767375048E+04 0.  0.
        5    1    3    3  502    0  0.17504059947E+03  0.14195932952E+04  0.17115342095E+04  0.22305281383E+04  0.46999998093E+01 0. -1.
       -5    1    3    3    0  502 -0.17504059947E+03 -0.14195932952E+04 -0.95429509532E+03  0.17194724639E+04  0.46999998093E+01 0.  1.
</event>
<event>
 5   0  0.2632875E-08  0.3895805E+04  0.7818609E-02  0.8025902E-01
       -1   -1    0    0    0  501  0.00000000000E+00  0.00000000000E+00  0.11785867341E+04  0.11785867341E+04  0.50400001928E-02 0. -1.
        1   -1    0    0  501    0  0.00000000000E+00  0.00000000000E+00 -0.32193846884E+04  0.32193846884E+04  0.50400001928E-02 0.  1.
    10030    2    1    2    0    0  0.00000000000E+00  0.00000000000E+00 -0.20407979543E+04  0.43979714225E+04  0.38958049672E+04 0.  0.
        1    1    3    3  502    0  0.10925562824E+04 -0.14148839346E+04 -0.18939280129E+04  0.26043308347E+04  0.50400001928E-02 0.  1.
       -1    1    3    3    0  502 -0.10925562824E+04  0.14148839346E+04 -0.14686994148E+03  0.17936405878E+04  0.50400001928E-02 0. -1.
</event>
<event>
 5   0  0.2632875E-08  0.3957860E+04  0.7818609E-02  0.8013102E-01
        1   -1    0    0  501    0  0.00000000000E+00  0.00000000000E+00  0.20346363172E+04  0.20346363172E+04  0.50400001928E-02 0. -1.
       -1   -1    0    0    0  501  0.00000000000E+00  0.00000000000E+00 -0.19247484427E+04  0.19247484427E+04  0.50400001928E-02 0.  1.
    10030    2    1    2    0    0  0.00000000000E+00  0.00000000000E+00  0.10988787446E+03  0.39593847599E+04  0.39578595645E+04 0.  0.
        4    1    3    3  502    0 -0.11004808641E+04 -0.10744963662E+04 -0.11907511183E+04  0.19451196395E+04  0.12699999809E+01 0.  1.
       -4    1    3    3    0  502  0.11004808641E+04  0.10744963662E+04  0.13006389927E+04  0.20142651205E+04  0.12699999809E+01 0. -1.
</event>
<event>
 5   0  0.2632875E-08  0.3927479E+04  0.7818609E-02  0.8019338E-01
       -1   -1    0    0    0  501  0.00000000000E+00  0.00000000000E+00  0.12198062468E+04  0.12198062468E+04  0.50400001928E-02 0.  1.
        1   -1    0    0  501    0  0.00000000000E+00  0.00000000000E+00 -0.31613813600E+04  0.31613813600E+04  0.50400001928E-02 0. -1.
    10030    2    1    2    0    0  0.00000000000E+00  0.00000000000E+00 -0.19415751132E+04  0.43811876068E+04  0.39274789530E+04 0.  0.
        5    1    3    3  502    0 -0.23240452304E+03  0.12626896518E+03  0.11998394591E+04  0.12286547650E+04  0.46999998093E+01 0.  1.
       -5    1    3    3    0  502  0.23240452304E+03 -0.12626896518E+03 -0.31414145723E+04  0.31525328419E+04  0.46999998093E+01 0. -1.
</event>
<event>
 5   0  0.2632875E-08  0.3887323E+04  0.7818609E-02  0.8027671E-01
       -1   -1    0    0    0  501  0.00000000000E+00  0.00000000000E+00  0.13741598818E+04  0.13741598818E+04  0.50400001928E-02 0. -1.
        1   -1    0    0  501    0  0.00000000000E+00  0.00000000000E+00 -0.27491858546E+04  0.27491858546E+04  0.50400001928E-02 0.  1.
    10030    2    1    2    0    0  0.00000000000E+00  0.00000000000E+00 -0.13750259727E+04  0.41233457364E+04  0.38873234540E+04 0.  0.
        4    1    3    3  502    0 -0.68711503146E+03  0.60728503177E+03  0.11302758808E+04  0.14554887000E+04  0.12699999809E+01 0. -1.
       -4    1    3    3    0  502  0.68711503146E+03 -0.60728503177E+03 -0.25053018535E+04  0.26678570364E+04  0.12699999809E+01 0.  1.
</event>
<event>
 5   0  0.2632875E-08  0.3913930E+04  0.7818609E-02  0.8022138E-01
       -1   -1    0    0    0  501  0.00000000000E+00  0.00000000000E+00  0.14606604998E+04  0.14606604998E+04  0.50400001928E-02 0. -1.
        1   -1    0    0  501    0  0.00000000000E+00  0.00000000000E+00 -0.26219037657E+04  0.26219037657E+04  0.50400001928E-02 0.  1.
    10030    2    1    2    0    0  0.00000000000E+00  0.00000000000E+00 -0.11612432659E+04  0.40825642654E+04  0.39139296185E+04 0.  0.
        4    1    3    3  502    0  0.11292369802E+04  0.13605979091E+04 -0.14553887187E+04  0.22901006011E+04  0.12699999809E+01 0.  1.
       -4    1    3    3    0  502 -0.11292369802E+04 -0.13605979091E+04  0.29414545284E+03  0.17924636643E+04  0.12699999809E+01 0. -1.
</event>
<event>
 5   0  0.2632875E-08  0.3904544E+04  0.7818609E-02  0.8024085E-01
        1   -1    0    0  501    0  0.00000000000E+00  0.00000000000E+00  0.23680966850E+04  0.23680966850E+04  0.50400001928E-02 0. -1.
       -1   -1    0    0    0  501  0.00000000000E+00  0.00000000000E+00 -0.16094637663E+04  0.16094637663E+04  0.50400001928E-02 0.  1.
    10030    2    1    2    0    0  0.00000000000E+00  0.00000000000E+00  0.75863291868E+03  0.39775604514E+04  0.39045439220E+04 0.  0.
        4    1    3    3  502    0 -0.11944770306E+04 -0.13722429253E+04 -0.34212064281E+03  0.18511818306E+04  0.12699999809E+01 0.  1.
       -4    1    3    3    0  502  0.11944770306E+04  0.13722429253E+04  0.11007535615E+04  0.21263786208E+04  0.12699999809E+01 0. -1.
</event>
<event>
 5   0  0.2632875E-08  0.3910059E+04  0.7818609E-02  0.8022940E-01
       -1   -1    0    0    0  501  0.00000000000E+00  0.00000000000E+00  0.18745735048E+04  0.18745735048E+04  0.50400001928E-02 0. -1.
        1   -1    0    0  501    0  0.00000000000E+00  0.00000000000E+00 -0.20389384389E+04  0.20389384389E+04  0.50400001928E-02 0.  1.
    10030    2    1    2    0    0  0.00000000000E+00  0.00000000000E+00 -0.16436493411E+03  0.39135119436E+04  0.39100588105E+04 0.  0.
        3    1    3    3  502    0 -0.16596202137E+04  0.72129627625E+03  0.65842533533E+03  0.19256509300E+04  0.10100000352E+00 0. -1.
       -3    1    3    3    0  502  0.16596202137E+04 -0.72129627625E+03 -0.82279026943E+03  0.19878610136E+04  0.10100000352E+00 0.  1.
</event>
<event>
 5   0  0.8476262E-08  0.3906785E+04  0.7818609E-02  0.8023619E-01
        2   -1    0    0  501    0  0.00000000000E+00  0.00000000000E+00  0.20094450144E+04  0.20094450144E+04  0.25500000920E-02 0.  1.
       -2   -1    0    0    0  501  0.00000000000E+00  0.00000000000E+00 -0.18989038555E+04  0.18989038555E+04  0.25500000920E-02 0. -1.
    10030    2    1    2    0    0  0.00000000000E+00  0.00000000000E+00  0.11054115892E+03  0.39083488698E+04  0.39067853205E+04 0.  0.
        2    1    3    3  502    0 -0.32436362960E+03 -0.10520021811E+04 -0.15590116512E+04  0.19085171421E+04  0.25500000920E-02 0.  1.
       -2    1    3    3    0  502  0.32436362960E+03  0.10520021811E+04  0.16695528101E+04  0.19998317277E+04  0.25500000920E-02 0. -1.
</event>
<event>
 5   0  0.2632875E-08  0.3898260E+04  0.7818609E-02  0.8025391E-01
       -1   -1    0    0    0  501  0.00000000000E+00  0.00000000000E+00  0.12765564451E+04  0.12765564451E+04  0.50400001928E-02 0. -1.
        1   -1    0    0  501    0  0.00000000000E+00  0.00000000000E+00 -0.29760596370E+04  0.29760596370E+04  0.50400001928E-02 0.  1.
    10030    2    1    2    0    0  0.00000000000E+00  0.00000000000E+00 -0.16995031919E+04  0.42526160821E+04  0.38982601814E+04 0.  0.
        3    1    3    3  502    0 -0.98858296510E+03 -0.91507653219E+03 -0.23865081765E+04  0.27404529964E+04  0.10100000352E+00 0.  1.
       -3    1    3    3    0  502  0.98858296510E+03  0.91507653219E+03  0.68700498459E+03  0.15121630857E+04  0.10100000352E+00 0. -1.
</event>
<event>
 5   0  0.2632875E-08  0.3908284E+04  0.7818609E-02  0.8023308E-01
        1   -1    0    0  501    0  0.00000000000E+00  0.00000000000E+00  0.16837190749E+04  0.16837190749E+04  0.50400001928E-02 0.  1.
       -1   -1    0    0    0  501  0.00000000000E+00  0.00000000000E+00 -0.22679980097E+04  0.22679980097E+04  0.50400001928E-02 0. -1.
    10030    2    1    2    0    0  0.00000000000E+00  0.00000000000E+00 -0.58427893482E+03  0.39517170846E+04  0.39082842838E+04 0.  0.
        1    1    3    3  502    0 -0.14686977855E+04 -0.40380162326E+03  0.94561425578E+03  0.17928511530E+04  0.50400001928E-02 0. -1.
       -1    1    3    3    0  502  0.14686977855E+04  0.40380162326E+03 -0.15298931906E+04  0.21588659316E+04  0.50400001928E-02 0.  1.
</event>
<event>
 5   0  0.8438211E-08  0.3899374E+04  0.7818609E-02  0.8025159E-01
       -2   -1    0    0    0  501  0.00000000000E+00  0.00000000000E+00  0.20583183588E+04  0.20583183588E+04  0.25500000920E-02 0. -1.
        2   -1    0    0  501    0  0.00000000000E+00  0.00000000000E+00 -0.18467886790E+04  0.18467886790E+04  0.25500000920E-02 0.  1.
    10030    2    1    2    0    0  0.00000000000E+00  0.00000000000E+00  0.21152967982E+03  0.39051070378E+04  0.38993738178E+04 0.  0.
        5    1    3    3  502    0 -0.18445028258E+04 -0.58958364622E+03  0.33294060538E+03  0.19648590502E+04  0.46999998093E+01 0.  1.
       -5    1    3    3    0  502  0.18445028258E+04  0.58958364622E+03 -0.12141092556E+03  0.19402479876E+04  0.46999998093E+01 0. -1.
</event>
<event>
 5   0  0.2632875E-08  0.3913959E+04  0.7818609E-02  0.8022132E-01
        1   -1    0    0  501    0  0.00000000000E+00  0.00000000000E+00  0.14574252855E+04  0.14574252855E+04  0.50400001928E-02 0. -1.
       -1   -1    0    0    0  501  0.00000000000E+00  0.00000000000E+00 -0.26277639895E+04  0.26277639895E+04  0.50400001928E-02 0.  1.
    10030    2    1    2    0    0  0.00000000000E+00  0.00000000000E+00 -0.11703387040E+04  0.40851892750E+04  0.39139594697E+04 0.  0.
        2    1    3    3  502    0  0.34620123385E+03 -0.15191913449E+04 -0.18210187095E+04  0.23966449001E+04  0.25500000920E-02 0.  1.
       -2    1    3    3    0  502 -0.34620123385E+03  0.15191913449E+04  0.65068000545E+03  0.16885443750E+04  0.25500000920E-02 0. -1.
</event>
<event>
 5   0  0.2632875E-08  0.3896238E+04  0.7818609E-02  0.8025812E-01
       -1   -1    0    0    0  501  0.00000000000E+00  0.00000000000E+00  0.22629835841E+04  0.22629835841E+04  0.50400001928E-02 0.  1.
        1   -1    0    0  501    0  0.00000000000E+00  0.00000000000E+00 -0.16770635705E+04  0.16770635705E+04  0.50400001928E-02 0. -1.
    10030    2    1    2    0    0  0.00000000000E+00  0.00000000000E+00  0.58592001355E+03  0.39400471546E+04  0.38962378416E+04 0.  0.
        5    1    3    3  502    0 -0.39978616830E+02 -0.17696182380E+04  0.11157412401E+04  0.20923784559E+04  0.46999998093E+01 0.  1.
       -5    1    3    3    0  502  0.39978616830E+02  0.17696182380E+04 -0.52982122651E+03  0.18476686987E+04  0.46999998093E+01 0. -1.
</event>
<event>
 5   0  0.2632875E-08  0.3879218E+04  0.7818609E-02  0.8029365E-01
       -1   -1    0    0    0  501  0.00000000000E+00  0.00000000000E+00  0.35176185867E+04  0.35176185867E+04  0.50400001928E-02 0.  1.
        1   -1    0    0  501    0  0.00000000000E+00  0.00000000000E+00 -0.10694972915E+04  0.10694972915E+04  0.50400001928E-02 0. -1.
    10030    2    1    2    0    0  0.00000000000E+00  0.00000000000E+00  0.24481212952E+04  0.45871158782E+04  0.38792182465E+04 0.  0.
        4    1    3    3  502    0  0.78973449884E+02 -0.12260525572E+04  0.29988279473E+04  0.32407425614E+04  0.12699999809E+01 0.  1.
       -4    1    3    3    0  502 -0.78973449884E+02  0.12260525572E+04 -0.55070665206E+03  0.13463733168E+04  0.12699999809E+01 0. -1.
</event>
<event>
 5   0  0.2632875E-08  0.3865553E+04  0.7818609E-02  0.8032232E-01
       -1   -1    0    0    0  501  0.00000000000E+00  0.00000000000E+00  0.12496629298E+04  0.12496629298E+04  0.50400001928E-02 0.  1.
        1   -1    0    0  501    0  0.00000000000E+00  0.00000000000E+00 -0.29893063260E+04  0.29893063260E+04  0.50400001928E-02 0. -1.
    10030    2    1    2    0    0  0.00000000000E+00  0.00000000000E+00 -0.17396433962E+04  0.42389692557E+04  0.38655531564E+04 0.  0.
        4    1    3    3  502    0 -0.17197367313E+04  0.80168942737E+03 -0.46627355422E+03  0.19538712862E+04  0.12699999809E+01 0.  1.
       -4    1    3    3    0  502  0.17197367313E+04 -0.80168942737E+03 -0.12733698420E+04  0.22850979695E+04  0.12699999809E+01 0. -1.
</event>
<event>
 5   0  0.8342802E-08  0.3912974E+04  0.7818609E-02  0.8022336E-01
        2   -1    0    0  501    0  0.00000000000E+00  0.00000000000E+00  0.19842218963E+04  0.19842218963E+04  0.25500000920E-02 0.  1.
       -2   -1    0    0    0  501  0.00000000000E+00  0.00000000000E+00 -0.19291396368E+04  0.19291396368E+04  0.25500000920E-02 0. -1.
    10030    2    1    2    0    0  0.00000000000E+00  0.00000000000E+00  0.55082259514E+02  0.39133615330E+04  0.39129738605E+04 0.  0.
        4    1    3    3  502    0 -0.16336218191E+04 -0.70735553309E+03 -0.78418415418E+03  0.19452553814E+04  0.12699999809E+01 0.  1.
       -4    1    3    3    0  502  0.16336218191E+04  0.70735553309E+03  0.83926641370E+03  0.19681061517E+04  0.12699999809E+01 0. -1.
</event>
<event>
 5   0  0.2632875E-08  0.3904523E+04  0.7818609E-02  0.8024089E-01
       -1   -1    0    0    0  501  0.00000000000E+00  0.00000000000E+00  0.19174047678E+04  0.19174047678E+04  0.50400001928E-02 0. -1.
        1   -1    0    0  501    0  0.00000000000E+00  0.00000000000E+00 -0.19877514338E+04  0.19877514338E+04  0.50400001928E-02 0.  1.
    10030    2    1    2    0    0  0.00000000000E+00  0.00000000000E+00 -0.70346665982E+02  0.39051562016E+04  0.39045225452E+04 0.  0.
        3    1    3    3  502    0  0.12509899309E+04  0.20180813289E+03 -0.15205479274E+04  0.19793353277E+04  0.10100000352E+00 0.  1.
       -3    1    3    3    0  502 -0.12509899309E+04 -0.20180813289E+03  0.14502012614E+04  0.19258208739E+04  0.10100000352E+00 0. -1.
</event>
<event>
 5   0  0.8476262E-08  0.3881936E+04  0.7818609E-02  0.8028797E-01
       -2   -1    0    0    0  501  0.00000000000E+00  0.00000000000E+00  0.15295268269E+04  0.15295268269E+04  0.25500000920E-02 0. -1.
        2   -1    0    0  501    0  0.00000000000E+00  0.00000000000E+00 -0.24630863871E+04  0.24630863871E+04  0.25500000920E-02 0.  1.
    10030    2    1    2    0    0  0.00000000000E+00  0.00000000000E+00 -0.93355956028E+03  0.39926132140E+04  0.38819359634E+04 0.  0.
        2    1    3    3  502    0  0.11193245736E+04  0.23785027199E+03 -0.20792461449E+04  0.23733362139E+04  0.25500000920E-02 0.  1.
       -2    1    3    3    0  502 -0.11193245736E+04 -0.23785027199E+03  0.11456865846E+04  0.16192770001E+04  0.25500000920E-02 0. -1.
</event>
<event>
 5   0  0.8438211E-08  0.3903818E+04  0.7818609E-02  0.8024236E-01
        2   -1    0    0  501    0  0.00000000000E+00  0.00000000000E+00  0.23856458203E+04  0.23856458203E+04  0.25500000920E-02 0.  1.
       -2   -1    0    0    0  501  0.00000000000E+00  0.00000000000E+00 -0.15970300808E+04  0.15970300808E+04  0.25500000920E-02 0. -1.
    10030    2    1    2    0    0  0.00000000000E+00  0.00000000000E+00  0.78861573949E+03  0.39826759012E+04  0.39038176890E+04 0.  0.
        5    1    3    3  502    0  0.82290564101E+03 -0.17694012914E+04  0.43960549100E+03  0.20003074018E+04  0.46999998093E+01 0. -1.
       -5    1    3    3    0  502 -0.82290564101E+03  0.17694012914E+04  0.34901024849E+03  0.19823684994E+04  0.46999998093E+01 0.  1.
</event>
<event>
 5   0  0.8676098E-08  0.3905722E+04  0.7818609E-02  0.8023840E-01
       -2   -1    0    0    0  501  0.00000000000E+00  0.00000000000E+00  0.15399690306E+04  0.15399690306E+04  0.25500000920E-02 0. -1.
        2   -1    0    0  501    0  0.00000000000E+00  0.00000000000E+00 -0.24764568650E+04  0.24764568650E+04  0.25500000920E-02 0.  1.
    10030    2    1    2    0    0  0.00000000000E+00  0.00000000000E+00 -0.93648783447E+03  0.40164258956E+04  0.39057224057E+04 0.  0.
        3    1    3    3  502    0 -0.12365081097E+04  0.97506843124E+03  0.71946264693E+03  0.17312819706E+04  0.10100000352E+00 0. -1.
       -3    1    3    3    0  502  0.12365081097E+04 -0.97506843124E+03 -0.16559504814E+04  0.22851439250E+04  0.10100000352E+00 0.  1.
</event>
<event>
 5   0  0.2632875E-08  0.3859820E+04  0.7818609E-02  0.8033438E-01
       -1   -1    0    0    0  501  0.00000000000E+00  0.00000000000E+00  0.18454101733E+04  0.18454101733E+04  0.50400001928E-02 0. -1.
        1   -1    0    0  501    0  0.00000000000E+00  0.00000000000E+00 -0.20182785743E+04  0.20182785743E+04  0.50400001928E-02 0.  1.
    10030    2    1    2    0    0  0.00000000000E+00  0.00000000000E+00 -0.17286840098E+03  0.38636887477E+04  0.38598195884E+04 0.  0.
        2    1    3    3  502    0  0.29261732752E+03 -0.11738164399E+01 -0.19959432090E+04  0.20172792498E+04  0.25500000920E-02 0.  1.
       -2    1    3    3    0  502 -0.29261732752E+03  0.11738164399E+01  0.18230748080E+04  0.18464094979E+04  0.25500000920E-02 0. -1.
</event>
<event>
 5   0  0.8676098E-08  0.3747302E+04  0.7818609E-02  0.8057559E-01
        2   -1    0    0  501    0  0.00000000000E+00  0.00000000000E+00  0.14179299724E+04  0.14179299724E+04  0.25500000920E-02 0.  1.
       -2   -1    0    0    0  501  0.00000000000E+00  0.00000000000E+00 -0.24758399467E+04  0.24758399467E+04  0.25500000920E-02 0. -1.
    10030    2    1    2    0    0  0.00000000000E+00  0.00000000000E+00 -0.10579099743E+04  0.38937699191E+04  0.37473017852E+04 0.  0.
        3    1    3    3  502    0 -0.12492946430E+04 -0.95298057753E+03 -0.15894638726E+04  0.22350177848E+04  0.10100000352E+00 0. -1.
       -3    1    3    3    0  502  0.12492946430E+04  0.95298057753E+03  0.53155389822E+03  0.16587521343E+04  0.10100000352E+00 0.  1.
</event>
<event>
 5   0  0.2632875E-08  0.3905540E+04  0.7818609E-02  0.8023878E-01
        1   -1    0    0  501    0  0.00000000000E+00  0.00000000000E+00  0.29320761285E+04  0.29320761285E+04  0.50400001928E-02 0. -1.
       -1   -1    0    0    0  501  0.00000000000E+00  0.00000000000E+00 -0.13005496559E+04  0.13005496559E+04  0.50400001928E-02 0.  1.
    10030    2    1    2    0    0  0.00000000000E+00  0.00000000000E+00  0.16315264726E+04  0.42326257845E+04  0.39055399627E+04 0.  0.
        5    1    3    3  502    0 -0.54443708739E+03 -0.15956439143E+04  0.18835709645E+04  0.25279147358E+04  0.46999998093E+01 0.  1.
       -5    1    3    3    0  502  0.54443708739E+03  0.15956439143E+04 -0.25204449189E+03  0.17047110486E+04  0.46999998093E+01 0. -1.
</event>
<event>
 5   0  0.2632875E-08  0.3900735E+04  0.7818609E-02  0.8024876E-01
        1   -1    0    0  501    0  0.00000000000E+00  0.00000000000E+00  0.16928398960E+04  0.16928398960E+04  0.50400001928E-02 0. -1.
       -1   -1    0    0    0  501  0.00000000000E+00  0.00000000000E+00 -0.22470715815E+04  0.22470715815E+04  0.50400001928E-02 0.  1.
    10030    2    1    2    0    0  0.00000000000E+00  0.00000000000E+00 -0.55423168552E+03  0.39399114775E+04  0.39007345064E+04 0.  0.
        5    1    3    3  502    0 -0.43614037468E+03  0.17303922023E+04  0.51783056005E+03  0.18581297530E+04  0.46999998093E+01 0. -1.
       -5    1    3    3    0  502  0.43614037468E+03 -0.17303922023E+04 -0.10720622456E+04  0.20817817245E+04  0.46999998093E+01 0.  1.
</event>
<event>
 5   0  0.2632875E-08  0.3872009E+04  0.7818609E-02  0.8030876E-01
        1   -1    0    0  501    0  0.00000000000E+00  0.00000000000E+00  0.20560630722E+04  0.20560630723E+04  0.50400001928E-02 0. -1.
       -1   -1    0    0    0  501  0.00000000000E+00  0.00000000000E+00 -0.18229566004E+04  0.18229566004E+04  0.50400001928E-02 0.  1.
    10030    2    1    2    0    0  0.00000000000E+00  0.00000000000E+00  0.23310647185E+03  0.38790196727E+04  0.38720091676E+04 0.  0.
        1    1    3    3  502    0 -0.49001958135E+03 -0.24658334142E+03  0.19765761411E+04  0.20512863710E+04  0.50400001928E-02 0. -1.
       -1    1    3    3    0  502  0.49001958135E+03  0.24658334142E+03 -0.17434696692E+04  0.18277333016E+04  0.50400001928E-02 0.  1.
</event>
<event>
 5   0  0.8342802E-08  0.3904483E+04  0.7818609E-02  0.8024097E-01
        2   -1    0    0  501    0  0.00000000000E+00  0.00000000000E+00  0.19815811039E+04  0.19815811039E+04  0.25500000920E-02 0.  1.
       -2   -1    0    0    0  501  0.00000000000E+00  0.00000000000E+00 -0.19233367088E+04  0.19233367088E+04  0.25500000920E-02 0. -1.
    10030    2    1    2    0    0  0.00000000000E+00  0.00000000000E+00  0.58244395124E+02  0.39049178127E+04  0.39044834120E+04 0.  0.
        4    1    3    3  502    0  0.14542142033E+04  0.17612319808E+03 -0.12615591536E+04  0.19332075525E+04  0.12699999809E+01 0. -1.
       -4    1    3    3    0  502 -0.14542142033E+04 -0.17612319808E+03  0.13198035487E+04  0.19717102602E+04  0.12699999809E+01 0.  1.
</event>
<event>
 5   0  0.2632875E-08  0.3909046E+04  0.7818609E-02  0.8023151E-01
       -1   -1    0    0    0  501  0.00000000000E+00  0.00000000000E+00  0.17664162944E+04  0.17664162944E+04  0.50400001928E-02 0.  1.
        1   -1    0    0  501    0  0.00000000000E+00  0.00000000000E+00 -0.21626609508E+04  0.21626609508E+04  0.50400001928E-02 0. -1.
    10030    2    1    2    0    0  0.00000000000E+00  0.00000000000E+00 -0.39624465637E+03  0.39290772452E+04  0.39090456854E+04 0.  0.
        1    1    3    3  502    0  0.24763029871E+03 -0.18621629699E+04  0.34426114381E+03  0.19098396337E+04  0.50400001928E-02 0. -1.
       -1    1    3    3    0  502 -0.24763029871E+03  0.18621629699E+04 -0.74050580018E+03  0.20192376114E+04  0.50400001928E-02 0.  1.
</event>
<event>
 5   0  0.2632875E-08  0.3904839E+04  0.7818609E-02  0.8024024E-01
        4   -1    0    0  501    0  0.00000000000E+00  0.00000000000E+00  0.16922342958E+04  0.16922347724E+04  0.12699999809E+01 0.  1.
       -4   -1    0    0    0  501  0.00000000000E+00  0.00000000000E+00 -0.22526077224E+04  0.22526080805E+04  0.12699999809E+01 0. -1.
    10030    2    1    2    0    0  0.00000000000E+00  0.00000000000E+00 -0.56037342664E+03  0.39448428528E+04  0.39048388899E+04 0.  0.
        5    1    3    3  502    0  0.75350337486E+03  0.17977949176E+04 -0.39124793455E+03  0.19881979122E+04  0.46999998093E+01 0.  1.
       -5    1    3    3    0  502 -0.75350337486E+03 -0.17977949176E+04 -0.16912549209E+03  0.19566449406E+04  0.46999998093E+01 0. -1.
</event>
<event>
 5   0  0.2632875E-08  0.3904477E+04  0.7818609E-02  0.8024099E-01
       -1   -1    0    0    0  501  0.00000000000E+00  0.00000000000E+00  0.24346170891E+04  0.24346170891E+04  0.50400001928E-02 0. -1.
        1   -1    0    0  501    0  0.00000000000E+00  0.00000000000E+00 -0.15654349749E+04  0.15654349750E+04  0.50400001928E-02 0.  1.
    10030    2    1    2    0    0  0.00000000000E+00  0.00000000000E+00  0.86918211414E+03  0.40000520641E+04  0.39044767854E+04 0.  0.
        5    1    3    3  502    0  0.17791988969E+04 -0.24245893669E+03 -0.35024069726E+03  0.18294878209E+04  0.46999998093E+01 0.  1.
       -5    1    3    3    0  502 -0.17791988969E+04  0.24245893669E+03  0.12194228114E+04  0.21705642432E+04  0.46999998093E+01 0. -1.
</event>
<event>
 5   0  0.8476262E-08  0.3906503E+04  0.7818609E-02  0.8023678E-01
       -2   -1    0    0    0  501  0.00000000000E+00  0.00000000000E+00  0.13773716522E+04  0.13773716522E+04  0.25500000920E-02 0. -1.
        2   -1    0    0  501    0  0.00000000000E+00  0.00000000000E+00 -0.27699070325E+04  0.27699070325E+04  0.25500000920E-02 0.  1.
    10030    2    1    2    0    0  0.00000000000E+00  0.00000000000E+00 -0.13925353803E+04  0.41472786847E+04  0.39065030018E+04 0.  0.
        2    1    3    3  502    0 -0.67995233695E+03  0.24569209870E+03 -0.26226274499E+04  0.27204548386E+04  0.25500000920E-02 0.  1.
       -2    1    3    3    0  502  0.67995233695E+03 -0.24569209870E+03  0.12300920696E+04  0.14268238460E+04  0.25500000920E-02 0. -1.
</event>
<event>
 5   0  0.8342802E-08  0.3914339E+04  0.7818609E-02  0.8022054E-01
        2   -1    0    0  501    0  0.00000000000E+00  0.00000000000E+00  0.26341361917E+04  0.26341361917E+04  0.25500000920E-02 0. -1.
       -2   -1    0    0    0  501  0.00000000000E+00  0.00000000000E+00 -0.14541817556E+04  0.14541817556E+04  0.25500000920E-02 0.  1.
    10030    2    1    2    0    0  0.00000000000E+00  0.00000000000E+00  0.11799544361E+04  0.40883179473E+04  0.39143391738E+04 0.  0.
        4    1    3    3  502    0 -0.96154736197E+02 -0.40269760105E+03  0.25878754093E+04  0.26207845845E+04  0.12699999809E+01 0. -1.
       -4    1    3    3    0  502  0.96154736197E+02  0.40269760105E+03 -0.14079209733E+04  0.14675333628E+04  0.12699999809E+01 0.  1.
</event>
<event>
 5   0  0.8476262E-08  0.3902208E+04  0.7818609E-02  0.8024570E-01
        2   -1    0    0  501    0  0.00000000000E+00  0.00000000000E+00  0.16761652276E+04  0.16761652276E+04  0.25500000920E-02 0.  1.
       -2   -1    0    0    0  501  0.00000000000E+00  0.00000000000E+00 -0.22711409838E+04  0.22711409838E+04  0.25500000920E-02 0. -1.
    10030    2    1    2    0    0  0.00000000000E+00  0.00000000000E+00 -0.59497575622E+03  0.39473062114E+04  0.39022083716E+04 0.  0.
        2    1    3    3  502    0  0.87151651580E+03  0.83074888544E+03 -0.18505236733E+04  0.22077415187E+04  0.25500000920E-02 0. -1.
       -2    1    3    3    0  502 -0.87151651580E+03 -0.83074888544E+03  0.12555479171E+04  0.17395646927E+04  0.25500000920E-02 0.  1.
</event>
<event>
 5   0  0.2632875E-08  0.3918752E+04  0.7818609E-02  0.8021140E-01
       -1   -1    0    0    0  501  0.00000000000E+00  0.00000000000E+00  0.12152926406E+04  0.12152926406E+04  0.50400001928E-02 0.  1.
        1   -1    0    0  501    0  0.00000000000E+00  0.00000000000E+00 -0.31590364680E+04  0.31590364680E+04  0.50400001928E-02 0. -1.
    10030    2    1    2    0    0  0.00000000000E+00  0.00000000000E+00 -0.19437438274E+04  0.43743291086E+04  0.39187517252E+04 0.  0.
        4    1    3    3  502    0  0.80994997728E+03 -0.53097900578E+03 -0.28731783883E+04  0.30320147318E+04  0.12699999809E+01 0. -1.
       -4    1    3    3    0  502 -0.80994997728E+03  0.53097900578E+03  0.92943456084E+03  0.13423143768E+04  0.12699999809E+01 0.  1.
</event>
<event>
 5   0  0.8438211E-08  0.3892498E+04  0.7818609E-02  0.8026591E-01
       -2   -1    0    0    0  501  0.00000000000E+00  0.00000000000E+00  0.16689365799E+04  0.16689365799E+04  0.25500000920E-02 0.  1.
        2   -1    0    0  501    0  0.00000000000E+00  0.00000000000E+00 -0.22696401961E+04  0.22696401961E+04  0.25500000920E-02 0. -1.
    10030    2    1    2    0    0  0.00000000000E+00  0.00000000000E+00 -0.60070361617E+03  0.39385767760E+04  0.38924981934E+04 0.  0.
        5    1    3    3  502    0  0.83284722180E+03 -0.39399929570E+03  0.14342916000E+04  0.17047241488E+04  0.46999998093E+01 0.  1.
       -5    1    3    3    0  502 -0.83284722180E+03  0.39399929570E+03 -0.20349952162E+04  0.22338526271E+04  0.46999998093E+01 0. -1.
</event>
<event>
 5   0  0.2632875E-08  0.3905398E+04  0.7818609E-02  0.8023907E-01
       -1   -1    0    0    0  501  0.00000000000E+00  0.00000000000E+00  0.24882400635E+04  0.24882400635E+04  0.50400001928E-02 0. -1.
        1   -1    0    0  501    0  0.00000000000E+00  0.00000000000E+00 -0.15324217118E+04  0.15324217119E+04  0.50400001928E-02 0.  1.
    10030    2    1    2    0    0  0.00000000000E+00  0.00000000000E+00  0.95581835165E+03  0.40206617754E+04  0.39053978530E+04 0.  0.
        2    1    3    3  502    0 -0.18371106394E+04 -0.46924636519E+03  0.95844573543E+03  0.21245672219E+04  0.25500000920E-02 0. -1.
       -2    1    3    3    0  502  0.18371106394E+04  0.46924636519E+03 -0.26273837764E+01  0.18960945535E+04  0.25500000920E-02 0.  1.
</event>
<event>
 5   0  0.2632875E-08  0.3891373E+04  0.7818609E-02  0.8026826E-01
       -1   -1    0    0    0  501  0.00000000000E+00  0.00000000000E+00  0.18759045413E+04  0.18759045413E+04  0.50400001928E-02 0.  1.
        1   -1    0    0  501    0  0.00000000000E+00  0.00000000000E+00 -0.20180647311E+04  0.20180647311E+04  0.50400001928E-02 0. -1.
    10030    2    1    2    0    0  0.00000000000E+00  0.00000000000E+00 -0.14216018979E+03  0.38939692724E+04  0.38913734304E+04 0.  0.
        1    1    3    3  502    0  0.48770292572E+03  0.12175622125E+04  0.13670232968E+04  0.18944826680E+04  0.50400001928E-02 0.  1.
       -1    1    3    3    0  502 -0.48770292572E+03 -0.12175622125E+04 -0.15091834866E+04  0.19994866045E+04  0.50400001928E-02 0. -1.
</event>
<event>
 5   0  0.2632875E-08  0.3930344E+04  0.7818609E-02  0.8018748E-01
        1   -1    0    0  501    0  0.00000000000E+00  0.00000000000E+00  0.19638289490E+04  0.19638289490E+04  0.50400001928E-02 0. -1.
       -1   -1    0    0    0  501  0.00000000000E+00  0.00000000000E+00 -0.19665164082E+04  0.19665164082E+04  0.50400001928E-02 0.  1.
    10030    2    1    2    0    0  0.00000000000E+00  0.00000000000E+00 -0.26874592334E+01  0.39303453572E+04  0.39303444384E+04 0.  0.
        5    1    3    3  502    0 -0.18149198791E+04 -0.72243815561E+03  0.21319933447E+03  0.19650259801E+04  0.46999998093E+01 0. -1.
       -5    1    3    3    0  502  0.18149198791E+04  0.72243815561E+03 -0.21588679370E+03  0.19653193771E+04  0.46999998093E+01 0.  1.
</event>
<event>
 5   0  0.2632875E-08  0.3895833E+04  0.7818609E-02  0.8025896E-01
        1   -1    0    0  501    0  0.00000000000E+00  0.00000000000E+00  0.15992863966E+04  0.15992863966E+04  0.50400001928E-02 0.  1.
       -1   -1    0    0    0  501  0.00000000000E+00  0.00000000000E+00 -0.23725443907E+04  0.23725443907E+04  0.50400001928E-02 0. -1.
    10030    2    1    2    0    0  0.00000000000E+00  0.00000000000E+00 -0.77325799412E+03  0.39718307872E+04  0.38958326295E+04 0.  0.
        4    1    3    3  502    0  0.12234836457E+03  0.18967681661E+04 -0.82118057204E+03  0.20705162986E+04  0.12699999809E+01 0. -1.
       -4    1    3    3    0  502 -0.12234836457E+03 -0.18967681661E+04  0.47922577927E+02  0.19013144886E+04  0.12699999809E+01 0.  1.
</event>
<event>
 5   0  0.8551754E-08  0.3890212E+04  0.7818609E-02  0.8027068E-01
       -2   -1    0    0    0  501  0.00000000000E+00  0.00000000000E+00  0.20385023198E+04  0.20385023198E+04  0.25500000920E-02 0.  1.
        2   -1    0    0  501    0  0.00000000000E+00  0.00000000000E+00 -0.18559888798E+04  0.18559888798E+04  0.25500000920E-02 0. -1.
    10030    2    1    2    0    0  0.00000000000E+00  0.00000000000E+00  0.18251344003E+03  0.38944911996E+04  0.38902121469E+04 0.  0.
        1    1    3    3  502    0  0.15618454801E+03  0.16507840152E+04 -0.92669810101E+03  0.18995396411E+04  0.50400001928E-02 0. -1.
       -1    1    3    3    0  502 -0.15618454801E+03 -0.16507840152E+04  0.11092115410E+04  0.19949515585E+04  0.50400001928E-02 0.  1.
</event>
<event>
 5   0  0.2632875E-08  0.3885098E+04  0.7818609E-02  0.8028136E-01
       -1   -1    0    0    0  501  0.00000000000E+00  0.00000000000E+00  0.13373554337E+04  0.13373554337E+04  0.50400001928E-02 0.  1.
        1   -1    0    0  501    0  0.00000000000E+00  0.00000000000E+00 -0.28216111812E+04  0.28216111812E+04  0.50400001928E-02 0. -1.
    10030    2    1    2    0    0  0.00000000000E+00  0.00000000000E+00 -0.14842557475E+04  0.41589666149E+04  0.38850982202E+04 0.  0.
        1    1    3    3  502    0 -0.98672299892E+03  0.45894223729E+03  0.98041545433E+03  0.14647404947E+04  0.50400001928E-02 0.  1.
       -1    1    3    3    0  502  0.98672299892E+03 -0.45894223729E+03 -0.24646712018E+04  0.26942261202E+04  0.50400001928E-02 0. -1.
</event>
<event>
 5   0  0.8676098E-08  0.3905071E+04  0.7818609E-02  0.8023975E-01
        2   -1    0    0  501    0  0.00000000000E+00  0.00000000000E+00  0.20077035060E+04  0.20077035060E+04  0.25500000920E-02 0. -1.
       -2   -1    0    0    0  501  0.00000000000E+00  0.00000000000E+00 -0.18988832950E+04  0.18988832950E+04  0.25500000920E-02 0.  1.
    10030    2    1    2    0    0  0.00000000000E+00  0.00000000000E+00  0.10882021094E+03  0.39065868010E+04  0.39050708822E+04 0.  0.
        3    1    3    3  502    0 -0.92520936678E+03  0.51413006357E+03  0.16957945876E+04  0.19990151045E+04  0.10100000352E+00 0. -1.
       -3    1    3    3    0  502  0.92520936678E+03 -0.51413006357E+03 -0.15869743767E+04  0.19075716964E+04  0.10100000352E+00 0.  1.
</event>
<event>
 5   0  0.8551754E-08  0.3764774E+04  0.7818609E-02  0.8053757E-01
       -2   -1    0    0    0  501  0.00000000000E+00  0.00000000000E+00  0.18552093811E+04  0.18552093811E+04  0.25500000920E-02 0. -1.
        2   -1    0    0  501    0  0.00000000000E+00  0.00000000000E+00 -0.19099627326E+04  0.19099627326E+04  0.25500000920E-02 0.  1.
    10030    2    1    2    0    0  0.00000000000E+00  0.00000000000E+00 -0.54753351458E+02  0.37651721138E+04  0.37647739795E+04 0.  0.
        1    1    3    3  502    0 -0.23641131338E+03  0.35253114494E+03  0.18067235494E+04  0.18559144649E+04  0.50400001928E-02 0. -1.
       -1    1    3    3    0  502  0.23641131338E+03 -0.35253114494E+03 -0.18614769008E+04  0.19092576488E+04  0.50400001928E-02 0.  1.
</event>
<event>
 5   0  0.8551754E-08  0.3868848E+04  0.7818609E-02  0.8031540E-01
       -2   -1    0    0    0  501  0.00000000000E+00  0.00000000000E+00  0.17457013743E+04  0.17457013743E+04  0.25500000920E-02 0.  1.
        2   -1    0    0  501    0  0.00000000000E+00  0.00000000000E+00 -0.21435487089E+04  0.21435487089E+04  0.25500000920E-02 0. -1.
    10030    2    1    2    0    0  0.00000000000E+00  0.00000000000E+00 -0.39784733457E+03  0.38892500832E+04  0.38688478528E+04 0.  0.
        1    1    3    3  502    0  0.11414128040E+03 -0.81904603033E+03  0.15590496635E+04  0.17647947430E+04  0.50400001928E-02 0.  1.
       -1    1    3    3    0  502 -0.11414128040E+03  0.81904603033E+03 -0.19568969980E+04  0.21244553402E+04  0.50400001928E-02 0. -1.
</event>
<event>
 5   0  0.8438211E-08  0.3920592E+04  0.7818609E-02  0.8020760E-01
       -2   -1    0    0    0  501  0.00000000000E+00  0.00000000000E+00  0.14806637118E+04  0.14806637118E+04  0.25500000920E-02 0.  1.
        2   -1    0    0  501    0  0.00000000000E+00  0.00000000000E+00 -0.25952964885E+04  0.25952964885E+04  0.25500000920E-02 0. -1.
    10030    2    1    2    0    0  0.00000000000E+00  0.00000000000E+00 -0.11146327766E+04  0.40759602003E+04  0.39205924715E+04 0.  0.
        5    1    3    3  502    0 -0.52499824428E+03 -0.18880702009E+04 -0.50738171632E+03  0.20243247112E+04  0.46999998093E+01 0.  1.
       -5    1    3    3    0  502  0.52499824428E+03  0.18880702009E+04 -0.60725106032E+03  0.20516354892E+04  0.46999998093E+01 0. -1.
</event>
<event>
 5   0  0.2632875E-08  0.3755478E+04  0.7818609E-02  0.8055777E-01
        1   -1    0    0  501    0  0.00000000000E+00  0.00000000000E+00  0.23473427724E+04  0.23473427724E+04  0.50400001928E-02 0.  1.
       -1   -1    0    0    0  501  0.00000000000E+00  0.00000000000E+00 -0.15020828731E+04  0.15020828731E+04  0.50400001928E-02 0. -1.
    10030    2    1    2    0    0  0.00000000000E+00  0.00000000000E+00  0.84525989925E+03  0.38494256455E+04  0.37554777996E+04 0.  0.
        5    1    3    3  502    0 -0.57264877716E+03  0.10816059307E+04 -0.10371037289E+04  0.16041833579E+04  0.46999998093E+01 0. -1.
       -5    1    3    3    0  502  0.57264877716E+03 -0.10816059307E+04  0.18823636281E+04  0.22452422876E+04  0.46999998093E+01 0.  1.
</event>
<event>
 5   0  0.8676098E-08  0.3915995E+04  0.7818609E-02  0.8021711E-01
        2   -1    0    0  501    0  0.00000000000E+00  0.00000000000E+00  0.21808525144E+04  0.21808525144E+04  0.25500000920E-02 0.  1.
       -2   -1    0    0    0  501  0.00000000000E+00  0.00000000000E+00 -0.17579156954E+04  0.17579156954E+04  0.25500000920E-02 0. -1.
    10030    2    1    2    0    0  0.00000000000E+00  0.00000000000E+00  0.42293681901E+03  0.39387682098E+04  0.39159953342E+04 0.  0.
        3    1    3    3  502    0  0.95920625275E+03  0.15460961869E+03 -0.14983508487E+04  0.17857872341E+04  0.10100000352E+00 0. -1.
       -3    1    3    3    0  502 -0.95920625275E+03 -0.15460961869E+03  0.19212876677E+04  0.21529809757E+04  0.10100000352E+00 0.  1.
</event>
<event>
 5   0  0.2632875E-08  0.3907426E+04  0.7818609E-02  0.8023487E-01
       -1   -1    0    0    0  501  0.00000000000E+00  0.00000000000E+00  0.23074511410E+04  0.23074511410E+04  0.50400001928E-02 0.  1.
        1   -1    0    0  501    0  0.00000000000E+00  0.00000000000E+00 -0.16542035987E+04  0.16542035987E+04  0.50400001928E-02 0. -1.
    10030    2    1    2    0    0  0.00000000000E+00  0.00000000000E+00  0.65324754236E+03  0.39616547397E+04  0.39074257414E+04 0.  0.
        4    1    3    3  502    0  0.68593108202E+03  0.24558139492E+03  0.21645649611E+04  0.22838902676E+04  0.12699999809E+01 0.  1.
       -4    1    3    3    0  502 -0.68593108202E+03 -0.24558139492E+03 -0.15113174187E+04  0.16777644721E+04  0.12699999809E+01 0. -1.
</event>
<event>
 5   0  0.2632875E-08  0.3905764E+04  0.7818609E-02  0.8023831E-01
        1   -1    0    0  501    0  0.00000000000E+00  0.00000000000E+00  0.15101069072E+04  0.15101069072E+04  0.50400001928E-02 0.  1.
       -1   -1    0    0    0  501  0.00000000000E+00  0.00000000000E+00 -0.25254826156E+04  0.25254826156E+04  0.50400001928E-02 0. -1.
    10030    2    1    2    0    0  0.00000000000E+00  0.00000000000E+00 -0.10153757084E+04  0.40355895227E+04  0.39057643256E+04 0.  0.
        1    1    3    3  502    0 -0.18874948486E+04 -0.27787214487E+03 -0.76814631132E+02  0.19093847753E+04  0.50400001928E-02 0.  1.
       -1    1    3    3    0  502  0.18874948486E+04  0.27787214487E+03 -0.93856107725E+03  0.21262047475E+04  0.50400001928E-02 0. -1.
</event>
<event>
 5   0  0.2632875E-08  0.3906426E+04  0.7818609E-02  0.8023694E-01
        1   -1    0    0  501    0  0.00000000000E+00  0.00000000000E+00  0.17032989100E+04  0.17032989100E+04  0.50400001928E-02 0. -1.
       -1   -1    0    0    0  501  0.00000000000E+00  0.00000000000E+00 -0.22397951267E+04  0.22397951267E+04  0.50400001928E-02 0.  1.
    10030    2    1    2    0    0  0.00000000000E+00  0.00000000000E+00 -0.53649621665E+03  0.39430940367E+04  0.39064257822E+04 0.  0.
        3    1    3    3  502    0 -0.74356689602E+03 -0.11067854693E+04 -0.17089419600E+04  0.21675674007E+04  0.10100000352E+00 0.  1.
       -3    1    3    3    0  502  0.74356689602E+03  0.11067854693E+04  0.11724457433E+04  0.17755266360E+04  0.10100000352E+00 0. -1.
</event>
<event>
 5   0  0.2632875E-08  0.3878899E+04  0.7818609E-02  0.8029432E-01
       -1   -1    0    0    0  501  0.00000000000E+00  0.00000000000E+00  0.13074277276E+04  0.13074277276E+04  0.50400001928E-02 0.  1.
        1   -1    0    0  501    0  0.00000000000E+00  0.00000000000E+00 -0.28769955665E+04  0.28769955665E+04  0.50400001928E-02 0. -1.
    10030    2    1    2    0    0  0.00000000000E+00  0.00000000000E+00 -0.15695678389E+04  0.41844232941E+04  0.38788986973E+04 0.  0.
        3    1    3    3  502    0  0.30955265855E+03  0.16939868751E+04 -0.17472760312E+04  0.24532402901E+04  0.10100000352E+00 0. -1.
       -3    1    3    3    0  502 -0.30955265855E+03 -0.16939868751E+04  0.17770819234E+03  0.17311830040E+04  0.10100000352E+00 0.  1.
</event>
<event>
 5   0  0.8476262E-08  0.3903805E+04  0.7818609E-02  0.8024238E-01
        2   -1    0    0  501    0  0.00000000000E+00  0.00000000000E+00  0.19383940853E+04  0.19383940853E+04  0.25500000920E-02 0.  1.
       -2   -1    0    0    0  501  0.00000000000E+00  0.00000000000E+00 -0.19655049281E+04  0.19655049281E+04  0.25500000920E-02 0. -1.
    10030    2    1    2    0    0  0.00000000000E+00  0.00000000000E+00 -0.27110842850E+02  0.39038990134E+04  0.39038048759E+04 0.  0.
        2    1    3    3  502    0  0.56347863640E+02  0.19453849678E+04 -0.16264078164E+03  0.19529848383E+04  0.25500000920E-02 0.  1.
       -2    1    3    3    0  502 -0.56347863640E+02 -0.19453849678E+04  0.13552993879E+03  0.19509141752E+04  0.25500000920E-02 0. -1.
</event>
<event>
 5   0  0.2632875E-08  0.3876741E+04  0.7818609E-02  0.8029884E-01
       -1   -1    0    0    0  501  0.00000000000E+00  0.00000000000E+00  0.18421015902E+04  0.18421015902E+04  0.50400001928E-02 0.  1.
        1   -1    0    0  501    0  0.00000000000E+00  0.00000000000E+00 -0.20396705383E+04  0.20396705383E+04  0.50400001928E-02 0. -1.
    10030    2    1    2    0    0  0.00000000000E+00  0.00000000000E+00 -0.19756894809E+03  0.38817721284E+04  0.38767410757E+04 0.  0.
        5    1    3    3  502    0  0.51296235671E+03  0.13853651084E+04 -0.13553598525E+04  0.20048414608E+04  0.46999998093E+01 0. -1.
       -5    1    3    3    0  502 -0.51296235671E+03 -0.13853651084E+04  0.11577909045E+04  0.18769306677E+04  0.46999998093E+01 0.  1.
</event>
<event>
 5   0  0.8438211E-08  0.3905529E+04  0.7818609E-02  0.8023880E-01
        2   -1    0    0  501    0  0.00000000000E+00  0.00000000000E+00  0.17581265179E+04  0.17581265179E+04  0.25500000920E-02 0. -1.
       -2   -1    0    0    0  501  0.00000000000E+00  0.00000000000E+00 -0.21689498615E+04  0.21689498615E+04  0.25500000920E-02 0.  1.
    10030    2    1    2    0    0  0.00000000000E+00  0.00000000000E+00 -0.41082334361E+03  0.39270763793E+04  0.39055285263E+04 0.  0.
        5    1    3    3  502    0 -0.13176077574E+04  0.62924933642E+03  0.10983612860E+04  0.18271465553E+04  0.46999998093E+01 0. -1.
       -5    1    3    3    0  502  0.13176077574E+04 -0.62924933642E+03 -0.15091846296E+04  0.20999298241E+04  0.46999998093E+01 0.  1.
</event>
<event>
 5   0  0.2632875E-08  0.3907057E+04  0.7818609E-02  0.8023563E-01
       -1   -1    0    0    0  501  0.00000000000E+00  0.00000000000E+00  0.15102809253E+04  0.15102809254E+04  0.50400001928E-02 0.  1.
        1   -1    0    0  501    0  0.00000000000E+00  0.00000000000E+00 -0.25268633627E+04  0.25268633627E+04  0.50400001928E-02 0. -1.
    10030    2    1    2    0    0  0.00000000000E+00  0.00000000000E+00 -0.10165824374E+04  0.40371442881E+04  0.39070569680E+04 0.  0.
        2    1    3    3  502    0 -0.42290878709E+02  0.10420923371E+04 -0.22151153778E+04  0.24483629417E+04  0.25500000920E-02 0. -1.
       -2    1    3    3    0  502  0.42290878709E+02 -0.10420923371E+04  0.11985329404E+04  0.15887813464E+04  0.25500000920E-02 0.  1.
</event>
<event>
 5   0  0.2632875E-08  0.3929932E+04  0.7818609E-02  0.8018833E-01
       -1   -1    0    0    0  501  0.00000000000E+00  0.00000000000E+00  0.16681340069E+04  0.16681340069E+04  0.50400001928E-02 0.  1.
        1   -1    0    0  501    0  0.00000000000E+00  0.00000000000E+00 -0.23146170480E+04  0.23146170480E+04  0.50400001928E-02 0. -1.
    10030    2    1    2    0    0  0.00000000000E+00  0.00000000000E+00 -0.64648304116E+03  0.39827510549E+04  0.39299320150E+04 0.  0.
        2    1    3    3  502    0  0.14652848676E+04 -0.47181054030E+03  0.91441190696E+03  0.17904787250E+04  0.25500000920E-02 0.  1.
       -2    1    3    3    0  502 -0.14652848676E+04  0.47181054030E+03 -0.15608949481E+04  0.21922723299E+04  0.25500000920E-02 0. -1.
</event>
<event>
 5   0  0.2632875E-08  0.3930125E+04  0.7818609E-02  0.8018793E-01
       -1   -1    0    0    0  501  0.00000000000E+00  0.00000000000E+00  0.15549165213E+04  0.15549165213E+04  0.50400001928E-02 0. -1.
        1   -1    0    0  501    0  0.00000000000E+00  0.00000000000E+00 -0.24833937528E+04  0.24833937528E+04  0.50400001928E-02 0.  1.
    10030    2    1    2    0    0  0.00000000000E+00  0.00000000000E+00 -0.92847723158E+03  0.40383102741E+04  0.39301246673E+04 0.  0.
        1    1    3    3  502    0 -0.70110658323E+03  0.12243141156E+04  0.94124985998E+03  0.16960090783E+04  0.50400001928E-02 0. -1.
       -1    1    3    3    0  502  0.70110658323E+03 -0.12243141156E+04 -0.18697270916E+04  0.23423011958E+04  0.50400001928E-02 0.  1.
</event>
<event>
 5   0  0.2632875E-08  0.3894497E+04  0.7818609E-02  0.8026175E-01
       -1   -1    0    0    0  501  0.00000000000E+00  0.00000000000E+00  0.27254397732E+04  0.27254397732E+04  0.50400001928E-02 0.  1.
        1   -1    0    0  501    0  0.00000000000E+00  0.00000000000E+00 -0.13912534138E+04  0.13912534138E+04  0.50400001928E-02 0. -1.
    10030    2    1    2    0    0  0.00000000000E+00  0.00000000000E+00  0.13341863594E+04  0.41166931870E+04  0.38944973430E+04 0.  0.
        2    1    3    3  502    0 -0.14810067620E+04 -0.10615730453E+03  0.19987825306E+04  0.24899361452E+04  0.25500000920E-02 0.  1.
       -2    1    3    3    0  502  0.14810067620E+04  0.10615730453E+03 -0.66459617117E+03  0.16267570419E+04  0.25500000920E-02 0. -1.
</event>
<event>
 5   0  0.8551754E-08  0.3892731E+04  0.7818609E-02  0.8026543E-01
       -2   -1    0    0    0  501  0.00000000000E+00  0.00000000000E+00  0.23198931479E+04  0.23198931479E+04  0.25500000920E-02 0. -1.
        2   -1    0    0  501    0  0.00000000000E+00  0.00000000000E+00 -0.16329800443E+04  0.16329800443E+04  0.25500000920E-02 0.  1.
    10030    2    1    2    0    0  0.00000000000E+00  0.00000000000E+00  0.68691310363E+03  0.39528731922E+04  0.38927312856E+04 0.  0.
        1    1    3    3  502    0  0.11233498368E+04  0.75504744344E+03  0.17637538505E+04  0.22232496807E+04  0.50400001928E-02 0. -1.
       -1    1    3    3    0  502 -0.11233498368E+04 -0.75504744344E+03 -0.10768407468E+04  0.17296235115E+04  0.50400001928E-02 0.  1.
</event>
<event>
 5   0  0.8551754E-08  0.3900409E+04  0.7818609E-02  0.8024944E-01
        2   -1    0    0  501    0  0.00000000000E+00  0.00000000000E+00  0.13362589438E+04  0.13362589438E+04  0.25500000920E-02 0. -1.
       -2   -1    0    0    0  501  0.00000000000E+00  0.00000000000E+00 -0.28462283965E+04  0.28462283965E+04  0.25500000920E-02 0.  1.
    10030    2    1    2    0    0  0.00000000000E+00  0.00000000000E+00 -0.15099694527E+04  0.41824873403E+04  0.39004092867E+04 0.  0.
        1    1    3    3  502    0 -0.11428074574E+04 -0.65873201674E+03  0.78533935007E+03  0.15351529726E+04  0.50400001928E-02 0. -1.
       -1    1    3    3    0  502  0.11428074574E+04  0.65873201674E+03 -0.22953088028E+04  0.26473343677E+04  0.50400001928E-02 0.  1.
</event>
<event>
 5   0  0.2632875E-08  0.3912023E+04  0.7818609E-02  0.8022533E-01
       -1   -1    0    0    0  501  0.00000000000E+00  0.00000000000E+00  0.12390581422E+04  0.12390581422E+04  0.50400001928E-02 0. -1.
        1   -1    0    0  501    0  0.00000000000E+00  0.00000000000E+00 -0.30878135970E+04  0.30878135970E+04  0.50400001928E-02 0.  1.
    10030    2    1    2    0    0  0.00000000000E+00  0.00000000000E+00 -0.18487554547E+04  0.43268717392E+04  0.39120227909E+04 0.  0.
        4    1    3    3  502    0  0.11908685406E+04  0.15206376919E+04 -0.58262587939E+03  0.20174145334E+04  0.12699999809E+01 0.  1.
       -4    1    3    3    0  502 -0.11908685406E+04 -0.15206376919E+04 -0.12661295753E+04  0.23094572058E+04  0.12699999809E+01 0. -1.
</event>
<event>
 5   0  0.8438211E-08  0.3905426E+04  0.7818609E-02  0.8023902E-01
       -2   -1    0    0    0  501  0.00000000000E+00  0.00000000000E+00  0.13186603269E+04  0.13186603269E+04  0.25500000920E-02 0.  1.
        2   -1    0    0  501    0  0.00000000000E+00  0.00000000000E+00 -0.28916377433E+04  0.28916377433E+04  0.25500000920E-02 0. -1.
    10030    2    1    2    0    0  0.00000000000E+00  0.00000000000E+00 -0.15729774164E+04  0.42102980702E+04  0.39054259547E+04 0.  0.
        5    1    3    3  502    0  0.68694915159E+03 -0.28268229729E+03 -0.27333588198E+04  0.28325043594E+04  0.46999998093E+01 0. -1.
       -5    1    3    3    0  502 -0.68694915159E+03  0.28268229729E+03  0.11603814034E+04  0.13777937108E+04  0.46999998093E+01 0.  1.
</event>
<event>
 5   0  0.2632875E-08  0.3854102E+04  0.7818609E-02  0.8034643E-01
       -1   -1    0    0    0  501  0.00000000000E+00  0.00000000000E+00  0.26788477978E+04  0.26788477978E+04  0.50400001928E-02 0. -1.
        1   -1    0    0  501    0  0.00000000000E+00  0.00000000000E+00 -0.13862397795E+04  0.13862397795E+04  0.50400001928E-02 0.  1.
    10030    2    1    2    0    0  0.00000000000E+00  0.00000000000E+00  0.12926080183E+04  0.40650875773E+04  0.38541019086E+04 0.  0.
        5    1    3    3  502    0  0.75857704571E+03 -0.70823958987E+03  0.23589096689E+04  0.25771145429E+04  0.46999998093E+01 0. -1.
       -5    1    3    3    0  502 -0.75857704571E+03  0.70823958987E+03 -0.10663016507E+04  0.14879730344E+04  0.46999998093E+01 0.  1.
</event>
<event>
 5   0  0.2632875E-08  0.3888157E+04  0.7818609E-02  0.8027497E-01
       -1   -1    0    0    0  501  0.00000000000E+00  0.00000000000E+00  0.30385401438E+04  0.30385401438E+04  0.50400001928E-02 0. -1.
        1   -1    0    0  501    0  0.00000000000E+00  0.00000000000E+00 -0.12438343526E+04  0.12438343526E+04  0.50400001928E-02 0.  1.
    10030    2    1    2    0    0  0.00000000000E+00  0.00000000000E+00  0.17947057912E+04  0.42823744964E+04  0.38881566906E+04 0.  0.
        2    1    3    3  502    0  0.15928970668E+04 -0.89571278546E+03  0.16277809761E+04  0.24473032843E+04  0.25500000920E-02 0. -1.
       -2    1    3    3    0  502 -0.15928970668E+04  0.89571278546E+03  0.16692481509E+03  0.18350712121E+04  0.25500000920E-02 0.  1.
</event>
<event>
 5   0  0.8438211E-08  0.3882605E+04  0.7818609E-02  0.8028657E-01
        2   -1    0    0  501    0  0.00000000000E+00  0.00000000000E+00  0.13014712899E+04  0.13014712899E+04  0.25500000920E-02 0. -1.
       -2   -1    0    0    0  501  0.00000000000E+00  0.00000000000E+00 -0.28956889032E+04  0.28956889032E+04  0.25500000920E-02 0.  1.
    10030    2    1    2    0    0  0.00000000000E+00  0.00000000000E+00 -0.15942176133E+04  0.41971601931E+04  0.38826052964E+04 0.  0.
        5    1    3    3  502    0 -0.11937993405E+04  0.83033481730E+03 -0.21873905710E+04  0.26266542167E+04  0.46999998093E+01 0.  1.
       -5    1    3    3    0  502  0.11937993405E+04 -0.83033481730E+03  0.59317295765E+03  0.15705059764E+04  0.46999998093E+01 0. -1.
</event>
<event>
 5   0  0.8551754E-08  0.3888978E+04  0.7818609E-02  0.8027326E-01
        2   -1    0    0  501    0  0.00000000000E+00  0.00000000000E+00  0.21772093819E+04  0.21772093819E+04  0.25500000920E-02 0. -1.
       -2   -1    0    0    0  501  0.00000000000E+00  0.00000000000E+00 -0.17366437401E+04  0.17366437401E+04  0.25500000920E-02 0.  1.
    10030    2    1    2    0    0  0.00000000000E+00  0.00000000000E+00  0.44056564184E+03  0.39138531220E+04  0.38889777803E+04 0.  0.
        1    1    3    3  502    0  0.81627028567E+03 -0.16967945079E+04  0.70880327512E+03  0.20119172111E+04  0.50400001928E-02 0. -1.
       -1    1    3    3    0  502 -0.81627028567E+03  0.16967945079E+04 -0.26823763329E+03  0.19019359109E+04  0.50400001928E-02 0.  1.
</event>
<event>
 5   0  0.2632875E-08  0.3920007E+04  0.7818609E-02  0.8020881E-01
        1   -1    0    0  501    0  0.00000000000E+00  0.00000000000E+00  0.15297294929E+04  0.15297294929E+04  0.50400001928E-02 0. -1.
       -1   -1    0    0    0  501  0.00000000000E+00  0.00000000000E+00 -0.25113025911E+04  0.25113025911E+04  0.50400001928E-02 0.  1.
    10030    2    1    2    0    0  0.00000000000E+00  0.00000000000E+00 -0.98157309820E+03  0.40410320840E+04  0.39200069588E+04 0.  0.
        4    1    3    3  502    0 -0.13721947837E+04  0.10515178451E+04  0.46130985310E+03  0.17892503168E+04  0.12699999809E+01 0. -1.
       -4    1    3    3    0  502  0.13721947837E+04 -0.10515178451E+04 -0.14428829513E+04  0.22517817672E+04  0.12699999809E+01 0.  1.
</event>
<event>
 5   0  0.2632875E-08  0.3902357E+04  0.7818609E-02  0.8024539E-01
       -1   -1    0    0    0  501  0.00000000000E+00  0.00000000000E+00  0.25589993713E+04  0.25589993713E+04  0.50400001928E-02 0.  1.
        1   -1    0    0  501    0  0.00000000000E+00  0.00000000000E+00 -0.14877292848E+04  0.14877292848E+04  0.50400001928E-02 0. -1.
    10030    2    1    2    0    0  0.00000000000E+00  0.00000000000E+00  0.10712700865E+04  0.40467286561E+04  0.39023573924E+04 0.  0.
        5    1    3    3  502    0 -0.21162357310E+02 -0.17613583433E+04 -0.33460482894E+03  0.17929901117E+04  0.46999998093E+01 0.  1.
       -5    1    3    3    0  502  0.21162357310E+02  0.17613583433E+04  0.14058749154E+04  0.22537385445E+04  0.46999998093E+01 0. -1.
</event>
<event>
 5   0  0.2632875E-08  0.3898085E+04  0.7818609E-02  0.8025428E-01
       -1   -1    0    0    0  501  0.00000000000E+00  0.00000000000E+00  0.16944413771E+04  0.16944413771E+04  0.50400001928E-02 0.  1.
        1   -1    0    0  501    0  0.00000000000E+00  0.00000000000E+00 -0.22418986935E+04  0.22418986935E+04  0.50400001928E-02 0. -1.
    10030    2    1    2    0    0  0.00000000000E+00  0.00000000000E+00 -0.54745731639E+03  0.39363400706E+04  0.38980846115E+04 0.  0.
        3    1    3    3  502    0 -0.15828993986E+04  0.10595936649E+04  0.14318712362E+03  0.19101863268E+04  0.10100000352E+00 0. -1.
       -3    1    3    3    0  502  0.15828993986E+04 -0.10595936649E+04 -0.69064444000E+03  0.20261537438E+04  0.10100000352E+00 0.  1.
</event>
<event>
 5   0  0.2632875E-08  0.3897430E+04  0.7818609E-02  0.8025564E-01
       -3   -1    0    0    0  501  0.00000000000E+00  0.00000000000E+00  0.21691850842E+04  0.21691850866E+04  0.10100000352E+00 0. -1.
        3   -1    0    0  501    0  0.00000000000E+00  0.00000000000E+00 -0.17506531500E+04  0.17506531529E+04  0.10100000352E+00 0.  1.
    10030    2    1    2    0    0  0.00000000000E+00  0.00000000000E+00  0.41853193421E+03  0.39198382395E+04  0.38974302873E+04 0.  0.
        1    1    3    3  502    0 -0.72640732159E+03  0.17410589551E+04  0.70047631852E+03  0.20123670030E+04  0.50400001928E-02 0.  1.
       -1    1    3    3    0  502  0.72640732159E+03 -0.17410589551E+04 -0.28194438431E+03  0.19074712365E+04  0.50400001928E-02 0. -1.
</event>
<event>
 5   0  0.2632875E-08  0.4102277E+04  0.7818609E-02  0.7984226E-01
       -1   -1    0    0    0  501  0.00000000000E+00  0.00000000000E+00  0.17669114295E+04  0.17669114295E+04  0.50400001928E-02 0.  1.
        1   -1    0    0  501    0  0.00000000000E+00  0.00000000000E+00 -0.23810863356E+04  0.23810863356E+04  0.50400001928E-02 0. -1.
    10030    2    1    2    0    0  0.00000000000E+00  0.00000000000E+00 -0.61417490612E+03  0.41479977651E+04  0.41022767634E+04 0.  0.
        4    1    3    3  502    0 -0.16495611472E+04  0.10848966589E+04  0.25508959596E+03  0.19907599186E+04  0.12699999809E+01 0.  1.
       -4    1    3    3    0  502  0.16495611472E+04 -0.10848966589E+04 -0.86926450208E+03  0.21572378465E+04  0.12699999809E+01 0. -1.
</event>
<event>
 5   0  0.2632875E-08  0.3915666E+04  0.7818609E-02  0.8021779E-01
       -1   -1    0    0    0  501  0.00000000000E+00  0.00000000000E+00  0.15680092101E+04  0.15680092101E+04  0.50400001928E-02 0. -1.
        1   -1    0    0  501    0  0.00000000000E+00  0.00000000000E+00 -0.24445707500E+04  0.24445707500E+04  0.50400001928E-02 0.  1.
    10030    2    1    2    0    0  0.00000000000E+00  0.00000000000E+00 -0.87656153992E+03  0.40125799602E+04  0.39156656910E+04 0.  0.
        5    1    3    3  502    0  0.27557416594E+03  0.17020462787E+04  0.51213569646E+03  0.17986683178E+04  0.46999998093E+01 0. -1.
       -5    1    3    3    0  502 -0.27557416594E+03 -0.17020462787E+04 -0.13886972364E+04  0.22139116424E+04  0.46999998093E+01 0.  1.
</event>
<event>
 5   0  0.8342802E-08  0.3904504E+04  0.7818609E-02  0.8024093E-01
        2   -1    0    0  501    0  0.00000000000E+00  0.00000000000E+00  0.29090370764E+04  0.29090370764E+04  0.25500000920E-02 0. -1.
       -2   -1    0    0    0  501  0.00000000000E+00  0.00000000000E+00 -0.13101546389E+04  0.13101546389E+04  0.25500000920E-02 0.  1.
    10030    2    1    2    0    0  0.00000000000E+00  0.00000000000E+00  0.15988824375E+04  0.42191917154E+04  0.39045042812E+04 0.  0.
        4    1    3    3  502    0 -0.42847563877E+03 -0.30402711675E+03 -0.12323272540E+04  0.13396476905E+04  0.12699999809E+01 0.  1.
       -4    1    3    3    0  502  0.42847563877E+03  0.30402711675E+03  0.28312096915E+04  0.28795440249E+04  0.12699999809E+01 0. -1.
</event>
<event>
 5   0  0.2632875E-08  0.3894945E+04  0.7818609E-02  0.8026081E-01
       -1   -1    0    0    0  501  0.00000000000E+00  0.00000000000E+00  0.16021839313E+04  0.16021839313E+04  0.50400001928E-02 0. -1.
        1   -1    0    0  501    0  0.00000000000E+00  0.00000000000E+00 -0.23671745235E+04  0.23671745235E+04  0.50400001928E-02 0.  1.
    10030    2    1    2    0    0  0.00000000000E+00  0.00000000000E+00 -0.76499059220E+03  0.39693584549E+04  0.38949449209E+04 0.  0.
        5    1    3    3  502    0 -0.99455150272E+03 -0.19672274012E+03 -0.20770298033E+04  0.23112566759E+04  0.46999998093E+01 0.  1.
       -5    1    3    3    0  502  0.99455150272E+03  0.19672274012E+03  0.13120392111E+04  0.16581017790E+04  0.46999998093E+01 0. -1.
</event>
<event>
 5   0  0.8676098E-08  0.3901270E+04  0.7818609E-02  0.8024765E-01
       -2   -1    0    0    0  501  0.00000000000E+00  0.00000000000E+00  0.19266697535E+04  0.19266697535E+04  0.25500000920E-02 0.  1.
        2   -1    0    0  501    0  0.00000000000E+00  0.00000000000E+00 -0.19748986813E+04  0.19748986813E+04  0.25500000920E-02 0. -1.
    10030    2    1    2    0    0  0.00000000000E+00  0.00000000000E+00 -0.48228927751E+02  0.39015684348E+04  0.39012703344E+04 0.  0.
        3    1    3    3  502    0 -0.11927480102E+04  0.91843104995E+03  0.12164697976E+04  0.19354488338E+04  0.10100000352E+00 0. -1.
       -3    1    3    3    0  502  0.11927480102E+04 -0.91843104995E+03 -0.12646987253E+04  0.19661196010E+04  0.10100000352E+00 0.  1.
</event>
<event>
 5   0  0.8676098E-08  0.3870559E+04  0.7818609E-02  0.8031180E-01
        2   -1    0    0  501    0  0.00000000000E+00  0.00000000000E+00  0.25182977784E+04  0.25182977784E+04  0.25500000920E-02 0. -1.
       -2   -1    0    0    0  501  0.00000000000E+00  0.00000000000E+00 -0.14872371347E+04  0.14872371347E+04  0.25500000920E-02 0.  1.
    10030    2    1    2    0    0  0.00000000000E+00  0.00000000000E+00  0.10310606437E+04  0.40055349130E+04  0.38705586016E+04 0.  0.
        3    1    3    3  502    0  0.99372881841E+03 -0.94526268023E+03  0.19285340697E+04  0.23664873055E+04  0.10100000352E+00 0.  1.
       -3    1    3    3    0  502 -0.99372881841E+03  0.94526268023E+03 -0.89747342595E+03  0.16390476075E+04  0.10100000352E+00 0. -1.
</event>
<event>
 5   0  0.2632875E-08  0.3896071E+04  0.7818609E-02  0.8025847E-01
        1   -1    0    0  501    0  0.00000000000E+00  0.00000000000E+00  0.23412774672E+04  0.23412774672E+04  0.50400001928E-02 0. -1.
       -1   -1    0    0    0  501  0.00000000000E+00  0.00000000000E+00 -0.16208428281E+04  0.16208428281E+04  0.50400001928E-02 0.  1.
    10030    2    1    2    0    0  0.00000000000E+00  0.00000000000E+00  0.72043463912E+03  0.39621202953E+04  0.38960712474E+04 0.  0.
        2    1    3    3  502    0 -0.17164489218E+04  0.27197112342E+03  0.12552961086E+04  0.21438128448E+04  0.25500000920E-02 0. -1.
       -2    1    3    3    0  502  0.17164489218E+04 -0.27197112342E+03 -0.53486146945E+03  0.18183074505E+04  0.25500000920E-02 0.  1.
</event>
<event>
 5   0  0.8438211E-08  0.3910182E+04  0.7818609E-02  0.8022915E-01
       -2   -1    0    0    0  501  0.00000000000E+00  0.00000000000E+00  0.16740745125E+04  0.16740745125E+04  0.25500000920E-02 0.  1.
        2   -1    0    0  501    0  0.00000000000E+00  0.00000000000E+00 -0.22832800789E+04  0.22832800789E+04  0.25500000920E-02 0. -1.
    10030    2    1    2    0    0  0.00000000000E+00  0.00000000000E+00 -0.60920556639E+03  0.39573545914E+04  0.39101820853E+04 0.  0.
        5    1    3    3  502    0  0.10292157867E+04 -0.88520919770E+03 -0.17285155109E+04  0.21978781633E+04  0.46999998093E+01 0. -1.
       -5    1    3    3    0  502 -0.10292157867E+04  0.88520919770E+03  0.11193099445E+04  0.17594764281E+04  0.46999998093E+01 0.  1.
</event>
<event>
 5   0  0.2632875E-08  0.3874475E+04  0.7818609E-02  0.8030359E-01
        3   -1    0    0  501    0  0.00000000000E+00  0.00000000000E+00  0.14039085432E+04  0.14039085468E+04  0.10100000352E+00 0. -1.
       -3   -1    0    0    0  501  0.00000000000E+00  0.00000000000E+00 -0.26731723385E+04  0.26731723404E+04  0.10100000352E+00 0.  1.
    10030    2    1    2    0    0  0.00000000000E+00  0.00000000000E+00 -0.12692637953E+04  0.40770808873E+04  0.38744751876E+04 0.  0.
        4    1    3    3  502    0  0.76678538792E+03  0.39511408128E+03 -0.24599309820E+04  0.26067867226E+04  0.12699999809E+01 0.  1.
       -4    1    3    3    0  502 -0.76678538792E+03 -0.39511408128E+03  0.11906671866E+04  0.14702941646E+04  0.12699999809E+01 0. -1.
</event>
<event>
 5   0  0.2632875E-08  0.3881771E+04  0.7818609E-02  0.8028831E-01
        1   -1    0    0  501    0  0.00000000000E+00  0.00000000000E+00  0.14482110836E+04  0.14482110836E+04  0.50400001928E-02 0.  1.
       -1   -1    0    0    0  501  0.00000000000E+00  0.00000000000E+00 -0.26011651002E+04  0.26011651002E+04  0.50400001928E-02 0. -1.
    10030    2    1    2    0    0  0.00000000000E+00  0.00000000000E+00 -0.11529540166E+04  0.40493761838E+04  0.38817707961E+04 0.  0.
        2    1    3    3  502    0  0.10749041532E+04 -0.57849254637E+03 -0.21505913522E+04  0.24728760036E+04  0.25500000920E-02 0. -1.
       -2    1    3    3    0  502 -0.10749041532E+04  0.57849254637E+03  0.99763733564E+03  0.15765001802E+04  0.25500000920E-02 0.  1.
</event>
<event>
 5   0  0.8438211E-08  0.3890195E+04  0.7818609E-02  0.8027072E-01
       -2   -1    0    0    0  501  0.00000000000E+00  0.00000000000E+00  0.17262428217E+04  0.17262428217E+04  0.25500000920E-02 0.  1.
        2   -1    0    0  501    0  0.00000000000E+00  0.00000000000E+00 -0.21916987672E+04  0.21916987672E+04  0.25500000920E-02 0. -1.
    10030    2    1    2    0    0  0.00000000000E+00  0.00000000000E+00 -0.46545594546E+03  0.39179415889E+04  0.38901949895E+04 0.  0.
        5    1    3    3  502    0  0.10323912543E+04 -0.33665746790E+03  0.13925392361E+04  0.17658871897E+04  0.46999998093E+01 0.  1.
       -5    1    3    3    0  502 -0.10323912543E+04  0.33665746790E+03 -0.18579951815E+04  0.21520543992E+04  0.46999998093E+01 0. -1.
</event>
<event>
 5   0  0.8551754E-08  0.3899577E+04  0.7818609E-02  0.8025117E-01
       -2   -1    0    0    0  501  0.00000000000E+00  0.00000000000E+00  0.11860704822E+04  0.11860704822E+04  0.25500000920E-02 0.  1.
        2   -1    0    0  501    0  0.00000000000E+00  0.00000000000E+00 -0.32052695626E+04  0.32052695626E+04  0.25500000920E-02 0. -1.
    10030    2    1    2    0    0  0.00000000000E+00  0.00000000000E+00 -0.20191990804E+04  0.43913400448E+04  0.38995772159E+04 0.  0.
        1    1    3    3  502    0 -0.12521334719E+03 -0.19013122697E+04 -0.54391814910E+03  0.19815432577E+04  0.50400001928E-02 0.  1.
       -1    1    3    3    0  502  0.12521334719E+03  0.19013122697E+04 -0.14752809313E+04  0.24097967872E+04  0.50400001928E-02 0. -1.
</event>
<event>
 5   0  0.2632875E-08  0.3914027E+04  0.7818609E-02  0.8022118E-01
        1   -1    0    0  501    0  0.00000000000E+00  0.00000000000E+00  0.28425725147E+04  0.28425725147E+04  0.50400001928E-02 0.  1.
       -1   -1    0    0    0  501  0.00000000000E+00  0.00000000000E+00 -0.13473362652E+04  0.13473362652E+04  0.50400001928E-02 0. -1.
    10030    2    1    2    0    0  0.00000000000E+00  0.00000000000E+00  0.14952362495E+04  0.41899087800E+04  0.39140265894E+04 0.  0.
        2    1    3    3  502    0 -0.17028542816E+04 -0.91260156591E+03  0.41362198871E+03  0.19757625040E+04  0.25500000920E-02 0. -1.
       -2    1    3    3    0  502  0.17028542816E+04  0.91260156591E+03  0.10816142608E+04  0.22141462760E+04  0.25500000920E-02 0.  1.
</event>
<event>
 5   0  0.8551754E-08  0.3913447E+04  0.7818609E-02  0.8022238E-01
        2   -1    0    0  501    0  0.00000000000E+00  0.00000000000E+00  0.18825593783E+04  0.18825593783E+04  0.25500000920E-02 0.  1.
       -2   -1    0    0    0  501  0.00000000000E+00  0.00000000000E+00 -0.20338095256E+04  0.20338095256E+04  0.25500000920E-02 0. -1.
    10030    2    1    2    0    0  0.00000000000E+00  0.00000000000E+00 -0.15125014728E+03  0.39163689040E+04  0.39134471742E+04 0.  0.
        1    1    3    3  502    0  0.78323473890E+03  0.17291311468E+04 -0.55075950533E+03  0.19765341413E+04  0.50400001928E-02 0. -1.
       -1    1    3    3    0  502 -0.78323473890E+03 -0.17291311468E+04  0.39950935805E+03  0.19398347626E+04  0.50400001928E-02 0.  1.
</event>
<event>
 5   0  0.2632875E-08  0.3903556E+04  0.7818609E-02  0.8024290E-01
       -1   -1    0    0    0  501  0.00000000000E+00  0.00000000000E+00  0.20403390629E+04  0.20403390629E+04  0.50400001928E-02 0.  1.
        1   -1    0    0  501    0  0.00000000000E+00  0.00000000000E+00 -0.18670607082E+04  0.18670607082E+04  0.50400001928E-02 0. -1.
    10030    2    1    2    0    0  0.00000000000E+00  0.00000000000E+00  0.17327835474E+03  0.39073997711E+04  0.39035557615E+04 0.  0.
        4    1    3    3  502    0 -0.15243153435E+04  0.99702278227E+03 -0.61536705244E+03  0.19225685728E+04  0.12699999809E+01 0. -1.
       -4    1    3    3    0  502  0.15243153435E+04 -0.99702278227E+03  0.78864540718E+03  0.19848311984E+04  0.12699999809E+01 0.  1.
</event>
<event>
 5   0  0.8676098E-08  0.3755461E+04  0.7818609E-02  0.8055781E-01
        2   -1    0    0  501    0  0.00000000000E+00  0.00000000000E+00  0.23715992807E+04  0.23715992807E+04  0.25500000920E-02 0.  1.
       -2   -1    0    0    0  501  0.00000000000E+00  0.00000000000E+00 -0.14867064534E+04  0.14867064534E+04  0.25500000920E-02 0. -1.
    10030    2    1    2    0    0  0.00000000000E+00  0.00000000000E+00  0.88489282732E+03  0.38583057340E+04  0.37554610664E+04 0.  0.
        3    1    3    3  502    0 -0.11989132540E+04 -0.11691386604E+04 -0.43028328514E+03  0.17289944804E+04  0.10100000352E+00 0. -1.
       -3    1    3    3    0  502  0.11989132540E+04  0.11691386604E+04  0.13151761125E+04  0.21293112536E+04  0.10100000352E+00 0.  1.
</event>
<event>
 5   0  0.2632875E-08  0.3906657E+04  0.7818609E-02  0.8023646E-01
        1   -1    0    0  501    0  0.00000000000E+00  0.00000000000E+00  0.27932268304E+04  0.27932268304E+04  0.50400001928E-02 0.  1.
       -1   -1    0    0    0  501  0.00000000000E+00  0.00000000000E+00 -0.13659803858E+04  0.13659803858E+04  0.50400001928E-02 0. -1.
    10030    2    1    2    0    0  0.00000000000E+00  0.00000000000E+00  0.14272464446E+04  0.41592072162E+04  0.39066574272E+04 0.  0.
        4    1    3    3  502    0  0.13337780094E+04  0.87838982651E+03 -0.48378834750E+03  0.16687076568E+04  0.12699999809E+01 0. -1.
       -4    1    3    3    0  502 -0.13337780094E+04 -0.87838982651E+03  0.19110347921E+04  0.24904995594E+04  0.12699999809E+01 0.  1.
</event>
<event>
 5   0  0.8676098E-08  0.3902473E+04  0.7818609E-02  0.8024515E-01
        2   -1    0    0  501    0  0.00000000000E+00  0.00000000000E+00  0.21786927371E+04  0.21786927371E+04  0.25500000920E-02 0. -1.
       -2   -1    0    0    0  501  0.00000000000E+00  0.00000000000E+00 -0.17475268524E+04  0.17475268524E+04  0.25500000920E-02 0.  1.
    10030    2    1    2    0    0  0.00000000000E+00  0.00000000000E+00  0.43116588478E+03  0.39262195895E+04  0.39024730934E+04 0.  0.
        3    1    3    3  502    0 -0.18037843944E+04 -0.44367158599E+03  0.81657994453E+03  0.20291095174E+04  0.10100000352E+00 0. -1.
       -3    1    3    3    0  502  0.18037843944E+04  0.44367158599E+03 -0.38541405975E+03  0.18971100720E+04  0.10100000352E+00 0.  1.
</event>
<event>
 5   0  0.8342802E-08  0.3917515E+04  0.7818609E-02  0.8021396E-01
       -2   -1    0    0    0  501  0.00000000000E+00  0.00000000000E+00  0.14079869582E+04  0.14079869582E+04  0.25500000920E-02 0.  1.
        2   -1    0    0  501    0  0.00000000000E+00  0.00000000000E+00 -0.27249755446E+04  0.27249755446E+04  0.25500000920E-02 0. -1.
    10030    2    1    2    0    0  0.00000000000E+00  0.00000000000E+00 -0.13169885864E+04  0.41329625028E+04  0.39175145325E+04 0.  0.
        4    1    3    3  502    0  0.15277366658E+04  0.31474799239E+03  0.59143468683E+03  0.16681853076E+04  0.12699999809E+01 0.  1.
       -4    1    3    3    0  502 -0.15277366658E+04 -0.31474799239E+03 -0.19084232732E+04  0.24647771951E+04  0.12699999809E+01 0. -1.
</event>
<event>
 5   0  0.8476262E-08  0.3885982E+04  0.7818609E-02  0.8027951E-01
       -2   -1    0    0    0  501  0.00000000000E+00  0.00000000000E+00  0.21397454364E+04  0.21397454364E+04  0.25500000920E-02 0.  1.
        2   -1    0    0  501    0  0.00000000000E+00  0.00000000000E+00 -0.17643284074E+04  0.17643284074E+04  0.25500000920E-02 0. -1.
    10030    2    1    2    0    0  0.00000000000E+00  0.00000000000E+00  0.37541702904E+03  0.39040738438E+04  0.38859818106E+04 0.  0.
        2    1    3    3  502    0 -0.10807063614E+04 -0.69991559028E+02 -0.14329941049E+04  0.17961896232E+04  0.25500000920E-02 0. -1.
       -2    1    3    3    0  502  0.10807063614E+04  0.69991559028E+02  0.18084111339E+04  0.21078842206E+04  0.25500000920E-02 0.  1.
</event>
<event>
 5   0  0.8476262E-08  0.3877245E+04  0.7818609E-02  0.8029779E-01
       -2   -1    0    0    0  501  0.00000000000E+00  0.00000000000E+00  0.16781735910E+04  0.16781735910E+04  0.25500000920E-02 0. -1.
        2   -1    0    0  501    0  0.00000000000E+00  0.00000000000E+00 -0.22394922421E+04  0.22394922421E+04  0.25500000920E-02 0.  1.
    10030    2    1    2    0    0  0.00000000000E+00  0.00000000000E+00 -0.56131865115E+03  0.39176658331E+04  0.38772447630E+04 0.  0.
        2    1    3    3  502    0  0.97895262612E+02  0.17439189101E+04  0.56919182304E+03  0.18370672222E+04  0.25500000920E-02 0. -1.
       -2    1    3    3    0  502 -0.97895262612E+02 -0.17439189101E+04 -0.11305104742E+04  0.20805986109E+04  0.25500000920E-02 0.  1.
</event>
<event>
 5   0  0.2632875E-08  0.3901619E+04  0.7818609E-02  0.8024692E-01
       -1   -1    0    0    0  501  0.00000000000E+00  0.00000000000E+00  0.20173557368E+04  0.20173557368E+04  0.50400001928E-02 0.  1.
        1   -1    0    0  501    0  0.00000000000E+00  0.00000000000E+00 -0.18864588586E+04  0.18864588586E+04  0.50400001928E-02 0. -1.
    10030    2    1    2    0    0  0.00000000000E+00  0.00000000000E+00  0.13089687820E+03  0.39038145955E+04  0.39016194590E+04 0.  0.
        4    1    3    3  502    0 -0.12860552463E+03 -0.10811358421E+04  0.16850817809E+04  0.20062144230E+04  0.12699999809E+01 0.  1.
       -4    1    3    3    0  502  0.12860552463E+03  0.10811358421E+04 -0.15541849027E+04  0.18976001725E+04  0.12699999809E+01 0. -1.
</event>
<event>
 5   0  0.8476262E-08  0.3886241E+04  0.7818609E-02  0.8027897E-01
        2   -1    0    0  501    0  0.00000000000E+00  0.00000000000E+00  0.17217814762E+04  0.17217814762E+04  0.25500000920E-02 0. -1.
       -2   -1    0    0    0  501  0.00000000000E+00  0.00000000000E+00 -0.21929128388E+04  0.21929128388E+04  0.25500000920E-02 0.  1.
    10030    2    1    2    0    0  0.00000000000E+00  0.00000000000E+00 -0.47113136266E+03  0.39146943150E+04  0.38862407052E+04 0.  0.
        2    1    3    3  502    0  0.16132449755E+03  0.13573875626E+04  0.11555561061E+04  0.17899263960E+04  0.25500000920E-02 0. -1.
       -2    1    3    3    0  502 -0.16132449755E+03 -0.13573875626E+04 -0.16266874688E+04  0.21247679190E+04  0.25500000920E-02 0.  1.
</event>
<event>
 5   0  0.8438211E-08  0.3905054E+04  0.7818609E-02  0.8023979E-01
       -2   -1    0    0    0  501  0.00000000000E+00  0.00000000000E+00  0.10433353541E+04  0.10433353541E+04  0.25500000920E-02 0.  1.
        2   -1    0    0  501    0  0.00000000000E+00  0.00000000000E+00 -0.36540128996E+04  0.36540128996E+04  0.25500000920E-02 0. -1.
    10030    2    1    2    0    0  0.00000000000E+00  0.00000000000E+00 -0.26106775455E+04  0.46973482538E+04  0.39050535682E+04 0.  0.
        5    1    3    3  502    0 -0.18583178850E+04 -0.57632861030E+03 -0.15024025006E+04  0.24581975903E+04  0.46999998093E+01 0. -1.
       -5    1    3    3    0  502  0.18583178850E+04  0.57632861030E+03 -0.11082750449E+04  0.22391506635E+04  0.46999998093E+01 0.  1.
</event>
<event>
 5   0  0.8438211E-08  0.3903160E+04  0.7818609E-02  0.8024372E-01
        2   -1    0    0  501    0  0.00000000000E+00  0.00000000000E+00  0.18541413332E+04  0.18541413332E+04  0.25500000920E-02 0.  1.
       -2   -1    0    0    0  501  0.00000000000E+00  0.00000000000E+00 -0.20541390795E+04  0.20541390795E+04  0.25500000920E-02 0. -1.
    10030    2    1    2    0    0  0.00000000000E+00  0.00000000000E+00 -0.19999774629E+03  0.39082804127E+04  0.39031598335E+04 0.  0.
        5    1    3    3  502    0 -0.24574613818E+03  0.19232837412E+04  0.12217183713E+03  0.19427711037E+04  0.46999998093E+01 0. -1.
       -5    1    3    3    0  502  0.24574613818E+03 -0.19232837412E+04 -0.32216958341E+03  0.19655093090E+04  0.46999998093E+01 0.  1.
</event>
<event>
 5   0  0.8676098E-08  0.4020300E+04  0.7818609E-02  0.8000464E-01
        2   -1    0    0  501    0  0.00000000000E+00  0.00000000000E+00  0.14378565042E+04  0.14378565042E+04  0.25500000920E-02 0.  1.
       -2   -1    0    0    0  501  0.00000000000E+00  0.00000000000E+00 -0.28102274734E+04  0.28102274734E+04  0.25500000920E-02 0. -1.
    10030    2    1    2    0    0  0.00000000000E+00  0.00000000000E+00 -0.13723709692E+04  0.42480839777E+04  0.40203004122E+04 0.  0.
        3    1    3    3  502    0 -0.58604603397E+02 -0.65553657983E+03 -0.26931524906E+04  0.27724056440E+04  0.10100000352E+00 0. -1.
       -3    1    3    3    0  502  0.58604603397E+02  0.65553657983E+03  0.13207815214E+04  0.14756783337E+04  0.10100000352E+00 0.  1.
</event>
<event>
 5   0  0.2632875E-08  0.3904203E+04  0.7818609E-02  0.8024156E-01
        1   -1    0    0  501    0  0.00000000000E+00  0.00000000000E+00  0.15769148644E+04  0.15769148644E+04  0.50400001928E-02 0.  1.
       -1   -1    0    0    0  501  0.00000000000E+00  0.00000000000E+00 -0.24165543292E+04  0.24165543292E+04  0.50400001928E-02 0. -1.
    10030    2    1    2    0    0  0.00000000000E+00  0.00000000000E+00 -0.83963946482E+03  0.39934691936E+04  0.39042030901E+04 0.  0.
        5    1    3    3  502    0 -0.15972843880E+04  0.47565025451E+03 -0.14594833678E+04  0.22153271478E+04  0.46999998093E+01 0.  1.
       -5    1    3    3    0  502  0.15972843880E+04 -0.47565025451E+03  0.61984390302E+03  0.17781420458E+04  0.46999998093E+01 0. -1.
</event>
<event>
 5   0  0.2632875E-08  0.3896506E+04  0.7818609E-02  0.8025756E-01
       -1   -1    0    0    0  501  0.00000000000E+00  0.00000000000E+00  0.25739851659E+04  0.25739851659E+04  0.50400001928E-02 0.  1.
        1   -1    0    0  501    0  0.00000000000E+00  0.00000000000E+00 -0.14746351341E+04  0.14746351341E+04  0.50400001928E-02 0. -1.
    10030    2    1    2    0    0  0.00000000000E+00  0.00000000000E+00  0.10993500317E+04  0.40486203000E+04  0.38965055937E+04 0.  0.
        1    1    3    3  502    0  0.18420161425E+04  0.57156127666E+03  0.26326346508E+03  0.19465388294E+04  0.50400001928E-02 0. -1.
       -1    1    3    3    0  502 -0.18420161425E+04 -0.57156127666E+03  0.83608656664E+03  0.21020814706E+04  0.50400001928E-02 0.  1.
</event>
<event>
 5   0  0.8676098E-08  0.3878013E+04  0.7818609E-02  0.8029618E-01
        2   -1    0    0  501    0  0.00000000000E+00  0.00000000000E+00  0.12287407396E+04  0.12287407396E+04  0.25500000920E-02 0. -1.
       -2   -1    0    0    0  501  0.00000000000E+00  0.00000000000E+00 -0.30598367473E+04  0.30598367473E+04  0.25500000920E-02 0.  1.
    10030    2    1    2    0    0  0.00000000000E+00  0.00000000000E+00 -0.18310960077E+04  0.42885774870E+04  0.38780129283E+04 0.  0.
        3    1    3    3  502    0 -0.86894121637E+03  0.99401103708E+03  0.65487642720E+03  0.14737638632E+04  0.10100000352E+00 0. -1.
       -3    1    3    3    0  502  0.86894121637E+03 -0.99401103708E+03 -0.24859724349E+04  0.28148136238E+04  0.10100000352E+00 0.  1.
</event>
<event>
 5   0  0.2632875E-08  0.3890036E+04  0.7818609E-02  0.8027105E-01
        1   -1    0    0  501    0  0.00000000000E+00  0.00000000000E+00  0.27753808453E+04  0.27753808453E+04  0.50400001928E-02 0. -1.
       -1   -1    0    0    0  501  0.00000000000E+00  0.00000000000E+00 -0.13630902538E+04  0.13630902539E+04  0.50400001928E-02 0.  1.
    10030    2    1    2    0    0  0.00000000000E+00  0.00000000000E+00  0.14122905915E+04  0.41384710992E+04  0.38900357741E+04 0.  0.
        2    1    3    3  502    0  0.15094139678E+03  0.17296519897E+04  0.16388428451E+04  0.23875270012E+04  0.25500000920E-02 0.  1.
       -2    1    3    3    0  502 -0.15094139678E+03 -0.17296519897E+04 -0.22655225361E+03  0.17509440980E+04  0.25500000920E-02 0. -1.
</event>
<event>
 5   0  0.8342802E-08  0.3906466E+04  0.7818609E-02  0.8023686E-01
       -2   -1    0    0    0  501  0.00000000000E+00  0.00000000000E+00  0.13204828500E+04  0.13204828500E+04  0.25500000920E-02 0.  1.
        2   -1    0    0  501    0  0.00000000000E+00  0.00000000000E+00 -0.28891853472E+04  0.28891853472E+04  0.25500000920E-02 0. -1.
    10030    2    1    2    0    0  0.00000000000E+00  0.00000000000E+00 -0.15687024972E+04  0.42096681972E+04  0.39064662811E+04 0.  0.
        4    1    3    3  502    0 -0.10587712261E+04  0.19520322518E+03 -0.25405725260E+04  0.27592772933E+04  0.12699999809E+01 0. -1.
       -4    1    3    3    0  502  0.10587712261E+04 -0.19520322518E+03  0.97187002884E+03  0.14503909039E+04  0.12699999809E+01 0.  1.
</event>
<event>
 5   0  0.2632875E-08  0.3862352E+04  0.7818609E-02  0.8032905E-01
       -1   -1    0    0    0  501  0.00000000000E+00  0.00000000000E+00  0.20800488770E+04  0.20800488770E+04  0.50400001928E-02 0.  1.
        1   -1    0    0  501    0  0.00000000000E+00  0.00000000000E+00 -0.17929586534E+04  0.17929586534E+04  0.50400001928E-02 0. -1.
    10030    2    1    2    0    0  0.00000000000E+00  0.00000000000E+00  0.28709022361E+03  0.38730075305E+04  0.38623524612E+04 0.  0.
        4    1    3    3  502    0  0.17133759269E+04 -0.22381551695E+03 -0.72120829805E+03  0.18724031282E+04  0.12699999809E+01 0. -1.
       -4    1    3    3    0  502 -0.17133759269E+04  0.22381551695E+03  0.10082985217E+04  0.20006044022E+04  0.12699999809E+01 0.  1.
</event>
<event>
 5   0  0.8342802E-08  0.3888049E+04  0.7818609E-02  0.8027519E-01
        2   -1    0    0  501    0  0.00000000000E+00  0.00000000000E+00  0.17510511195E+04  0.17510511195E+04  0.25500000920E-02 0.  1.
       -2   -1    0    0    0  501  0.00000000000E+00  0.00000000000E+00 -0.21582640215E+04  0.21582640215E+04  0.25500000920E-02 0. -1.
    10030    2    1    2    0    0  0.00000000000E+00  0.00000000000E+00 -0.40721290207E+03  0.39093151410E+04  0.38880486782E+04 0.  0.
        4    1    3    3  502    0  0.30952567179E+03 -0.18547184998E+03 -0.21242965270E+04  0.21547258054E+04  0.12699999809E+01 0. -1.
       -4    1    3    3    0  502 -0.30952567179E+03  0.18547184998E+03  0.17170836250E+04  0.17545893356E+04  0.12699999809E+01 0.  1.
</event>
<event>
 5   0  0.8551754E-08  0.3908004E+04  0.7818609E-02  0.8023367E-01
       -2   -1    0    0    0  501  0.00000000000E+00  0.00000000000E+00  0.13794501397E+04  0.13794501397E+04  0.25500000920E-02 0.  1.
        2   -1    0    0  501    0  0.00000000000E+00  0.00000000000E+00 -0.27678587488E+04  0.27678587488E+04  0.25500000920E-02 0. -1.
    10030    2    1    2    0    0  0.00000000000E+00  0.00000000000E+00 -0.13884086090E+04  0.41473088885E+04  0.39080036529E+04 0.  0.
        1    1    3    3  502    0 -0.39617380427E+03  0.17958724225E+04 -0.13949500853E+04  0.23082454769E+04  0.50400001928E-02 0. -1.
       -1    1    3    3    0  502  0.39617380427E+03 -0.17958724225E+04  0.65414762906E+01  0.18390634116E+04  0.50400001928E-02 0.  1.
</event>
<event>
 5   0  0.8476262E-08  0.3898246E+04  0.7818609E-02  0.8025394E-01
       -2   -1    0    0    0  501  0.00000000000E+00  0.00000000000E+00  0.19939254386E+04  0.19939254386E+04  0.25500000920E-02 0. -1.
        2   -1    0    0  501    0  0.00000000000E+00  0.00000000000E+00 -0.19053267814E+04  0.19053267815E+04  0.25500000920E-02 0.  1.
    10030    2    1    2    0    0  0.00000000000E+00  0.00000000000E+00  0.88598657140E+02  0.38992522200E+04  0.38982455225E+04 0.  0.
        2    1    3    3  502    0  0.15385237716E+04  0.97788647329E+03 -0.64563396156E+03  0.19339494727E+04  0.25500000920E-02 0.  1.
       -2    1    3    3    0  502 -0.15385237716E+04 -0.97788647329E+03  0.73423261870E+03  0.19653027474E+04  0.25500000920E-02 0. -1.
</event>
<event>
 5   0  0.2632875E-08  0.3890367E+04  0.7818609E-02  0.8027036E-01
        1   -1    0    0  501    0  0.00000000000E+00  0.00000000000E+00  0.15389052165E+04  0.15389052165E+04  0.50400001928E-02 0.  1.
       -1   -1    0    0    0  501  0.00000000000E+00  0.00000000000E+00 -0.24587214058E+04  0.24587214058E+04  0.50400001928E-02 0. -1.
    10030    2    1    2    0    0  0.00000000000E+00  0.00000000000E+00 -0.91981618928E+03  0.39976266222E+04  0.38903671792E+04 0.  0.
        3    1    3    3  502    0  0.99160038968E+03  0.92928632254E+03 -0.18900023130E+04  0.23278645054E+04  0.10100000352E+00 0. -1.
       -3    1    3    3    0  502 -0.99160038968E+03 -0.92928632254E+03  0.97018612371E+03  0.16697621169E+04  0.10100000352E+00 0.  1.
</event>
<event>
 5   0  0.2632875E-08  0.3903605E+04  0.7818609E-02  0.8024280E-01
        1   -1    0    0  501    0  0.00000000000E+00  0.00000000000E+00  0.20573993160E+04  0.20573993160E+04  0.50400001928E-02 0.  1.
       -1   -1    0    0    0  501  0.00000000000E+00  0.00000000000E+00 -0.18516259149E+04  0.18516259149E+04  0.50400001928E-02 0. -1.
    10030    2    1    2    0    0  0.00000000000E+00  0.00000000000E+00  0.20577340108E+03  0.39090252309E+04  0.39036054569E+04 0.  0.
        1    1    3    3  502    0 -0.12258779150E+04  0.11050056843E+04 -0.94053871113E+03  0.18995860844E+04  0.50400001928E-02 0.  1.
       -1    1    3    3    0  502  0.12258779150E+04 -0.11050056843E+04  0.11463121122E+04  0.20094391465E+04  0.50400001928E-02 0. -1.
</event>
<event>
 5   0  0.2632875E-08  0.3907867E+04  0.7818609E-02  0.8023395E-01
       -1   -1    0    0    0  501  0.00000000000E+00  0.00000000000E+00  0.15338711330E+04  0.15338711330E+04  0.50400001928E-02 0. -1.
        1   -1    0    0  501    0  0.00000000000E+00  0.00000000000E+00 -0.24890329732E+04  0.24890329732E+04  0.50400001928E-02 0.  1.
    10030    2    1    2    0    0  0.00000000000E+00  0.00000000000E+00 -0.95516184024E+03  0.40229041062E+04  0.39078668486E+04 0.  0.
        2    1    3    3  502    0 -0.23493651789E+03  0.22171765592E+03 -0.24613528935E+04  0.24824608663E+04  0.25500000920E-02 0.  1.
       -2    1    3    3    0  502  0.23493651789E+03 -0.22171765592E+03  0.15061910533E+04  0.15404432399E+04  0.25500000920E-02 0. -1.
</event>
<event>
 5   0  0.8476262E-08  0.3920372E+04  0.7818609E-02  0.8020805E-01
        2   -1    0    0  501    0  0.00000000000E+00  0.00000000000E+00  0.23538219518E+04  0.23538219519E+04  0.25500000920E-02 0.  1.
       -2   -1    0    0    0  501  0.00000000000E+00  0.00000000000E+00 -0.16323791955E+04  0.16323791955E+04  0.25500000920E-02 0. -1.
    10030    2    1    2    0    0  0.00000000000E+00  0.00000000000E+00  0.72144275638E+03  0.39862011473E+04  0.39203724231E+04 0.  0.
        2    1    3    3  502    0 -0.10655598944E+03  0.75774661482E+03  0.21956837111E+04  0.23252012967E+04  0.25500000920E-02 0.  1.
       -2    1    3    3    0  502  0.10655598944E+03 -0.75774661482E+03 -0.14742409547E+04  0.16609998506E+04  0.25500000920E-02 0. -1.
</event>
<event>
 5   0  0.8438211E-08  0.3882751E+04  0.7818609E-02  0.8028626E-01
        2   -1    0    0  501    0  0.00000000000E+00  0.00000000000E+00  0.23030972701E+04  0.23030972701E+04  0.25500000920E-02 0. -1.
       -2   -1    0    0    0  501  0.00000000000E+00  0.00000000000E+00 -0.16364654343E+04  0.16364654343E+04  0.25500000920E-02 0.  1.
    10030    2    1    2    0    0  0.00000000000E+00  0.00000000000E+00  0.66663183577E+03  0.39395627043E+04  0.38827511248E+04 0.  0.
        5    1    3    3  502    0 -0.14352988545E+04 -0.10052423574E+04 -0.51456784943E+03  0.18263069732E+04  0.46999998093E+01 0.  1.
       -5    1    3    3    0  502  0.14352988545E+04  0.10052423574E+04  0.11811996852E+04  0.21132557311E+04  0.46999998093E+01 0. -1.
</event>
<event>
 5   0  0.2632875E-08  0.3884617E+04  0.7818609E-02  0.8028236E-01
       -1   -1    0    0    0  501  0.00000000000E+00  0.00000000000E+00  0.16358562228E+04  0.16358562228E+04  0.50400001928E-02 0. -1.
        1   -1    0    0  501    0  0.00000000000E+00  0.00000000000E+00 -0.23061695584E+04  0.23061695584E+04  0.50400001928E-02 0.  1.
    10030    2    1    2    0    0  0.00000000000E+00  0.00000000000E+00 -0.67031333567E+03  0.39420257812E+04  0.38846167497E+04 0.  0.
        1    1    3    3  502    0  0.14157372960E+04 -0.57084197085E+02  0.10130067701E+04  0.17417673247E+04  0.50400001928E-02 0. -1.
       -1    1    3    3    0  502 -0.14157372960E+04  0.57084197085E+02 -0.16833201058E+04  0.22002584565E+04  0.50400001928E-02 0.  1.
</event>
<event>
 5   0  0.8551754E-08  0.3929318E+04  0.7818609E-02  0.8018959E-01
       -2   -1    0    0    0  501  0.00000000000E+00  0.00000000000E+00  0.12830958676E+04  0.12830958676E+04  0.25500000920E-02 0.  1.
        2   -1    0    0  501    0  0.00000000000E+00  0.00000000000E+00 -0.30082585030E+04  0.30082585030E+04  0.25500000920E-02 0. -1.
    10030    2    1    2    0    0  0.00000000000E+00  0.00000000000E+00 -0.17251626355E+04  0.42913543706E+04  0.39293175254E+04 0.  0.
        1    1    3    3  502    0  0.17957316477E+04  0.60142333578E+03 -0.14337617039E+04  0.23752967821E+04  0.50400001928E-02 0. -1.
       -1    1    3    3    0  502 -0.17957316477E+04 -0.60142333578E+03 -0.29140093160E+03  0.19160575885E+04  0.50400001928E-02 0.  1.
</event>
<event>
 5   0  0.2632875E-08  0.3897278E+04  0.7818609E-02  0.8025596E-01
        1   -1    0    0  501    0  0.00000000000E+00  0.00000000000E+00  0.22358327672E+04  0.22358327672E+04  0.50400001928E-02 0.  1.
       -1   -1    0    0    0  501  0.00000000000E+00  0.00000000000E+00 -0.16983354526E+04  0.16983354526E+04  0.50400001928E-02 0. -1.
    10030    2    1    2    0    0  0.00000000000E+00  0.00000000000E+00  0.53749731465E+03  0.39341682198E+04  0.38972780525E+04 0.  0.
        1    1    3    3  502    0 -0.29485029848E+03 -0.17146977910E+04  0.11545907437E+04  0.20881103894E+04  0.50400001928E-02 0.  1.
       -1    1    3    3    0  502  0.29485029848E+03  0.17146977910E+04 -0.61709342903E+03  0.18460578304E+04  0.50400001928E-02 0. -1.
</event>
<event>
 5   0  0.8438211E-08  0.3867746E+04  0.7818609E-02  0.8031771E-01
        2   -1    0    0  501    0  0.00000000000E+00  0.00000000000E+00  0.20457975726E+04  0.20457975726E+04  0.25500000920E-02 0.  1.
       -2   -1    0    0    0  501  0.00000000000E+00  0.00000000000E+00 -0.18280719040E+04  0.18280719040E+04  0.25500000920E-02 0. -1.
    10030    2    1    2    0    0  0.00000000000E+00  0.00000000000E+00  0.21772566858E+03  0.38738694765E+04  0.38677461466E+04 0.  0.
        5    1    3    3  502    0  0.18877130703E+03  0.44245874766E+02 -0.18183067461E+04  0.18286207417E+04  0.46999998093E+01 0. -1.
       -5    1    3    3    0  502 -0.18877130703E+03 -0.44245874766E+02  0.20360324147E+04  0.20452487349E+04  0.46999998093E+01 0.  1.
</event>
<event>
 5   0  0.8551754E-08  0.3906282E+04  0.7818609E-02  0.8023724E-01
        2   -1    0    0  501    0  0.00000000000E+00  0.00000000000E+00  0.14736773957E+04  0.14736773957E+04  0.25500000920E-02 0.  1.
       -2   -1    0    0    0  501  0.00000000000E+00  0.00000000000E+00 -0.25885995877E+04  0.25885995877E+04  0.25500000920E-02 0. -1.
    10030    2    1    2    0    0  0.00000000000E+00  0.00000000000E+00 -0.11149221920E+04  0.40622769834E+04  0.39062824777E+04 0.  0.
        1    1    3    3  502    0 -0.15283885011E+04  0.12054750782E+04 -0.39100947524E+03  0.19854546039E+04  0.50400001928E-02 0. -1.
       -1    1    3    3    0  502  0.15283885011E+04 -0.12054750782E+04 -0.72391271675E+03  0.20768223795E+04  0.50400001928E-02 0.  1.
</event>
<event>
 5   0  0.8438211E-08  0.3893653E+04  0.7818609E-02  0.8026351E-01
        2   -1    0    0  501    0  0.00000000000E+00  0.00000000000E+00  0.24620563368E+04  0.24620563368E+04  0.25500000920E-02 0. -1.
       -2   -1    0    0    0  501  0.00000000000E+00  0.00000000000E+00 -0.15394177693E+04  0.15394177693E+04  0.25500000920E-02 0.  1.
    10030    2    1    2    0    0  0.00000000000E+00  0.00000000000E+00  0.92263856756E+03  0.40014741061E+04  0.38936529244E+04 0.  0.
        5    1    3    3  502    0 -0.17905061794E+03 -0.87992278919E+03 -0.13138785202E+04  0.15914214070E+04  0.46999998093E+01 0.  1.
       -5    1    3    3    0  502  0.17905061794E+03  0.87992278919E+03  0.22365170878E+04  0.24100526991E+04  0.46999998093E+01 0. -1.
</event>
<event>
 5   0  0.8438211E-08  0.3905977E+04  0.7818609E-02  0.8023787E-01
        2   -1    0    0  501    0  0.00000000000E+00  0.00000000000E+00  0.26114763581E+04  0.26114763581E+04  0.25500000920E-02 0.  1.
       -2   -1    0    0    0  501  0.00000000000E+00  0.00000000000E+00 -0.14605392005E+04  0.14605392005E+04  0.25500000920E-02 0. -1.
    10030    2    1    2    0    0  0.00000000000E+00  0.00000000000E+00  0.11509371577E+04  0.40720155586E+04  0.39059767496E+04 0.  0.
        5    1    3    3  502    0  0.10213919615E+04  0.72074911657E+03 -0.98878839475E+03  0.15938774757E+04  0.46999998093E+01 0. -1.
       -5    1    3    3    0  502 -0.10213919615E+04 -0.72074911657E+03  0.21397255524E+04  0.24781380829E+04  0.46999998093E+01 0.  1.
</event>
<event>
 5   0  0.2632875E-08  0.3898977E+04  0.7818609E-02  0.8025242E-01
        1   -1    0    0  501    0  0.00000000000E+00  0.00000000000E+00  0.13922118992E+04  0.13922118992E+04  0.50400001928E-02 0.  1.
       -1   -1    0    0    0  501  0.00000000000E+00  0.00000000000E+00 -0.27298326428E+04  0.27298326428E+04  0.50400001928E-02 0. -1.
    10030    2    1    2    0    0  0.00000000000E+00  0.00000000000E+00 -0.13376207437E+04  0.41220445420E+04  0.38989770392E+04 0.  0.
        2    1    3    3  502    0 -0.19785391760E+01  0.60881044211E+03  0.12891308777E+04  0.14256621230E+04  0.25500000920E-02 0.  1.
       -2    1    3    3    0  502  0.19785391760E+01 -0.60881044211E+03 -0.26267516214E+04  0.26963824190E+04  0.25500000920E-02 0. -1.
</event>
<event>
 5   0  0.8551754E-08  0.3769998E+04  0.7818609E-02  0.8052624E-01
       -2   -1    0    0    0  501  0.00000000000E+00  0.00000000000E+00  0.19006103749E+04  0.19006103749E+04  0.25500000920E-02 0.  1.
        2   -1    0    0  501    0  0.00000000000E+00  0.00000000000E+00 -0.18695157521E+04  0.18695157521E+04  0.25500000920E-02 0. -1.
    10030    2    1    2    0    0  0.00000000000E+00  0.00000000000E+00  0.31094622788E+02  0.37701261269E+04  0.37699978962E+04 0.  0.
        1    1    3    3  502    0  0.17051587667E+04  0.79920492933E+03 -0.67678686811E+02  0.18843766458E+04  0.50400001928E-02 0. -1.
       -1    1    3    3    0  502 -0.17051587667E+04 -0.79920492933E+03  0.98773309598E+02  0.18857494811E+04  0.50400001928E-02 0.  1.
</event>
<event>
 5   0  0.2632875E-08  0.3844933E+04  0.7818609E-02  0.8036581E-01
       -1   -1    0    0    0  501  0.00000000000E+00  0.00000000000E+00  0.14713684026E+04  0.14713684026E+04  0.50400001928E-02 0.  1.
        1   -1    0    0  501    0  0.00000000000E+00  0.00000000000E+00 -0.25118642874E+04  0.25118642874E+04  0.50400001928E-02 0. -1.
    10030    2    1    2    0    0  0.00000000000E+00  0.00000000000E+00 -0.10404958848E+04  0.39832326900E+04  0.38449331563E+04 0.  0.
        2    1    3    3  502    0 -0.59659066390E+03 -0.34908800525E+03 -0.23786783648E+04  0.24770735998E+04  0.25500000920E-02 0. -1.
       -2    1    3    3    0  502  0.59659066390E+03  0.34908800525E+03  0.13381824799E+04  0.15061590903E+04  0.25500000920E-02 0.  1.
</event>
<event>
 5   0  0.8342802E-08  0.3957713E+04  0.7818609E-02  0.8013132E-01
       -2   -1    0    0    0  501  0.00000000000E+00  0.00000000000E+00  0.27956939179E+04  0.27956939179E+04  0.25500000920E-02 0. -1.
        2   -1    0    0  501    0  0.00000000000E+00  0.00000000000E+00 -0.14006798366E+04  0.14006798366E+04  0.25500000920E-02 0.  1.
    10030    2    1    2    0    0  0.00000000000E+00  0.00000000000E+00  0.13950140813E+04  0.41963737545E+04  0.39577125213E+04 0.  0.
        4    1    3    3  502    0 -0.15935199311E+04 -0.38065399439E+02 -0.54586055335E+03  0.16848501720E+04  0.12699999809E+01 0.  1.
       -4    1    3    3    0  502  0.15935199311E+04  0.38065399439E+02  0.19408746346E+04  0.25115235825E+04  0.12699999809E+01 0. -1.
</event>
<event>
 5   0  0.2632875E-08  0.3934174E+04  0.7818609E-02  0.8017959E-01
        1   -1    0    0  501    0  0.00000000000E+00  0.00000000000E+00  0.24232315766E+04  0.24232315766E+04  0.50400001928E-02 0. -1.
       -1   -1    0    0    0  501  0.00000000000E+00  0.00000000000E+00 -0.15968064538E+04  0.15968064538E+04  0.50400001928E-02 0.  1.
    10030    2    1    2    0    0  0.00000000000E+00  0.00000000000E+00  0.82642512286E+03  0.40200380304E+04  0.39341742821E+04 0.  0.
        3    1    3    3  502    0 -0.31930786587E+03  0.31269624199E+03 -0.15442414738E+04  0.16076125754E+04  0.10100000352E+00 0.  1.
       -3    1    3    3    0  502  0.31930786587E+03 -0.31269624199E+03  0.23706665967E+04  0.24124254550E+04  0.10100000352E+00 0. -1.
</event>
<event>
 5   0  0.8676098E-08  0.3874005E+04  0.7818609E-02  0.8030457E-01
       -2   -1    0    0    0  501  0.00000000000E+00  0.00000000000E+00  0.16401005281E+04  0.16401005281E+04  0.25500000920E-02 0. -1.
        2   -1    0    0  501    0  0.00000000000E+00  0.00000000000E+00 -0.22876520004E+04  0.22876520004E+04  0.25500000920E-02 0.  1.
    10030    2    1    2    0    0  0.00000000000E+00  0.00000000000E+00 -0.64755147231E+03  0.39277525285E+04  0.38740052938E+04 0.  0.
        3    1    3    3  502    0  0.75210987821E+03 -0.37660907721E+03  0.14452744531E+04  0.16722206555E+04  0.10100000352E+00 0. -1.
       -3    1    3    3    0  502 -0.75210987821E+03  0.37660907721E+03 -0.20928259254E+04  0.22555318730E+04  0.10100000352E+00 0.  1.
</event>
<event>
 5   0  0.2632875E-08  0.3956654E+04  0.7818609E-02  0.8013348E-01
       -1   -1    0    0    0  501  0.00000000000E+00  0.00000000000E+00  0.21077022008E+04  0.21077022008E+04  0.50400001928E-02 0.  1.
        1   -1    0    0  501    0  0.00000000000E+00  0.00000000000E+00 -0.18568930355E+04  0.18568930355E+04  0.50400001928E-02 0. -1.
    10030    2    1    2    0    0  0.00000000000E+00  0.00000000000E+00  0.25080916523E+03  0.39645952363E+04  0.39566539083E+04 0.  0.
        4    1    3    3  502    0 -0.31827292624E+03 -0.10805401327E+04  0.17549870604E+04  0.20853886518E+04  0.12699999809E+01 0.  1.
       -4    1    3    3    0  502  0.31827292624E+03  0.10805401327E+04 -0.15041778952E+04  0.18792065845E+04  0.12699999809E+01 0. -1.
</event>
<event>
 5   0  0.8551754E-08  0.3890923E+04  0.7818609E-02  0.8026920E-01
        2   -1    0    0  501    0  0.00000000000E+00  0.00000000000E+00  0.16877146502E+04  0.16877146502E+04  0.25500000920E-02 0.  1.
       -2   -1    0    0    0  501  0.00000000000E+00  0.00000000000E+00 -0.22425713978E+04  0.22425713978E+04  0.25500000920E-02 0. -1.
    10030    2    1    2    0    0  0.00000000000E+00  0.00000000000E+00 -0.55485674758E+03  0.39302860480E+04  0.38909230792E+04 0.  0.
        1    1    3    3  502    0 -0.79803889450E+03  0.14475042585E+04 -0.13138129166E+04  0.21114542465E+04  0.50400001928E-02 0. -1.
       -1    1    3    3    0  502  0.79803889450E+03 -0.14475042585E+04  0.75895616901E+03  0.18188318014E+04  0.50400001928E-02 0.  1.
</event>
<event>
 5   0  0.2632875E-08  0.3904923E+04  0.7818609E-02  0.8024006E-01
       -1   -1    0    0    0  501  0.00000000000E+00  0.00000000000E+00  0.18093807659E+04  0.18093807659E+04  0.50400001928E-02 0. -1.
        1   -1    0    0  501    0  0.00000000000E+00  0.00000000000E+00 -0.21068567518E+04  0.21068567518E+04  0.50400001928E-02 0.  1.
    10030    2    1    2    0    0  0.00000000000E+00  0.00000000000E+00 -0.29747598588E+03  0.39162375176E+04  0.39049230892E+04 0.  0.
        5    1    3    3  502    0  0.40007024761E+03  0.53815236331E+02  0.17670670346E+04  0.18125949016E+04  0.46999998093E+01 0. -1.
       -5    1    3    3    0  502 -0.40007024761E+03 -0.53815236331E+02 -0.20645430204E+04  0.21036426160E+04  0.46999998093E+01 0.  1.
</event>
<event>
 5   0  0.2632875E-08  0.3838729E+04  0.7818609E-02  0.8037895E-01
       -1   -1    0    0    0  501  0.00000000000E+00  0.00000000000E+00  0.18450826914E+04  0.18450826914E+04  0.50400001928E-02 0. -1.
        1   -1    0    0  501    0  0.00000000000E+00  0.00000000000E+00 -0.19966363587E+04  0.19966363587E+04  0.50400001928E-02 0.  1.
    10030    2    1    2    0    0  0.00000000000E+00  0.00000000000E+00 -0.15155366722E+03  0.38417190501E+04  0.38387285324E+04 0.  0.
        4    1    3    3  502    0 -0.26847351686E+02  0.42184969549E+03 -0.19494745817E+04  0.19947758529E+04  0.12699999809E+01 0.  1.
       -4    1    3    3    0  502  0.26847351686E+02 -0.42184969549E+03  0.17979209145E+04  0.18469431972E+04  0.12699999809E+01 0. -1.
</event>
<event>
 5   0  0.8676098E-08  0.3897714E+04  0.7818609E-02  0.8025505E-01
        2   -1    0    0  501    0  0.00000000000E+00  0.00000000000E+00  0.24905536837E+04  0.24905536837E+04  0.25500000920E-02 0. -1.
       -2   -1    0    0    0  501  0.00000000000E+00  0.00000000000E+00 -0.15249793546E+04  0.15249793546E+04  0.25500000920E-02 0.  1.
    10030    2    1    2    0    0  0.00000000000E+00  0.00000000000E+00  0.96557432906E+03  0.40155330383E+04  0.38977136627E+04 0.  0.
        3    1    3    3  502    0 -0.13378200131E+03 -0.23598456053E+02 -0.15200955909E+04  0.15261537035E+04  0.10100000352E+00 0.  1.
       -3    1    3    3    0  502  0.13378200131E+03  0.23598456053E+02  0.24856699200E+04  0.24893793348E+04  0.10100000352E+00 0. -1.
</event>
<event>
 5   0  0.2632875E-08  0.3914909E+04  0.7818609E-02  0.8021935E-01
       -3   -1    0    0    0  501  0.00000000000E+00  0.00000000000E+00  0.28004697268E+04  0.28004697286E+04  0.10100000352E+00 0.  1.
        3   -1    0    0  501    0  0.00000000000E+00  0.00000000000E+00 -0.13682094081E+04  0.13682094118E+04  0.10100000352E+00 0. -1.
    10030    2    1    2    0    0  0.00000000000E+00  0.00000000000E+00  0.14322603187E+04  0.41686791404E+04  0.39149094697E+04 0.  0.
        3    1    3    3  502    0  0.18462096630E+04 -0.22586517901E+03  0.13656919741E+04  0.23075137653E+04  0.10100000352E+00 0.  1.
       -3    1    3    3    0  502 -0.18462096630E+04  0.22586517901E+03  0.66568344522E+02  0.18611653751E+04  0.10100000352E+00 0. -1.
</event>
<event>
 5   0  0.2632875E-08  0.3883299E+04  0.7818609E-02  0.8028512E-01
       -1   -1    0    0    0  501  0.00000000000E+00  0.00000000000E+00  0.29763743593E+04  0.29763743593E+04  0.50400001928E-02 0. -1.
        1   -1    0    0  501    0  0.00000000000E+00  0.00000000000E+00 -0.12666428688E+04  0.12666428688E+04  0.50400001928E-02 0.  1.
    10030    2    1    2    0    0  0.00000000000E+00  0.00000000000E+00  0.17097314905E+04  0.42430172281E+04  0.38832992968E+04 0.  0.
        3    1    3    3  502    0 -0.16038022129E+04  0.98353181584E+02 -0.33612746567E+03  0.16415957388E+04  0.10100000352E+00 0.  1.
       -3    1    3    3    0  502  0.16038022129E+04 -0.98353181584E+02  0.20458589562E+04  0.26014214893E+04  0.10100000352E+00 0. -1.
</event>
<event>
 5   0  0.2632875E-08  0.3642569E+04  0.7818609E-02  0.8080810E-01
       -1   -1    0    0    0  501  0.00000000000E+00  0.00000000000E+00  0.16363719405E+04  0.16363719405E+04  0.50400001928E-02 0.  1.
        1   -1    0    0  501    0  0.00000000000E+00  0.00000000000E+00 -0.20270927484E+04  0.20270927485E+04  0.50400001928E-02 0. -1.
    10030    2    1    2    0    0  0.00000000000E+00  0.00000000000E+00 -0.39072080795E+03  0.36634646890E+04  0.36425692550E+04 0.  0.
        2    1    3    3  502    0  0.16265218540E+04 -0.25573545990E+03  0.58763221780E+03  0.17482235527E+04  0.25500000920E-02 0. -1.
       -2    1    3    3    0  502 -0.16265218540E+04  0.25573545990E+03 -0.97835302575E+03  0.19152411362E+04  0.25500000920E-02 0.  1.
</event>
<event>
 5   0  0.8476262E-08  0.3884367E+04  0.7818609E-02  0.8028288E-01
       -2   -1    0    0    0  501  0.00000000000E+00  0.00000000000E+00  0.16597918248E+04  0.16597918248E+04  0.25500000920E-02 0. -1.
        2   -1    0    0  501    0  0.00000000000E+00  0.00000000000E+00 -0.22726204166E+04  0.22726204166E+04  0.25500000920E-02 0.  1.
    10030    2    1    2    0    0  0.00000000000E+00  0.00000000000E+00 -0.61282859183E+03  0.39324122414E+04  0.38843670209E+04 0.  0.
        2    1    3    3  502    0 -0.35484206378E+03 -0.19007895251E+04 -0.49077408679E+03  0.19949368193E+04  0.25500000920E-02 0. -1.
       -2    1    3    3    0  502  0.35484206378E+03  0.19007895251E+04 -0.12205450503E+03  0.19374754221E+04  0.25500000920E-02 0.  1.
</event>
<event>
 5   0  0.2632875E-08  0.3767480E+04  0.7818609E-02  0.8053170E-01
       -1   -1    0    0    0  501  0.00000000000E+00  0.00000000000E+00  0.22412211370E+04  0.22412211370E+04  0.50400001928E-02 0. -1.
        1   -1    0    0  501    0  0.00000000000E+00  0.00000000000E+00 -0.15832783154E+04  0.15832783154E+04  0.50400001928E-02 0.  1.
    10030    2    1    2    0    0  0.00000000000E+00  0.00000000000E+00  0.65794282160E+03  0.38244994524E+04  0.37674802328E+04 0.  0.
        4    1    3    3  502    0 -0.15539413432E+04  0.22741541447E+02  0.14096127252E+04  0.20981564584E+04  0.12699999809E+01 0. -1.
       -4    1    3    3    0  502  0.15539413432E+04 -0.22741541447E+02 -0.75166990363E+03  0.17263429940E+04  0.12699999809E+01 0.  1.
</event>
<event>
 5   0  0.2632875E-08  0.3893328E+04  0.7818609E-02  0.8026418E-01
       -1   -1    0    0    0  501  0.00000000000E+00  0.00000000000E+00  0.23445499698E+04  0.23445499698E+04  0.50400001928E-02 0.  1.
        1   -1    0    0  501    0  0.00000000000E+00  0.00000000000E+00 -0.16163017962E+04  0.16163017962E+04  0.50400001928E-02 0. -1.
    10030    2    1    2    0    0  0.00000000000E+00  0.00000000000E+00  0.72824817362E+03  0.39608517661E+04  0.38933277939E+04 0.  0.
        2    1    3    3  502    0  0.10669213433E+04 -0.16158141711E+04  0.15983365925E+03  0.19428647372E+04  0.25500000920E-02 0. -1.
       -2    1    3    3    0  502 -0.10669213433E+04  0.16158141711E+04  0.56841451437E+03  0.20179870289E+04  0.25500000920E-02 0.  1.
</event>
<event>
 5   0  0.2632875E-08  0.3913231E+04  0.7818609E-02  0.8022283E-01
        1   -1    0    0  501    0  0.00000000000E+00  0.00000000000E+00  0.21537714322E+04  0.21537714322E+04  0.50400001928E-02 0. -1.
       -1   -1    0    0    0  501  0.00000000000E+00  0.00000000000E+00 -0.17775068825E+04  0.17775068825E+04  0.50400001928E-02 0.  1.
    10030    2    1    2    0    0  0.00000000000E+00  0.00000000000E+00  0.37626454964E+03  0.39312783147E+04  0.39132306572E+04 0.  0.
        3    1    3    3  502    0  0.10305815434E+04 -0.12149370121E+04 -0.95296420064E+03  0.18564242616E+04  0.10100000352E+00 0.  1.
       -3    1    3    3    0  502 -0.10305815434E+04  0.12149370121E+04  0.13292287503E+04  0.20748540531E+04  0.10100000352E+00 0. -1.
</event>
<event>
 5   0  0.8551754E-08  0.3898967E+04  0.7818609E-02  0.8025244E-01
        2   -1    0    0  501    0  0.00000000000E+00  0.00000000000E+00  0.15436281570E+04  0.15436281571E+04  0.25500000920E-02 0. -1.
       -2   -1    0    0    0  501  0.00000000000E+00  0.00000000000E+00 -0.24620472287E+04  0.24620472287E+04  0.25500000920E-02 0.  1.
    10030    2    1    2    0    0  0.00000000000E+00  0.00000000000E+00 -0.91841907162E+03  0.40056753857E+04  0.38989667483E+04 0.  0.
        1    1    3    3  502    0  0.59542861596E+02 -0.14284108090E+04 -0.18208439298E+04  0.23150324854E+04  0.50400001928E-02 0.  1.
       -1    1    3    3    0  502 -0.59542861596E+02  0.14284108090E+04  0.90242485820E+03  0.16906429003E+04  0.50400001928E-02 0. -1.
</event>
<event>
 5   0  0.8342802E-08  0.3881165E+04  0.7818609E-02  0.8028958E-01
       -2   -1    0    0    0  501  0.00000000000E+00  0.00000000000E+00  0.15867798977E+04  0.15867798977E+04  0.25500000920E-02 0.  1.
        2   -1    0    0  501    0  0.00000000000E+00  0.00000000000E+00 -0.23732721819E+04  0.23732721819E+04  0.25500000920E-02 0. -1.
    10030    2    1    2    0    0  0.00000000000E+00  0.00000000000E+00 -0.78649228421E+03  0.39600520797E+04  0.38811650777E+04 0.  0.
        4    1    3    3  502    0 -0.45711820730E+03 -0.13321783108E+03  0.15262558622E+04  0.15988003677E+04  0.12699999809E+01 0.  1.
       -4    1    3    3    0  502  0.45711820730E+03  0.13321783108E+03 -0.23127481464E+04  0.23612517120E+04  0.12699999809E+01 0. -1.
</event>
<event>
 5   0  0.2632875E-08  0.4017019E+04  0.7818609E-02  0.8001122E-01
        1   -1    0    0  501    0  0.00000000000E+00  0.00000000000E+00  0.20597432407E+04  0.20597432407E+04  0.50400001928E-02 0. -1.
       -1   -1    0    0    0  501  0.00000000000E+00  0.00000000000E+00 -0.19585503988E+04  0.19585503988E+04  0.50400001928E-02 0.  1.
    10030    2    1    2    0    0  0.00000000000E+00  0.00000000000E+00  0.10119284184E+03  0.40182936395E+04  0.40170192658E+04 0.  0.
        3    1    3    3  502    0 -0.52599995719E+03 -0.14008285818E+04 -0.12896473712E+04  0.19753954093E+04  0.10100000352E+00 0.  1.
       -3    1    3    3    0  502  0.52599995719E+03  0.14008285818E+04  0.13908402131E+04  0.20428982302E+04  0.10100000352E+00 0. -1.
</event>
<event>
 5   0  0.8551754E-08  0.3890703E+04  0.7818609E-02  0.8026966E-01
        2   -1    0    0  501    0  0.00000000000E+00  0.00000000000E+00  0.18160472576E+04  0.18160472576E+04  0.25500000920E-02 0.  1.
       -2   -1    0    0    0  501  0.00000000000E+00  0.00000000000E+00 -0.20838626106E+04  0.20838626106E+04  0.25500000920E-02 0. -1.
    10030    2    1    2    0    0  0.00000000000E+00  0.00000000000E+00 -0.26781535300E+03  0.38999098681E+04  0.38907032676E+04 0.  0.
        1    1    3    3  502    0 -0.10339216033E+04 -0.15486349671E+04 -0.69838217569E+03  0.19887186343E+04  0.50400001928E-02 0. -1.
       -1    1    3    3    0  502  0.10339216033E+04  0.15486349671E+04  0.43056682269E+03  0.19111912338E+04  0.50400001928E-02 0.  1.
</event>
<event>
 5   0  0.8342802E-08  0.3800949E+04  0.7818609E-02  0.8045951E-01
        2   -1    0    0  501    0  0.00000000000E+00  0.00000000000E+00  0.19641948328E+04  0.19641948328E+04  0.25500000920E-02 0. -1.
       -2   -1    0    0    0  501  0.00000000000E+00  0.00000000000E+00 -0.18388208954E+04  0.18388208954E+04  0.25500000920E-02 0.  1.
    10030    2    1    2    0    0  0.00000000000E+00  0.00000000000E+00  0.12537393747E+03  0.38030157282E+04  0.38009485665E+04 0.  0.
        4    1    3    3  502    0  0.16581920993E+04  0.89061202526E+03  0.32552751675E+03  0.19101729228E+04  0.12699999809E+01 0. -1.
       -4    1    3    3    0  502 -0.16581920993E+04 -0.89061202526E+03 -0.20015357928E+03  0.18928428054E+04  0.12699999809E+01 0.  1.
</event>
<event>
 5   0  0.8438211E-08  0.3899397E+04  0.7818609E-02  0.8025155E-01
        2   -1    0    0  501    0  0.00000000000E+00  0.00000000000E+00  0.15421395758E+04  0.15421395758E+04  0.25500000920E-02 0.  1.
       -2   -1    0    0    0  501  0.00000000000E+00  0.00000000000E+00 -0.24649674258E+04  0.24649674258E+04  0.25500000920E-02 0. -1.
    10030    2    1    2    0    0  0.00000000000E+00  0.00000000000E+00 -0.92282785001E+03  0.40071070016E+04  0.38993967843E+04 0.  0.
        5    1    3    3  502    0  0.49714063995E+03  0.66968210280E+03  0.13495582550E+04  0.15864906266E+04  0.46999998093E+01 0.  1.
       -5    1    3    3    0  502 -0.49714063995E+03 -0.66968210280E+03 -0.22723861050E+04  0.24206163750E+04  0.46999998093E+01 0. -1.
</event>
<event>
 5   0  0.8551754E-08  0.3933730E+04  0.7818609E-02  0.8018050E-01
        2   -1    0    0  501    0  0.00000000000E+00  0.00000000000E+00  0.21284421179E+04  0.21284421179E+04  0.25500000920E-02 0.  1.
       -2   -1    0    0    0  501  0.00000000000E+00  0.00000000000E+00 -0.18175541142E+04  0.18175541142E+04  0.25500000920E-02 0. -1.
    10030    2    1    2    0    0  0.00000000000E+00  0.00000000000E+00  0.31088800368E+03  0.39459962321E+04  0.39337304067E+04 0.  0.
        1    1    3    3  502    0  0.17119992752E+04  0.86009629880E+03 -0.29074804017E+03  0.19378445718E+04  0.50400001928E-02 0.  1.
       -1    1    3    3    0  502 -0.17119992752E+04 -0.86009629880E+03  0.60163604385E+03  0.20081516603E+04  0.50400001928E-02 0. -1.
</event>
<event>
 5   0  0.8438211E-08  0.3888976E+04  0.7818609E-02  0.8027326E-01
        2   -1    0    0  501    0  0.00000000000E+00  0.00000000000E+00  0.23776075068E+04  0.23776075068E+04  0.25500000920E-02 0. -1.
       -2   -1    0    0    0  501  0.00000000000E+00  0.00000000000E+00 -0.15902680700E+04  0.15902680700E+04  0.25500000920E-02 0.  1.
    10030    2    1    2    0    0  0.00000000000E+00  0.00000000000E+00  0.78733943687E+03  0.39678755768E+04  0.38889758554E+04 0.  0.
        5    1    3    3  502    0  0.16824118957E+04 -0.23960523871E+03  0.13578774175E+04  0.21752640364E+04  0.46999998093E+01 0. -1.
       -5    1    3    3    0  502 -0.16824118957E+04  0.23960523871E+03 -0.57053798060E+03  0.17926115404E+04  0.46999998093E+01 0.  1.
</event>
<event>
 5   0  0.8551754E-08  0.3899026E+04  0.7818609E-02  0.8025232E-01
        2   -1    0    0  501    0  0.00000000000E+00  0.00000000000E+00  0.14807977658E+04  0.14807977658E+04  0.25500000920E-02 0.  1.
       -2   -1    0    0    0  501  0.00000000000E+00  0.00000000000E+00 -0.25665904677E+04  0.25665904677E+04  0.25500000920E-02 0. -1.
    10030    2    1    2    0    0  0.00000000000E+00  0.00000000000E+00 -0.10857927020E+04  0.40473882335E+04  0.38990262529E+04 0.  0.
        1    1    3    3  502    0 -0.18503867206E+04 -0.39120119829E+03 -0.52004621530E+02  0.18920026094E+04  0.50400001928E-02 0.  1.
       -1    1    3    3    0  502  0.18503867206E+04  0.39120119829E+03 -0.10337880804E+04  0.21553856241E+04  0.50400001928E-02 0. -1.
</event>
<event>
 5   0  0.2632875E-08  0.3906475E+04  0.7818609E-02  0.8023684E-01
        1   -1    0    0  501    0  0.00000000000E+00  0.00000000000E+00  0.26234708223E+04  0.26234708223E+04  0.50400001928E-02 0. -1.
       -1   -1    0    0    0  501  0.00000000000E+00  0.00000000000E+00 -0.14542326185E+04  0.14542326185E+04  0.50400001928E-02 0.  1.
    10030    2    1    2    0    0  0.00000000000E+00  0.00000000000E+00  0.11692382039E+04  0.40777034408E+04  0.39064750574E+04 0.  0.
        4    1    3    3  502    0  0.19952704380E+03 -0.61209237260E+03 -0.13403007121E+04  0.14869013840E+04  0.12699999809E+01 0.  1.
       -4    1    3    3    0  502 -0.19952704380E+03  0.61209237260E+03  0.25095389160E+04  0.25908020568E+04  0.12699999809E+01 0. -1.
</event>
<event>
 5   0  0.2632875E-08  0.3905876E+04  0.7818609E-02  0.8023808E-01
       -1   -1    0    0    0  501  0.00000000000E+00  0.00000000000E+00  0.17970505696E+04  0.17970505696E+04  0.50400001928E-02 0. -1.
        1   -1    0    0  501    0  0.00000000000E+00  0.00000000000E+00 -0.21223484960E+04  0.21223484960E+04  0.50400001928E-02 0.  1.
    10030    2    1    2    0    0  0.00000000000E+00  0.00000000000E+00 -0.32529792638E+03  0.39193990656E+04  0.39058763798E+04 0.  0.
        3    1    3    3  502    0  0.70784618828E+03 -0.14956999259E+04 -0.12034491951E+04  0.20460827133E+04  0.10100000352E+00 0.  1.
       -3    1    3    3    0  502 -0.70784618828E+03  0.14956999259E+04  0.87815126870E+03  0.18733163522E+04  0.10100000352E+00 0. -1.
</event>
<event>
 5   0  0.8551754E-08  0.3903798E+04  0.7818609E-02  0.8024240E-01
       -2   -1    0    0    0  501  0.00000000000E+00  0.00000000000E+00  0.27914455217E+04  0.27914455217E+04  0.25500000920E-02 0. -1.
        2   -1    0    0  501    0  0.00000000000E+00  0.00000000000E+00 -0.13648519827E+04  0.13648519827E+04  0.25500000920E-02 0.  1.
    10030    2    1    2    0    0  0.00000000000E+00  0.00000000000E+00  0.14265935390E+04  0.41562975044E+04  0.39037981274E+04 0.  0.
        1    1    3    3  502    0  0.16110871080E+04  0.10260047616E+04  0.11413228226E+04  0.22250629712E+04  0.50400001928E-02 0. -1.
       -1    1    3    3    0  502 -0.16110871080E+04 -0.10260047616E+04  0.28527071635E+03  0.19312345332E+04  0.50400001928E-02 0.  1.
</event>
<event>
 5   0  0.2632875E-08  0.3883982E+04  0.7818609E-02  0.8028369E-01
        1   -1    0    0  501    0  0.00000000000E+00  0.00000000000E+00  0.12095493353E+04  0.12095493353E+04  0.50400001928E-02 0.  1.
       -1   -1    0    0    0  501  0.00000000000E+00  0.00000000000E+00 -0.31179618600E+04  0.31179618600E+04  0.50400001928E-02 0. -1.
    10030    2    1    2    0    0  0.00000000000E+00  0.00000000000E+00 -0.19084125247E+04  0.43275111953E+04  0.38839818203E+04 0.  0.
        2    1    3    3  502    0  0.41668790770E+03  0.17298657855E+04 -0.87377083351E+02  0.17814879183E+04  0.25500000920E-02 0.  1.
       -2    1    3    3    0  502 -0.41668790770E+03 -0.17298657855E+04 -0.18210354414E+04  0.25460232770E+04  0.25500000920E-02 0. -1.
</event>
<event>
 5   0  0.8476262E-08  0.3894833E+04  0.7818609E-02  0.8026105E-01
        2   -1    0    0  501    0  0.00000000000E+00  0.00000000000E+00  0.35667111372E+04  0.35667111372E+04  0.25500000920E-02 0.  1.
       -2   -1    0    0    0  501  0.00000000000E+00  0.00000000000E+00 -0.10632849820E+04  0.10632849820E+04  0.25500000920E-02 0. -1.
    10030    2    1    2    0    0  0.00000000000E+00  0.00000000000E+00  0.25034261552E+04  0.46299961192E+04  0.38948326729E+04 0.  0.
        2    1    3    3  502    0  0.10275447989E+04 -0.98761909201E+03  0.28293061925E+04  0.31679983137E+04  0.25500000920E-02 0.  1.
       -2    1    3    3    0  502 -0.10275447989E+04  0.98761909201E+03 -0.32588003731E+03  0.14619978055E+04  0.25500000920E-02 0. -1.
</event>
<event>
 5   0  0.2632875E-08  0.3895524E+04  0.7818609E-02  0.8025961E-01
       -1   -1    0    0    0  501  0.00000000000E+00  0.00000000000E+00  0.13504495509E+04  0.13504495509E+04  0.50400001928E-02 0. -1.
        1   -1    0    0  501    0  0.00000000000E+00  0.00000000000E+00 -0.28092700070E+04  0.28092700070E+04  0.50400001928E-02 0.  1.
    10030    2    1    2    0    0  0.00000000000E+00  0.00000000000E+00 -0.14588204561E+04  0.41597195580E+04  0.38955243136E+04 0.  0.
        4    1    3    3  502    0 -0.13350273838E+04  0.10343155884E+04  0.30679853124E+03  0.17164596714E+04  0.12699999809E+01 0. -1.
       -4    1    3    3    0  502  0.13350273838E+04 -0.10343155884E+04 -0.17656189874E+04  0.24432598866E+04  0.12699999809E+01 0.  1.
</event>
<event>
 5   0  0.8438211E-08  0.3897454E+04  0.7818609E-02  0.8025559E-01
        2   -1    0    0  501    0  0.00000000000E+00  0.00000000000E+00  0.11867303714E+04  0.11867303714E+04  0.25500000920E-02 0.  1.
       -2   -1    0    0    0  501  0.00000000000E+00  0.00000000000E+00 -0.31999996569E+04  0.31999996569E+04  0.25500000920E-02 0. -1.
    10030    2    1    2    0    0  0.00000000000E+00  0.00000000000E+00 -0.20132692855E+04  0.43867300283E+04  0.38974539285E+04 0.  0.
        5    1    3    3  502    0  0.11135361334E+04 -0.13892267431E+04 -0.18982996845E+04  0.26025905261E+04  0.46999998093E+01 0. -1.
       -5    1    3    3    0  502 -0.11135361334E+04  0.13892267431E+04 -0.11496960095E+03  0.17841395022E+04  0.46999998093E+01 0.  1.
</event>
<event>
 5   0  0.2632875E-08  0.3902641E+04  0.7818609E-02  0.8024480E-01
        1   -1    0    0  501    0  0.00000000000E+00  0.00000000000E+00  0.23475202833E+04  0.23475202833E+04  0.50400001928E-02 0.  1.
       -1   -1    0    0    0  501  0.00000000000E+00  0.00000000000E+00 -0.16219886778E+04  0.16219886778E+04  0.50400001928E-02 0. -1.
    10030    2    1    2    0    0  0.00000000000E+00  0.00000000000E+00  0.72553160548E+03  0.39695089611E+04  0.39026408087E+04 0.  0.
        1    1    3    3  502    0 -0.96567222218E+03  0.42359864270E+03  0.20327539702E+04  0.22899885052E+04  0.50400001928E-02 0.  1.
       -1    1    3    3    0  502  0.96567222218E+03 -0.42359864270E+03 -0.13072223647E+04  0.16795204559E+04  0.50400001928E-02 0. -1.
</event>
<event>
 5   0  0.8551754E-08  0.3899832E+04  0.7818609E-02  0.8025064E-01
        2   -1    0    0  501    0  0.00000000000E+00  0.00000000000E+00  0.27438404097E+04  0.27438404097E+04  0.25500000920E-02 0. -1.
       -2   -1    0    0    0  501  0.00000000000E+00  0.00000000000E+00 -0.13857119559E+04  0.13857119559E+04  0.25500000920E-02 0.  1.
    10030    2    1    2    0    0  0.00000000000E+00  0.00000000000E+00  0.13581284538E+04  0.41295523656E+04  0.38998320275E+04 0.  0.
        1    1    3    3  502    0 -0.15789405661E+04 -0.27605341814E+03  0.18548370243E+04  0.24514647025E+04  0.50400001928E-02 0. -1.
       -1    1    3    3    0  502  0.15789405661E+04  0.27605341814E+03 -0.49670857046E+03  0.16780876631E+04  0.50400001928E-02 0.  1.
</event>
<event>
 5   0  0.2632875E-08  0.3880119E+04  0.7818609E-02  0.8029177E-01
       -1   -1    0    0    0  501  0.00000000000E+00  0.00000000000E+00  0.18117825906E+04  0.18117825906E+04  0.50400001928E-02 0. -1.
        1   -1    0    0  501    0  0.00000000000E+00  0.00000000000E+00 -0.20774181606E+04  0.20774181606E+04  0.50400001928E-02 0.  1.
    10030    2    1    2    0    0  0.00000000000E+00  0.00000000000E+00 -0.26563556996E+03  0.38892007512E+04  0.38801185841E+04 0.  0.
        2    1    3    3  502    0  0.20391888875E+03 -0.65975225228E+03  0.16844273041E+04  0.18204810601E+04  0.25500000920E-02 0. -1.
       -2    1    3    3    0  502 -0.20391888875E+03  0.65975225228E+03 -0.19500628740E+04  0.20687196911E+04  0.25500000920E-02 0.  1.
</event>
<event>
 5   0  0.2632875E-08  0.3899672E+04  0.7818609E-02  0.8025097E-01
        1   -1    0    0  501    0  0.00000000000E+00  0.00000000000E+00  0.25975334798E+04  0.25975334799E+04  0.50400001928E-02 0. -1.
       -1   -1    0    0    0  501  0.00000000000E+00  0.00000000000E+00 -0.14636423184E+04  0.14636423184E+04  0.50400001928E-02 0.  1.
    10030    2    1    2    0    0  0.00000000000E+00  0.00000000000E+00  0.11338911614E+04  0.40611757983E+04  0.38996717424E+04 0.  0.
        2    1    3    3  502    0 -0.73798432524E+03 -0.15053202293E+03  0.24399233844E+04  0.25535283190E+04  0.25500000920E-02 0. -1.
       -2    1    3    3    0  502  0.73798432524E+03  0.15053202293E+03 -0.13060322230E+04  0.15076474793E+04  0.25500000920E-02 0.  1.
</event>
<event>
 5   0  0.2632875E-08  0.3899447E+04  0.7818609E-02  0.8025144E-01
        1   -1    0    0  501    0  0.00000000000E+00  0.00000000000E+00  0.17289135915E+04  0.17289135915E+04  0.50400001928E-02 0.  1.
       -1   -1    0    0    0  501  0.00000000000E+00  0.00000000000E+00 -0.21987342888E+04  0.21987342888E+04  0.50400001928E-02 0. -1.
    10030    2    1    2    0    0  0.00000000000E+00  0.00000000000E+00 -0.46982069737E+03  0.39276478803E+04  0.38994469331E+04 0.  0.
        5    1    3    3  502    0 -0.15241537210E+04  0.95382985666E+01  0.98972143257E+03  0.18173349027E+04  0.46999998093E+01 0.  1.
       -5    1    3    3    0  502  0.15241537210E+04 -0.95382985666E+01 -0.14595421299E+04  0.21103129776E+04  0.46999998093E+01 0. -1.
</event>
<event>
 5   0  0.2632875E-08  0.3889720E+04  0.7818609E-02  0.8027171E-01
       -1   -1    0    0    0  501  0.00000000000E+00  0.00000000000E+00  0.18450241582E+04  0.18450241582E+04  0.50400001928E-02 0.  1.
        1   -1    0    0  501    0  0.00000000000E+00  0.00000000000E+00 -0.20500979451E+04  0.20500979451E+04  0.50400001928E-02 0. -1.
    10030    2    1    2    0    0  0.00000000000E+00  0.00000000000E+00 -0.20507378691E+03  0.38951221033E+04  0.38897199053E+04 0.  0.
        5    1    3    3  502    0 -0.13285105232E+04 -0.74558551218E+03 -0.13131908123E+04  0.20113006154E+04  0.46999998093E+01 0. -1.
       -5    1    3    3    0  502  0.13285105232E+04  0.74558551218E+03  0.11081170254E+04  0.18838214879E+04  0.46999998093E+01 0.  1.
</event>
<event>
 5   0  0.2632875E-08  0.3838171E+04  0.7818609E-02  0.8038013E-01
        1   -1    0    0  501    0  0.00000000000E+00  0.00000000000E+00  0.18604135891E+04  0.18604135892E+04  0.50400001928E-02 0.  1.
       -1   -1    0    0    0  501  0.00000000000E+00  0.00000000000E+00 -0.19796078051E+04  0.19796078052E+04  0.50400001928E-02 0. -1.
    10030    2    1    2    0    0  0.00000000000E+00  0.00000000000E+00 -0.11919421600E+03  0.38400213943E+04  0.38381710550E+04 0.  0.
        4    1    3    3  502    0  0.95802295821E+03  0.36126285033E+02 -0.17228589527E+04  0.19716383240E+04  0.12699999809E+01 0. -1.
       -4    1    3    3    0  502 -0.95802295821E+03 -0.36126285033E+02  0.16036647367E+04  0.18683830703E+04  0.12699999809E+01 0.  1.
</event>
<event>
 5   0  0.8342802E-08  0.3885974E+04  0.7818609E-02  0.8027953E-01
        2   -1    0    0  501    0  0.00000000000E+00  0.00000000000E+00  0.22146773264E+04  0.22146773264E+04  0.25500000920E-02 0. -1.
       -2   -1    0    0    0  501  0.00000000000E+00  0.00000000000E+00 -0.17046265810E+04  0.17046265810E+04  0.25500000920E-02 0.  1.
    10030    2    1    2    0    0  0.00000000000E+00  0.00000000000E+00  0.51005074537E+03  0.39193039073E+04  0.38859736689E+04 0.  0.
        4    1    3    3  502    0 -0.21953955868E+03 -0.12447583946E+04 -0.12332923818E+04  0.17659651159E+04  0.12699999809E+01 0.  1.
       -4    1    3    3    0  502  0.21953955868E+03  0.12447583946E+04  0.17433431272E+04  0.21533387914E+04  0.12699999809E+01 0. -1.
</event>
<event>
 5   0  0.8551754E-08  0.3829436E+04  0.7818609E-02  0.8039867E-01
        2   -1    0    0  501    0  0.00000000000E+00  0.00000000000E+00  0.24239699879E+04  0.24239699879E+04  0.25500000920E-02 0. -1.
       -2   -1    0    0    0  501  0.00000000000E+00  0.00000000000E+00 -0.15124545996E+04  0.15124545996E+04  0.25500000920E-02 0.  1.
    10030    2    1    2    0    0  0.00000000000E+00  0.00000000000E+00  0.91151538830E+03  0.39364245874E+04  0.38294357586E+04 0.  0.
        1    1    3    3  502    0  0.10585267547E+04 -0.85106411130E+03  0.18430389349E+04  0.22894500491E+04  0.50400001928E-02 0. -1.
       -1    1    3    3    0  502 -0.10585267547E+04  0.85106411130E+03 -0.93152354659E+03  0.16469745383E+04  0.50400001928E-02 0.  1.
</event>
<event>
 5   0  0.8438211E-08  0.3888047E+04  0.7818609E-02  0.8027520E-01
       -2   -1    0    0    0  501  0.00000000000E+00  0.00000000000E+00  0.19377232632E+04  0.19377232632E+04  0.25500000920E-02 0. -1.
        2   -1    0    0  501    0  0.00000000000E+00  0.00000000000E+00 -0.19503442128E+04  0.19503442128E+04  0.25500000920E-02 0.  1.
    10030    2    1    2    0    0  0.00000000000E+00  0.00000000000E+00 -0.12620949656E+02  0.38880674760E+04  0.38880469917E+04 0.  0.
        5    1    3    3  502    0  0.31699449413E+03 -0.10632550569E+04  0.15900088190E+04  0.19388519695E+04  0.46999998093E+01 0. -1.
       -5    1    3    3    0  502 -0.31699449413E+03  0.10632550569E+04 -0.16026297686E+04  0.19492155065E+04  0.46999998093E+01 0.  1.
</event>
<event>
 5   0  0.8476262E-08  0.3838353E+04  0.7818609E-02  0.8037974E-01
        2   -1    0    0  501    0  0.00000000000E+00  0.00000000000E+00  0.22261042251E+04  0.22261042251E+04  0.25500000920E-02 0.  1.
       -2   -1    0    0    0  501  0.00000000000E+00  0.00000000000E+00 -0.16545673312E+04  0.16545673312E+04  0.25500000920E-02 0. -1.
    10030    2    1    2    0    0  0.00000000000E+00  0.00000000000E+00  0.57153689389E+03  0.38806715563E+04  0.38383534629E+04 0.  0.
        2    1    3    3  502    0  0.48951274170E+03 -0.15810883319E+04  0.12679605847E+04  0.20849909069E+04  0.25500000920E-02 0.  1.
       -2    1    3    3    0  502 -0.48951274170E+03  0.15810883319E+04 -0.69642369077E+03  0.17956806494E+04  0.25500000920E-02 0. -1.
</event>
<event>
 5   0  0.2632875E-08  0.3891303E+04  0.7818609E-02  0.8026840E-01
        1   -1    0    0  501    0  0.00000000000E+00  0.00000000000E+00  0.28723506759E+04  0.28723506759E+04  0.50400001928E-02 0. -1.
       -1   -1    0    0    0  501  0.00000000000E+00  0.00000000000E+00 -0.13179311957E+04  0.13179311957E+04  0.50400001928E-02 0.  1.
    10030    2    1    2    0    0  0.00000000000E+00  0.00000000000E+00  0.15544194802E+04  0.41902818717E+04  0.38913034119E+04 0.  0.
        2    1    3    3  502    0 -0.35594020428E+03  0.12149525494E+04 -0.81371956351E+03  0.15049726424E+04  0.25500000920E-02 0.  1.
       -2    1    3    3    0  502  0.35594020428E+03 -0.12149525494E+04  0.23681390437E+04  0.26853092293E+04  0.25500000920E-02 0. -1.
</event>
<event>
 5   0  0.2632875E-08  0.3882393E+04  0.7818609E-02  0.8028701E-01
        1   -1    0    0  501    0  0.00000000000E+00  0.00000000000E+00  0.15331645073E+04  0.15331645073E+04  0.50400001928E-02 0. -1.
       -1   -1    0    0    0  501  0.00000000000E+00  0.00000000000E+00 -0.24578208942E+04  0.24578208942E+04  0.50400001928E-02 0.  1.
    10030    2    1    2    0    0  0.00000000000E+00  0.00000000000E+00 -0.92465638687E+03  0.39909854015E+04  0.38823929530E+04 0.  0.
        1    1    3    3  502    0  0.96449922032E+03  0.11048105263E+04  0.84500567068E+03  0.16926014382E+04  0.50400001928E-02 0. -1.
       -1    1    3    3    0  502 -0.96449922032E+03 -0.11048105263E+04 -0.17696620576E+04  0.22983839633E+04  0.50400001928E-02 0.  1.
</event>
<event>
 5   0  0.8438211E-08  0.3908961E+04  0.7818609E-02  0.8023168E-01
       -2   -1    0    0    0  501  0.00000000000E+00  0.00000000000E+00  0.13334395873E+04  0.13334395873E+04  0.25500000920E-02 0.  1.
        2   -1    0    0  501    0  0.00000000000E+00  0.00000000000E+00 -0.28647672728E+04  0.28647672728E+04  0.25500000920E-02 0. -1.
    10030    2    1    2    0    0  0.00000000000E+00  0.00000000000E+00 -0.15313276854E+04  0.41982068601E+04  0.39089610333E+04 0.  0.
        5    1    3    3  502    0 -0.11287882722E+04  0.68311580245E+02  0.94638838138E+03  0.14746194403E+04  0.46999998093E+01 0.  1.
       -5    1    3    3    0  502  0.11287882722E+04 -0.68311580245E+02 -0.24777160668E+04  0.27235874198E+04  0.46999998093E+01 0. -1.
</event>
<event>
 5   0  0.8551754E-08  0.3899239E+04  0.7818609E-02  0.8025187E-01
       -2   -1    0    0    0  501  0.00000000000E+00  0.00000000000E+00  0.14549234142E+04  0.14549234142E+04  0.25500000920E-02 0. -1.
        2   -1    0    0  501    0  0.00000000000E+00  0.00000000000E+00 -0.26125203001E+04  0.26125203001E+04  0.25500000920E-02 0.  1.
    10030    2    1    2    0    0  0.00000000000E+00  0.00000000000E+00 -0.11575968859E+04  0.40674437143E+04  0.38992393897E+04 0.  0.
        1    1    3    3  502    0 -0.15380462263E+04  0.22145894383E+03  0.64944327381E+03  0.16841635384E+04  0.50400001928E-02 0. -1.
       -1    1    3    3    0  502  0.15380462263E+04 -0.22145894383E+03 -0.18070401597E+04  0.23832801759E+04  0.50400001928E-02 0.  1.
</event>
<event>
 5   0  0.2632875E-08  0.3909085E+04  0.7818609E-02  0.8023142E-01
       -3   -1    0    0    0  501  0.00000000000E+00  0.00000000000E+00  0.18798537519E+04  0.18798537546E+04  0.10100000352E+00 0.  1.
        3   -1    0    0  501    0  0.00000000000E+00  0.00000000000E+00 -0.20321988490E+04  0.20321988515E+04  0.10100000352E+00 0. -1.
    10030    2    1    2    0    0  0.00000000000E+00  0.00000000000E+00 -0.15234509711E+03  0.39120526061E+04  0.39090851314E+04 0.  0.
        5    1    3    3  502    0 -0.20064053236E+03 -0.16480417776E+04  0.95607360715E+03  0.19158280602E+04  0.46999998093E+01 0.  1.
       -5    1    3    3    0  502  0.20064053236E+03  0.16480417776E+04 -0.11084187043E+04  0.19962245460E+04  0.46999998093E+01 0. -1.
</event>
<event>
 5   0  0.2632875E-08  0.3917276E+04  0.7818609E-02  0.8021446E-01
        1   -1    0    0  501    0  0.00000000000E+00  0.00000000000E+00  0.17647254643E+04  0.17647254643E+04  0.50400001928E-02 0. -1.
       -1   -1    0    0    0  501  0.00000000000E+00  0.00000000000E+00 -0.21738576847E+04  0.21738576848E+04  0.50400001928E-02 0.  1.
    10030    2    1    2    0    0  0.00000000000E+00  0.00000000000E+00 -0.40913222045E+03  0.39385831491E+04  0.39172755900E+04 0.  0.
        3    1    3    3  502    0  0.18929357233E+04 -0.31061882184E+03  0.19327838494E+03  0.19279642760E+04  0.10100000352E+00 0. -1.
       -3    1    3    3    0  502 -0.18929357233E+04  0.31061882184E+03 -0.60241060539E+03  0.20106188731E+04  0.10100000352E+00 0.  1.
</event>
<event>
 5   0  0.8438211E-08  0.3903024E+04  0.7818609E-02  0.8024401E-01
       -2   -1    0    0    0  501  0.00000000000E+00  0.00000000000E+00  0.14952133174E+04  0.14952133174E+04  0.25500000920E-02 0. -1.
        2   -1    0    0  501    0  0.00000000000E+00  0.00000000000E+00 -0.25470608033E+04  0.25470608033E+04  0.25500000920E-02 0.  1.
    10030    2    1    2    0    0  0.00000000000E+00  0.00000000000E+00 -0.10518474859E+04  0.40422741208E+04  0.39030240755E+04 0.  0.
        5    1    3    3  502    0  0.31926929662E+02  0.14860021212E+04  0.78377038535E+03  0.16803391741E+04  0.46999998093E+01 0. -1.
       -5    1    3    3    0  502 -0.31926929662E+02 -0.14860021212E+04 -0.18356178713E+04  0.23619349467E+04  0.46999998093E+01 0.  1.
</event>
<event>
 5   0  0.2632875E-08  0.3891483E+04  0.7818609E-02  0.8026803E-01
        1   -1    0    0  501    0  0.00000000000E+00  0.00000000000E+00  0.29713068368E+04  0.29713068368E+04  0.50400001928E-02 0. -1.
       -1   -1    0    0    0  501  0.00000000000E+00  0.00000000000E+00 -0.12741564124E+04  0.12741564125E+04  0.50400001928E-02 0.  1.
    10030    2    1    2    0    0  0.00000000000E+00  0.00000000000E+00  0.16971504243E+04  0.42454632492E+04  0.38914828328E+04 0.  0.
        3    1    3    3  502    0  0.16883540276E+04  0.78167844446E+03  0.14698966516E+04  0.23711087469E+04  0.10100000352E+00 0.  1.
       -3    1    3    3    0  502 -0.16883540276E+04 -0.78167844446E+03  0.22725377276E+03  0.18743545023E+04  0.10100000352E+00 0. -1.
</event>
<event>
 5   0  0.8438211E-08  0.3895898E+04  0.7818609E-02  0.8025883E-01
       -2   -1    0    0    0  501  0.00000000000E+00  0.00000000000E+00  0.13932403323E+04  0.13932403323E+04  0.25500000920E-02 0.  1.
        2   -1    0    0  501    0  0.00000000000E+00  0.00000000000E+00 -0.27235108354E+04  0.27235108354E+04  0.25500000920E-02 0. -1.
    10030    2    1    2    0    0  0.00000000000E+00  0.00000000000E+00 -0.13302705030E+04  0.41167511677E+04  0.38958979152E+04 0.  0.
        5    1    3    3  502    0 -0.18571319338E+04  0.51496173478E+03 -0.36558974667E+03  0.19615816478E+04  0.46999998093E+01 0.  1.
       -5    1    3    3    0  502  0.18571319338E+04 -0.51496173478E+03 -0.96468075634E+03  0.21551695199E+04  0.46999998093E+01 0. -1.
</event>
<event>
 5   0  0.2632875E-08  0.3889145E+04  0.7818609E-02  0.8027291E-01
       -1   -1    0    0    0  501  0.00000000000E+00  0.00000000000E+00  0.29864255412E+04  0.29864255412E+04  0.50400001928E-02 0.  1.
        1   -1    0    0  501    0  0.00000000000E+00  0.00000000000E+00 -0.12661835879E+04  0.12661835879E+04  0.50400001928E-02 0. -1.
    10030    2    1    2    0    0  0.00000000000E+00  0.00000000000E+00  0.17202419533E+04  0.42526091291E+04  0.38891454109E+04 0.  0.
        2    1    3    3  502    0  0.18125978511E+04 -0.66938905919E+03  0.10991113351E+04  0.22229796242E+04  0.25500000920E-02 0.  1.
       -2    1    3    3    0  502 -0.18125978511E+04  0.66938905919E+03  0.62113061823E+03  0.20296295050E+04  0.25500000920E-02 0. -1.
</event>
<event>
 5   0  0.8551754E-08  0.3904235E+04  0.7818609E-02  0.8024149E-01
        2   -1    0    0  501    0  0.00000000000E+00  0.00000000000E+00  0.22947105348E+04  0.22947105348E+04  0.25500000920E-02 0.  1.
       -2   -1    0    0    0  501  0.00000000000E+00  0.00000000000E+00 -0.16606725185E+04  0.16606725185E+04  0.25500000920E-02 0. -1.
    10030    2    1    2    0    0  0.00000000000E+00  0.00000000000E+00  0.63403801628E+03  0.39553830534E+04  0.39042349946E+04 0.  0.
        1    1    3    3  502    0  0.16227980954E+04  0.98084188817E+03 -0.15299665404E+03  0.19023491909E+04  0.50400001928E-02 0.  1.
       -1    1    3    3    0  502 -0.16227980954E+04 -0.98084188817E+03  0.78703467032E+03  0.20530338624E+04  0.50400001928E-02 0. -1.
</event>
<event>
 5   0  0.2632875E-08  0.3865084E+04  0.7818609E-02  0.8032331E-01
       -1   -1    0    0    0  501  0.00000000000E+00  0.00000000000E+00  0.22908689463E+04  0.22908689463E+04  0.50400001928E-02 0. -1.
        1   -1    0    0  501    0  0.00000000000E+00  0.00000000000E+00 -0.16302628156E+04  0.16302628156E+04  0.50400001928E-02 0.  1.
    10030    2    1    2    0    0  0.00000000000E+00  0.00000000000E+00  0.66060613073E+03  0.39211317619E+04  0.38650839362E+04 0.  0.
        2    1    3    3  502    0  0.37624838725E+03  0.39253509372E+03 -0.15510622300E+04  0.16436060021E+04  0.25500000920E-02 0.  1.
       -2    1    3    3    0  502 -0.37624838725E+03 -0.39253509372E+03  0.22116683607E+04  0.22775257598E+04  0.25500000920E-02 0. -1.
</event>
<event>
 5   0  0.8342802E-08  0.3894895E+04  0.7818609E-02  0.8026092E-01
       -2   -1    0    0    0  501  0.00000000000E+00  0.00000000000E+00  0.15717488947E+04  0.15717488947E+04  0.25500000920E-02 0.  1.
        2   -1    0    0  501    0  0.00000000000E+00  0.00000000000E+00 -0.24129500386E+04  0.24129500386E+04  0.25500000920E-02 0. -1.
    10030    2    1    2    0    0  0.00000000000E+00  0.00000000000E+00 -0.84120114385E+03  0.39846989333E+04  0.38948948927E+04 0.  0.
        4    1    3    3  502    0  0.98533076851E+02 -0.14377960833E+04 -0.17606033974E+04  0.22752345549E+04  0.12699999809E+01 0. -1.
       -4    1    3    3    0  502 -0.98533076851E+02  0.14377960833E+04  0.91940225353E+03  0.17094643784E+04  0.12699999809E+01 0.  1.
</event>
<event>
 5   0  0.2632875E-08  0.3895879E+04  0.7818609E-02  0.8025887E-01
       -1   -1    0    0    0  501  0.00000000000E+00  0.00000000000E+00  0.14025055238E+04  0.14025055238E+04  0.50400001928E-02 0.  1.
        1   -1    0    0  501    0  0.00000000000E+00  0.00000000000E+00 -0.27054931204E+04  0.27054931204E+04  0.50400001928E-02 0. -1.
    10030    2    1    2    0    0  0.00000000000E+00  0.00000000000E+00 -0.13029875966E+04  0.41079986442E+04  0.38958793852E+04 0.  0.
        4    1    3    3  502    0 -0.15313573822E+04 -0.10042255048E+04  0.48696489172E+02  0.18319108214E+04  0.12699999809E+01 0. -1.
       -4    1    3    3    0  502  0.15313573822E+04  0.10042255048E+04 -0.13516840858E+04  0.22760878228E+04  0.12699999809E+01 0.  1.
</event>
<event>
 5   0  0.2632875E-08  0.3885750E+04  0.7818609E-02  0.8027999E-01
       -1   -1    0    0    0  501  0.00000000000E+00  0.00000000000E+00  0.18891971052E+04  0.18891971052E+04  0.50400001928E-02 0.  1.
        1   -1    0    0  501    0  0.00000000000E+00  0.00000000000E+00 -0.19980785130E+04  0.19980785130E+04  0.50400001928E-02 0. -1.
    10030    2    1    2    0    0  0.00000000000E+00  0.00000000000E+00 -0.10888140785E+03  0.38872756182E+04  0.38857504515E+04 0.  0.
        2    1    3    3  502    0 -0.14327891934E+04  0.10701515317E+04 -0.81411677644E+03  0.19649161049E+04  0.25500000920E-02 0. -1.
       -2    1    3    3    0  502  0.14327891934E+04 -0.10701515317E+04  0.70523536859E+03  0.19223595134E+04  0.25500000920E-02 0.  1.
</event>
<event>
 5   0  0.2632875E-08  0.3905820E+04  0.7818609E-02  0.8023820E-01
        1   -1    0    0  501    0  0.00000000000E+00  0.00000000000E+00  0.13486725796E+04  0.13486725796E+04  0.50400001928E-02 0.  1.
       -1   -1    0    0    0  501  0.00000000000E+00  0.00000000000E+00 -0.28278601547E+04  0.28278601547E+04  0.50400001928E-02 0. -1.
    10030    2    1    2    0    0  0.00000000000E+00  0.00000000000E+00 -0.14791875751E+04  0.41765327343E+04  0.39058199905E+04 0.  0.
        5    1    3    3  502    0 -0.17453479183E+04 -0.69861146982E+03 -0.13049525224E+04  0.22884974366E+04  0.46999998093E+01 0. -1.
       -5    1    3    3    0  502  0.17453479183E+04  0.69861146982E+03 -0.17423505267E+03  0.18880352977E+04  0.46999998093E+01 0.  1.
</event>
<event>
 5   0  0.2632875E-08  0.3707741E+04  0.7818609E-02  0.8066248E-01
        1   -1    0    0  501    0  0.00000000000E+00  0.00000000000E+00  0.23499620439E+04  0.23499620439E+04  0.50400001928E-02 0.  1.
       -1   -1    0    0    0  501  0.00000000000E+00  0.00000000000E+00 -0.14625071293E+04  0.14625071293E+04  0.50400001928E-02 0. -1.
    10030    2    1    2    0    0  0.00000000000E+00  0.00000000000E+00  0.88745491460E+03  0.38124691732E+04  0.37077412223E+04 0.  0.
        2    1    3    3  502    0 -0.43288909113E+03  0.10849019061E+04 -0.10365290506E+04  0.15616650037E+04  0.25500000920E-02 0. -1.
       -2    1    3    3    0  502  0.43288909113E+03 -0.10849019061E+04  0.19239839652E+04  0.22508041695E+04  0.25500000920E-02 0.  1.
</event>
<event>
 5   0  0.2632875E-08  0.3876737E+04  0.7818609E-02  0.8029885E-01
       -1   -1    0    0    0  501  0.00000000000E+00  0.00000000000E+00  0.17580212443E+04  0.17580212443E+04  0.50400001928E-02 0. -1.
        1   -1    0    0  501    0  0.00000000000E+00  0.00000000000E+00 -0.21372165245E+04  0.21372165245E+04  0.50400001928E-02 0.  1.
    10030    2    1    2    0    0  0.00000000000E+00  0.00000000000E+00 -0.37919528018E+03  0.38952377688E+04  0.38767367998E+04 0.  0.
        3    1    3    3  502    0 -0.35556694626E+03 -0.14279101248E+04 -0.14573307926E+04  0.20710307161E+04  0.10100000352E+00 0.  1.
       -3    1    3    3    0  502  0.35556694626E+03  0.14279101248E+04  0.10781355124E+04  0.18242070527E+04  0.10100000352E+00 0. -1.
</event>
<event>
 5   0  0.2632875E-08  0.3871219E+04  0.7818609E-02  0.8031042E-01
       -1   -1    0    0    0  501  0.00000000000E+00  0.00000000000E+00  0.19439575289E+04  0.19439575289E+04  0.50400001928E-02 0.  1.
        1   -1    0    0  501    0  0.00000000000E+00  0.00000000000E+00 -0.19272977673E+04  0.19272977673E+04  0.50400001928E-02 0. -1.
    10030    2    1    2    0    0  0.00000000000E+00  0.00000000000E+00  0.16659761613E+02  0.38712552962E+04  0.38712194488E+04 0.  0.
        5    1    3    3  502    0 -0.43490983148E+03 -0.36073169694E+03  0.18596408946E+04  0.19435946763E+04  0.46999998093E+01 0.  1.
       -5    1    3    3    0  502  0.43490983148E+03  0.36073169694E+03 -0.18429811330E+04  0.19276606199E+04  0.46999998093E+01 0. -1.
</event>
<event>
 5   0  0.2632875E-08  0.3882693E+04  0.7818609E-02  0.8028638E-01
       -1   -1    0    0    0  501  0.00000000000E+00  0.00000000000E+00  0.13027415838E+04  0.13027415839E+04  0.50400001928E-02 0.  1.
        1   -1    0    0  501    0  0.00000000000E+00  0.00000000000E+00 -0.28929960969E+04  0.28929960969E+04  0.50400001928E-02 0. -1.
    10030    2    1    2    0    0  0.00000000000E+00  0.00000000000E+00 -0.15902545131E+04  0.41957376808E+04  0.38826930434E+04 0.  0.
        5    1    3    3  502    0  0.16408474516E+03 -0.11671427642E+03 -0.28816746875E+04  0.28887050941E+04  0.46999998093E+01 0. -1.
       -5    1    3    3    0  502 -0.16408474516E+03  0.11671427642E+03  0.12914201744E+04  0.13070325867E+04  0.46999998093E+01 0.  1.
</event>
<event>
 5   0  0.2632875E-08  0.3851264E+04  0.7818609E-02  0.8035242E-01
       -1   -1    0    0    0  501  0.00000000000E+00  0.00000000000E+00  0.21716546937E+04  0.21716546937E+04  0.50400001928E-02 0. -1.
        1   -1    0    0  501    0  0.00000000000E+00  0.00000000000E+00 -0.17074803913E+04  0.17074803913E+04  0.50400001928E-02 0.  1.
    10030    2    1    2    0    0  0.00000000000E+00  0.00000000000E+00  0.46417430240E+03  0.38791350851E+04  0.38512635881E+04 0.  0.
        5    1    3    3  502    0  0.74808419474E+03  0.13909852704E+04 -0.87750483662E+03  0.18067946239E+04  0.46999998093E+01 0.  1.
       -5    1    3    3    0  502 -0.74808419474E+03 -0.13909852704E+04  0.13416791390E+04  0.20723404611E+04  0.46999998093E+01 0. -1.
</event>
<event>
 5   0  0.8342802E-08  0.3841830E+04  0.7818609E-02  0.8037237E-01
        2   -1    0    0  501    0  0.00000000000E+00  0.00000000000E+00  0.22074716639E+04  0.22074716639E+04  0.25500000920E-02 0. -1.
       -2   -1    0    0    0  501  0.00000000000E+00  0.00000000000E+00 -0.16715571185E+04  0.16715571185E+04  0.25500000920E-02 0.  1.
    10030    2    1    2    0    0  0.00000000000E+00  0.00000000000E+00  0.53591454539E+03  0.38790287825E+04  0.38418302793E+04 0.  0.
        4    1    3    3  502    0 -0.12646674704E+04 -0.13022560259E+04 -0.36634419858E+03  0.18518812739E+04  0.12699999809E+01 0.  1.
       -4    1    3    3    0  502  0.12646674704E+04  0.13022560259E+04  0.90225874397E+03  0.20271475086E+04  0.12699999809E+01 0. -1.
</event>
<event>
 5   0  0.2632875E-08  0.3898740E+04  0.7818609E-02  0.8025291E-01
        1   -1    0    0  501    0  0.00000000000E+00  0.00000000000E+00  0.17540286912E+04  0.17540286912E+04  0.50400001928E-02 0.  1.
       -1   -1    0    0    0  501  0.00000000000E+00  0.00000000000E+00 -0.21664663429E+04  0.21664663429E+04  0.50400001928E-02 0. -1.
    10030    2    1    2    0    0  0.00000000000E+00  0.00000000000E+00 -0.41243765167E+03  0.39204950341E+04  0.38987403730E+04 0.  0.
        4    1    3    3  502    0 -0.13630890116E+04  0.62438157808E+03 -0.14590352112E+04  0.20920443038E+04  0.12699999809E+01 0. -1.
       -4    1    3    3    0  502  0.13630890116E+04 -0.62438157808E+03  0.10465975595E+04  0.18284507303E+04  0.12699999809E+01 0.  1.
</event>
<event>
 5   0  0.8676098E-08  0.3865424E+04  0.7818609E-02  0.8032259E-01
        2   -1    0    0  501    0  0.00000000000E+00  0.00000000000E+00  0.32929692003E+04  0.32929692003E+04  0.25500000920E-02 0.  1.
       -2   -1    0    0    0  501  0.00000000000E+00  0.00000000000E+00 -0.11343487303E+04  0.11343487303E+04  0.25500000920E-02 0. -1.
    10030    2    1    2    0    0  0.00000000000E+00  0.00000000000E+00  0.21586204701E+04  0.44273179306E+04  0.38654238739E+04 0.  0.
        3    1    3    3  502    0 -0.64445333279E+02  0.68092936607E+03  0.31497147190E+04  0.32231228372E+04  0.10100000352E+00 0.  1.
       -3    1    3    3    0  502  0.64445333279E+02 -0.68092936607E+03 -0.99109424890E+03  0.12041950934E+04  0.10100000352E+00 0. -1.
</event>
<event>
 5   0  0.8551754E-08  0.3906242E+04  0.7818609E-02  0.8023732E-01
        2   -1    0    0  501    0  0.00000000000E+00  0.00000000000E+00  0.11423172630E+04  0.11423172630E+04  0.25500000920E-02 0.  1.
       -2   -1    0    0    0  501  0.00000000000E+00  0.00000000000E+00 -0.33394245301E+04  0.33394245301E+04  0.25500000920E-02 0. -1.
    10030    2    1    2    0    0  0.00000000000E+00  0.00000000000E+00 -0.21971072671E+04  0.44817417930E+04  0.39062423320E+04 0.  0.
        1    1    3    3  502    0 -0.17103827348E+03 -0.18834026257E+04 -0.53856493258E+03  0.19663447633E+04  0.50400001928E-02 0.  1.
       -1    1    3    3    0  502  0.17103827348E+03  0.18834026257E+04 -0.16585423345E+04  0.25153970297E+04  0.50400001928E-02 0. -1.
</event>
<event>
 5   0  0.2632875E-08  0.3929449E+04  0.7818609E-02  0.8018932E-01
       -1   -1    0    0    0  501  0.00000000000E+00  0.00000000000E+00  0.13891542565E+04  0.13891542565E+04  0.50400001928E-02 0. -1.
        1   -1    0    0  501    0  0.00000000000E+00  0.00000000000E+00 -0.27787722728E+04  0.27787722729E+04  0.50400001928E-02 0.  1.
    10030    2    1    2    0    0  0.00000000000E+00  0.00000000000E+00 -0.13896180164E+04  0.41679265293E+04  0.39294494935E+04 0.  0.
        4    1    3    3  502    0 -0.13139778310E+04 -0.13993115412E+04 -0.25041776797E+03  0.19357998867E+04  0.12699999809E+01 0.  1.
       -4    1    3    3    0  502  0.13139778310E+04  0.13993115412E+04 -0.11392002484E+04  0.22321266426E+04  0.12699999809E+01 0. -1.
</event>
<event>
 5   0  0.8551754E-08  0.3895593E+04  0.7818609E-02  0.8025946E-01
       -2   -1    0    0    0  501  0.00000000000E+00  0.00000000000E+00  0.27925150049E+04  0.27925150049E+04  0.25500000920E-02 0. -1.
        2   -1    0    0  501    0  0.00000000000E+00  0.00000000000E+00 -0.13585998415E+04  0.13585998415E+04  0.25500000920E-02 0.  1.
    10030    2    1    2    0    0  0.00000000000E+00  0.00000000000E+00  0.14339151634E+04  0.41511148464E+04  0.38955926086E+04 0.  0.
        1    1    3    3  502    0 -0.16970105048E+04  0.50646542059E+03 -0.14713133787E+03  0.17770761115E+04  0.50400001928E-02 0. -1.
       -1    1    3    3    0  502  0.16970105048E+04 -0.50646542059E+03  0.15810465013E+04  0.23740387349E+04  0.50400001928E-02 0.  1.
</event>
<event>
 5   0  0.8676098E-08  0.4179052E+04  0.7818609E-02  0.7969369E-01
        2   -1    0    0  501    0  0.00000000000E+00  0.00000000000E+00  0.23984601684E+04  0.23984601684E+04  0.25500000920E-02 0. -1.
       -2   -1    0    0    0  501  0.00000000000E+00  0.00000000000E+00 -0.18203841118E+04  0.18203841118E+04  0.25500000920E-02 0.  1.
    10030    2    1    2    0    0  0.00000000000E+00  0.00000000000E+00  0.57807605657E+03  0.42188442802E+04  0.41790519420E+04 0.  0.
        3    1    3    3  502    0 -0.32695036402E+03 -0.64681962536E+03  0.22675068374E+04  0.23805166322E+04  0.10100000352E+00 0. -1.
       -3    1    3    3    0  502  0.32695036402E+03  0.64681962536E+03 -0.16894307808E+04  0.18383276481E+04  0.10100000352E+00 0.  1.
</event>
<event>
 5   0  0.2632875E-08  0.3905990E+04  0.7818609E-02  0.8023785E-01
       -1   -1    0    0    0  501  0.00000000000E+00  0.00000000000E+00  0.31657196379E+04  0.31657196379E+04  0.50400001928E-02 0.  1.
        1   -1    0    0  501    0  0.00000000000E+00  0.00000000000E+00 -0.12048410678E+04  0.12048410678E+04  0.50400001928E-02 0. -1.
    10030    2    1    2    0    0  0.00000000000E+00  0.00000000000E+00  0.19608785701E+04  0.43705607057E+04  0.39059897742E+04 0.  0.
        2    1    3    3  502    0  0.10183637234E+04  0.98938234296E+03 -0.52004247077E+03  0.15120801120E+04  0.25500000920E-02 0. -1.
       -2    1    3    3    0  502 -0.10183637234E+04 -0.98938234296E+03  0.24809210409E+04  0.28584805937E+04  0.25500000920E-02 0.  1.
</event>
<event>
 5   0  0.8676098E-08  0.3856011E+04  0.7818609E-02  0.8034241E-01
       -2   -1    0    0    0  501  0.00000000000E+00  0.00000000000E+00  0.15808033967E+04  0.15808033967E+04  0.25500000920E-02 0. -1.
        2   -1    0    0  501    0  0.00000000000E+00  0.00000000000E+00 -0.23514655919E+04  0.23514655919E+04  0.25500000920E-02 0.  1.
    10030    2    1    2    0    0  0.00000000000E+00  0.00000000000E+00 -0.77066219516E+03  0.39322689886E+04  0.38560107857E+04 0.  0.
        3    1    3    3  502    0  0.12140258316E+04  0.56644139734E+03 -0.17992908462E+04  0.22432481218E+04  0.10100000352E+00 0.  1.
       -3    1    3    3    0  502 -0.12140258316E+04 -0.56644139734E+03  0.10286286511E+04  0.16890208668E+04  0.10100000352E+00 0. -1.
</event>
<event>
 5   0  0.2632875E-08  0.3907190E+04  0.7818609E-02  0.8023535E-01
        1   -1    0    0  501    0  0.00000000000E+00  0.00000000000E+00  0.19008795677E+04  0.19008795677E+04  0.50400001928E-02 0.  1.
       -1   -1    0    0    0  501  0.00000000000E+00  0.00000000000E+00 -0.20077723238E+04  0.20077723238E+04  0.50400001928E-02 0. -1.
    10030    2    1    2    0    0  0.00000000000E+00  0.00000000000E+00 -0.10689275601E+03  0.39086518915E+04  0.39071899810E+04 0.  0.
        1    1    3    3  502    0 -0.14172679078E+04 -0.11522918507E+04  0.63971153793E+03  0.19353696503E+04  0.50400001928E-02 0.  1.
       -1    1    3    3    0  502  0.14172679078E+04  0.11522918507E+04 -0.74660429394E+03  0.19732822412E+04  0.50400001928E-02 0. -1.
</event>
<event>
 5   0  0.2632875E-08  0.3903903E+04  0.7818609E-02  0.8024218E-01
       -1   -1    0    0    0  501  0.00000000000E+00  0.00000000000E+00  0.16213314262E+04  0.16213314262E+04  0.50400001928E-02 0. -1.
        1   -1    0    0  501    0  0.00000000000E+00  0.00000000000E+00 -0.23499907697E+04  0.23499907697E+04  0.50400001928E-02 0.  1.
    10030    2    1    2    0    0  0.00000000000E+00  0.00000000000E+00 -0.72865934352E+03  0.39713221959E+04  0.39039026044E+04 0.  0.
        2    1    3    3  502    0  0.82002716437E+03  0.14965707814E+03 -0.21598244288E+04  0.23150989946E+04  0.25500000920E-02 0.  1.
       -2    1    3    3    0  502 -0.82002716437E+03 -0.14965707814E+03  0.14311650853E+04  0.16562232014E+04  0.25500000920E-02 0. -1.
</event>
<event>
 5   0  0.2632875E-08  0.3912480E+04  0.7818609E-02  0.8022439E-01
        1   -1    0    0  501    0  0.00000000000E+00  0.00000000000E+00  0.33657505677E+04  0.33657505677E+04  0.50400001928E-02 0. -1.
       -1   -1    0    0    0  501  0.00000000000E+00  0.00000000000E+00 -0.11370049834E+04  0.11370049834E+04  0.50400001928E-02 0.  1.
    10030    2    1    2    0    0  0.00000000000E+00  0.00000000000E+00  0.22287455843E+04  0.45027555511E+04  0.39124801180E+04 0.  0.
        1    1    3    3  502    0 -0.66561557779E+03  0.17186495974E+04  0.35963144943E+03  0.18778006591E+04  0.50400001928E-02 0. -1.
       -1    1    3    3    0  502  0.66561557779E+03 -0.17186495974E+04  0.18691141348E+04  0.26249548920E+04  0.50400001928E-02 0.  1.
</event>
<event>
 5   0  0.8551754E-08  0.3873586E+04  0.7818609E-02  0.8030545E-01
       -2   -1    0    0    0  501  0.00000000000E+00  0.00000000000E+00  0.24363346645E+04  0.24363346645E+04  0.25500000920E-02 0. -1.
        2   -1    0    0  501    0  0.00000000000E+00  0.00000000000E+00 -0.15396765260E+04  0.15396765260E+04  0.25500000920E-02 0.  1.
    10030    2    1    2    0    0  0.00000000000E+00  0.00000000000E+00  0.89665813850E+03  0.39760111905E+04  0.38735860865E+04 0.  0.
        1    1    3    3  502    0 -0.11229973532E+04  0.12099408103E+04  0.14880734420E+04  0.22224856329E+04  0.50400001928E-02 0. -1.
       -1    1    3    3    0  502  0.11229973532E+04 -0.12099408103E+04 -0.59141530353E+03  0.17535255576E+04  0.50400001928E-02 0.  1.
</event>
<event>
 5   0  0.2632875E-08  0.3873149E+04  0.7818609E-02  0.8030637E-01
       -1   -1    0    0    0  501  0.00000000000E+00  0.00000000000E+00  0.21765205991E+04  0.21765205991E+04  0.50400001928E-02 0.  1.
        1   -1    0    0  501    0  0.00000000000E+00  0.00000000000E+00 -0.17230804441E+04  0.17230804441E+04  0.50400001928E-02 0. -1.
    10030    2    1    2    0    0  0.00000000000E+00  0.00000000000E+00  0.45344015502E+03  0.38996010433E+04  0.38731486316E+04 0.  0.
        1    1    3    3  502    0  0.17196099224E+04 -0.70343467557E+03 -0.32330892134E+03  0.18858439190E+04  0.50400001928E-02 0. -1.
       -1    1    3    3    0  502 -0.17196099224E+04  0.70343467557E+03  0.77674907636E+03  0.20137571243E+04  0.50400001928E-02 0.  1.
</event>
<event>
 5   0  0.2632875E-08  0.3893778E+04  0.7818609E-02  0.8026325E-01
       -1   -1    0    0    0  501  0.00000000000E+00  0.00000000000E+00  0.25665414066E+04  0.25665414066E+04  0.50400001928E-02 0. -1.
        1   -1    0    0  501    0  0.00000000000E+00  0.00000000000E+00 -0.14768420284E+04  0.14768420284E+04  0.50400001928E-02 0.  1.
    10030    2    1    2    0    0  0.00000000000E+00  0.00000000000E+00  0.10896993782E+04  0.40433834350E+04  0.38937777116E+04 0.  0.
        4    1    3    3  502    0 -0.13099087394E+03 -0.24521652387E+03  0.25458226018E+04  0.25609576500E+04  0.12699999809E+01 0. -1.
       -4    1    3    3    0  502  0.13099087394E+03  0.24521652387E+03 -0.14561232236E+04  0.14824257849E+04  0.12699999809E+01 0.  1.
</event>
<event>
 5   0  0.8476262E-08  0.3891960E+04  0.7818609E-02  0.8026703E-01
       -2   -1    0    0    0  501  0.00000000000E+00  0.00000000000E+00  0.17487020361E+04  0.17487020361E+04  0.25500000920E-02 0. -1.
        2   -1    0    0  501    0  0.00000000000E+00  0.00000000000E+00 -0.21655139521E+04  0.21655139521E+04  0.25500000920E-02 0.  1.
    10030    2    1    2    0    0  0.00000000000E+00  0.00000000000E+00 -0.41681191595E+03  0.39142159882E+04  0.38919602553E+04 0.  0.
        2    1    3    3  502    0 -0.45652165132E+02 -0.56811066071E+03  0.16628802801E+04  0.17578409111E+04  0.25500000920E-02 0. -1.
       -2    1    3    3    0  502  0.45652165132E+02  0.56811066071E+03 -0.20796921960E+04  0.21563750771E+04  0.25500000920E-02 0.  1.
</event>
<event>
 5   0  0.8476262E-08  0.3896578E+04  0.7818609E-02  0.8025741E-01
       -2   -1    0    0    0  501  0.00000000000E+00  0.00000000000E+00  0.15485859989E+04  0.15485859989E+04  0.25500000920E-02 0.  1.
        2   -1    0    0  501    0  0.00000000000E+00  0.00000000000E+00 -0.24511583646E+04  0.24511583646E+04  0.25500000920E-02 0. -1.
    10030    2    1    2    0    0  0.00000000000E+00  0.00000000000E+00 -0.90257236573E+03  0.39997443634E+04  0.38965777418E+04 0.  0.
        2    1    3    3  502    0  0.18655321768E+04 -0.54855256431E+03 -0.32679316873E+03  0.19717793978E+04  0.25500000920E-02 0. -1.
       -2    1    3    3    0  502 -0.18655321768E+04  0.54855256431E+03 -0.57577919700E+03  0.20279649657E+04  0.25500000920E-02 0.  1.
</event>
<event>
 5   0  0.2632875E-08  0.3947442E+04  0.7818609E-02  0.8015234E-01
        1   -1    0    0  501    0  0.00000000000E+00  0.00000000000E+00  0.19168478844E+04  0.19168478844E+04  0.50400001928E-02 0. -1.
       -1   -1    0    0    0  501  0.00000000000E+00  0.00000000000E+00 -0.20322812978E+04  0.20322812978E+04  0.50400001928E-02 0.  1.
    10030    2    1    2    0    0  0.00000000000E+00  0.00000000000E+00 -0.11543341340E+03  0.39491291821E+04  0.39474417569E+04 0.  0.
        2    1    3    3  502    0 -0.17166545125E+04 -0.75045784327E+03 -0.67885602681E+03  0.19927205512E+04  0.25500000920E-02 0.  1.
       -2    1    3    3    0  502  0.17166545125E+04  0.75045784327E+03  0.56342261341E+03  0.19564086310E+04  0.25500000920E-02 0. -1.
</event>
<event>
 5   0  0.8551754E-08  0.3876125E+04  0.7818609E-02  0.8030013E-01
       -2   -1    0    0    0  501  0.00000000000E+00  0.00000000000E+00  0.16004380262E+04  0.16004380262E+04  0.25500000920E-02 0.  1.
        2   -1    0    0  501    0  0.00000000000E+00  0.00000000000E+00 -0.23469113328E+04  0.23469113328E+04  0.25500000920E-02 0. -1.
    10030    2    1    2    0    0  0.00000000000E+00  0.00000000000E+00 -0.74647330656E+03  0.39473493590E+04  0.38761249418E+04 0.  0.
        1    1    3    3  502    0  0.22980796154E+02 -0.72336656461E+03 -0.22041321255E+04  0.23199107161E+04  0.50400001928E-02 0. -1.
       -1    1    3    3    0  502 -0.22980796154E+02  0.72336656461E+03  0.14576588190E+04  0.16274386429E+04  0.50400001928E-02 0.  1.
</event>
<event>
 5   0  0.2632875E-08  0.3907327E+04  0.7818609E-02  0.8023507E-01
       -1   -1    0    0    0  501  0.00000000000E+00  0.00000000000E+00  0.18975803816E+04  0.18975803816E+04  0.50400001928E-02 0. -1.
        1   -1    0    0  501    0  0.00000000000E+00  0.00000000000E+00 -0.20114044591E+04  0.20114044591E+04  0.50400001928E-02 0.  1.
    10030    2    1    2    0    0  0.00000000000E+00  0.00000000000E+00 -0.11382407756E+03  0.39089848407E+04  0.39073272916E+04 0.  0.
        3    1    3    3  502    0 -0.46566395334E+03 -0.15378653090E+04  0.10548329766E+04  0.19221199871E+04  0.10100000352E+00 0. -1.
       -3    1    3    3    0  502  0.46566395334E+03  0.15378653090E+04 -0.11686570541E+04  0.19868648536E+04  0.10100000352E+00 0.  1.
</event>
<event>
 5   0  0.8342802E-08  0.3921902E+04  0.7818609E-02  0.8020489E-01
       -2   -1    0    0    0  501  0.00000000000E+00  0.00000000000E+00  0.24333363363E+04  0.24333363363E+04  0.25500000920E-02 0.  1.
        2   -1    0    0  501    0  0.00000000000E+00  0.00000000000E+00 -0.15802699924E+04  0.15802699924E+04  0.25500000920E-02 0. -1.
    10030    2    1    2    0    0  0.00000000000E+00  0.00000000000E+00  0.85306634389E+03  0.40136063287E+04  0.39219017804E+04 0.  0.
        4    1    3    3  502    0  0.60499495049E+03  0.33517725503E+03 -0.14513012797E+04  0.16076814671E+04  0.12699999809E+01 0. -1.
       -4    1    3    3    0  502 -0.60499495049E+03 -0.33517725503E+03  0.23043676236E+04  0.24059248616E+04  0.12699999809E+01 0.  1.
</event>
<event>
 5   0  0.8438211E-08  0.3899873E+04  0.7818609E-02  0.8025056E-01
        2   -1    0    0  501    0  0.00000000000E+00  0.00000000000E+00  0.22923681267E+04  0.22923681267E+04  0.25500000920E-02 0. -1.
       -2   -1    0    0    0  501  0.00000000000E+00  0.00000000000E+00 -0.16586569911E+04  0.16586569911E+04  0.25500000920E-02 0.  1.
    10030    2    1    2    0    0  0.00000000000E+00  0.00000000000E+00  0.63371113558E+03  0.39510251177E+04  0.38998730335E+04 0.  0.
        5    1    3    3  502    0 -0.14476007138E+04 -0.14194309360E+03 -0.99884468472E+03  0.17644853251E+04  0.46999998093E+01 0.  1.
       -5    1    3    3    0  502  0.14476007138E+04  0.14194309360E+03  0.16325558203E+04  0.21865397926E+04  0.46999998093E+01 0. -1.
</event>
<event>
 5   0  0.8676098E-08  0.3928041E+04  0.7818609E-02  0.8019222E-01
        2   -1    0    0  501    0  0.00000000000E+00  0.00000000000E+00  0.15863057560E+04  0.15863057560E+04  0.25500000920E-02 0.  1.
       -2   -1    0    0    0  501  0.00000000000E+00  0.00000000000E+00 -0.24316723773E+04  0.24316723773E+04  0.25500000920E-02 0. -1.
    10030    2    1    2    0    0  0.00000000000E+00  0.00000000000E+00 -0.84536662134E+03  0.40179781332E+04  0.39280406763E+04 0.  0.
        3    1    3    3  502    0  0.45881731965E+03 -0.12366992935E+04 -0.19111423321E+04  0.23221549257E+04  0.10100000352E+00 0. -1.
       -3    1    3    3    0  502 -0.45881731965E+03  0.12366992935E+04  0.10657757108E+04  0.16958232075E+04  0.10100000352E+00 0.  1.
</event>
<event>
 5   0  0.2632875E-08  0.3895991E+04  0.7818609E-02  0.8025864E-01
       -1   -1    0    0    0  501  0.00000000000E+00  0.00000000000E+00  0.13883060261E+04  0.13883060261E+04  0.50400001928E-02 0. -1.
        1   -1    0    0  501    0  0.00000000000E+00  0.00000000000E+00 -0.27333211257E+04  0.27333211257E+04  0.50400001928E-02 0.  1.
    10030    2    1    2    0    0  0.00000000000E+00  0.00000000000E+00 -0.13450150995E+04  0.41216271518E+04  0.38959908574E+04 0.  0.
        1    1    3    3  502    0  0.47095805663E+03 -0.28481254124E+03 -0.26493559758E+04  0.27059206864E+04  0.50400001928E-02 0.  1.
       -1    1    3    3    0  502 -0.47095805663E+03  0.28481254124E+03  0.13043408762E+04  0.14157064654E+04  0.50400001928E-02 0. -1.
</event>
<event>
 5   0  0.2632875E-08  0.3888418E+04  0.7818609E-02  0.8027442E-01
        1   -1    0    0  501    0  0.00000000000E+00  0.00000000000E+00  0.28122710533E+04  0.28122710533E+04  0.50400001928E-02 0. -1.
       -1   -1    0    0    0  501  0.00000000000E+00  0.00000000000E+00 -0.13440912753E+04  0.13440912753E+04  0.50400001928E-02 0.  1.
    10030    2    1    2    0    0  0.00000000000E+00  0.00000000000E+00  0.14681797780E+04  0.41563623286E+04  0.38884181805E+04 0.  0.
        2    1    3    3  502    0  0.55938477714E+02  0.19240353746E+04  0.10266423880E+04  0.21815214482E+04  0.25500000920E-02 0.  1.
       -2    1    3    3    0  502 -0.55938477714E+02 -0.19240353746E+04  0.44153738997E+03  0.19748408804E+04  0.25500000920E-02 0. -1.
</event>
<event>
 5   0  0.2632875E-08  0.3899688E+04  0.7818609E-02  0.8025094E-01
        1   -1    0    0  501    0  0.00000000000E+00  0.00000000000E+00  0.24874929295E+04  0.24874929295E+04  0.50400001928E-02 0. -1.
       -1   -1    0    0    0  501  0.00000000000E+00  0.00000000000E+00 -0.15284026216E+04  0.15284026216E+04  0.50400001928E-02 0.  1.
    10030    2    1    2    0    0  0.00000000000E+00  0.00000000000E+00  0.95909030787E+03  0.40158955511E+04  0.38996875335E+04 0.  0.
        2    1    3    3  502    0 -0.11855516528E+04  0.14761784312E+04 -0.45095976735E+00  0.18933134145E+04  0.25500000920E-02 0.  1.
       -2    1    3    3    0  502  0.11855516528E+04 -0.14761784312E+04  0.95954126764E+03  0.21225821366E+04  0.25500000920E-02 0. -1.
</event>
<event>
 5   0  0.8476262E-08  0.3894297E+04  0.7818609E-02  0.8026216E-01
       -2   -1    0    0    0  501  0.00000000000E+00  0.00000000000E+00  0.14007828160E+04  0.14007828160E+04  0.25500000920E-02 0. -1.
        2   -1    0    0  501    0  0.00000000000E+00  0.00000000000E+00 -0.27066203131E+04  0.27066203131E+04  0.25500000920E-02 0.  1.
    10030    2    1    2    0    0  0.00000000000E+00  0.00000000000E+00 -0.13058374971E+04  0.41074031292E+04  0.38942969708E+04 0.  0.
        2    1    3    3  502    0 -0.12166425066E+04  0.10823160760E+04  0.47309837885E+03  0.16957149387E+04  0.25500000920E-02 0. -1.
       -2    1    3    3    0  502  0.12166425066E+04 -0.10823160760E+04 -0.17789358759E+04  0.24116881905E+04  0.25500000920E-02 0.  1.
</event>
<event>
 5   0  0.8342802E-08  0.3911845E+04  0.7818609E-02  0.8022570E-01
        2   -1    0    0  501    0  0.00000000000E+00  0.00000000000E+00  0.15378291939E+04  0.15378291939E+04  0.25500000920E-02 0. -1.
       -2   -1    0    0    0  501  0.00000000000E+00  0.00000000000E+00 -0.24876837849E+04  0.24876837849E+04  0.25500000920E-02 0.  1.
    10030    2    1    2    0    0  0.00000000000E+00  0.00000000000E+00 -0.94985459099E+03  0.40255129788E+04  0.39118449610E+04 0.  0.
        4    1    3    3  502    0 -0.95118166088E+03 -0.89194118094E+03  0.10252836344E+04  0.16587687500E+04  0.12699999809E+01 0. -1.
       -4    1    3    3    0  502  0.95118166088E+03  0.89194118094E+03 -0.19751382254E+04  0.23667442288E+04  0.12699999809E+01 0.  1.
</event>
<event>
 5   0  0.8438211E-08  0.3895025E+04  0.7818609E-02  0.8026065E-01
        2   -1    0    0  501    0  0.00000000000E+00  0.00000000000E+00  0.23110856885E+04  0.23110856885E+04  0.25500000920E-02 0. -1.
       -2   -1    0    0    0  501  0.00000000000E+00  0.00000000000E+00 -0.16411355319E+04  0.16411355319E+04  0.25500000920E-02 0.  1.
    10030    2    1    2    0    0  0.00000000000E+00  0.00000000000E+00  0.66995015658E+03  0.39522212205E+04  0.38950249503E+04 0.  0.
        5    1    3    3  502    0 -0.11052336706E+04  0.77016888181E+03  0.17620706447E+04  0.22180208791E+04  0.46999998093E+01 0. -1.
       -5    1    3    3    0  502  0.11052336706E+04 -0.77016888181E+03 -0.10921204882E+04  0.17342003413E+04  0.46999998093E+01 0.  1.
</event>
<event>
 5   0  0.2632875E-08  0.3922409E+04  0.7818609E-02  0.8020385E-01
        1   -1    0    0  501    0  0.00000000000E+00  0.00000000000E+00  0.30272141901E+04  0.30272141901E+04  0.50400001928E-02 0. -1.
       -1   -1    0    0    0  501  0.00000000000E+00  0.00000000000E+00 -0.12705820010E+04  0.12705820010E+04  0.50400001928E-02 0.  1.
    10030    2    1    2    0    0  0.00000000000E+00  0.00000000000E+00  0.17566321890E+04  0.42977961911E+04  0.39224093938E+04 0.  0.
        1    1    3    3  502    0  0.60365349723E+03  0.60875846677E+03  0.28110256505E+04  0.29388517525E+04  0.50400001928E-02 0. -1.
       -1    1    3    3    0  502 -0.60365349723E+03 -0.60875846677E+03 -0.10543934615E+04  0.13589444386E+04  0.50400001928E-02 0.  1.
</event>
<event>
 5   0  0.2632875E-08  0.3888118E+04  0.7818609E-02  0.8027505E-01
       -1   -1    0    0    0  501  0.00000000000E+00  0.00000000000E+00  0.12882402949E+04  0.12882402949E+04  0.50400001928E-02 0. -1.
        1   -1    0    0  501    0  0.00000000000E+00  0.00000000000E+00 -0.29337421945E+04  0.29337421945E+04  0.50400001928E-02 0.  1.
    10030    2    1    2    0    0  0.00000000000E+00  0.00000000000E+00 -0.16455018996E+04  0.42219824894E+04  0.38881177502E+04 0.  0.
        4    1    3    3  502    0  0.59414959449E+03 -0.12094993969E+04 -0.23443076211E+04  0.27040122720E+04  0.12699999809E+01 0.  1.
       -4    1    3    3    0  502 -0.59414959449E+03  0.12094993969E+04  0.69880572148E+03  0.15179702174E+04  0.12699999809E+01 0. -1.
</event>
<event>
 5   0  0.8476262E-08  0.3874075E+04  0.7818609E-02  0.8030443E-01
       -2   -1    0    0    0  501  0.00000000000E+00  0.00000000000E+00  0.13267641195E+04  0.13267641195E+04  0.25500000920E-02 0. -1.
        2   -1    0    0  501    0  0.00000000000E+00  0.00000000000E+00 -0.28280194670E+04  0.28280194670E+04  0.25500000920E-02 0.  1.
    10030    2    1    2    0    0  0.00000000000E+00  0.00000000000E+00 -0.15012553475E+04  0.41547835866E+04  0.38740752487E+04 0.  0.
        2    1    3    3  502    0  0.98803655858E+03  0.14897260662E+04  0.49497098138E+02  0.17882812855E+04  0.25500000920E-02 0. -1.
       -2    1    3    3    0  502 -0.98803655858E+03 -0.14897260662E+04 -0.15507524457E+04  0.23665023011E+04  0.25500000920E-02 0.  1.
</event>
<event>
 5   0  0.8551754E-08  0.3909189E+04  0.7818609E-02  0.8023121E-01
       -2   -1    0    0    0  501  0.00000000000E+00  0.00000000000E+00  0.17290970488E+04  0.17290970488E+04  0.25500000920E-02 0. -1.
        2   -1    0    0  501    0  0.00000000000E+00  0.00000000000E+00 -0.22094997133E+04  0.22094997133E+04  0.25500000920E-02 0.  1.
    10030    2    1    2    0    0  0.00000000000E+00  0.00000000000E+00 -0.48040266446E+03  0.39385967621E+04  0.39091888844E+04 0.  0.
        1    1    3    3  502    0  0.27512698700E+03  0.12183913537E+04 -0.17549296498E+04  0.21540544156E+04  0.50400001928E-02 0.  1.
       -1    1    3    3    0  502 -0.27512698700E+03 -0.12183913537E+04  0.12745269853E+04  0.17845423464E+04  0.50400001928E-02 0. -1.
</event>
<event>
 5   0  0.8551754E-08  0.3828749E+04  0.7818609E-02  0.8040013E-01
        2   -1    0    0  501    0  0.00000000000E+00  0.00000000000E+00  0.21549329157E+04  0.21549329157E+04  0.25500000920E-02 0. -1.
       -2   -1    0    0    0  501  0.00000000000E+00  0.00000000000E+00 -0.17006702699E+04  0.17006702699E+04  0.25500000920E-02 0.  1.
    10030    2    1    2    0    0  0.00000000000E+00  0.00000000000E+00  0.45426264581E+03  0.38556031855E+04  0.38287493223E+04 0.  0.
        1    1    3    3  502    0 -0.96086556998E+03 -0.12405457227E+04  0.13314604496E+04  0.20579123554E+04  0.50400001928E-02 0. -1.
       -1    1    3    3    0  502  0.96086556998E+03  0.12405457227E+04 -0.87719780377E+03  0.17976908301E+04  0.50400001928E-02 0.  1.
</event>
<event>
 5   0  0.2632875E-08  0.3891933E+04  0.7818609E-02  0.8026709E-01
        1   -1    0    0  501    0  0.00000000000E+00  0.00000000000E+00  0.19404362808E+04  0.19404362808E+04  0.50400001928E-02 0. -1.
       -1   -1    0    0    0  501  0.00000000000E+00  0.00000000000E+00 -0.19515124367E+04  0.19515124367E+04  0.50400001928E-02 0.  1.
    10030    2    1    2    0    0  0.00000000000E+00  0.00000000000E+00 -0.11076155902E+02  0.38919487176E+04  0.38919329566E+04 0.  0.
        2    1    3    3  502    0  0.12221340413E+03 -0.13026584148E+04 -0.14460058070E+04  0.19500738078E+04  0.25500000920E-02 0.  1.
       -2    1    3    3    0  502 -0.12221340413E+03  0.13026584148E+04  0.14349296511E+04  0.19418749098E+04  0.25500000920E-02 0. -1.
</event>
<event>
 5   0  0.8438211E-08  0.3901283E+04  0.7818609E-02  0.8024762E-01
       -2   -1    0    0    0  501  0.00000000000E+00  0.00000000000E+00  0.18241844423E+04  0.18241844423E+04  0.25500000920E-02 0.  1.
        2   -1    0    0  501    0  0.00000000000E+00  0.00000000000E+00 -0.20858646630E+04  0.20858646630E+04  0.25500000920E-02 0. -1.
    10030    2    1    2    0    0  0.00000000000E+00  0.00000000000E+00 -0.26168022071E+03  0.39100491052E+04  0.39012827977E+04 0.  0.
        5    1    3    3  502    0  0.16209351678E+04 -0.90583148570E+03 -0.72969279989E+03  0.19951027971E+04  0.46999998093E+01 0.  1.
       -5    1    3    3    0  502 -0.16209351678E+04  0.90583148570E+03  0.46801257917E+03  0.19149463081E+04  0.46999998093E+01 0. -1.
</event>
<event>
 5   0  0.2632875E-08  0.3885761E+04  0.7818609E-02  0.8027997E-01
       -1   -1    0    0    0  501  0.00000000000E+00  0.00000000000E+00  0.23166314669E+04  0.23166314669E+04  0.50400001928E-02 0.  1.
        1   -1    0    0  501    0  0.00000000000E+00  0.00000000000E+00 -0.16294279050E+04  0.16294279050E+04  0.50400001928E-02 0. -1.
    10030    2    1    2    0    0  0.00000000000E+00  0.00000000000E+00  0.68720356185E+03  0.39460593719E+04  0.38857606503E+04 0.  0.
        4    1    3    3  502    0  0.14721517245E+04  0.70962379533E+03 -0.72341020031E+03  0.17872102735E+04  0.12699999809E+01 0. -1.
       -4    1    3    3    0  502 -0.14721517245E+04 -0.70962379533E+03  0.14106137622E+04  0.21588490984E+04  0.12699999809E+01 0.  1.
</event>
<event>
 5   0  0.2632875E-08  0.3904420E+04  0.7818609E-02  0.8024110E-01
        1   -1    0    0  501    0  0.00000000000E+00  0.00000000000E+00  0.21214704438E+04  0.21214704438E+04  0.50400001928E-02 0. -1.
       -1   -1    0    0    0  501  0.00000000000E+00  0.00000000000E+00 -0.17964542321E+04  0.17964542321E+04  0.50400001928E-02 0.  1.
    10030    2    1    2    0    0  0.00000000000E+00  0.00000000000E+00  0.32501621175E+03  0.39179246759E+04  0.39044203447E+04 0.  0.
        1    1    3    3  502    0 -0.77304562332E+03 -0.32450755032E+03  0.19316203221E+04  0.21057211958E+04  0.50400001928E-02 0. -1.
       -1    1    3    3    0  502  0.77304562332E+03  0.32450755032E+03 -0.16066041103E+04  0.18122034801E+04  0.50400001928E-02 0.  1.
</event>
<event>
 5   0  0.2632875E-08  0.3874990E+04  0.7818609E-02  0.8030251E-01
       -1   -1    0    0    0  501  0.00000000000E+00  0.00000000000E+00  0.12086974929E+04  0.12086974930E+04  0.50400001928E-02 0. -1.
        1   -1    0    0  501    0  0.00000000000E+00  0.00000000000E+00 -0.31057297051E+04  0.31057297051E+04  0.50400001928E-02 0.  1.
    10030    2    1    2    0    0  0.00000000000E+00  0.00000000000E+00 -0.18970322122E+04  0.43144271981E+04  0.38749904301E+04 0.  0.
        1    1    3    3  502    0  0.17613461765E+03  0.21361623962E+03  0.11865584754E+04  0.12184319090E+04  0.50400001928E-02 0. -1.
       -1    1    3    3    0  502 -0.17613461765E+03 -0.21361623962E+03 -0.30835906876E+04  0.30959952891E+04  0.50400001928E-02 0.  1.
</event>
<event>
 5   0  0.2632875E-08  0.3953692E+04  0.7818609E-02  0.8013954E-01
       -1   -1    0    0    0  501  0.00000000000E+00  0.00000000000E+00  0.18199772225E+04  0.18199772226E+04  0.50400001928E-02 0.  1.
        1   -1    0    0  501    0  0.00000000000E+00  0.00000000000E+00 -0.21472360815E+04  0.21472360815E+04  0.50400001928E-02 0. -1.
    10030    2    1    2    0    0  0.00000000000E+00  0.00000000000E+00 -0.32725885894E+03  0.39672133040E+04  0.39536923298E+04 0.  0.
        2    1    3    3  502    0 -0.74771756763E+03 -0.15008781326E+04 -0.12142076148E+04  0.20702697558E+04  0.25500000920E-02 0. -1.
       -2    1    3    3    0  502  0.74771756763E+03  0.15008781326E+04  0.88694875588E+03  0.18969435483E+04  0.25500000920E-02 0.  1.
</event>
<event>
 5   0  0.2632875E-08  0.3802749E+04  0.7818609E-02  0.8045565E-01
        1   -1    0    0  501    0  0.00000000000E+00  0.00000000000E+00  0.20270154882E+04  0.20270154882E+04  0.50400001928E-02 0.  1.
       -1   -1    0    0    0  501  0.00000000000E+00  0.00000000000E+00 -0.17835215163E+04  0.17835215163E+04  0.50400001928E-02 0. -1.
    10030    2    1    2    0    0  0.00000000000E+00  0.00000000000E+00  0.24349397186E+03  0.38105370045E+04  0.38027493934E+04 0.  0.
        3    1    3    3  502    0 -0.30030007742E+03  0.90311323895E+03  0.17711531418E+04  0.20106658401E+04  0.10100000352E+00 0.  1.
       -3    1    3    3    0  502  0.30030007742E+03 -0.90311323895E+03 -0.15276591699E+04  0.17998711644E+04  0.10100000352E+00 0. -1.
</event>
<event>
 5   0  0.8676098E-08  0.3891522E+04  0.7818609E-02  0.8026795E-01
       -2   -1    0    0    0  501  0.00000000000E+00  0.00000000000E+00  0.16483775651E+04  0.16483775651E+04  0.25500000920E-02 0. -1.
        2   -1    0    0  501    0  0.00000000000E+00  0.00000000000E+00 -0.22967952615E+04  0.22967952615E+04  0.25500000920E-02 0.  1.
    10030    2    1    2    0    0  0.00000000000E+00  0.00000000000E+00 -0.64841769643E+03  0.39451728266E+04  0.38915219546E+04 0.  0.
        3    1    3    3  502    0  0.10044901936E+04 -0.13483445527E+04 -0.13169705746E+04  0.21357539854E+04  0.10100000352E+00 0.  1.
       -3    1    3    3    0  502 -0.10044901936E+04  0.13483445527E+04  0.66855287817E+03  0.18094188412E+04  0.10100000352E+00 0. -1.
</event>
<event>
 5   0  0.2632875E-08  0.3883874E+04  0.7818609E-02  0.8028391E-01
        1   -1    0    0  501    0  0.00000000000E+00  0.00000000000E+00  0.17328008570E+04  0.17328008570E+04  0.50400001928E-02 0. -1.
       -1   -1    0    0    0  501  0.00000000000E+00  0.00000000000E+00 -0.21763145639E+04  0.21763145639E+04  0.50400001928E-02 0.  1.
    10030    2    1    2    0    0  0.00000000000E+00  0.00000000000E+00 -0.44351370688E+03  0.39091154209E+04  0.38838742212E+04 0.  0.
        3    1    3    3  502    0  0.56034959941E+03 -0.24145378626E+02 -0.20930182056E+04  0.21668640687E+04  0.10100000352E+00 0.  1.
       -3    1    3    3    0  502 -0.56034959941E+03  0.24145378626E+02  0.16495044987E+04  0.17422513522E+04  0.10100000352E+00 0. -1.
</event>
<event>
 5   0  0.8342802E-08  0.3721251E+04  0.7818609E-02  0.8063269E-01
       -2   -1    0    0    0  501  0.00000000000E+00  0.00000000000E+00  0.15725790719E+04  0.15725790719E+04  0.25500000920E-02 0. -1.
        2   -1    0    0  501    0  0.00000000000E+00  0.00000000000E+00 -0.22014333677E+04  0.22014333677E+04  0.25500000920E-02 0.  1.
    10030    2    1    2    0    0  0.00000000000E+00  0.00000000000E+00 -0.62885429579E+03  0.37740124395E+04  0.37212514250E+04 0.  0.
        4    1    3    3  502    0  0.52616879290E+03 -0.46934173703E+03  0.14318427479E+04  0.15960296151E+04  0.12699999809E+01 0. -1.
       -4    1    3    3    0  502 -0.52616879290E+03  0.46934173703E+03 -0.20606970437E+04  0.21779828244E+04  0.12699999809E+01 0.  1.
</event>
<event>
 5   0  0.8676098E-08  0.3905835E+04  0.7818609E-02  0.8023817E-01
        2   -1    0    0  501    0  0.00000000000E+00  0.00000000000E+00  0.17674870851E+04  0.17674870851E+04  0.25500000920E-02 0. -1.
       -2   -1    0    0    0  501  0.00000000000E+00  0.00000000000E+00 -0.21578018307E+04  0.21578018307E+04  0.25500000920E-02 0.  1.
    10030    2    1    2    0    0  0.00000000000E+00  0.00000000000E+00 -0.39031474553E+03  0.39252889158E+04  0.39058350544E+04 0.  0.
        3    1    3    3  502    0  0.25109993195E+02  0.15610701538E+04 -0.13741656636E+04  0.20798802413E+04  0.10100000352E+00 0.  1.
       -3    1    3    3    0  502 -0.25109993195E+02 -0.15610701538E+04  0.98385091806E+03  0.18454086745E+04  0.10100000352E+00 0. -1.
</event>
<event>
 5   0  0.8476262E-08  0.3921588E+04  0.7818609E-02  0.8020554E-01
       -2   -1    0    0    0  501  0.00000000000E+00  0.00000000000E+00  0.17435419813E+04  0.17435419813E+04  0.25500000920E-02 0. -1.
        2   -1    0    0  501    0  0.00000000000E+00  0.00000000000E+00 -0.22051165776E+04  0.22051165776E+04  0.25500000920E-02 0.  1.
    10030    2    1    2    0    0  0.00000000000E+00  0.00000000000E+00 -0.46157459637E+03  0.39486585589E+04  0.39215881103E+04 0.  0.
        2    1    3    3  502    0  0.12395927046E+04 -0.10747292101E+04 -0.13120155764E+04  0.21007184060E+04  0.25500000920E-02 0.  1.
       -2    1    3    3    0  502 -0.12395927046E+04  0.10747292101E+04  0.85044098005E+03  0.18479401529E+04  0.25500000920E-02 0. -1.
</event>
<event>
 5   0  0.2632875E-08  0.3905722E+04  0.7818609E-02  0.8023840E-01
       -1   -1    0    0    0  501  0.00000000000E+00  0.00000000000E+00  0.19106860327E+04  0.19106860327E+04  0.50400001928E-02 0.  1.
        1   -1    0    0  501    0  0.00000000000E+00  0.00000000000E+00 -0.19959667570E+04  0.19959667570E+04  0.50400001928E-02 0. -1.
    10030    2    1    2    0    0  0.00000000000E+00  0.00000000000E+00 -0.85280724296E+02  0.39066527897E+04  0.39057218561E+04 0.  0.
        5    1    3    3  502    0  0.13995664243E+04 -0.12310079862E+04 -0.62542567848E+03  0.19660483736E+04  0.46999998093E+01 0. -1.
       -5    1    3    3    0  502 -0.13995664243E+04  0.12310079862E+04  0.54014495418E+03  0.19406044161E+04  0.46999998093E+01 0.  1.
</event>
<event>
 5   0  0.2632875E-08  0.3890316E+04  0.7818609E-02  0.8027046E-01
       -1   -1    0    0    0  501  0.00000000000E+00  0.00000000000E+00  0.14414461661E+04  0.14414461661E+04  0.50400001928E-02 0.  1.
        1   -1    0    0  501    0  0.00000000000E+00  0.00000000000E+00 -0.26248909138E+04  0.26248909138E+04  0.50400001928E-02 0. -1.
    10030    2    1    2    0    0  0.00000000000E+00  0.00000000000E+00 -0.11834447477E+04  0.40663370799E+04  0.38903156397E+04 0.  0.
        1    1    3    3  502    0 -0.17054781417E+04 -0.58422333469E+03  0.17185569512E+03  0.18109409092E+04  0.50400001928E-02 0.  1.
       -1    1    3    3    0  502  0.17054781417E+04  0.58422333469E+03 -0.13553004428E+04  0.22553961707E+04  0.50400001928E-02 0. -1.
</event>
<event>
 5   0  0.8342802E-08  0.3912614E+04  0.7818609E-02  0.8022411E-01
        2   -1    0    0  501    0  0.00000000000E+00  0.00000000000E+00  0.21333796169E+04  0.21333796169E+04  0.25500000920E-02 0. -1.
       -2   -1    0    0    0  501  0.00000000000E+00  0.00000000000E+00 -0.17939319904E+04  0.17939319904E+04  0.25500000920E-02 0.  1.
    10030    2    1    2    0    0  0.00000000000E+00  0.00000000000E+00  0.33944762652E+03  0.39273116073E+04  0.39126144418E+04 0.  0.
        4    1    3    3  502    0 -0.10538328409E+03  0.10272286868E+04  0.18375404095E+04  0.21078094746E+04  0.12699999809E+01 0. -1.
       -4    1    3    3    0  502  0.10538328409E+03 -0.10272286868E+04 -0.14980927830E+04  0.18195021327E+04  0.12699999809E+01 0.  1.
</event>
<event>
 5   0  0.8342802E-08  0.3856971E+04  0.7818609E-02  0.8034038E-01
       -2   -1    0    0    0  501  0.00000000000E+00  0.00000000000E+00  0.13446769977E+04  0.13446769977E+04  0.25500000920E-02 0. -1.
        2   -1    0    0  501    0  0.00000000000E+00  0.00000000000E+00 -0.27657619354E+04  0.27657619354E+04  0.25500000920E-02 0.  1.
    10030    2    1    2    0    0  0.00000000000E+00  0.00000000000E+00 -0.14210849377E+04  0.41104389332E+04  0.38569710685E+04 0.  0.
        4    1    3    3  502    0  0.15372440169E+04  0.60958420584E+03 -0.17678832851E+04  0.24207695045E+04  0.12699999809E+01 0. -1.
       -4    1    3    3    0  502 -0.15372440169E+04 -0.60958420584E+03  0.34679834738E+03  0.16896694287E+04  0.12699999809E+01 0.  1.
</event>
<event>
 5   0  0.8438211E-08  0.3868674E+04  0.7818609E-02  0.8031576E-01
        2   -1    0    0  501    0  0.00000000000E+00  0.00000000000E+00  0.23314956566E+04  0.23314956566E+04  0.25500000920E-02 0. -1.
       -2   -1    0    0    0  501  0.00000000000E+00  0.00000000000E+00 -0.16048324576E+04  0.16048324576E+04  0.25500000920E-02 0.  1.
    10030    2    1    2    0    0  0.00000000000E+00  0.00000000000E+00  0.72666319898E+03  0.39363281143E+04  0.38686741422E+04 0.  0.
        5    1    3    3  502    0  0.17432111029E+04 -0.57484467635E+03  0.98425459827E+03  0.20827891289E+04  0.46999998093E+01 0. -1.
       -5    1    3    3    0  502 -0.17432111029E+04  0.57484467635E+03 -0.25759139929E+03  0.18535389854E+04  0.46999998093E+01 0.  1.
</event>
<event>
 5   0  0.8676098E-08  0.3897225E+04  0.7818609E-02  0.8025607E-01
       -2   -1    0    0    0  501  0.00000000000E+00  0.00000000000E+00  0.14634623066E+04  0.14634623066E+04  0.25500000920E-02 0. -1.
        2   -1    0    0  501    0  0.00000000000E+00  0.00000000000E+00 -0.25945934916E+04  0.25945934916E+04  0.25500000920E-02 0.  1.
    10030    2    1    2    0    0  0.00000000000E+00  0.00000000000E+00 -0.11311311850E+04  0.40580557983E+04  0.38972245386E+04 0.  0.
        3    1    3    3  502    0 -0.47322730940E+02  0.43043836711E+03 -0.25438581122E+04  0.25804516531E+04  0.10100000352E+00 0.  1.
       -3    1    3    3    0  502  0.47322730940E+02 -0.43043836711E+03  0.14127269272E+04  0.14776041452E+04  0.10100000352E+00 0. -1.
</event>
<event>
 5   0  0.8342802E-08  0.3908294E+04  0.7818609E-02  0.8023306E-01
       -2   -1    0    0    0  501  0.00000000000E+00  0.00000000000E+00  0.14857142436E+04  0.14857142436E+04  0.25500000920E-02 0. -1.
        2   -1    0    0  501    0  0.00000000000E+00  0.00000000000E+00 -0.25702725521E+04  0.25702725521E+04  0.25500000920E-02 0.  1.
    10030    2    1    2    0    0  0.00000000000E+00  0.00000000000E+00 -0.10845583085E+04  0.40559867957E+04  0.39082940219E+04 0.  0.
        4    1    3    3  502    0  0.74810577449E+03 -0.85275844661E+03 -0.21935813181E+04  0.24695464827E+04  0.12699999809E+01 0.  1.
       -4    1    3    3    0  502 -0.74810577449E+03  0.85275844661E+03  0.11090230095E+04  0.15864403130E+04  0.12699999809E+01 0. -1.
</event>
<event>
 5   0  0.2632875E-08  0.3896847E+04  0.7818609E-02  0.8025685E-01
        1   -1    0    0  501    0  0.00000000000E+00  0.00000000000E+00  0.18936327880E+04  0.18936327880E+04  0.50400001928E-02 0. -1.
       -1   -1    0    0    0  501  0.00000000000E+00  0.00000000000E+00 -0.20047999192E+04  0.20047999192E+04  0.50400001928E-02 0.  1.
    10030    2    1    2    0    0  0.00000000000E+00  0.00000000000E+00 -0.11116713122E+03  0.38984327072E+04  0.38968473721E+04 0.  0.
        5    1    3    3  502    0  0.22194494708E+03  0.12130554839E+04 -0.15646963838E+04  0.19922499918E+04  0.46999998093E+01 0.  1.
       -5    1    3    3    0  502 -0.22194494708E+03 -0.12130554839E+04  0.14535292525E+04  0.19061827154E+04  0.46999998093E+01 0. -1.
</event>
<event>
 5   0  0.2632875E-08  0.3816938E+04  0.7818609E-02  0.8042530E-01
       -1   -1    0    0    0  501  0.00000000000E+00  0.00000000000E+00  0.25992722788E+04  0.25992722788E+04  0.50400001928E-02 0.  1.
        1   -1    0    0  501    0  0.00000000000E+00  0.00000000000E+00 -0.14012592809E+04  0.14012592809E+04  0.50400001928E-02 0. -1.
    10030    2    1    2    0    0  0.00000000000E+00  0.00000000000E+00  0.11980129979E+04  0.40005315597E+04  0.38169382517E+04 0.  0.
        2    1    3    3  502    0  0.20852665836E+03 -0.12667564864E+04  0.20790549371E+04  0.24434861969E+04  0.25500000920E-02 0.  1.
       -2    1    3    3    0  502 -0.20852665836E+03  0.12667564864E+04 -0.88104193922E+03  0.15570453628E+04  0.25500000920E-02 0. -1.
</event>
<event>
 5   0  0.8342802E-08  0.3885084E+04  0.7818609E-02  0.8028139E-01
        2   -1    0    0  501    0  0.00000000000E+00  0.00000000000E+00  0.28367310517E+04  0.28367310517E+04  0.25500000920E-02 0. -1.
       -2   -1    0    0    0  501  0.00000000000E+00  0.00000000000E+00 -0.13302172816E+04  0.13302172816E+04  0.25500000920E-02 0.  1.
    10030    2    1    2    0    0  0.00000000000E+00  0.00000000000E+00  0.15065137701E+04  0.41669483333E+04  0.38850836120E+04 0.  0.
        4    1    3    3  502    0  0.51625444716E+03 -0.12303047908E+04 -0.76101520639E+03  0.15360059537E+04  0.12699999809E+01 0.  1.
       -4    1    3    3    0  502 -0.51625444716E+03  0.12303047908E+04  0.22675289765E+04  0.26309423796E+04  0.12699999809E+01 0. -1.
</event>
<event>
 5   0  0.8676098E-08  0.3899959E+04  0.7818609E-02  0.8025038E-01
       -2   -1    0    0    0  501  0.00000000000E+00  0.00000000000E+00  0.14444552351E+04  0.14444552351E+04  0.25500000920E-02 0. -1.
        2   -1    0    0  501    0  0.00000000000E+00  0.00000000000E+00 -0.26324243103E+04  0.26324243103E+04  0.25500000920E-02 0.  1.
    10030    2    1    2    0    0  0.00000000000E+00  0.00000000000E+00 -0.11879690752E+04  0.40768795454E+04  0.38999585003E+04 0.  0.
        3    1    3    3  502    0 -0.71922905750E+03 -0.18979570662E+03  0.12903145986E+04  0.14893705453E+04  0.10100000352E+00 0. -1.
       -3    1    3    3    0  502  0.71922905750E+03  0.18979570662E+03 -0.24782836738E+04  0.25875090001E+04  0.10100000352E+00 0.  1.
</event>
<event>
 5   0  0.8476262E-08  0.3973237E+04  0.7818609E-02  0.8009967E-01
       -2   -1    0    0    0  501  0.00000000000E+00  0.00000000000E+00  0.22740664386E+04  0.22740664386E+04  0.25500000920E-02 0.  1.
        2   -1    0    0  501    0  0.00000000000E+00  0.00000000000E+00 -0.17355046705E+04  0.17355046705E+04  0.25500000920E-02 0. -1.
    10030    2    1    2    0    0  0.00000000000E+00  0.00000000000E+00  0.53856176810E+03  0.40095711091E+04  0.39732369299E+04 0.  0.
        2    1    3    3  502    0 -0.27569296843E+03 -0.15986765537E+03  0.22481024502E+04  0.22705789805E+04  0.25500000920E-02 0.  1.
       -2    1    3    3    0  502  0.27569296843E+03  0.15986765537E+03 -0.17095406820E+04  0.17389921287E+04  0.25500000920E-02 0. -1.
</event>
<event>
 5   0  0.8342802E-08  0.3896907E+04  0.7818609E-02  0.8025673E-01
        2   -1    0    0  501    0  0.00000000000E+00  0.00000000000E+00  0.16836255816E+04  0.16836255816E+04  0.25500000920E-02 0.  1.
       -2   -1    0    0    0  501  0.00000000000E+00  0.00000000000E+00 -0.22549383756E+04  0.22549383756E+04  0.25500000920E-02 0. -1.
    10030    2    1    2    0    0  0.00000000000E+00  0.00000000000E+00 -0.57131279396E+03  0.39385639572E+04  0.38969074580E+04 0.  0.
        4    1    3    3  502    0  0.26061052470E+03  0.16999972137E+03 -0.22296654396E+04  0.22512723816E+04  0.12699999809E+01 0. -1.
       -4    1    3    3    0  502 -0.26061052470E+03 -0.16999972137E+03  0.16583526456E+04  0.16872915756E+04  0.12699999809E+01 0.  1.
</event>
<event>
 5   0  0.2632875E-08  0.3901132E+04  0.7818609E-02  0.8024794E-01
       -1   -1    0    0    0  501  0.00000000000E+00  0.00000000000E+00  0.28534040385E+04  0.28534040385E+04  0.50400001928E-02 0. -1.
        1   -1    0    0  501    0  0.00000000000E+00  0.00000000000E+00 -0.13333923235E+04  0.13333923235E+04  0.50400001928E-02 0.  1.
    10030    2    1    2    0    0  0.00000000000E+00  0.00000000000E+00  0.15200117150E+04  0.41867963620E+04  0.39011316516E+04 0.  0.
        1    1    3    3  502    0  0.81344318828E+03  0.13192824993E+04  0.20310023591E+04  0.25548320328E+04  0.50400001928E-02 0. -1.
       -1    1    3    3    0  502 -0.81344318828E+03 -0.13192824993E+04 -0.51099064408E+03  0.16319643292E+04  0.50400001928E-02 0.  1.
</event>
<event>
 5   0  0.8476262E-08  0.3912845E+04  0.7818609E-02  0.8022363E-01
       -2   -1    0    0    0  501  0.00000000000E+00  0.00000000000E+00  0.15666506513E+04  0.15666506513E+04  0.25500000920E-02 0.  1.
        2   -1    0    0  501    0  0.00000000000E+00  0.00000000000E+00 -0.24431674890E+04  0.24431674890E+04  0.25500000920E-02 0. -1.
    10030    2    1    2    0    0  0.00000000000E+00  0.00000000000E+00 -0.87651683772E+03  0.40098181402E+04  0.39128454801E+04 0.  0.
        2    1    3    3  502    0  0.32583043906E+03 -0.18265833772E+04  0.19761736501E+03  0.18659112872E+04  0.25500000920E-02 0.  1.
       -2    1    3    3    0  502 -0.32583043906E+03  0.18265833772E+04 -0.10741342027E+04  0.21439068530E+04  0.25500000920E-02 0. -1.
</event>
<event>
 5   0  0.2632875E-08  0.3873355E+04  0.7818609E-02  0.8030594E-01
        1   -1    0    0  501    0  0.00000000000E+00  0.00000000000E+00  0.16932696724E+04  0.16932696724E+04  0.50400001928E-02 0.  1.
       -1   -1    0    0    0  501  0.00000000000E+00  0.00000000000E+00 -0.22150756895E+04  0.22150756895E+04  0.50400001928E-02 0. -1.
    10030    2    1    2    0    0  0.00000000000E+00  0.00000000000E+00 -0.52180601712E+03  0.39083453619E+04  0.38733553863E+04 0.  0.
        5    1    3    3  502    0 -0.67751758838E+03 -0.11498881797E+04  0.11551364798E+04  0.17651162243E+04  0.46999998093E+01 0.  1.
       -5    1    3    3    0  502  0.67751758838E+03  0.11498881797E+04 -0.16769424969E+04  0.21432291376E+04  0.46999998093E+01 0. -1.
</event>
<event>
 5   0  0.2632875E-08  0.3902158E+04  0.7818609E-02  0.8024581E-01
        1   -1    0    0  501    0  0.00000000000E+00  0.00000000000E+00  0.16265225477E+04  0.16265225477E+04  0.50400001928E-02 0. -1.
       -1   -1    0    0    0  501  0.00000000000E+00  0.00000000000E+00 -0.23403975286E+04  0.23403975286E+04  0.50400001928E-02 0.  1.
    10030    2    1    2    0    0  0.00000000000E+00  0.00000000000E+00 -0.71387498094E+03  0.39669200763E+04  0.39021580443E+04 0.  0.
        3    1    3    3  502    0  0.14816754575E+03  0.50033961403E+03 -0.22681431690E+04  0.23273948518E+04  0.10100000352E+00 0.  1.
       -3    1    3    3    0  502 -0.14816754575E+03 -0.50033961403E+03  0.15542681881E+04  0.16395252244E+04  0.10100000352E+00 0. -1.
</event>
<event>
 5   0  0.8438211E-08  0.3900637E+04  0.7818609E-02  0.8024897E-01
        2   -1    0    0  501    0  0.00000000000E+00  0.00000000000E+00  0.24732081788E+04  0.24732081788E+04  0.25500000920E-02 0.  1.
       -2   -1    0    0    0  501  0.00000000000E+00  0.00000000000E+00 -0.15379787542E+04  0.15379787542E+04  0.25500000920E-02 0. -1.
    10030    2    1    2    0    0  0.00000000000E+00  0.00000000000E+00  0.93522942458E+03  0.40111869330E+04  0.39006366833E+04 0.  0.
        5    1    3    3  502    0  0.78690676690E+02 -0.13989326860E+04  0.18627201830E+04  0.23308696774E+04  0.46999998093E+01 0.  1.
       -5    1    3    3    0  502 -0.78690676690E+02  0.13989326860E+04 -0.92749075843E+03  0.16803172556E+04  0.46999998093E+01 0. -1.
</event>
<event>
 5   0  0.2632875E-08  0.3890006E+04  0.7818609E-02  0.8027111E-01
       -1   -1    0    0    0  501  0.00000000000E+00  0.00000000000E+00  0.15246699819E+04  0.15246699819E+04  0.50400001928E-02 0. -1.
        1   -1    0    0  501    0  0.00000000000E+00  0.00000000000E+00 -0.24812167965E+04  0.24812167965E+04  0.50400001928E-02 0.  1.
    10030    2    1    2    0    0  0.00000000000E+00  0.00000000000E+00 -0.95654681463E+03  0.40058867784E+04  0.38900060505E+04 0.  0.
        5    1    3    3  502    0  0.39379245365E+03 -0.16482658273E+04  0.50470998356E+03  0.17682214204E+04  0.46999998093E+01 0. -1.
       -5    1    3    3    0  502 -0.39379245365E+03  0.16482658273E+04 -0.14612567982E+04  0.22376653580E+04  0.46999998093E+01 0.  1.
</event>
<event>
 5   0  0.8676098E-08  0.3855713E+04  0.7818609E-02  0.8034304E-01
       -2   -1    0    0    0  501  0.00000000000E+00  0.00000000000E+00  0.15741197275E+04  0.15741197276E+04  0.25500000920E-02 0.  1.
        2   -1    0    0  501    0  0.00000000000E+00  0.00000000000E+00 -0.23610846774E+04  0.23610846774E+04  0.25500000920E-02 0. -1.
    10030    2    1    2    0    0  0.00000000000E+00  0.00000000000E+00 -0.78696494987E+03  0.39352044050E+04  0.38557126289E+04 0.  0.
        3    1    3    3  502    0  0.26423582368E+03 -0.23972081185E+03  0.15401331111E+04  0.15809163951E+04  0.10100000352E+00 0.  1.
       -3    1    3    3    0  502 -0.26423582368E+03  0.23972081185E+03 -0.23270980609E+04  0.23542880099E+04  0.10100000352E+00 0. -1.
</event>
<event>
 5   0  0.2632875E-08  0.3909078E+04  0.7818609E-02  0.8023144E-01
       -1   -1    0    0    0  501  0.00000000000E+00  0.00000000000E+00  0.20528888648E+04  0.20528888648E+04  0.50400001928E-02 0. -1.
        1   -1    0    0  501    0  0.00000000000E+00  0.00000000000E+00 -0.18609011873E+04  0.18609011873E+04  0.50400001928E-02 0.  1.
    10030    2    1    2    0    0  0.00000000000E+00  0.00000000000E+00  0.19198767758E+03  0.39137900521E+04  0.39090783190E+04 0.  0.
        1    1    3    3  502    0  0.12329784332E+04  0.77673718991E+03  0.14001255047E+04  0.20208681075E+04  0.50400001928E-02 0. -1.
       -1    1    3    3    0  502 -0.12329784332E+04 -0.77673718991E+03 -0.12081378271E+04  0.18929219446E+04  0.50400001928E-02 0.  1.
</event>
<event>
 5   0  0.2632875E-08  0.3891553E+04  0.7818609E-02  0.8026788E-01
       -1   -1    0    0    0  501  0.00000000000E+00  0.00000000000E+00  0.20459954976E+04  0.20459954976E+04  0.50400001928E-02 0. -1.
        1   -1    0    0  501    0  0.00000000000E+00  0.00000000000E+00 -0.18504669538E+04  0.18504669538E+04  0.50400001928E-02 0.  1.
    10030    2    1    2    0    0  0.00000000000E+00  0.00000000000E+00  0.19552854375E+03  0.38964624514E+04  0.38915534461E+04 0.  0.
        5    1    3    3  502    0  0.12782080645E+04  0.43431399607E+03 -0.13052815255E+04  0.18778249264E+04  0.46999998093E+01 0.  1.
       -5    1    3    3    0  502 -0.12782080645E+04 -0.43431399607E+03  0.15008100693E+04  0.20186375250E+04  0.46999998093E+01 0. -1.
</event>
<event>
 5   0  0.8676098E-08  0.3914072E+04  0.7818609E-02  0.8022109E-01
        2   -1    0    0  501    0  0.00000000000E+00  0.00000000000E+00  0.14901230339E+04  0.14901230339E+04  0.25500000920E-02 0.  1.
       -2   -1    0    0    0  501  0.00000000000E+00  0.00000000000E+00 -0.25702507444E+04  0.25702507444E+04  0.25500000920E-02 0. -1.
    10030    2    1    2    0    0  0.00000000000E+00  0.00000000000E+00 -0.10801277105E+04  0.40603737783E+04  0.39140719652E+04 0.  0.
        3    1    3    3  502    0 -0.25271129507E+02  0.17448046649E+04  0.37906037589E+03  0.17856843863E+04  0.10100000352E+00 0. -1.
       -3    1    3    3    0  502  0.25271129507E+02 -0.17448046649E+04 -0.14591880864E+04  0.22746893920E+04  0.10100000352E+00 0.  1.
</event>
<event>
 5   0  0.8438211E-08  0.3872847E+04  0.7818609E-02  0.8030700E-01
        2   -1    0    0  501    0  0.00000000000E+00  0.00000000000E+00  0.22486041494E+04  0.22486041494E+04  0.25500000920E-02 0.  1.
       -2   -1    0    0    0  501  0.00000000000E+00  0.00000000000E+00 -0.16675838592E+04  0.16675838592E+04  0.25500000920E-02 0. -1.
    10030    2    1    2    0    0  0.00000000000E+00  0.00000000000E+00  0.58102029013E+03  0.39161880086E+04  0.38728470072E+04 0.  0.
        5    1    3    3  502    0  0.71073531744E+03  0.12182387883E+04 -0.10511629158E+04  0.17590383743E+04  0.46999998093E+01 0. -1.
       -5    1    3    3    0  502 -0.71073531744E+03 -0.12182387883E+04  0.16321832060E+04  0.21571496342E+04  0.46999998093E+01 0.  1.
</event>
<event>
 5   0  0.8438211E-08  0.3924328E+04  0.7818609E-02  0.8019988E-01
        2   -1    0    0  501    0  0.00000000000E+00  0.00000000000E+00  0.23852644231E+04  0.23852644231E+04  0.25500000920E-02 0. -1.
       -2   -1    0    0    0  501  0.00000000000E+00  0.00000000000E+00 -0.16141132226E+04  0.16141132226E+04  0.25500000920E-02 0.  1.
    10030    2    1    2    0    0  0.00000000000E+00  0.00000000000E+00  0.77115120051E+03  0.39993776458E+04  0.39243276341E+04 0.  0.
        5    1    3    3  502    0 -0.10588404130E+03  0.17907046517E+04 -0.42475971479E+03  0.18434417499E+04  0.46999998093E+01 0.  1.
       -5    1    3    3    0  502  0.10588404130E+03 -0.17907046517E+04  0.11959109153E+04  0.21559358959E+04  0.46999998093E+01 0. -1.
</event>
<event>
 5   0  0.2632875E-08  0.3898956E+04  0.7818609E-02  0.8025246E-01
        1   -1    0    0  501    0  0.00000000000E+00  0.00000000000E+00  0.15574198156E+04  0.15574198156E+04  0.50400001928E-02 0.  1.
       -1   -1    0    0    0  501  0.00000000000E+00  0.00000000000E+00 -0.24402318146E+04  0.24402318146E+04  0.50400001928E-02 0. -1.
    10030    2    1    2    0    0  0.00000000000E+00  0.00000000000E+00 -0.88281199898E+03  0.39976516302E+04  0.38989564669E+04 0.  0.
        4    1    3    3  502    0 -0.10556544075E+02 -0.93961470254E+03  0.13098927820E+04  0.16120818661E+04  0.12699999809E+01 0.  1.
       -4    1    3    3    0  502  0.10556544075E+02  0.93961470254E+03 -0.21927047810E+04  0.23855697641E+04  0.12699999809E+01 0. -1.
</event>
<event>
 5   0  0.2632875E-08  0.3842557E+04  0.7818609E-02  0.8037083E-01
        1   -1    0    0  501    0  0.00000000000E+00  0.00000000000E+00  0.13337445320E+04  0.13337445320E+04  0.50400001928E-02 0. -1.
       -1   -1    0    0    0  501  0.00000000000E+00  0.00000000000E+00 -0.27676303632E+04  0.27676303632E+04  0.50400001928E-02 0.  1.
    10030    2    1    2    0    0  0.00000000000E+00  0.00000000000E+00 -0.14338858312E+04  0.41013748952E+04  0.38425574106E+04 0.  0.
        4    1    3    3  502    0 -0.92994756057E+03 -0.31931554077E+03  0.10448551388E+04  0.14347434454E+04  0.12699999809E+01 0. -1.
       -4    1    3    3    0  502  0.92994756057E+03  0.31931554077E+03 -0.24787409700E+04  0.26666314498E+04  0.12699999809E+01 0.  1.
</event>
<event>
 5   0  0.2632875E-08  0.3899830E+04  0.7818609E-02  0.8025065E-01
        1   -1    0    0  501    0  0.00000000000E+00  0.00000000000E+00  0.16734084949E+04  0.16734084949E+04  0.50400001928E-02 0.  1.
       -1   -1    0    0    0  501  0.00000000000E+00  0.00000000000E+00 -0.22721104062E+04  0.22721104062E+04  0.50400001928E-02 0. -1.
    10030    2    1    2    0    0  0.00000000000E+00  0.00000000000E+00 -0.59870191134E+03  0.39455189011E+04  0.38998301784E+04 0.  0.
        3    1    3    3  502    0 -0.12162572569E+04 -0.72767435891E+03  0.10555085085E+04  0.17671700284E+04  0.10100000352E+00 0.  1.
       -3    1    3    3    0  502  0.12162572569E+04  0.72767435891E+03 -0.16542104199E+04  0.21783488726E+04  0.10100000352E+00 0. -1.
</event>
<event>
 5   0  0.2632875E-08  0.3916747E+04  0.7818609E-02  0.8021555E-01
        1   -1    0    0  501    0  0.00000000000E+00  0.00000000000E+00  0.13104423735E+04  0.13104423735E+04  0.50400001928E-02 0. -1.
       -1   -1    0    0    0  501  0.00000000000E+00  0.00000000000E+00 -0.29266657822E+04  0.29266657822E+04  0.50400001928E-02 0.  1.
    10030    2    1    2    0    0  0.00000000000E+00  0.00000000000E+00 -0.16162234087E+04  0.42371081558E+04  0.39167470453E+04 0.  0.
        1    1    3    3  502    0  0.11989925791E+04  0.23997722019E+03  0.84673214166E+03  0.14873222888E+04  0.50400001928E-02 0. -1.
       -1    1    3    3    0  502 -0.11989925791E+04 -0.23997722019E+03 -0.24629555504E+04  0.27497858670E+04  0.50400001928E-02 0.  1.
</event>
<event>
 5   0  0.8676098E-08  0.3789853E+04  0.7818609E-02  0.8048336E-01
       -2   -1    0    0    0  501  0.00000000000E+00  0.00000000000E+00  0.22938863459E+04  0.22938863459E+04  0.25500000920E-02 0. -1.
        2   -1    0    0  501    0  0.00000000000E+00  0.00000000000E+00 -0.15653552743E+04  0.15653552743E+04  0.25500000920E-02 0.  1.
    10030    2    1    2    0    0  0.00000000000E+00  0.00000000000E+00  0.72853107156E+03  0.38592416202E+04  0.37898533429E+04 0.  0.
        3    1    3    3  502    0  0.10051684796E+04 -0.68388492964E+03  0.18443855135E+04  0.22090315077E+04  0.10100000352E+00 0. -1.
       -3    1    3    3    0  502 -0.10051684796E+04  0.68388492964E+03 -0.11158544420E+04  0.16502101124E+04  0.10100000352E+00 0.  1.
</event>
<event>
 5   0  0.8438211E-08  0.3877671E+04  0.7818609E-02  0.8029689E-01
       -2   -1    0    0    0  501  0.00000000000E+00  0.00000000000E+00  0.14115741031E+04  0.14115741031E+04  0.25500000920E-02 0.  1.
        2   -1    0    0  501    0  0.00000000000E+00  0.00000000000E+00 -0.26630431094E+04  0.26630431094E+04  0.25500000920E-02 0. -1.
    10030    2    1    2    0    0  0.00000000000E+00  0.00000000000E+00 -0.12514690063E+04  0.40746172125E+04  0.38776707899E+04 0.  0.
        5    1    3    3  502    0 -0.12454866624E+04  0.95138646425E+03  0.57358799643E+03  0.16689513205E+04  0.46999998093E+01 0.  1.
       -5    1    3    3    0  502  0.12454866624E+04 -0.95138646425E+03 -0.18250570028E+04  0.24056658920E+04  0.46999998093E+01 0. -1.
</event>
<event>
 5   0  0.8438211E-08  0.3896146E+04  0.7818609E-02  0.8025831E-01
        2   -1    0    0  501    0  0.00000000000E+00  0.00000000000E+00  0.12555175681E+04  0.12555175681E+04  0.25500000920E-02 0. -1.
       -2   -1    0    0    0  501  0.00000000000E+00  0.00000000000E+00 -0.30226489917E+04  0.30226489917E+04  0.25500000920E-02 0.  1.
    10030    2    1    2    0    0  0.00000000000E+00  0.00000000000E+00 -0.17671314236E+04  0.42781665598E+04  0.38961462556E+04 0.  0.
        5    1    3    3  502    0 -0.11450094279E+04  0.10425232716E+04 -0.21814345799E+04  0.26751785507E+04  0.46999998093E+01 0.  1.
       -5    1    3    3    0  502  0.11450094279E+04 -0.10425232716E+04  0.41430315625E+03  0.16029880091E+04  0.46999998093E+01 0. -1.
</event>
<event>
 5   0  0.2632875E-08  0.3888824E+04  0.7818609E-02  0.8027358E-01
       -1   -1    0    0    0  501  0.00000000000E+00  0.00000000000E+00  0.25181241275E+04  0.25181241275E+04  0.50400001928E-02 0. -1.
        1   -1    0    0  501    0  0.00000000000E+00  0.00000000000E+00 -0.15014104700E+04  0.15014104700E+04  0.50400001928E-02 0.  1.
    10030    2    1    2    0    0  0.00000000000E+00  0.00000000000E+00  0.10167136575E+04  0.40195345975E+04  0.38888239506E+04 0.  0.
        1    1    3    3  502    0  0.41783128418E+03  0.12455472338E+04 -0.97326982869E+03  0.16350000163E+04  0.50400001928E-02 0.  1.
       -1    1    3    3    0  502 -0.41783128418E+03 -0.12455472338E+04  0.19899834862E+04  0.23845345812E+04  0.50400001928E-02 0. -1.
</event>
<event>
 5   0  0.8551754E-08  0.3899569E+04  0.7818609E-02  0.8025119E-01
        2   -1    0    0  501    0  0.00000000000E+00  0.00000000000E+00  0.23516263311E+04  0.23516263311E+04  0.25500000920E-02 0. -1.
       -2   -1    0    0    0  501  0.00000000000E+00  0.00000000000E+00 -0.16166085774E+04  0.16166085774E+04  0.25500000920E-02 0.  1.
    10030    2    1    2    0    0  0.00000000000E+00  0.00000000000E+00  0.73501775368E+03  0.39682349084E+04  0.38995688467E+04 0.  0.
        1    1    3    3  502    0 -0.28212786133E+03 -0.15943786588E+04  0.14729240954E+04  0.21888683900E+04  0.50400001928E-02 0. -1.
       -1    1    3    3    0  502  0.28212786133E+03  0.15943786588E+04 -0.73790634173E+03  0.17793665185E+04  0.50400001928E-02 0.  1.
</event>
<event>
 5   0  0.8551754E-08  0.3896949E+04  0.7818609E-02  0.8025664E-01
       -2   -1    0    0    0  501  0.00000000000E+00  0.00000000000E+00  0.22568288728E+04  0.22568288728E+04  0.25500000920E-02 0.  1.
        2   -1    0    0  501    0  0.00000000000E+00  0.00000000000E+00 -0.16822508204E+04  0.16822508204E+04  0.25500000920E-02 0. -1.
    10030    2    1    2    0    0  0.00000000000E+00  0.00000000000E+00  0.57457805234E+03  0.39390796932E+04  0.38969486642E+04 0.  0.
        1    1    3    3  502    0  0.16823166687E+04  0.23186073304E+03  0.12529198838E+04  0.21103926195E+04  0.50400001928E-02 0.  1.
       -1    1    3    3    0  502 -0.16823166687E+04 -0.23186073304E+03 -0.67834183147E+03  0.18286870737E+04  0.50400001928E-02 0. -1.
</event>
<event>
 5   0  0.2632875E-08  0.4157709E+04  0.7818609E-02  0.7973466E-01
       -1   -1    0    0    0  501  0.00000000000E+00  0.00000000000E+00  0.19136818833E+04  0.19136818833E+04  0.50400001928E-02 0.  1.
        1   -1    0    0  501    0  0.00000000000E+00  0.00000000000E+00 -0.22582834753E+04  0.22582834753E+04  0.50400001928E-02 0. -1.
    10030    2    1    2    0    0  0.00000000000E+00  0.00000000000E+00 -0.34460159199E+03  0.41719653586E+04  0.41577090683E+04 0.  0.
        3    1    3    3  502    0  0.18104640207E+03 -0.18343079710E+04 -0.11369360917E+04  0.21656609197E+04  0.10100000352E+00 0. -1.
       -3    1    3    3    0  502 -0.18104640207E+03  0.18343079710E+04  0.79233449976E+03  0.20063044390E+04  0.10100000352E+00 0.  1.
</event>
<event>
 5   0  0.8342802E-08  0.3887954E+04  0.7818609E-02  0.8027539E-01
        2   -1    0    0  501    0  0.00000000000E+00  0.00000000000E+00  0.20043678216E+04  0.20043678216E+04  0.25500000920E-02 0. -1.
       -2   -1    0    0    0  501  0.00000000000E+00  0.00000000000E+00 -0.18854061782E+04  0.18854061782E+04  0.25500000920E-02 0.  1.
    10030    2    1    2    0    0  0.00000000000E+00  0.00000000000E+00  0.11896164341E+03  0.38897739998E+04  0.38879544618E+04 0.  0.
        4    1    3    3  502    0 -0.18828197076E+04 -0.10565501553E+03  0.53179584663E+03  0.19593318935E+04  0.12699999809E+01 0. -1.
       -4    1    3    3    0  502  0.18828197076E+04  0.10565501553E+03 -0.41283420322E+03  0.19304421063E+04  0.12699999809E+01 0.  1.
</event>
<event>
 5   0  0.2632875E-08  0.3883301E+04  0.7818609E-02  0.8028511E-01
        1   -1    0    0  501    0  0.00000000000E+00  0.00000000000E+00  0.26319967161E+04  0.26319967161E+04  0.50400001928E-02 0. -1.
       -1   -1    0    0    0  501  0.00000000000E+00  0.00000000000E+00 -0.14323749792E+04  0.14323749792E+04  0.50400001928E-02 0.  1.
    10030    2    1    2    0    0  0.00000000000E+00  0.00000000000E+00  0.11996217369E+04  0.40643716953E+04  0.38833007823E+04 0.  0.
        2    1    3    3  502    0  0.11508349813E+03 -0.19319686198E+04  0.43679444592E+03  0.19840706509E+04  0.25500000920E-02 0. -1.
       -2    1    3    3    0  502 -0.11508349813E+03  0.19319686198E+04  0.76282729094E+03  0.20803010444E+04  0.25500000920E-02 0.  1.
</event>
<event>
 5   0  0.8476262E-08  0.3899088E+04  0.7818609E-02  0.8025219E-01
        2   -1    0    0  501    0  0.00000000000E+00  0.00000000000E+00  0.13573527960E+04  0.13573527960E+04  0.25500000920E-02 0.  1.
       -2   -1    0    0    0  501  0.00000000000E+00  0.00000000000E+00 -0.28000990280E+04  0.28000990280E+04  0.25500000920E-02 0. -1.
    10030    2    1    2    0    0  0.00000000000E+00  0.00000000000E+00 -0.14427462320E+04  0.41574518241E+04  0.38990882241E+04 0.  0.
        2    1    3    3  502    0  0.44795055660E+03  0.18877885781E+04 -0.51817572945E+03  0.20082110207E+04  0.25500000920E-02 0. -1.
       -2    1    3    3    0  502 -0.44795055660E+03 -0.18877885781E+04 -0.92457050252E+03  0.21492408034E+04  0.25500000920E-02 0.  1.
</event>
<event>
 5   0  0.2632875E-08  0.3906767E+04  0.7818609E-02  0.8023623E-01
       -1   -1    0    0    0  501  0.00000000000E+00  0.00000000000E+00  0.17813936312E+04  0.17813936312E+04  0.50400001928E-02 0. -1.
        1   -1    0    0  501    0  0.00000000000E+00  0.00000000000E+00 -0.21419783489E+04  0.21419783489E+04  0.50400001928E-02 0.  1.
    10030    2    1    2    0    0  0.00000000000E+00  0.00000000000E+00 -0.36058471772E+03  0.39233719801E+04  0.39067667393E+04 0.  0.
        3    1    3    3  502    0  0.18095913007E+03  0.92336346666E+03  0.15388130786E+04  0.18036884430E+04  0.10100000352E+00 0. -1.
       -3    1    3    3    0  502 -0.18095913007E+03 -0.92336346666E+03 -0.18993977964E+04  0.21196835371E+04  0.10100000352E+00 0.  1.
</event>
<event>
 5   0  0.8476262E-08  0.3898937E+04  0.7818609E-02  0.8025250E-01
       -2   -1    0    0    0  501  0.00000000000E+00  0.00000000000E+00  0.31875916879E+04  0.31875916879E+04  0.25500000920E-02 0.  1.
        2   -1    0    0  501    0  0.00000000000E+00  0.00000000000E+00 -0.11922569592E+04  0.11922569592E+04  0.25500000920E-02 0. -1.
    10030    2    1    2    0    0  0.00000000000E+00  0.00000000000E+00  0.19953347287E+04  0.43798486471E+04  0.38989374824E+04 0.  0.
        2    1    3    3  502    0 -0.65032905639E+03  0.18377700708E+04  0.98634115905E+03  0.21847644259E+04  0.25500000920E-02 0. -1.
       -2    1    3    3    0  502  0.65032905639E+03 -0.18377700708E+04  0.10089935696E+04  0.21950842212E+04  0.25500000920E-02 0.  1.
</event>
<event>
 5   0  0.8438211E-08  0.3897535E+04  0.7818609E-02  0.8025542E-01
       -2   -1    0    0    0  501  0.00000000000E+00  0.00000000000E+00  0.18264317866E+04  0.18264317866E+04  0.25500000920E-02 0.  1.
        2   -1    0    0  501    0  0.00000000000E+00  0.00000000000E+00 -0.20792970046E+04  0.20792970046E+04  0.25500000920E-02 0. -1.
    10030    2    1    2    0    0  0.00000000000E+00  0.00000000000E+00 -0.25286521800E+03  0.39057287911E+04  0.38975346787E+04 0.  0.
        5    1    3    3  502    0  0.17713474569E+03  0.45713752537E+03 -0.20164839430E+04  0.20752303529E+04  0.46999998093E+01 0. -1.
       -5    1    3    3    0  502 -0.17713474569E+03 -0.45713752537E+03  0.17636187250E+04  0.18304984382E+04  0.46999998093E+01 0.  1.
</event>
<event>
 5   0  0.8438211E-08  0.3898712E+04  0.7818609E-02  0.8025297E-01
        2   -1    0    0  501    0  0.00000000000E+00  0.00000000000E+00  0.20360192041E+04  0.20360192041E+04  0.25500000920E-02 0. -1.
       -2   -1    0    0    0  501  0.00000000000E+00  0.00000000000E+00 -0.18663819754E+04  0.18663819754E+04  0.25500000920E-02 0.  1.
    10030    2    1    2    0    0  0.00000000000E+00  0.00000000000E+00  0.16963722872E+03  0.39024011795E+04  0.38987123741E+04 0.  0.
        5    1    3    3  502    0 -0.54046265364E+02 -0.67469271048E+03 -0.17449800129E+04  0.18716593140E+04  0.46999998093E+01 0.  1.
       -5    1    3    3    0  502  0.54046265364E+02  0.67469271048E+03  0.19146172416E+04  0.20307418655E+04  0.46999998093E+01 0. -1.
</event>
<event>
 5   0  0.2632875E-08  0.3895757E+04  0.7818609E-02  0.8025912E-01
       -1   -1    0    0    0  501  0.00000000000E+00  0.00000000000E+00  0.23551383023E+04  0.23551383023E+04  0.50400001928E-02 0.  1.
        1   -1    0    0  501    0  0.00000000000E+00  0.00000000000E+00 -0.16110432804E+04  0.16110432804E+04  0.50400001928E-02 0. -1.
    10030    2    1    2    0    0  0.00000000000E+00  0.00000000000E+00  0.74409502186E+03  0.39661815827E+04  0.38957565306E+04 0.  0.
        2    1    3    3  502    0 -0.11268615622E+04 -0.13101592959E+04  0.12871260016E+04  0.21547685967E+04  0.25500000920E-02 0.  1.
       -2    1    3    3    0  502  0.11268615622E+04  0.13101592959E+04 -0.54303097979E+03  0.18114129860E+04  0.25500000920E-02 0. -1.
</event>
<event>
 5   0  0.2632875E-08  0.3905573E+04  0.7818609E-02  0.8023871E-01
        1   -1    0    0  501    0  0.00000000000E+00  0.00000000000E+00  0.18209808195E+04  0.18209808195E+04  0.50400001928E-02 0. -1.
       -1   -1    0    0    0  501  0.00000000000E+00  0.00000000000E+00 -0.20941321187E+04  0.20941321187E+04  0.50400001928E-02 0.  1.
    10030    2    1    2    0    0  0.00000000000E+00  0.00000000000E+00 -0.27315129918E+03  0.39151129382E+04  0.39055726451E+04 0.  0.
        3    1    3    3  502    0  0.15569937100E+04  0.93974007126E+02 -0.13143131470E+04  0.20397253701E+04  0.10100000352E+00 0.  1.
       -3    1    3    3    0  502 -0.15569937100E+04 -0.93974007126E+02  0.10411618478E+04  0.18753875681E+04  0.10100000352E+00 0. -1.
</event>
<event>
 5   0  0.2632875E-08  0.3880578E+04  0.7818609E-02  0.8029081E-01
        1   -1    0    0  501    0  0.00000000000E+00  0.00000000000E+00  0.30068153306E+04  0.30068153306E+04  0.50400001928E-02 0. -1.
       -1   -1    0    0    0  501  0.00000000000E+00  0.00000000000E+00 -0.12520628194E+04  0.12520628194E+04  0.50400001928E-02 0.  1.
    10030    2    1    2    0    0  0.00000000000E+00  0.00000000000E+00  0.17547525111E+04  0.42588781500E+04  0.38805781427E+04 0.  0.
        3    1    3    3  502    0  0.49656259857E+03  0.15629152249E+04  0.20155079869E+04  0.25983746593E+04  0.10100000352E+00 0. -1.
       -3    1    3    3    0  502 -0.49656259857E+03 -0.15629152249E+04 -0.26075547578E+03  0.16605034907E+04  0.10100000352E+00 0.  1.
</event>
<event>
 5   0  0.2632875E-08  0.3890355E+04  0.7818609E-02  0.8027038E-01
        1   -1    0    0  501    0  0.00000000000E+00  0.00000000000E+00  0.15785072985E+04  0.15785072985E+04  0.50400001928E-02 0.  1.
       -1   -1    0    0    0  501  0.00000000000E+00  0.00000000000E+00 -0.23970209078E+04  0.23970209078E+04  0.50400001928E-02 0. -1.
    10030    2    1    2    0    0  0.00000000000E+00  0.00000000000E+00 -0.81851360928E+03  0.39755282062E+04  0.38903547383E+04 0.  0.
        5    1    3    3  502    0  0.14340855960E+04  0.11544264885E+04  0.23249791976E+03  0.18556344971E+04  0.46999998093E+01 0.  1.
       -5    1    3    3    0  502 -0.14340855960E+04 -0.11544264885E+04 -0.10510115290E+04  0.21198937092E+04  0.46999998093E+01 0. -1.
</event>
<event>
 5   0  0.8551754E-08  0.3921311E+04  0.7818609E-02  0.8020611E-01
        2   -1    0    0  501    0  0.00000000000E+00  0.00000000000E+00  0.19497893706E+04  0.19497893706E+04  0.25500000920E-02 0.  1.
       -2   -1    0    0    0  501  0.00000000000E+00  0.00000000000E+00 -0.19715824996E+04  0.19715824996E+04  0.25500000920E-02 0. -1.
    10030    2    1    2    0    0  0.00000000000E+00  0.00000000000E+00 -0.21793128964E+02  0.39213718702E+04  0.39213113117E+04 0.  0.
        1    1    3    3  502    0  0.93180446897E+03 -0.61567749766E+03 -0.16223966298E+04  0.19696418898E+04  0.50400001928E-02 0. -1.
       -1    1    3    3    0  502 -0.93180446897E+03  0.61567749766E+03  0.16006035008E+04  0.19517299804E+04  0.50400001928E-02 0.  1.
</event>
<event>
 5   0  0.2632875E-08  0.3864166E+04  0.7818609E-02  0.8032523E-01
        1   -1    0    0  501    0  0.00000000000E+00  0.00000000000E+00  0.18906336921E+04  0.18906336921E+04  0.50400001928E-02 0. -1.
       -1   -1    0    0    0  501  0.00000000000E+00  0.00000000000E+00 -0.19744415301E+04  0.19744415301E+04  0.50400001928E-02 0.  1.
    10030    2    1    2    0    0  0.00000000000E+00  0.00000000000E+00 -0.83807838035E+02  0.38650752222E+04  0.38641664973E+04 0.  0.
        5    1    3    3  502    0 -0.69715240276E+03  0.77366283144E+02 -0.18425818659E+04  0.19715823688E+04  0.46999998093E+01 0.  1.
       -5    1    3    3    0  502  0.69715240276E+03 -0.77366283144E+02  0.17587740279E+04  0.18934928533E+04  0.46999998093E+01 0. -1.
</event>
<event>
 5   0  0.8551754E-08  0.3891671E+04  0.7818609E-02  0.8026764E-01
       -2   -1    0    0    0  501  0.00000000000E+00  0.00000000000E+00  0.19881662632E+04  0.19881662632E+04  0.25500000920E-02 0.  1.
        2   -1    0    0  501    0  0.00000000000E+00  0.00000000000E+00 -0.19044061903E+04  0.19044061903E+04  0.25500000920E-02 0. -1.
    10030    2    1    2    0    0  0.00000000000E+00  0.00000000000E+00  0.83760072846E+02  0.38925724535E+04  0.38916711778E+04 0.  0.
        1    1    3    3  502    0  0.17037340100E+04  0.90132702735E+03  0.30873041246E+03  0.19520282925E+04  0.50400001928E-02 0.  1.
       -1    1    3    3    0  502 -0.17037340100E+04 -0.90132702735E+03 -0.22497033962E+03  0.19405441610E+04  0.50400001928E-02 0. -1.
</event>
<event>
 5   0  0.8676098E-08  0.3904756E+04  0.7818609E-02  0.8024041E-01
        2   -1    0    0  501    0  0.00000000000E+00  0.00000000000E+00  0.20543919779E+04  0.20543919779E+04  0.25500000920E-02 0. -1.
       -2   -1    0    0    0  501  0.00000000000E+00  0.00000000000E+00 -0.18554293922E+04  0.18554293922E+04  0.25500000920E-02 0.  1.
    10030    2    1    2    0    0  0.00000000000E+00  0.00000000000E+00  0.19896258567E+03  0.39098213701E+04  0.39047556948E+04 0.  0.
        3    1    3    3  502    0  0.10851688659E+04  0.15129334368E+04 -0.48883536735E+03  0.19249724877E+04  0.10100000352E+00 0.  1.
       -3    1    3    3    0  502 -0.10851688659E+04 -0.15129334368E+04  0.68779795302E+03  0.19848488824E+04  0.10100000352E+00 0. -1.
</event>
<event>
 5   0  0.8476262E-08  0.3888959E+04  0.7818609E-02  0.8027330E-01
        2   -1    0    0  501    0  0.00000000000E+00  0.00000000000E+00  0.26038307939E+04  0.26038307939E+04  0.25500000920E-02 0. -1.
       -2   -1    0    0    0  501  0.00000000000E+00  0.00000000000E+00 -0.14520911735E+04  0.14520911735E+04  0.25500000920E-02 0.  1.
    10030    2    1    2    0    0  0.00000000000E+00  0.00000000000E+00  0.11517396203E+04  0.40559219674E+04  0.38889585820E+04 0.  0.
        2    1    3    3  502    0 -0.87197185881E+03 -0.81618199218E+03 -0.10244497141E+04  0.15735263530E+04  0.25500000920E-02 0.  1.
       -2    1    3    3    0  502  0.87197185881E+03  0.81618199218E+03  0.21761893345E+04  0.24823956144E+04  0.25500000920E-02 0. -1.
</event>
<event>
 5   0  0.2632875E-08  0.3884025E+04  0.7818609E-02  0.8028360E-01
        1   -1    0    0  501    0  0.00000000000E+00  0.00000000000E+00  0.12838297723E+04  0.12838297723E+04  0.50400001928E-02 0. -1.
       -1   -1    0    0    0  501  0.00000000000E+00  0.00000000000E+00 -0.29376260259E+04  0.29376260259E+04  0.50400001928E-02 0.  1.
    10030    2    1    2    0    0  0.00000000000E+00  0.00000000000E+00 -0.16537962537E+04  0.42214557982E+04  0.38840245890E+04 0.  0.
        4    1    3    3  502    0  0.10235593228E+04  0.23795693764E+03 -0.26019088433E+04  0.28061055635E+04  0.12699999809E+01 0.  1.
       -4    1    3    3    0  502 -0.10235593228E+04 -0.23795693764E+03  0.94811258963E+03  0.14153502348E+04  0.12699999809E+01 0. -1.
</event>
<event>
 5   0  0.8438211E-08  0.3882051E+04  0.7818609E-02  0.8028773E-01
        2   -1    0    0  501    0  0.00000000000E+00  0.00000000000E+00  0.20734962575E+04  0.20734962575E+04  0.25500000920E-02 0.  1.
       -2   -1    0    0    0  501  0.00000000000E+00  0.00000000000E+00 -0.18170176065E+04  0.18170176065E+04  0.25500000920E-02 0. -1.
    10030    2    1    2    0    0  0.00000000000E+00  0.00000000000E+00  0.25647865101E+03  0.38905138639E+04  0.38820505956E+04 0.  0.
        5    1    3    3  502    0 -0.11821967543E+04 -0.13448071019E+04 -0.62270179528E+03  0.18957518094E+04  0.46999998093E+01 0. -1.
       -5    1    3    3    0  502  0.11821967543E+04  0.13448071019E+04  0.87918044629E+03  0.19947620545E+04  0.46999998093E+01 0.  1.
</event>
<event>
 5   0  0.8438211E-08  0.3854887E+04  0.7818609E-02  0.8034478E-01
       -2   -1    0    0    0  501  0.00000000000E+00  0.00000000000E+00  0.16022644250E+04  0.16022644250E+04  0.25500000920E-02 0. -1.
        2   -1    0    0  501    0  0.00000000000E+00  0.00000000000E+00 -0.23186173667E+04  0.23186173667E+04  0.25500000920E-02 0.  1.
    10030    2    1    2    0    0  0.00000000000E+00  0.00000000000E+00 -0.71635294166E+03  0.39208817918E+04  0.38548868320E+04 0.  0.
        5    1    3    3  502    0 -0.53100513856E+03  0.55968738173E+03 -0.21547105748E+04  0.22886712682E+04  0.46999998093E+01 0.  1.
       -5    1    3    3    0  502  0.53100513856E+03 -0.55968738173E+03  0.14383576332E+04  0.16322105236E+04  0.46999998093E+01 0. -1.
</event>
<event>
 5   0  0.8551754E-08  0.3916597E+04  0.7818609E-02  0.8021586E-01
       -2   -1    0    0    0  501  0.00000000000E+00  0.00000000000E+00  0.17256978982E+04  0.17256978982E+04  0.25500000920E-02 0. -1.
        2   -1    0    0  501    0  0.00000000000E+00  0.00000000000E+00 -0.22222509273E+04  0.22222509273E+04  0.25500000920E-02 0.  1.
    10030    2    1    2    0    0  0.00000000000E+00  0.00000000000E+00 -0.49655302908E+03  0.39479488254E+04  0.39165973775E+04 0.  0.
        1    1    3    3  502    0 -0.13911084325E+04  0.72704271012E+03  0.93206219586E+03  0.18255173815E+04  0.50400001928E-02 0. -1.
       -1    1    3    3    0  502  0.13911084325E+04 -0.72704271012E+03 -0.14286152249E+04  0.21224314439E+04  0.50400001928E-02 0.  1.
</event>
<event>
 5   0  0.8342802E-08  0.3991154E+04  0.7818609E-02  0.8006333E-01
        2   -1    0    0  501    0  0.00000000000E+00  0.00000000000E+00  0.18601387821E+04  0.18601387821E+04  0.25500000920E-02 0. -1.
       -2   -1    0    0    0  501  0.00000000000E+00  0.00000000000E+00 -0.21408769871E+04  0.21408769871E+04  0.25500000920E-02 0.  1.
    10030    2    1    2    0    0  0.00000000000E+00  0.00000000000E+00 -0.28073820497E+03  0.40010157692E+04  0.39911543751E+04 0.  0.
        4    1    3    3  502    0  0.41034670017E+03  0.20491793101E+03  0.18065806966E+04  0.18638967780E+04  0.12699999809E+01 0. -1.
       -4    1    3    3    0  502 -0.41034670017E+03 -0.20491793101E+03 -0.20873189016E+04  0.21371189912E+04  0.12699999809E+01 0.  1.
</event>
<event>
 5   0  0.2632875E-08  0.4016399E+04  0.7818609E-02  0.8001247E-01
        1   -1    0    0  501    0  0.00000000000E+00  0.00000000000E+00  0.23504499799E+04  0.23504499799E+04  0.50400001928E-02 0.  1.
       -1   -1    0    0    0  501  0.00000000000E+00  0.00000000000E+00 -0.17157842094E+04  0.17157842094E+04  0.50400001928E-02 0. -1.
    10030    2    1    2    0    0  0.00000000000E+00  0.00000000000E+00  0.63466577047E+03  0.40662341893E+04  0.40163988649E+04 0.  0.
        4    1    3    3  502    0  0.38068149001E+03 -0.73440195801E+03  0.21699561140E+04  0.23222781449E+04  0.12699999809E+01 0.  1.
       -4    1    3    3    0  502 -0.38068149001E+03  0.73440195801E+03 -0.15352903435E+04  0.17439560444E+04  0.12699999809E+01 0. -1.
</event>
<event>
 5   0  0.2632875E-08  0.3880986E+04  0.7818609E-02  0.8028995E-01
        1   -1    0    0  501    0  0.00000000000E+00  0.00000000000E+00  0.13692052469E+04  0.13692052470E+04  0.50400001928E-02 0.  1.
       -1   -1    0    0    0  501  0.00000000000E+00  0.00000000000E+00 -0.27501457469E+04  0.27501457469E+04  0.50400001928E-02 0. -1.
    10030    2    1    2    0    0  0.00000000000E+00  0.00000000000E+00 -0.13809405000E+04  0.41193509939E+04  0.38809864656E+04 0.  0.
        2    1    3    3  502    0 -0.38158592683E+02  0.17304193983E+03 -0.27415402343E+04  0.27472608991E+04  0.25500000920E-02 0. -1.
       -2    1    3    3    0  502  0.38158592683E+02 -0.17304193983E+03  0.13605997344E+04  0.13720900948E+04  0.25500000920E-02 0.  1.
</event>
<event>
 5   0  0.8438211E-08  0.3666720E+04  0.7818609E-02  0.8075377E-01
        2   -1    0    0  501    0  0.00000000000E+00  0.00000000000E+00  0.18438321586E+04  0.18438321586E+04  0.25500000920E-02 0.  1.
       -2   -1    0    0    0  501  0.00000000000E+00  0.00000000000E+00 -0.18229468297E+04  0.18229468297E+04  0.25500000920E-02 0. -1.
    10030    2    1    2    0    0  0.00000000000E+00  0.00000000000E+00  0.20885328908E+02  0.36667789882E+04  0.36667195081E+04 0.  0.
        5    1    3    3  502    0 -0.21643139138E+02  0.84540194441E+03  0.16371260604E+04  0.18426547969E+04  0.46999998093E+01 0.  1.
       -5    1    3    3    0  502  0.21643139138E+02 -0.84540194441E+03 -0.16162407315E+04  0.18241241913E+04  0.46999998093E+01 0. -1.
</event>
<event>
 5   0  0.8676098E-08  0.3887854E+04  0.7818609E-02  0.8027560E-01
       -2   -1    0    0    0  501  0.00000000000E+00  0.00000000000E+00  0.21994489088E+04  0.21994489088E+04  0.25500000920E-02 0.  1.
        2   -1    0    0  501    0  0.00000000000E+00  0.00000000000E+00 -0.17180906253E+04  0.17180906253E+04  0.25500000920E-02 0. -1.
    10030    2    1    2    0    0  0.00000000000E+00  0.00000000000E+00  0.48135828345E+03  0.39175395341E+04  0.38878541902E+04 0.  0.
        3    1    3    3  502    0 -0.29920439943E+03 -0.18945174275E+04 -0.78174954263E+02  0.19195913340E+04  0.10100000352E+00 0. -1.
       -3    1    3    3    0  502  0.29920439943E+03  0.18945174275E+04  0.55953323772E+03  0.19979482001E+04  0.10100000352E+00 0.  1.
</event>
<event>
 5   0  0.2632875E-08  0.3917157E+04  0.7818609E-02  0.8021470E-01
       -1   -1    0    0    0  501  0.00000000000E+00  0.00000000000E+00  0.22820868267E+04  0.22820868267E+04  0.50400001928E-02 0. -1.
        1   -1    0    0  501    0  0.00000000000E+00  0.00000000000E+00 -0.16809306441E+04  0.16809306442E+04  0.50400001928E-02 0.  1.
    10030    2    1    2    0    0  0.00000000000E+00  0.00000000000E+00  0.60115618256E+03  0.39630174709E+04  0.39171569688E+04 0.  0.
        2    1    3    3  502    0  0.51013939176E+03 -0.10053658884E+04  0.19208987711E+04  0.22272976580E+04  0.25500000920E-02 0. -1.
       -2    1    3    3    0  502 -0.51013939176E+03  0.10053658884E+04 -0.13197425885E+04  0.17357198128E+04  0.25500000920E-02 0.  1.
</event>
<event>
 5   0  0.8342802E-08  0.3915339E+04  0.7818609E-02  0.8021847E-01
        2   -1    0    0  501    0  0.00000000000E+00  0.00000000000E+00  0.19976293026E+04  0.19976293026E+04  0.25500000920E-02 0.  1.
       -2   -1    0    0    0  501  0.00000000000E+00  0.00000000000E+00 -0.19185086745E+04  0.19185086745E+04  0.25500000920E-02 0. -1.
    10030    2    1    2    0    0  0.00000000000E+00  0.00000000000E+00  0.79120628070E+02  0.39161379771E+04  0.39153386293E+04 0.  0.
        4    1    3    3  502    0  0.88156573386E+03 -0.13012737628E+03  0.17830100552E+04  0.19932931914E+04  0.12699999809E+01 0.  1.
       -4    1    3    3    0  502 -0.88156573386E+03  0.13012737628E+03 -0.17038894271E+04  0.19228447857E+04  0.12699999809E+01 0. -1.
</event>
<event>
 5   0  0.2632875E-08  0.3904030E+04  0.7818609E-02  0.8024192E-01
       -1   -1    0    0    0  501  0.00000000000E+00  0.00000000000E+00  0.30567503202E+04  0.30567503202E+04  0.50400001928E-02 0. -1.
        1   -1    0    0  501    0  0.00000000000E+00  0.00000000000E+00 -0.12465404466E+04  0.12465404466E+04  0.50400001928E-02 0.  1.
    10030    2    1    2    0    0  0.00000000000E+00  0.00000000000E+00  0.18102098735E+04  0.43032907668E+04  0.39040301788E+04 0.  0.
        4    1    3    3  502    0  0.15943216883E+04  0.10812595450E+04  0.55762363195E+03  0.20054749006E+04  0.12699999809E+01 0.  1.
       -4    1    3    3    0  502 -0.15943216883E+04 -0.10812595450E+04  0.12525862416E+04  0.22978158662E+04  0.12699999809E+01 0. -1.
</event>
<event>
 5   0  0.2632875E-08  0.3853610E+04  0.7818609E-02  0.8034747E-01
        1   -1    0    0  501    0  0.00000000000E+00  0.00000000000E+00  0.16013210989E+04  0.16013210989E+04  0.50400001928E-02 0.  1.
       -1   -1    0    0    0  501  0.00000000000E+00  0.00000000000E+00 -0.23184471583E+04  0.23184471583E+04  0.50400001928E-02 0. -1.
    10030    2    1    2    0    0  0.00000000000E+00  0.00000000000E+00 -0.71712605939E+03  0.39197682572E+04  0.38536104377E+04 0.  0.
        5    1    3    3  502    0  0.56241643994E+03 -0.17044794424E+04 -0.10713021615E+04  0.20902805632E+04  0.46999998093E+01 0. -1.
       -5    1    3    3    0  502 -0.56241643994E+03  0.17044794424E+04  0.35417610216E+03  0.18294876941E+04  0.46999998093E+01 0.  1.
</event>
<event>
 5   0  0.8551754E-08  0.3880172E+04  0.7818609E-02  0.8029166E-01
        2   -1    0    0  501    0  0.00000000000E+00  0.00000000000E+00  0.13117461687E+04  0.13117461687E+04  0.25500000920E-02 0. -1.
       -2   -1    0    0    0  501  0.00000000000E+00  0.00000000000E+00 -0.28694065980E+04  0.28694065980E+04  0.25500000920E-02 0.  1.
    10030    2    1    2    0    0  0.00000000000E+00  0.00000000000E+00 -0.15576604293E+04  0.41811527667E+04  0.38801717031E+04 0.  0.
        1    1    3    3  502    0  0.83677241744E+03  0.61132131443E+02 -0.26638085582E+04  0.27928124268E+04  0.50400001928E-02 0.  1.
       -1    1    3    3    0  502 -0.83677241744E+03 -0.61132131443E+02  0.11061481290E+04  0.13883403399E+04  0.50400001928E-02 0. -1.
</event>
<event>
 5   0  0.2632875E-08  0.3895537E+04  0.7818609E-02  0.8025958E-01
       -1   -1    0    0    0  501  0.00000000000E+00  0.00000000000E+00  0.16197660149E+04  0.16197660149E+04  0.50400001928E-02 0.  1.
        1   -1    0    0  501    0  0.00000000000E+00  0.00000000000E+00 -0.23421910306E+04  0.23421910306E+04  0.50400001928E-02 0. -1.
    10030    2    1    2    0    0  0.00000000000E+00  0.00000000000E+00 -0.72242501576E+03  0.39619570455E+04  0.38955366417E+04 0.  0.
        2    1    3    3  502    0  0.12621207204E+04 -0.10585631246E+04 -0.14183075109E+04  0.21737296973E+04  0.25500000920E-02 0.  1.
       -2    1    3    3    0  502 -0.12621207204E+04  0.10585631246E+04  0.69588249514E+03  0.17882273482E+04  0.25500000920E-02 0. -1.
</event>
<event>
 5   0  0.8551754E-08  0.3900520E+04  0.7818609E-02  0.8024921E-01
       -2   -1    0    0    0  501  0.00000000000E+00  0.00000000000E+00  0.17091605834E+04  0.17091605834E+04  0.25500000920E-02 0. -1.
        2   -1    0    0  501    0  0.00000000000E+00  0.00000000000E+00 -0.22253699409E+04  0.22253699409E+04  0.25500000920E-02 0.  1.
    10030    2    1    2    0    0  0.00000000000E+00  0.00000000000E+00 -0.51620935758E+03  0.39345305243E+04  0.39005202661E+04 0.  0.
        1    1    3    3  502    0 -0.82383358837E+03 -0.15581163090E+04 -0.11003016528E+04  0.20777612810E+04  0.50400001928E-02 0.  1.
       -1    1    3    3    0  502  0.82383358837E+03  0.15581163090E+04  0.58409229520E+03  0.18567692433E+04  0.50400001928E-02 0. -1.
</event>
<event>
 5   0  0.8676098E-08  0.3919411E+04  0.7818609E-02  0.8021004E-01
        2   -1    0    0  501    0  0.00000000000E+00  0.00000000000E+00  0.20267761597E+04  0.20267761597E+04  0.25500000920E-02 0.  1.
       -2   -1    0    0    0  501  0.00000000000E+00  0.00000000000E+00 -0.18948541584E+04  0.18948541584E+04  0.25500000920E-02 0. -1.
    10030    2    1    2    0    0  0.00000000000E+00  0.00000000000E+00  0.13192200131E+03  0.39216303181E+04  0.39194107896E+04 0.  0.
        3    1    3    3  502    0 -0.11869254855E+03 -0.56611458486E+03  0.19394186046E+04  0.20238374881E+04  0.10100000352E+00 0.  1.
       -3    1    3    3    0  502  0.11869254855E+03  0.56611458486E+03 -0.18074966033E+04  0.18977928300E+04  0.10100000352E+00 0. -1.
</event>
<event>
 5   0  0.2632875E-08  0.3906165E+04  0.7818609E-02  0.8023748E-01
        1   -1    0    0  501    0  0.00000000000E+00  0.00000000000E+00  0.17919985461E+04  0.17919985461E+04  0.50400001928E-02 0.  1.
       -1   -1    0    0    0  501  0.00000000000E+00  0.00000000000E+00 -0.21286462380E+04  0.21286462380E+04  0.50400001928E-02 0. -1.
    10030    2    1    2    0    0  0.00000000000E+00  0.00000000000E+00 -0.33664769192E+03  0.39206447841E+04  0.39061648525E+04 0.  0.
        3    1    3    3  502    0 -0.17038496084E+03  0.16003139410E+04 -0.12789949511E+04  0.20556905992E+04  0.10100000352E+00 0. -1.
       -3    1    3    3    0  502  0.17038496084E+03 -0.16003139410E+04  0.94234725920E+03  0.18649541849E+04  0.10100000352E+00 0.  1.
</event>
<event>
 5   0  0.2632875E-08  0.3886900E+04  0.7818609E-02  0.8027759E-01
        1   -1    0    0  501    0  0.00000000000E+00  0.00000000000E+00  0.22018803885E+04  0.22018803885E+04  0.50400001928E-02 0.  1.
       -1   -1    0    0    0  501  0.00000000000E+00  0.00000000000E+00 -0.17153510920E+04  0.17153510920E+04  0.50400001928E-02 0. -1.
    10030    2    1    2    0    0  0.00000000000E+00  0.00000000000E+00  0.48652929648E+03  0.39172314805E+04  0.38869000136E+04 0.  0.
        1    1    3    3  502    0  0.15865552109E+04 -0.13718752703E+03 -0.87943935257E+03  0.18191732819E+04  0.50400001928E-02 0. -1.
       -1    1    3    3    0  502 -0.15865552109E+04  0.13718752703E+03  0.13659686490E+04  0.20980581986E+04  0.50400001928E-02 0.  1.
</event>
<event>
 5   0  0.8551754E-08  0.3899748E+04  0.7818609E-02  0.8025082E-01
       -2   -1    0    0    0  501  0.00000000000E+00  0.00000000000E+00  0.15539657321E+04  0.15539657321E+04  0.25500000920E-02 0. -1.
        2   -1    0    0  501    0  0.00000000000E+00  0.00000000000E+00 -0.24466490512E+04  0.24466490513E+04  0.25500000920E-02 0.  1.
    10030    2    1    2    0    0  0.00000000000E+00  0.00000000000E+00 -0.89268331912E+03  0.40006147834E+04  0.38997480863E+04 0.  0.
        1    1    3    3  502    0  0.50070952884E+03  0.18260589322E+04  0.31327674519E+02  0.18937219118E+04  0.50400001928E-02 0. -1.
       -1    1    3    3    0  502 -0.50070952884E+03 -0.18260589322E+04 -0.92401099364E+03  0.21068928716E+04  0.50400001928E-02 0.  1.
</event>
<event>
 5   0  0.2632875E-08  0.3880341E+04  0.7818609E-02  0.8029130E-01
       -1   -1    0    0    0  501  0.00000000000E+00  0.00000000000E+00  0.22464707596E+04  0.22464707596E+04  0.50400001928E-02 0.  1.
        1   -1    0    0  501    0  0.00000000000E+00  0.00000000000E+00 -0.16756332143E+04  0.16756332143E+04  0.50400001928E-02 0. -1.
    10030    2    1    2    0    0  0.00000000000E+00  0.00000000000E+00  0.57083754536E+03  0.39221039739E+04  0.38803407169E+04 0.  0.
        2    1    3    3  502    0 -0.18208947881E+04  0.64267945943E+03  0.94798712612E+02  0.19333084371E+04  0.25500000920E-02 0. -1.
       -2    1    3    3    0  502  0.18208947881E+04 -0.64267945943E+03  0.47603883275E+03  0.19887955368E+04  0.25500000920E-02 0.  1.
</event>
<event>
 5   0  0.2632875E-08  0.3895375E+04  0.7818609E-02  0.8025992E-01
       -1   -1    0    0    0  501  0.00000000000E+00  0.00000000000E+00  0.22798252211E+04  0.22798252211E+04  0.50400001928E-02 0. -1.
        1   -1    0    0  501    0  0.00000000000E+00  0.00000000000E+00 -0.16639378300E+04  0.16639378301E+04  0.50400001928E-02 0.  1.
    10030    2    1    2    0    0  0.00000000000E+00  0.00000000000E+00  0.61588739102E+03  0.39437630511E+04  0.38953754280E+04 0.  0.
        1    1    3    3  502    0  0.79192546727E+03 -0.63914907932E+03  0.19892437787E+04  0.22344458603E+04  0.50400001928E-02 0. -1.
       -1    1    3    3    0  502 -0.79192546727E+03  0.63914907932E+03 -0.13733563877E+04  0.17093171909E+04  0.50400001928E-02 0.  1.
</event>
<event>
 5   0  0.8676098E-08  0.3903621E+04  0.7818609E-02  0.8024277E-01
        2   -1    0    0  501    0  0.00000000000E+00  0.00000000000E+00  0.17169816754E+04  0.17169816754E+04  0.25500000920E-02 0. -1.
       -2   -1    0    0    0  501  0.00000000000E+00  0.00000000000E+00 -0.22187565887E+04  0.22187565887E+04  0.25500000920E-02 0.  1.
    10030    2    1    2    0    0  0.00000000000E+00  0.00000000000E+00 -0.50177491333E+03  0.39357382641E+04  0.39036210907E+04 0.  0.
        3    1    3    3  502    0  0.26655969497E+03  0.18699853616E+04  0.24475157035E+03  0.19046791501E+04  0.10100000352E+00 0.  1.
       -3    1    3    3    0  502 -0.26655969497E+03 -0.18699853616E+04 -0.74652648368E+03  0.20310591140E+04  0.10100000352E+00 0. -1.
</event>
<event>
 5   0  0.2632875E-08  0.3902775E+04  0.7818609E-02  0.8024452E-01
        1   -1    0    0  501    0  0.00000000000E+00  0.00000000000E+00  0.17760240716E+04  0.17760240716E+04  0.50400001928E-02 0. -1.
       -1   -1    0    0    0  501  0.00000000000E+00  0.00000000000E+00 -0.21440658590E+04  0.21440658590E+04  0.50400001928E-02 0.  1.
    10030    2    1    2    0    0  0.00000000000E+00  0.00000000000E+00 -0.36804178745E+03  0.39200899306E+04  0.39027746934E+04 0.  0.
        4    1    3    3  502    0  0.28140912187E+03  0.17075415039E+04 -0.10896985791E+04  0.20450754723E+04  0.12699999809E+01 0.  1.
       -4    1    3    3    0  502 -0.28140912187E+03 -0.17075415039E+04  0.72165679162E+03  0.18750144584E+04  0.12699999809E+01 0. -1.
</event>
<event>
 5   0  0.2632875E-08  0.3900173E+04  0.7818609E-02  0.8024993E-01
        1   -1    0    0  501    0  0.00000000000E+00  0.00000000000E+00  0.17007844185E+04  0.17007844185E+04  0.50400001928E-02 0. -1.
       -1   -1    0    0    0  501  0.00000000000E+00  0.00000000000E+00 -0.22359317413E+04  0.22359317413E+04  0.50400001928E-02 0.  1.
    10030    2    1    2    0    0  0.00000000000E+00  0.00000000000E+00 -0.53514732283E+03  0.39367161598E+04  0.39001732610E+04 0.  0.
        1    1    3    3  502    0  0.18972342020E+04 -0.41007347642E+03 -0.78252971853E+02  0.19426223001E+04  0.50400001928E-02 0. -1.
       -1    1    3    3    0  502 -0.18972342020E+04  0.41007347642E+03 -0.45689435098E+03  0.19940938597E+04  0.50400001928E-02 0.  1.
</event>
<event>
 5   0  0.2632875E-08  0.4042664E+04  0.7818609E-02  0.7995995E-01
        1   -1    0    0  501    0  0.00000000000E+00  0.00000000000E+00  0.28214329389E+04  0.28214329389E+04  0.50400001928E-02 0.  1.
       -1   -1    0    0    0  501  0.00000000000E+00  0.00000000000E+00 -0.14481232871E+04  0.14481232872E+04  0.50400001928E-02 0. -1.
    10030    2    1    2    0    0  0.00000000000E+00  0.00000000000E+00  0.13733096517E+04  0.42695562260E+04  0.40426638455E+04 0.  0.
        1    1    3    3  502    0 -0.15485060111E+04 -0.11721581728E+04  0.12784211632E+04  0.23251207106E+04  0.50400001928E-02 0.  1.
       -1    1    3    3    0  502  0.15485060111E+04  0.11721581728E+04  0.94888488536E+02  0.19444355154E+04  0.50400001928E-02 0. -1.
</event>
<event>
 5   0  0.8476262E-08  0.3836449E+04  0.7818609E-02  0.8038378E-01
        2   -1    0    0  501    0  0.00000000000E+00  0.00000000000E+00  0.14197298142E+04  0.14197298142E+04  0.25500000920E-02 0. -1.
       -2   -1    0    0    0  501  0.00000000000E+00  0.00000000000E+00 -0.25917500698E+04  0.25917500698E+04  0.25500000920E-02 0.  1.
    10030    2    1    2    0    0  0.00000000000E+00  0.00000000000E+00 -0.11720202556E+04  0.40114798840E+04  0.38364487980E+04 0.  0.
        2    1    3    3  502    0  0.48316166306E+03 -0.13327777585E+04 -0.19371896210E+04  0.24005093989E+04  0.25500000920E-02 0.  1.
       -2    1    3    3    0  502 -0.48316166306E+03  0.13327777585E+04  0.76516936537E+03  0.16109704851E+04  0.25500000920E-02 0. -1.
</event>
<event>
 5   0  0.8342802E-08  0.3923393E+04  0.7818609E-02  0.8020181E-01
        2   -1    0    0  501    0  0.00000000000E+00  0.00000000000E+00  0.19414814580E+04  0.19414814580E+04  0.25500000920E-02 0.  1.
       -2   -1    0    0    0  501  0.00000000000E+00  0.00000000000E+00 -0.19821218711E+04  0.19821218711E+04  0.25500000920E-02 0. -1.
    10030    2    1    2    0    0  0.00000000000E+00  0.00000000000E+00 -0.40640413168E+02  0.39236033291E+04  0.39233928482E+04 0.  0.
        4    1    3    3  502    0 -0.10870625594E+04 -0.15946386266E+04  0.33137164685E+03  0.19581588646E+04  0.12699999809E+01 0.  1.
       -4    1    3    3    0  502  0.10870625594E+04  0.15946386266E+04 -0.37201206001E+03  0.19654444646E+04  0.12699999809E+01 0. -1.
</event>
<event>
 5   0  0.8676098E-08  0.3897593E+04  0.7818609E-02  0.8025530E-01
        2   -1    0    0  501    0  0.00000000000E+00  0.00000000000E+00  0.18023083323E+04  0.18023083323E+04  0.25500000920E-02 0.  1.
       -2   -1    0    0    0  501  0.00000000000E+00  0.00000000000E+00 -0.21071906437E+04  0.21071906437E+04  0.25500000920E-02 0. -1.
    10030    2    1    2    0    0  0.00000000000E+00  0.00000000000E+00 -0.30488231142E+03  0.39094989760E+04  0.38975927211E+04 0.  0.
        3    1    3    3  502    0 -0.91958653121E+03 -0.15562620981E+04 -0.88282493444E+03  0.20117084733E+04  0.10100000352E+00 0. -1.
       -3    1    3    3    0  502  0.91958653121E+03  0.15562620981E+04  0.57794262302E+03  0.18977905027E+04  0.10100000352E+00 0.  1.
</event>
<event>
 5   0  0.2632875E-08  0.3874486E+04  0.7818609E-02  0.8030357E-01
        1   -1    0    0  501    0  0.00000000000E+00  0.00000000000E+00  0.23653705343E+04  0.23653705343E+04  0.50400001928E-02 0.  1.
       -1   -1    0    0    0  501  0.00000000000E+00  0.00000000000E+00 -0.15866057668E+04  0.15866057668E+04  0.50400001928E-02 0. -1.
    10030    2    1    2    0    0  0.00000000000E+00  0.00000000000E+00  0.77876476752E+03  0.39519763011E+04  0.38744860460E+04 0.  0.
        5    1    3    3  502    0  0.25036326202E+02  0.63012347668E+03  0.22577392270E+04  0.23441610270E+04  0.46999998093E+01 0.  1.
       -5    1    3    3    0  502 -0.25036326202E+02 -0.63012347668E+03 -0.14789744595E+04  0.16078152740E+04  0.46999998093E+01 0. -1.
</event>
<event>
 5   0  0.8438211E-08  0.3900147E+04  0.7818609E-02  0.8024999E-01
        2   -1    0    0  501    0  0.00000000000E+00  0.00000000000E+00  0.12527868062E+04  0.12527868062E+04  0.25500000920E-02 0. -1.
       -2   -1    0    0    0  501  0.00000000000E+00  0.00000000000E+00 -0.30354615530E+04  0.30354615530E+04  0.25500000920E-02 0.  1.
    10030    2    1    2    0    0  0.00000000000E+00  0.00000000000E+00 -0.17826747468E+04  0.42882483593E+04  0.39001467585E+04 0.  0.
        5    1    3    3  502    0  0.15879232045E+04 -0.48750214354E+03  0.23188874038E+03  0.16771860127E+04  0.46999998093E+01 0. -1.
       -5    1    3    3    0  502 -0.15879232045E+04  0.48750214354E+03 -0.20145634872E+04  0.26110623465E+04  0.46999998093E+01 0.  1.
</event>
<event>
 5   0  0.8476262E-08  0.3896258E+04  0.7818609E-02  0.8025808E-01
        2   -1    0    0  501    0  0.00000000000E+00  0.00000000000E+00  0.17725863509E+04  0.17725863509E+04  0.25500000920E-02 0.  1.
       -2   -1    0    0    0  501  0.00000000000E+00  0.00000000000E+00 -0.21410561845E+04  0.21410561845E+04  0.25500000920E-02 0. -1.
    10030    2    1    2    0    0  0.00000000000E+00  0.00000000000E+00 -0.36846983356E+03  0.39136425354E+04  0.38962581892E+04 0.  0.
        2    1    3    3  502    0 -0.53072673351E+03 -0.17471411516E+04 -0.86625923113E+03  0.20210339247E+04  0.25500000920E-02 0.  1.
       -2    1    3    3    0  502  0.53072673351E+03  0.17471411516E+04  0.49778939756E+03  0.18926086108E+04  0.25500000920E-02 0. -1.
</event>
<event>
 5   0  0.2632875E-08  0.3882094E+04  0.7818609E-02  0.8028764E-01
        1   -1    0    0  501    0  0.00000000000E+00  0.00000000000E+00  0.12137961843E+04  0.12137961844E+04  0.50400001928E-02 0.  1.
       -1   -1    0    0    0  501  0.00000000000E+00  0.00000000000E+00 -0.31040327741E+04  0.31040327741E+04  0.50400001928E-02 0. -1.
    10030    2    1    2    0    0  0.00000000000E+00  0.00000000000E+00 -0.18902365897E+04  0.43178289584E+04  0.38820938357E+04 0.  0.
        3    1    3    3  502    0  0.17400194963E+04 -0.24827715659E+03 -0.18611858793E+04  0.25599457575E+04  0.10100000352E+00 0.  1.
       -3    1    3    3    0  502 -0.17400194963E+04  0.24827715659E+03 -0.29050710398E+02  0.17578832009E+04  0.10100000352E+00 0. -1.
</event>
<event>
 5   0  0.8438211E-08  0.3899170E+04  0.7818609E-02  0.8025202E-01
       -2   -1    0    0    0  501  0.00000000000E+00  0.00000000000E+00  0.16496163866E+04  0.16496163866E+04  0.25500000920E-02 0.  1.
        2   -1    0    0  501    0  0.00000000000E+00  0.00000000000E+00 -0.23041008208E+04  0.23041008208E+04  0.25500000920E-02 0. -1.
    10030    2    1    2    0    0  0.00000000000E+00  0.00000000000E+00 -0.65448443415E+03  0.39537172074E+04  0.38991704094E+04 0.  0.
        5    1    3    3  502    0  0.16289482682E+04  0.94191183088E+03 -0.84446626213E+03  0.20624780521E+04  0.46999998093E+01 0. -1.
       -5    1    3    3    0  502 -0.16289482682E+04 -0.94191183088E+03  0.18998182798E+03  0.18912391553E+04  0.46999998093E+01 0.  1.
</event>
<event>
 5   0  0.8438211E-08  0.3894287E+04  0.7818609E-02  0.8026218E-01
       -2   -1    0    0    0  501  0.00000000000E+00  0.00000000000E+00  0.21572713695E+04  0.21572713695E+04  0.25500000920E-02 0.  1.
        2   -1    0    0  501    0  0.00000000000E+00  0.00000000000E+00 -0.17574834620E+04  0.17574834620E+04  0.25500000920E-02 0. -1.
    10030    2    1    2    0    0  0.00000000000E+00  0.00000000000E+00  0.39978790749E+03  0.39147548315E+04  0.38942874855E+04 0.  0.
        5    1    3    3  502    0 -0.12823310937E+04  0.89642115466E+03  0.13650381478E+04  0.20763658529E+04  0.46999998093E+01 0.  1.
       -5    1    3    3    0  502  0.12823310937E+04 -0.89642115466E+03 -0.96525024026E+03  0.18383889786E+04  0.46999998093E+01 0. -1.
</event>
<event>
 5   0  0.8551754E-08  0.3901147E+04  0.7818609E-02  0.8024791E-01
        2   -1    0    0  501    0  0.00000000000E+00  0.00000000000E+00  0.17689173012E+04  0.17689173012E+04  0.25500000920E-02 0. -1.
       -2   -1    0    0    0  501  0.00000000000E+00  0.00000000000E+00 -0.21508840979E+04  0.21508840979E+04  0.25500000920E-02 0.  1.
    10030    2    1    2    0    0  0.00000000000E+00  0.00000000000E+00 -0.38196679672E+03  0.39198013990E+04  0.39011465461E+04 0.  0.
        1    1    3    3  502    0 -0.46200553940E+03 -0.18773155098E+04 -0.45101320903E+03  0.19852394205E+04  0.50400001928E-02 0. -1.
       -1    1    3    3    0  502  0.46200553940E+03  0.18773155098E+04  0.69046412307E+02  0.19345619786E+04  0.50400001928E-02 0.  1.
</event>
<event>
 5   0  0.8342802E-08  0.3906688E+04  0.7818609E-02  0.8023640E-01
        2   -1    0    0  501    0  0.00000000000E+00  0.00000000000E+00  0.22237224132E+04  0.22237224132E+04  0.25500000920E-02 0. -1.
       -2   -1    0    0    0  501  0.00000000000E+00  0.00000000000E+00 -0.17158407679E+04  0.17158407679E+04  0.25500000920E-02 0.  1.
    10030    2    1    2    0    0  0.00000000000E+00  0.00000000000E+00  0.50788164526E+03  0.39395631811E+04  0.39066884048E+04 0.  0.
        4    1    3    3  502    0 -0.15363270640E+04 -0.64641318176E+03  0.12810406371E+04  0.21021935153E+04  0.12699999809E+01 0. -1.
       -4    1    3    3    0  502  0.15363270640E+04  0.64641318176E+03 -0.77315899179E+03  0.18373696658E+04  0.12699999809E+01 0.  1.
</event>
<event>
 5   0  0.2632875E-08  0.3983672E+04  0.7818609E-02  0.8007848E-01
       -1   -1    0    0    0  501  0.00000000000E+00  0.00000000000E+00  0.28831659188E+04  0.28831659188E+04  0.50400001928E-02 0.  1.
        1   -1    0    0  501    0  0.00000000000E+00  0.00000000000E+00 -0.13760606795E+04  0.13760606795E+04  0.50400001928E-02 0. -1.
    10030    2    1    2    0    0  0.00000000000E+00  0.00000000000E+00  0.15071052394E+04  0.42592265983E+04  0.39836723025E+04 0.  0.
        3    1    3    3  502    0  0.94005950292E+03  0.11699741574E+04 -0.64655511688E+03  0.16341924389E+04  0.10100000352E+00 0. -1.
       -3    1    3    3    0  502 -0.94005950292E+03 -0.11699741574E+04  0.21536603562E+04  0.26250341594E+04  0.10100000352E+00 0.  1.
</event>
<event>
 5   0  0.2632875E-08  0.3891975E+04  0.7818609E-02  0.8026700E-01
       -1   -1    0    0    0  501  0.00000000000E+00  0.00000000000E+00  0.26622644499E+04  0.26622644499E+04  0.50400001928E-02 0. -1.
        1   -1    0    0  501    0  0.00000000000E+00  0.00000000000E+00 -0.14224232329E+04  0.14224232329E+04  0.50400001928E-02 0.  1.
    10030    2    1    2    0    0  0.00000000000E+00  0.00000000000E+00  0.12398412170E+04  0.40846876827E+04  0.38919747201E+04 0.  0.
        4    1    3    3  502    0  0.17001266061E+04  0.24885609381E+03 -0.33882505015E+03  0.17513320244E+04  0.12699999809E+01 0.  1.
       -4    1    3    3    0  502 -0.17001266061E+04 -0.24885609381E+03  0.15786662672E+04  0.23333556583E+04  0.12699999809E+01 0. -1.
</event>
<event>
 5   0  0.8551754E-08  0.3903937E+04  0.7818609E-02  0.8024211E-01
        2   -1    0    0  501    0  0.00000000000E+00  0.00000000000E+00  0.23282067834E+04  0.23282067834E+04  0.25500000920E-02 0. -1.
       -2   -1    0    0    0  501  0.00000000000E+00  0.00000000000E+00 -0.16365305716E+04  0.16365305716E+04  0.25500000920E-02 0.  1.
    10030    2    1    2    0    0  0.00000000000E+00  0.00000000000E+00  0.69167621175E+03  0.39647373550E+04  0.39039372833E+04 0.  0.
        1    1    3    3  502    0  0.11381785168E+04  0.68693345712E+03 -0.11057059439E+04  0.17291366473E+04  0.50400001928E-02 0.  1.
       -1    1    3    3    0  502 -0.11381785168E+04 -0.68693345712E+03  0.17973821557E+04  0.22356007077E+04  0.50400001928E-02 0. -1.
</event>
<event>
 5   0  0.2632875E-08  0.3874410E+04  0.7818609E-02  0.8030373E-01
       -1   -1    0    0    0  501  0.00000000000E+00  0.00000000000E+00  0.30749885221E+04  0.30749885221E+04  0.50400001928E-02 0.  1.
        1   -1    0    0  501    0  0.00000000000E+00  0.00000000000E+00 -0.12204152701E+04  0.12204152702E+04  0.50400001928E-02 0. -1.
    10030    2    1    2    0    0  0.00000000000E+00  0.00000000000E+00  0.18545732520E+04  0.42954037923E+04  0.38744098637E+04 0.  0.
        1    1    3    3  502    0  0.19255663143E+04  0.15310869324E+03  0.76466826948E+03  0.20774901841E+04  0.50400001928E-02 0.  1.
       -1    1    3    3    0  502 -0.19255663143E+04 -0.15310869324E+03  0.10899049825E+04  0.22179136082E+04  0.50400001928E-02 0. -1.
</event>
<event>
 5   0  0.8342802E-08  0.3921215E+04  0.7818609E-02  0.8020631E-01
       -2   -1    0    0    0  501  0.00000000000E+00  0.00000000000E+00  0.17728853365E+04  0.17728853365E+04  0.25500000920E-02 0. -1.
        2   -1    0    0  501    0  0.00000000000E+00  0.00000000000E+00 -0.21682064754E+04  0.21682064754E+04  0.25500000920E-02 0.  1.
    10030    2    1    2    0    0  0.00000000000E+00  0.00000000000E+00 -0.39532113892E+03  0.39410918119E+04  0.39212148458E+04 0.  0.
        4    1    3    3  502    0 -0.17187623835E+04  0.30082365451E+03  0.70093012859E+03  0.18804105031E+04  0.12699999809E+01 0. -1.
       -4    1    3    3    0  502  0.17187623835E+04 -0.30082365451E+03 -0.10962512675E+04  0.20606813088E+04  0.12699999809E+01 0.  1.
</event>
<event>
 5   0  0.8438211E-08  0.3909258E+04  0.7818609E-02  0.8023106E-01
       -2   -1    0    0    0  501  0.00000000000E+00  0.00000000000E+00  0.23115738460E+04  0.23115738460E+04  0.25500000920E-02 0.  1.
        2   -1    0    0  501    0  0.00000000000E+00  0.00000000000E+00 -0.16528026848E+04  0.16528026848E+04  0.25500000920E-02 0. -1.
    10030    2    1    2    0    0  0.00000000000E+00  0.00000000000E+00  0.65877116118E+03  0.39643765309E+04  0.39092584764E+04 0.  0.
        5    1    3    3  502    0 -0.95632866898E+02 -0.14144734955E+04 -0.10351989928E+04  0.17554315593E+04  0.46999998093E+01 0. -1.
       -5    1    3    3    0  502  0.95632866898E+02  0.14144734955E+04  0.16939701539E+04  0.22089449715E+04  0.46999998093E+01 0.  1.
</event>
<event>
 5   0  0.8438211E-08  0.3897610E+04  0.7818609E-02  0.8025526E-01
        2   -1    0    0  501    0  0.00000000000E+00  0.00000000000E+00  0.27572062548E+04  0.27572062548E+04  0.25500000920E-02 0.  1.
       -2   -1    0    0    0  501  0.00000000000E+00  0.00000000000E+00 -0.13774235924E+04  0.13774235924E+04  0.25500000920E-02 0. -1.
    10030    2    1    2    0    0  0.00000000000E+00  0.00000000000E+00  0.13797826624E+04  0.41346298472E+04  0.38976100084E+04 0.  0.
        5    1    3    3  502    0  0.12487489712E+04  0.55540522529E+03 -0.78382372712E+03  0.15755160052E+04  0.46999998093E+01 0. -1.
       -5    1    3    3    0  502 -0.12487489712E+04 -0.55540522529E+03  0.21636063895E+04  0.25591138420E+04  0.46999998093E+01 0.  1.
</event>
<event>
 5   0  0.2632875E-08  0.3877124E+04  0.7818609E-02  0.8029804E-01
        1   -1    0    0  501    0  0.00000000000E+00  0.00000000000E+00  0.19448836870E+04  0.19448836870E+04  0.50400001928E-02 0.  1.
       -1   -1    0    0    0  501  0.00000000000E+00  0.00000000000E+00 -0.19322604910E+04  0.19322604910E+04  0.50400001928E-02 0. -1.
    10030    2    1    2    0    0  0.00000000000E+00  0.00000000000E+00  0.12623196015E+02  0.38771441780E+04  0.38771236286E+04 0.  0.
        4    1    3    3  502    0 -0.47075374283E+03  0.16902095918E+04 -0.81807298976E+03  0.19358880598E+04  0.12699999809E+01 0. -1.
       -4    1    3    3    0  502  0.47075374283E+03 -0.16902095918E+04  0.83069618577E+03  0.19412561182E+04  0.12699999809E+01 0.  1.
</event>
<event>
 5   0  0.2632875E-08  0.3900905E+04  0.7818609E-02  0.8024841E-01
       -1   -1    0    0    0  501  0.00000000000E+00  0.00000000000E+00  0.17074234820E+04  0.17074234820E+04  0.50400001928E-02 0.  1.
        1   -1    0    0  501    0  0.00000000000E+00  0.00000000000E+00 -0.22280734484E+04  0.22280734484E+04  0.50400001928E-02 0. -1.
    10030    2    1    2    0    0  0.00000000000E+00  0.00000000000E+00 -0.52064996646E+03  0.39354969304E+04  0.39009049850E+04 0.  0.
        4    1    3    3  502    0  0.48497233350E+03 -0.75428179015E+03  0.14871212330E+04  0.17365685583E+04  0.12699999809E+01 0.  1.
       -4    1    3    3    0  502 -0.48497233350E+03  0.75428179015E+03 -0.20077711995E+04  0.21989283721E+04  0.12699999809E+01 0. -1.
</event>
<event>
 5   0  0.2632875E-08  0.3901133E+04  0.7818609E-02  0.8024794E-01
        1   -1    0    0  501    0  0.00000000000E+00  0.00000000000E+00  0.15332690977E+04  0.15332690977E+04  0.50400001928E-02 0. -1.
       -1   -1    0    0    0  501  0.00000000000E+00  0.00000000000E+00 -0.24814358626E+04  0.24814358626E+04  0.50400001928E-02 0.  1.
    10030    2    1    2    0    0  0.00000000000E+00  0.00000000000E+00 -0.94816676483E+03  0.40147049603E+04  0.39011326182E+04 0.  0.
        1    1    3    3  502    0  0.48616178780E+03  0.17224480929E+04 -0.12722451478E+04  0.21958571066E+04  0.50400001928E-02 0.  1.
       -1    1    3    3    0  502 -0.48616178780E+03 -0.17224480929E+04  0.32407838294E+03  0.18188478537E+04  0.50400001928E-02 0. -1.
</event>
<event>
 5   0  0.8438211E-08  0.3877496E+04  0.7818609E-02  0.8029726E-01
        2   -1    0    0  501    0  0.00000000000E+00  0.00000000000E+00  0.15036826959E+04  0.15036826959E+04  0.25500000920E-02 0.  1.
       -2   -1    0    0    0  501  0.00000000000E+00  0.00000000000E+00 -0.24996914971E+04  0.24996914971E+04  0.25500000920E-02 0. -1.
    10030    2    1    2    0    0  0.00000000000E+00  0.00000000000E+00 -0.99600880118E+03  0.40033741931E+04  0.38774955058E+04 0.  0.
        5    1    3    3  502    0 -0.17110124814E+04  0.85333297457E+03 -0.16668178757E+03  0.19192565710E+04  0.46999998093E+01 0.  1.
       -5    1    3    3    0  502  0.17110124814E+04 -0.85333297457E+03 -0.82932701361E+03  0.20841176221E+04  0.46999998093E+01 0. -1.
</event>
<event>
 5   0  0.8342802E-08  0.3894091E+04  0.7818609E-02  0.8026259E-01
       -2   -1    0    0    0  501  0.00000000000E+00  0.00000000000E+00  0.19831868693E+04  0.19831868693E+04  0.25500000920E-02 0.  1.
        2   -1    0    0  501    0  0.00000000000E+00  0.00000000000E+00 -0.19115623586E+04  0.19115623586E+04  0.25500000920E-02 0. -1.
    10030    2    1    2    0    0  0.00000000000E+00  0.00000000000E+00  0.71624510749E+02  0.38947492279E+04  0.38940905842E+04 0.  0.
        4    1    3    3  502    0  0.25343988772E+03 -0.17024285908E+04 -0.87455533900E+03  0.19306329369E+04  0.12699999809E+01 0.  1.
       -4    1    3    3    0  502 -0.25343988772E+03  0.17024285908E+04  0.94617984975E+03  0.19641162909E+04  0.12699999809E+01 0. -1.
</event>
<event>
 5   0  0.8551754E-08  0.3891394E+04  0.7818609E-02  0.8026821E-01
       -2   -1    0    0    0  501  0.00000000000E+00  0.00000000000E+00  0.14109692688E+04  0.14109692688E+04  0.25500000920E-02 0. -1.
        2   -1    0    0  501    0  0.00000000000E+00  0.00000000000E+00 -0.26830754089E+04  0.26830754089E+04  0.25500000920E-02 0.  1.
    10030    2    1    2    0    0  0.00000000000E+00  0.00000000000E+00 -0.12721061402E+04  0.40940446777E+04  0.38913940678E+04 0.  0.
        1    1    3    3  502    0 -0.17024162621E+04  0.13164579611E+03 -0.16174692468E+04  0.23519690707E+04  0.50400001928E-02 0.  1.
       -1    1    3    3    0  502  0.17024162621E+04 -0.13164579611E+03  0.34536310666E+03  0.17420756070E+04  0.50400001928E-02 0. -1.
</event>
<event>
 5   0  0.8551754E-08  0.3915994E+04  0.7818609E-02  0.8021711E-01
        2   -1    0    0  501    0  0.00000000000E+00  0.00000000000E+00  0.23517295618E+04  0.23517295618E+04  0.25500000920E-02 0.  1.
       -2   -1    0    0    0  501  0.00000000000E+00  0.00000000000E+00 -0.16301838068E+04  0.16301838068E+04  0.25500000920E-02 0. -1.
    10030    2    1    2    0    0  0.00000000000E+00  0.00000000000E+00  0.72154575507E+03  0.39819133686E+04  0.39159935902E+04 0.  0.
        1    1    3    3  502    0  0.53389982948E+03  0.13738822045E+04 -0.94977917380E+03  0.17534770654E+04  0.50400001928E-02 0. -1.
       -1    1    3    3    0  502 -0.53389982948E+03 -0.13738822045E+04  0.16713249289E+04  0.22284363033E+04  0.50400001928E-02 0.  1.
</event>
<event>
 5   0  0.2632875E-08  0.3888763E+04  0.7818609E-02  0.8027370E-01
        1   -1    0    0  501    0  0.00000000000E+00  0.00000000000E+00  0.22251759900E+04  0.22251759900E+04  0.50400001928E-02 0. -1.
       -1   -1    0    0    0  501  0.00000000000E+00  0.00000000000E+00 -0.16990204808E+04  0.16990204808E+04  0.50400001928E-02 0.  1.
    10030    2    1    2    0    0  0.00000000000E+00  0.00000000000E+00  0.52615550922E+03  0.39241964709E+04  0.38887630838E+04 0.  0.
        2    1    3    3  502    0 -0.73247850257E+03  0.17096959129E+04  0.83483970713E+03  0.20387599682E+04  0.25500000920E-02 0. -1.
       -2    1    3    3    0  502  0.73247850257E+03 -0.17096959129E+04 -0.30868419791E+03  0.18854365026E+04  0.25500000920E-02 0.  1.
</event>
<event>
 5   0  0.2632875E-08  0.3895461E+04  0.7818609E-02  0.8025974E-01
       -3   -1    0    0    0  501  0.00000000000E+00  0.00000000000E+00  0.23279308378E+04  0.23279308400E+04  0.10100000352E+00 0. -1.
        3   -1    0    0  501    0  0.00000000000E+00  0.00000000000E+00 -0.16296248055E+04  0.16296248086E+04  0.10100000352E+00 0.  1.
    10030    2    1    2    0    0  0.00000000000E+00  0.00000000000E+00  0.69830603232E+03  0.39575556486E+04  0.38954608709E+04 0.  0.
        1    1    3    3  502    0 -0.20015400373E+03  0.14851343081E+04  0.16131592533E+04  0.22018102359E+04  0.50400001928E-02 0. -1.
       -1    1    3    3    0  502  0.20015400373E+03 -0.14851343081E+04 -0.91485322097E+03  0.17557454127E+04  0.50400001928E-02 0.  1.
</event>
<event>
 5   0  0.8438211E-08  0.3934798E+04  0.7818609E-02  0.8017831E-01
        2   -1    0    0  501    0  0.00000000000E+00  0.00000000000E+00  0.21354762499E+04  0.21354762499E+04  0.25500000920E-02 0.  1.
       -2   -1    0    0    0  501  0.00000000000E+00  0.00000000000E+00 -0.18125501899E+04  0.18125501899E+04  0.25500000920E-02 0. -1.
    10030    2    1    2    0    0  0.00000000000E+00  0.00000000000E+00  0.32292606001E+03  0.39480264398E+04  0.39347975207E+04 0.  0.
        5    1    3    3  502    0 -0.17058492017E+03 -0.15866512270E+04 -0.99308995349E+03  0.18795773665E+04  0.46999998093E+01 0. -1.
       -5    1    3    3    0  502  0.17058492017E+03  0.15866512270E+04  0.13160160135E+04  0.20684490733E+04  0.46999998093E+01 0.  1.
</event>
<event>
 5   0  0.2632875E-08  0.3904968E+04  0.7818609E-02  0.8023997E-01
        1   -1    0    0  501    0  0.00000000000E+00  0.00000000000E+00  0.20746781541E+04  0.20746781541E+04  0.50400001928E-02 0. -1.
       -1   -1    0    0    0  501  0.00000000000E+00  0.00000000000E+00 -0.18374870087E+04  0.18374870087E+04  0.50400001928E-02 0.  1.
    10030    2    1    2    0    0  0.00000000000E+00  0.00000000000E+00  0.23719114537E+03  0.39121651628E+04  0.39049681973E+04 0.  0.
        4    1    3    3  502    0 -0.14300213862E+04  0.10116314537E+04  0.98264274548E+03  0.20084690043E+04  0.12699999809E+01 0.  1.
       -4    1    3    3    0  502  0.14300213862E+04 -0.10116314537E+04 -0.74545160012E+03  0.19036961585E+04  0.12699999809E+01 0. -1.
</event>
<event>
 5   0  0.8476262E-08  0.3850087E+04  0.7818609E-02  0.8035491E-01
       -2   -1    0    0    0  501  0.00000000000E+00  0.00000000000E+00  0.25357958849E+04  0.25357958849E+04  0.25500000920E-02 0.  1.
        2   -1    0    0  501    0  0.00000000000E+00  0.00000000000E+00 -0.14613919935E+04  0.14613919935E+04  0.25500000920E-02 0. -1.
    10030    2    1    2    0    0  0.00000000000E+00  0.00000000000E+00  0.10744038913E+04  0.39971878784E+04  0.38500866501E+04 0.  0.
        2    1    3    3  502    0 -0.28334707748E+03  0.30585360616E+03 -0.14139537874E+04  0.14741429061E+04  0.25500000920E-02 0. -1.
       -2    1    3    3    0  502  0.28334707748E+03 -0.30585360616E+03  0.24883576787E+04  0.25230449723E+04  0.25500000920E-02 0.  1.
</event>
<event>
 5   0  0.2632875E-08  0.3874268E+04  0.7818609E-02  0.8030402E-01
        1   -1    0    0  501    0  0.00000000000E+00  0.00000000000E+00  0.15821744307E+04  0.15821744307E+04  0.50400001928E-02 0. -1.
       -1   -1    0    0    0  501  0.00000000000E+00  0.00000000000E+00 -0.23717287818E+04  0.23717287818E+04  0.50400001928E-02 0.  1.
    10030    2    1    2    0    0  0.00000000000E+00  0.00000000000E+00 -0.78955435108E+03  0.39539032125E+04  0.38742682588E+04 0.  0.
        1    1    3    3  502    0 -0.17265985053E+04 -0.49526812491E+03 -0.11349825254E+04  0.21247631037E+04  0.50400001928E-02 0.  1.
       -1    1    3    3    0  502  0.17265985053E+04  0.49526812491E+03  0.34542817434E+03  0.18291401088E+04  0.50400001928E-02 0. -1.
</event>
<event>
 5   0  0.8676098E-08  0.3915603E+04  0.7818609E-02  0.8021792E-01
       -2   -1    0    0    0  501  0.00000000000E+00  0.00000000000E+00  0.13537065311E+04  0.13537065311E+04  0.25500000920E-02 0.  1.
        2   -1    0    0  501    0  0.00000000000E+00  0.00000000000E+00 -0.28314748225E+04  0.28314748225E+04  0.25500000920E-02 0. -1.
    10030    2    1    2    0    0  0.00000000000E+00  0.00000000000E+00 -0.14777682913E+04  0.41851813536E+04  0.39156026151E+04 0.  0.
        3    1    3    3  502    0 -0.17824675967E+03 -0.13573919640E+04  0.75700618614E+03  0.15643986792E+04  0.10100000352E+00 0.  1.
       -3    1    3    3    0  502  0.17824675967E+03  0.13573919640E+04 -0.22347744774E+04  0.26207826744E+04  0.10100000352E+00 0. -1.
</event>
<event>
 5   0  0.8438211E-08  0.3920508E+04  0.7818609E-02  0.8020777E-01
       -2   -1    0    0    0  501  0.00000000000E+00  0.00000000000E+00  0.23802220807E+04  0.23802220807E+04  0.25500000920E-02 0. -1.
        2   -1    0    0  501    0  0.00000000000E+00  0.00000000000E+00 -0.16143851772E+04  0.16143851772E+04  0.25500000920E-02 0.  1.
    10030    2    1    2    0    0  0.00000000000E+00  0.00000000000E+00  0.76583690342E+03  0.39946072579E+04  0.39205077455E+04 0.  0.
        5    1    3    3  502    0  0.18906367470E+04 -0.51681865857E+03  0.41455888814E+03  0.20033696605E+04  0.46999998093E+01 0. -1.
       -5    1    3    3    0  502 -0.18906367470E+04  0.51681865857E+03  0.35127801528E+03  0.19912375973E+04  0.46999998093E+01 0.  1.
</event>
<event>
 5   0  0.2632875E-08  0.3815342E+04  0.7818609E-02  0.8042870E-01
        1   -1    0    0  501    0  0.00000000000E+00  0.00000000000E+00  0.20951023351E+04  0.20951023352E+04  0.50400001928E-02 0. -1.
       -1   -1    0    0    0  501  0.00000000000E+00  0.00000000000E+00 -0.17370079613E+04  0.17370079613E+04  0.50400001928E-02 0.  1.
    10030    2    1    2    0    0  0.00000000000E+00  0.00000000000E+00  0.35809437385E+03  0.38321102965E+04  0.38153424150E+04 0.  0.
        3    1    3    3  502    0 -0.12084137499E+04  0.65818644383E+03  0.15061170713E+04  0.20400641726E+04  0.10100000352E+00 0. -1.
       -3    1    3    3    0  502  0.12084137499E+04 -0.65818644383E+03 -0.11480226975E+04  0.17920461238E+04  0.10100000352E+00 0.  1.
</event>
<event>
 5   0  0.2632875E-08  0.3904644E+04  0.7818609E-02  0.8024064E-01
        1   -1    0    0  501    0  0.00000000000E+00  0.00000000000E+00  0.21595158020E+04  0.21595158020E+04  0.50400001928E-02 0.  1.
       -1   -1    0    0    0  501  0.00000000000E+00  0.00000000000E+00 -0.17650075012E+04  0.17650075012E+04  0.50400001928E-02 0. -1.
    10030    2    1    2    0    0  0.00000000000E+00  0.00000000000E+00  0.39450830078E+03  0.39245233032E+04  0.39046442037E+04 0.  0.
        1    1    3    3  502    0  0.16782197575E+04  0.73283163993E+03 -0.48302092543E+03  0.18938777630E+04  0.50400001928E-02 0. -1.
       -1    1    3    3    0  502 -0.16782197575E+04 -0.73283163993E+03  0.87752922621E+03  0.20306455401E+04  0.50400001928E-02 0.  1.
</event>
<event>
 5   0  0.2632875E-08  0.3895942E+04  0.7818609E-02  0.8025874E-01
       -1   -1    0    0    0  501  0.00000000000E+00  0.00000000000E+00  0.17694503552E+04  0.17694503552E+04  0.50400001928E-02 0. -1.
        1   -1    0    0  501    0  0.00000000000E+00  0.00000000000E+00 -0.21445022526E+04  0.21445022526E+04  0.50400001928E-02 0.  1.
    10030    2    1    2    0    0  0.00000000000E+00  0.00000000000E+00 -0.37505189733E+03  0.39139526078E+04  0.38959416180E+04 0.  0.
        5    1    3    3  502    0 -0.16928277416E+04  0.18420794895E+03 -0.11379279131E+04  0.20480479381E+04  0.46999998093E+01 0.  1.
       -5    1    3    3    0  502  0.16928277416E+04 -0.18420794895E+03  0.76287601574E+03  0.18659046698E+04  0.46999998093E+01 0. -1.
</event>
<event>
 5   0  0.8438211E-08  0.3910416E+04  0.7818609E-02  0.8022866E-01
       -2   -1    0    0    0  501  0.00000000000E+00  0.00000000000E+00  0.20909030199E+04  0.20909030199E+04  0.25500000920E-02 0. -1.
        2   -1    0    0  501    0  0.00000000000E+00  0.00000000000E+00 -0.18283197409E+04  0.18283197409E+04  0.25500000920E-02 0.  1.
    10030    2    1    2    0    0  0.00000000000E+00  0.00000000000E+00  0.26258327905E+03  0.39192227608E+04  0.39104164830E+04 0.  0.
        5    1    3    3  502    0  0.69355480676E+03 -0.23055083855E+03  0.19488377843E+04  0.20813848175E+04  0.46999998093E+01 0. -1.
       -5    1    3    3    0  502 -0.69355480676E+03  0.23055083855E+03 -0.16862545052E+04  0.18378379432E+04  0.46999998093E+01 0.  1.
</event>
<event>
 5   0  0.8438211E-08  0.3868583E+04  0.7818609E-02  0.8031595E-01
        2   -1    0    0  501    0  0.00000000000E+00  0.00000000000E+00  0.20884095954E+04  0.20884095954E+04  0.25500000920E-02 0. -1.
       -2   -1    0    0    0  501  0.00000000000E+00  0.00000000000E+00 -0.17915469451E+04  0.17915469451E+04  0.25500000920E-02 0.  1.
    10030    2    1    2    0    0  0.00000000000E+00  0.00000000000E+00  0.29686265028E+03  0.38799565406E+04  0.38685831158E+04 0.  0.
        5    1    3    3  502    0  0.14753427841E+04  0.27117311634E+03 -0.10763429675E+04  0.18462685241E+04  0.46999998093E+01 0.  1.
       -5    1    3    3    0  502 -0.14753427841E+04 -0.27117311634E+03  0.13732056178E+04  0.20336880164E+04  0.46999998093E+01 0. -1.
</event>
<event>
 5   0  0.8676098E-08  0.3926701E+04  0.7818609E-02  0.8019499E-01
       -2   -1    0    0    0  501  0.00000000000E+00  0.00000000000E+00  0.15929136599E+04  0.15929136599E+04  0.25500000920E-02 0. -1.
        2   -1    0    0  501    0  0.00000000000E+00  0.00000000000E+00 -0.24199332691E+04  0.24199332691E+04  0.25500000920E-02 0.  1.
    10030    2    1    2    0    0  0.00000000000E+00  0.00000000000E+00 -0.82701960918E+03  0.40128469290E+04  0.39267007833E+04 0.  0.
        3    1    3    3  502    0  0.30903180490E+03 -0.19059634819E+04 -0.49970622379E+02  0.19315005886E+04  0.10100000352E+00 0. -1.
       -3    1    3    3    0  502 -0.30903180490E+03  0.19059634819E+04 -0.77704898680E+03  0.20813463404E+04  0.10100000352E+00 0.  1.
</event>
<event>
 5   0  0.8438211E-08  0.3990812E+04  0.7818609E-02  0.8006403E-01
        2   -1    0    0  501    0  0.00000000000E+00  0.00000000000E+00  0.12948463099E+04  0.12948463099E+04  0.25500000920E-02 0.  1.
       -2   -1    0    0    0  501  0.00000000000E+00  0.00000000000E+00 -0.30749936361E+04  0.30749936361E+04  0.25500000920E-02 0. -1.
    10030    2    1    2    0    0  0.00000000000E+00  0.00000000000E+00 -0.17801473263E+04  0.43698399460E+04  0.39908115278E+04 0.  0.
        5    1    3    3  502    0 -0.16568000713E+04 -0.80670045721E+03 -0.51956120831E+02  0.18434949505E+04  0.46999998093E+01 0.  1.
       -5    1    3    3    0  502  0.16568000713E+04  0.80670045721E+03 -0.17281912054E+04  0.25263449955E+04  0.46999998093E+01 0. -1.
</event>
<event>
 5   0  0.2632875E-08  0.3947259E+04  0.7818609E-02  0.8015271E-01
        1   -1    0    0  501    0  0.00000000000E+00  0.00000000000E+00  0.28399078747E+04  0.28399078747E+04  0.50400001928E-02 0.  1.
       -1   -1    0    0    0  501  0.00000000000E+00  0.00000000000E+00 -0.13715984528E+04  0.13715984529E+04  0.50400001928E-02 0. -1.
    10030    2    1    2    0    0  0.00000000000E+00  0.00000000000E+00  0.14683094218E+04  0.42115063275E+04  0.39472589209E+04 0.  0.
        2    1    3    3  502    0  0.14601602199E+04 -0.41575468897E+03 -0.61133528602E+03  0.16366583825E+04  0.25500000920E-02 0. -1.
       -2    1    3    3    0  502 -0.14601602199E+04  0.41575468897E+03  0.20796447078E+04  0.25748479450E+04  0.25500000920E-02 0.  1.
</event>
<event>
 5   0  0.8676098E-08  0.3881918E+04  0.7818609E-02  0.8028800E-01
       -2   -1    0    0    0  501  0.00000000000E+00  0.00000000000E+00  0.14121568610E+04  0.14121568610E+04  0.25500000920E-02 0. -1.
        2   -1    0    0  501    0  0.00000000000E+00  0.00000000000E+00 -0.26677785441E+04  0.26677785441E+04  0.25500000920E-02 0.  1.
    10030    2    1    2    0    0  0.00000000000E+00  0.00000000000E+00 -0.12556216831E+04  0.40799354051E+04  0.38819179665E+04 0.  0.
        3    1    3    3  502    0 -0.45125586808E+03 -0.59780328477E+03 -0.25097710770E+04  0.26191509110E+04  0.10100000352E+00 0.  1.
       -3    1    3    3    0  502  0.45125586808E+03  0.59780328477E+03  0.12541493939E+04  0.14607844941E+04  0.10100000352E+00 0. -1.
</event>
<event>
 5   0  0.8342802E-08  0.3893435E+04  0.7818609E-02  0.8026396E-01
       -2   -1    0    0    0  501  0.00000000000E+00  0.00000000000E+00  0.15886620821E+04  0.15886620821E+04  0.25500000920E-02 0.  1.
        2   -1    0    0  501    0  0.00000000000E+00  0.00000000000E+00 -0.23854715941E+04  0.23854715941E+04  0.25500000920E-02 0. -1.
    10030    2    1    2    0    0  0.00000000000E+00  0.00000000000E+00 -0.79680951203E+03  0.39741336762E+04  0.38934346120E+04 0.  0.
        4    1    3    3  502    0 -0.12721509430E+04 -0.12727933552E+04  0.35950526104E+03  0.18351066978E+04  0.12699999809E+01 0.  1.
       -4    1    3    3    0  502  0.12721509430E+04  0.12727933552E+04 -0.11563147731E+04  0.21390269784E+04  0.12699999809E+01 0. -1.
</event>
<event>
 5   0  0.8676098E-08  0.3895033E+04  0.7818609E-02  0.8026063E-01
        2   -1    0    0  501    0  0.00000000000E+00  0.00000000000E+00  0.33184048009E+04  0.33184048009E+04  0.25500000920E-02 0.  1.
       -2   -1    0    0    0  501  0.00000000000E+00  0.00000000000E+00 -0.11429650248E+04  0.11429650248E+04  0.25500000920E-02 0. -1.
    10030    2    1    2    0    0  0.00000000000E+00  0.00000000000E+00  0.21754397761E+04  0.44613698257E+04  0.38950330554E+04 0.  0.
        3    1    3    3  502    0 -0.11517969601E+04 -0.13395785178E+04  0.14897149955E+03  0.17729352387E+04  0.10100000352E+00 0. -1.
       -3    1    3    3    0  502  0.11517969601E+04  0.13395785178E+04  0.20264682765E+04  0.26884345870E+04  0.10100000352E+00 0.  1.
</event>
<event>
 5   0  0.2632875E-08  0.3898060E+04  0.7818609E-02  0.8025433E-01
        1   -1    0    0  501    0  0.00000000000E+00  0.00000000000E+00  0.32218860897E+04  0.32218860897E+04  0.50400001928E-02 0.  1.
       -1   -1    0    0    0  501  0.00000000000E+00  0.00000000000E+00 -0.11790353141E+04  0.11790353142E+04  0.50400001928E-02 0. -1.
    10030    2    1    2    0    0  0.00000000000E+00  0.00000000000E+00  0.20428507756E+04  0.44009214039E+04  0.38980597625E+04 0.  0.
        2    1    3    3  502    0 -0.11541912041E+04 -0.31727878351E+03 -0.71514659442E+03  0.13943664560E+04  0.25500000920E-02 0. -1.
       -2    1    3    3    0  502  0.11541912041E+04  0.31727878351E+03  0.27579973700E+04  0.30065549479E+04  0.25500000920E-02 0.  1.
</event>
<event>
 5   0  0.8476262E-08  0.3881774E+04  0.7818609E-02  0.8028831E-01
       -2   -1    0    0    0  501  0.00000000000E+00  0.00000000000E+00  0.19893292878E+04  0.19893292878E+04  0.25500000920E-02 0.  1.
        2   -1    0    0  501    0  0.00000000000E+00  0.00000000000E+00 -0.18936243164E+04  0.18936243164E+04  0.25500000920E-02 0. -1.
    10030    2    1    2    0    0  0.00000000000E+00  0.00000000000E+00  0.95704971355E+02  0.38829536042E+04  0.38817739824E+04 0.  0.
        2    1    3    3  502    0  0.23467677352E+03  0.17307331223E+04 -0.79888687219E+03  0.19206068216E+04  0.25500000920E-02 0.  1.
       -2    1    3    3    0  502 -0.23467677352E+03 -0.17307331223E+04  0.89459184354E+03  0.19623467826E+04  0.25500000920E-02 0. -1.
</event>
<event>
 5   0  0.2632875E-08  0.3890121E+04  0.7818609E-02  0.8027087E-01
       -1   -1    0    0    0  501  0.00000000000E+00  0.00000000000E+00  0.19905214599E+04  0.19905214599E+04  0.50400001928E-02 0.  1.
        1   -1    0    0  501    0  0.00000000000E+00  0.00000000000E+00 -0.19006374132E+04  0.19006374132E+04  0.50400001928E-02 0. -1.
    10030    2    1    2    0    0  0.00000000000E+00  0.00000000000E+00  0.89884046737E+02  0.38911588731E+04  0.38901205937E+04 0.  0.
        4    1    3    3  502    0 -0.14626314175E+04 -0.74315725388E+02 -0.12354169804E+04  0.19160037106E+04  0.12699999809E+01 0. -1.
       -4    1    3    3    0  502  0.14626314175E+04  0.74315725388E+02  0.13253010272E+04  0.19751551625E+04  0.12699999809E+01 0.  1.
</event>
<event>
 5   0  0.2632875E-08  0.3870606E+04  0.7818609E-02  0.8031171E-01
        1   -1    0    0  501    0  0.00000000000E+00  0.00000000000E+00  0.27100169073E+04  0.27100169073E+04  0.50400001928E-02 0. -1.
       -1   -1    0    0    0  501  0.00000000000E+00  0.00000000000E+00 -0.13820568677E+04  0.13820568677E+04  0.50400001928E-02 0.  1.
    10030    2    1    2    0    0  0.00000000000E+00  0.00000000000E+00  0.13279600397E+04  0.40920737750E+04  0.38706058845E+04 0.  0.
        4    1    3    3  502    0 -0.18370713723E+03  0.15277541005E+04  0.19048561423E+04  0.24487260851E+04  0.12699999809E+01 0. -1.
       -4    1    3    3    0  502  0.18370713723E+03 -0.15277541005E+04 -0.57689610268E+03  0.16433476899E+04  0.12699999809E+01 0.  1.
</event>
<event>
 5   0  0.8342802E-08  0.3910308E+04  0.7818609E-02  0.8022889E-01
        2   -1    0    0  501    0  0.00000000000E+00  0.00000000000E+00  0.31255083768E+04  0.31255083768E+04  0.25500000920E-02 0. -1.
       -2   -1    0    0    0  501  0.00000000000E+00  0.00000000000E+00 -0.12230419764E+04  0.12230419764E+04  0.25500000920E-02 0.  1.
    10030    2    1    2    0    0  0.00000000000E+00  0.00000000000E+00  0.19024664004E+04  0.43485503532E+04  0.39103083983E+04 0.  0.
        4    1    3    3  502    0  0.10467109682E+04 -0.66011935700E+03 -0.73210409250E+03  0.14378245483E+04  0.12699999809E+01 0.  1.
       -4    1    3    3    0  502 -0.10467109682E+04  0.66011935700E+03  0.26345704929E+04  0.29107258049E+04  0.12699999809E+01 0. -1.
</event>
<event>
 5   0  0.2632875E-08  0.3898507E+04  0.7818609E-02  0.8025340E-01
        1   -1    0    0  501    0  0.00000000000E+00  0.00000000000E+00  0.23052905648E+04  0.23052905648E+04  0.50400001928E-02 0. -1.
       -1   -1    0    0    0  501  0.00000000000E+00  0.00000000000E+00 -0.16482037155E+04  0.16482037155E+04  0.50400001928E-02 0.  1.
    10030    2    1    2    0    0  0.00000000000E+00  0.00000000000E+00  0.65708684931E+03  0.39534942802E+04  0.38985066239E+04 0.  0.
        5    1    3    3  502    0  0.78949239158E+03 -0.10459463125E+04 -0.11348152339E+04  0.17335309718E+04  0.46999998093E+01 0.  1.
       -5    1    3    3    0  502 -0.78949239158E+03  0.10459463125E+04  0.17919020832E+04  0.22199633085E+04  0.46999998093E+01 0. -1.
</event>
<event>
 5   0  0.2632875E-08  0.3886163E+04  0.7818609E-02  0.8027913E-01
       -1   -1    0    0    0  501  0.00000000000E+00  0.00000000000E+00  0.16110289712E+04  0.16110289713E+04  0.50400001928E-02 0. -1.
        1   -1    0    0  501    0  0.00000000000E+00  0.00000000000E+00 -0.23435739798E+04  0.23435739798E+04  0.50400001928E-02 0.  1.
    10030    2    1    2    0    0  0.00000000000E+00  0.00000000000E+00 -0.73254500853E+03  0.39546029510E+04  0.38861629290E+04 0.  0.
        2    1    3    3  502    0 -0.17074894251E+04  0.19167480711E+03  0.55706946632E+03  0.18062629262E+04  0.25500000920E-02 0. -1.
       -2    1    3    3    0  502  0.17074894251E+04 -0.19167480711E+03 -0.12896144748E+04  0.21483400248E+04  0.25500000920E-02 0.  1.
</event>
<event>
 5   0  0.8676098E-08  0.3896193E+04  0.7818609E-02  0.8025822E-01
        2   -1    0    0  501    0  0.00000000000E+00  0.00000000000E+00  0.12867386744E+04  0.12867386744E+04  0.25500000920E-02 0. -1.
       -2   -1    0    0    0  501  0.00000000000E+00  0.00000000000E+00 -0.29493785974E+04  0.29493785974E+04  0.25500000920E-02 0.  1.
    10030    2    1    2    0    0  0.00000000000E+00  0.00000000000E+00 -0.16626399230E+04  0.42361172718E+04  0.38961927605E+04 0.  0.
        3    1    3    3  502    0  0.71835894087E+03 -0.77088052302E+03 -0.26128048633E+04  0.28172762755E+04  0.10100000352E+00 0.  1.
       -3    1    3    3    0  502 -0.71835894087E+03  0.77088052302E+03  0.95016494035E+03  0.14188409963E+04  0.10100000352E+00 0. -1.
</event>
<event>
 5   0  0.8676098E-08  0.3827379E+04  0.7818609E-02  0.8040305E-01
       -2   -1    0    0    0  501  0.00000000000E+00  0.00000000000E+00  0.28829812761E+04  0.28829812761E+04  0.25500000920E-02 0. -1.
        2   -1    0    0  501    0  0.00000000000E+00  0.00000000000E+00 -0.12702851225E+04  0.12702851225E+04  0.25500000920E-02 0.  1.
    10030    2    1    2    0    0  0.00000000000E+00  0.00000000000E+00  0.16126961536E+04  0.41532663986E+04  0.38273793768E+04 0.  0.
        3    1    3    3  502    0 -0.17535038439E+04  0.39368103167E+03  0.15199484787E+04  0.23537212820E+04  0.10100000352E+00 0.  1.
       -3    1    3    3    0  502  0.17535038439E+04 -0.39368103167E+03  0.92747674951E+02  0.17995451166E+04  0.10100000352E+00 0. -1.
</event>
<event>
 5   0  0.8342802E-08  0.3898252E+04  0.7818609E-02  0.8025393E-01
       -2   -1    0    0    0  501  0.00000000000E+00  0.00000000000E+00  0.25508804469E+04  0.25508804469E+04  0.25500000920E-02 0.  1.
        2   -1    0    0  501    0  0.00000000000E+00  0.00000000000E+00 -0.14893259032E+04  0.14893259032E+04  0.25500000920E-02 0. -1.
    10030    2    1    2    0    0  0.00000000000E+00  0.00000000000E+00  0.10615545437E+04  0.40402063501E+04  0.38982520829E+04 0.  0.
        4    1    3    3  502    0 -0.16584775662E+04  0.18470116548E+03 -0.51308768230E+03  0.17458301580E+04  0.12699999809E+01 0.  1.
       -4    1    3    3    0  502  0.16584775662E+04 -0.18470116548E+03  0.15746422260E+04  0.22943761921E+04  0.12699999809E+01 0. -1.
</event>
<event>
 5   0  0.2632875E-08  0.3878652E+04  0.7818609E-02  0.8029484E-01
       -1   -1    0    0    0  501  0.00000000000E+00  0.00000000000E+00  0.15128156073E+04  0.15128156073E+04  0.50400001928E-02 0. -1.
        1   -1    0    0  501    0  0.00000000000E+00  0.00000000000E+00 -0.24860832227E+04  0.24860832227E+04  0.50400001928E-02 0.  1.
    10030    2    1    2    0    0  0.00000000000E+00  0.00000000000E+00 -0.97326761546E+03  0.39988988300E+04  0.38786520856E+04 0.  0.
        1    1    3    3  502    0 -0.17518247580E+04  0.53356902602E+03  0.17143286541E+03  0.18392865779E+04  0.50400001928E-02 0.  1.
       -1    1    3    3    0  502  0.17518247580E+04 -0.53356902602E+03 -0.11447004809E+04  0.21596122521E+04  0.50400001928E-02 0. -1.
</event>
<event>
 5   0  0.8342802E-08  0.3914874E+04  0.7818609E-02  0.8021943E-01
        2   -1    0    0  501    0  0.00000000000E+00  0.00000000000E+00  0.21152122245E+04  0.21152122245E+04  0.25500000920E-02 0.  1.
       -2   -1    0    0    0  501  0.00000000000E+00  0.00000000000E+00 -0.18114304083E+04  0.18114304083E+04  0.25500000920E-02 0. -1.
    10030    2    1    2    0    0  0.00000000000E+00  0.00000000000E+00  0.30378181625E+03  0.39266426328E+04  0.39148740687E+04 0.  0.
        4    1    3    3  502    0  0.33299464565E+03 -0.16773404999E+04  0.11072254295E+04  0.20372300683E+04  0.12699999809E+01 0.  1.
       -4    1    3    3    0  502 -0.33299464565E+03  0.16773404999E+04 -0.80344361322E+03  0.18894125645E+04  0.12699999809E+01 0. -1.
</event>
<event>
 5   0  0.2632875E-08  0.3896462E+04  0.7818609E-02  0.8025765E-01
       -1   -1    0    0    0  501  0.00000000000E+00  0.00000000000E+00  0.14357613913E+04  0.14357613913E+04  0.50400001928E-02 0.  1.
        1   -1    0    0  501    0  0.00000000000E+00  0.00000000000E+00 -0.26436174782E+04  0.26436174782E+04  0.50400001928E-02 0. -1.
    10030    2    1    2    0    0  0.00000000000E+00  0.00000000000E+00 -0.12078560869E+04  0.40793788695E+04  0.38964619381E+04 0.  0.
        3    1    3    3  502    0  0.95550055946E+02 -0.16307466710E+04  0.50757950269E+03  0.17105851279E+04  0.10100000352E+00 0.  1.
       -3    1    3    3    0  502 -0.95550055946E+02  0.16307466710E+04 -0.17154355895E+04  0.23687937416E+04  0.10100000352E+00 0. -1.
</event>
<event>
 5   0  0.8676098E-08  0.3967461E+04  0.7818609E-02  0.8011143E-01
       -2   -1    0    0    0  501  0.00000000000E+00  0.00000000000E+00  0.14626031329E+04  0.14626031329E+04  0.25500000920E-02 0.  1.
        2   -1    0    0  501    0  0.00000000000E+00  0.00000000000E+00 -0.26905363129E+04  0.26905363129E+04  0.25500000920E-02 0. -1.
    10030    2    1    2    0    0  0.00000000000E+00  0.00000000000E+00 -0.12279331800E+04  0.41531394457E+04  0.39674610724E+04 0.  0.
        3    1    3    3  502    0  0.15876732175E+04 -0.11811071509E+04 -0.76001861439E+03  0.21197520261E+04  0.10100000352E+00 0. -1.
       -3    1    3    3    0  502 -0.15876732175E+04  0.11811071509E+04 -0.46791456560E+03  0.20333874197E+04  0.10100000352E+00 0.  1.
</event>
<event>
 5   0  0.8676098E-08  0.3910346E+04  0.7818609E-02  0.8022881E-01
        2   -1    0    0  501    0  0.00000000000E+00  0.00000000000E+00  0.27641448190E+04  0.27641448190E+04  0.25500000920E-02 0.  1.
       -2   -1    0    0    0  501  0.00000000000E+00  0.00000000000E+00 -0.13829597937E+04  0.13829597937E+04  0.25500000920E-02 0. -1.
    10030    2    1    2    0    0  0.00000000000E+00  0.00000000000E+00  0.13811850253E+04  0.41471046126E+04  0.39103458407E+04 0.  0.
        3    1    3    3  502    0 -0.15823168809E+04  0.96869256931E+03  0.36303806129E+02  0.18556427409E+04  0.10100000352E+00 0. -1.
       -3    1    3    3    0  502  0.15823168809E+04 -0.96869256931E+03  0.13448812192E+04  0.22914618717E+04  0.10100000352E+00 0.  1.
</event>
<event>
 5   0  0.2632875E-08  0.3897536E+04  0.7818609E-02  0.8025542E-01
       -1   -1    0    0    0  501  0.00000000000E+00  0.00000000000E+00  0.16075421316E+04  0.16075421316E+04  0.50400001928E-02 0. -1.
        1   -1    0    0  501    0  0.00000000000E+00  0.00000000000E+00 -0.23624248285E+04  0.23624248286E+04  0.50400001928E-02 0.  1.
    10030    2    1    2    0    0  0.00000000000E+00  0.00000000000E+00 -0.75488269693E+03  0.39699669602E+04  0.38975363730E+04 0.  0.
        1    1    3    3  502    0 -0.30902104289E+02 -0.10309571552E+04  0.13067275120E+04  0.16647415375E+04  0.50400001928E-02 0. -1.
       -1    1    3    3    0  502  0.30902104289E+02  0.10309571552E+04 -0.20616102089E+04  0.23052254227E+04  0.50400001928E-02 0.  1.
</event>
<event>
 5   0  0.2632875E-08  0.3904142E+04  0.7818609E-02  0.8024168E-01
       -1   -1    0    0    0  501  0.00000000000E+00  0.00000000000E+00  0.23386159472E+04  0.23386159472E+04  0.50400001928E-02 0. -1.
        1   -1    0    0  501    0  0.00000000000E+00  0.00000000000E+00 -0.16294170603E+04  0.16294170603E+04  0.50400001928E-02 0.  1.
    10030    2    1    2    0    0  0.00000000000E+00  0.00000000000E+00  0.70919888698E+03  0.39680330075E+04  0.39041417607E+04 0.  0.
        1    1    3    3  502    0 -0.28586828009E+03  0.15407197001E+04 -0.82851351888E+03  0.17725610056E+04  0.50400001928E-02 0.  1.
       -1    1    3    3    0  502  0.28586828009E+03 -0.15407197001E+04  0.15377124059E+04  0.21954720019E+04  0.50400001928E-02 0. -1.
</event>
<event>
 5   0  0.8551754E-08  0.3890357E+04  0.7818609E-02  0.8027038E-01
        2   -1    0    0  501    0  0.00000000000E+00  0.00000000000E+00  0.21769591946E+04  0.21769591946E+04  0.25500000920E-02 0. -1.
       -2   -1    0    0    0  501  0.00000000000E+00  0.00000000000E+00 -0.17380754228E+04  0.17380754228E+04  0.25500000920E-02 0.  1.
    10030    2    1    2    0    0  0.00000000000E+00  0.00000000000E+00  0.43888377180E+03  0.39150346173E+04  0.38903569360E+04 0.  0.
        1    1    3    3  502    0  0.45672297336E+03 -0.18750992481E+04 -0.25259354249E+02  0.19300857752E+04  0.50400001928E-02 0. -1.
       -1    1    3    3    0  502 -0.45672297336E+03  0.18750992481E+04  0.46414312605E+03  0.19849488422E+04  0.50400001928E-02 0.  1.
</event>
<event>
 5   0  0.2632875E-08  0.3902074E+04  0.7818609E-02  0.8024598E-01
       -1   -1    0    0    0  501  0.00000000000E+00  0.00000000000E+00  0.15165723459E+04  0.15165723459E+04  0.50400001928E-02 0.  1.
        1   -1    0    0  501    0  0.00000000000E+00  0.00000000000E+00 -0.25099668668E+04  0.25099668668E+04  0.50400001928E-02 0. -1.
    10030    2    1    2    0    0  0.00000000000E+00  0.00000000000E+00 -0.99339452086E+03  0.40265392127E+04  0.39020744941E+04 0.  0.
        4    1    3    3  502    0 -0.12976597412E+04 -0.13762480141E+04 -0.99003183181E+03  0.21349810400E+04  0.12699999809E+01 0. -1.
       -4    1    3    3    0  502  0.12976597412E+04  0.13762480141E+04 -0.33626890417E+01  0.18915581727E+04  0.12699999809E+01 0.  1.
</event>
<event>
 5   0  0.8438211E-08  0.3815353E+04  0.7818609E-02  0.8042868E-01
        2   -1    0    0  501    0  0.00000000000E+00  0.00000000000E+00  0.12797003946E+04  0.12797003946E+04  0.25500000920E-02 0. -1.
       -2   -1    0    0    0  501  0.00000000000E+00  0.00000000000E+00 -0.28438143921E+04  0.28438143921E+04  0.25500000920E-02 0.  1.
    10030    2    1    2    0    0  0.00000000000E+00  0.00000000000E+00 -0.15641139975E+04  0.41235147867E+04  0.38153534043E+04 0.  0.
        5    1    3    3  502    0 -0.29132272973E+03 -0.66956089298E+03 -0.26867958452E+04  0.27842547883E+04  0.46999998093E+01 0.  1.
       -5    1    3    3    0  502  0.29132272973E+03  0.66956089298E+03  0.11226818477E+04  0.13392599985E+04  0.46999998093E+01 0. -1.
</event>
<event>
 5   0  0.2632875E-08  0.3892954E+04  0.7818609E-02  0.8026496E-01
       -1   -1    0    0    0  501  0.00000000000E+00  0.00000000000E+00  0.13680037710E+04  0.13680037710E+04  0.50400001928E-02 0.  1.
        1   -1    0    0  501    0  0.00000000000E+00  0.00000000000E+00 -0.27695632641E+04  0.27695632641E+04  0.50400001928E-02 0. -1.
    10030    2    1    2    0    0  0.00000000000E+00  0.00000000000E+00 -0.14015594930E+04  0.41375670351E+04  0.38929541427E+04 0.  0.
        2    1    3    3  502    0  0.70298052018E+03  0.14589953740E+04 -0.18484070000E+04  0.24575307832E+04  0.25500000920E-02 0. -1.
       -2    1    3    3    0  502 -0.70298052018E+03 -0.14589953740E+04  0.44684750694E+03  0.16800362519E+04  0.25500000920E-02 0.  1.
</event>
<event>
 5   0  0.2632875E-08  0.3888808E+04  0.7818609E-02  0.8027361E-01
       -1   -1    0    0    0  501  0.00000000000E+00  0.00000000000E+00  0.13784533923E+04  0.13784533923E+04  0.50400001928E-02 0.  1.
        1   -1    0    0  501    0  0.00000000000E+00  0.00000000000E+00 -0.27427165887E+04  0.27427165887E+04  0.50400001928E-02 0. -1.
    10030    2    1    2    0    0  0.00000000000E+00  0.00000000000E+00 -0.13642631964E+04  0.41211699811E+04  0.38888080364E+04 0.  0.
        5    1    3    3  502    0 -0.18714159962E+03 -0.15254288018E+04 -0.19444063085E+04  0.24784456803E+04  0.46999998093E+01 0. -1.
       -5    1    3    3    0  502  0.18714159962E+03  0.15254288018E+04  0.58014311208E+03  0.16427243007E+04  0.46999998093E+01 0.  1.
</event>
<event>
 5   0  0.2632875E-08  0.3898609E+04  0.7818609E-02  0.8025319E-01
        1   -1    0    0  501    0  0.00000000000E+00  0.00000000000E+00  0.22390725348E+04  0.22390725348E+04  0.50400001928E-02 0.  1.
       -1   -1    0    0    0  501  0.00000000000E+00  0.00000000000E+00 -0.16970367339E+04  0.16970367339E+04  0.50400001928E-02 0. -1.
    10030    2    1    2    0    0  0.00000000000E+00  0.00000000000E+00  0.54203580088E+03  0.39361092687E+04  0.38986091579E+04 0.  0.
        3    1    3    3  502    0 -0.74635180873E+03  0.11669315824E+04  0.16557122571E+04  0.21587388515E+04  0.10100000352E+00 0.  1.
       -3    1    3    3    0  502  0.74635180873E+03 -0.11669315824E+04 -0.11136764563E+04  0.17773704172E+04  0.10100000352E+00 0. -1.
</event>
<event>
 5   0  0.8438211E-08  0.3906340E+04  0.7818609E-02  0.8023712E-01
        2   -1    0    0  501    0  0.00000000000E+00  0.00000000000E+00  0.21031815707E+04  0.21031815707E+04  0.25500000920E-02 0. -1.
       -2   -1    0    0    0  501  0.00000000000E+00  0.00000000000E+00 -0.18138578057E+04  0.18138578057E+04  0.25500000920E-02 0.  1.
    10030    2    1    2    0    0  0.00000000000E+00  0.00000000000E+00  0.28932376500E+03  0.39170393763E+04  0.39063396210E+04 0.  0.
        5    1    3    3  502    0  0.13168202996E+04  0.10782555974E+03  0.15870762199E+04  0.20650605489E+04  0.46999998093E+01 0. -1.
       -5    1    3    3    0  502 -0.13168202996E+04 -0.10782555974E+03 -0.12977524549E+04  0.18519788274E+04  0.46999998093E+01 0.  1.
</event>
<event>
 5   0  0.2632875E-08  0.3883859E+04  0.7818609E-02  0.8028395E-01
        1   -1    0    0  501    0  0.00000000000E+00  0.00000000000E+00  0.26819973344E+04  0.26819973344E+04  0.50400001928E-02 0.  1.
       -1   -1    0    0    0  501  0.00000000000E+00  0.00000000000E+00 -0.14060751276E+04  0.14060751276E+04  0.50400001928E-02 0. -1.
    10030    2    1    2    0    0  0.00000000000E+00  0.00000000000E+00  0.12759222068E+04  0.40880724621E+04  0.38838587741E+04 0.  0.
        2    1    3    3  502    0  0.81333826779E+03 -0.16723824777E+04  0.49355661532E+02  0.18603274633E+04  0.25500000920E-02 0.  1.
       -2    1    3    3    0  502 -0.81333826779E+03  0.16723824777E+04  0.12265665453E+04  0.22277449988E+04  0.25500000920E-02 0. -1.
</event>
<event>
 5   0  0.2632875E-08  0.3899588E+04  0.7818609E-02  0.8025115E-01
        1   -1    0    0  501    0  0.00000000000E+00  0.00000000000E+00  0.29839965368E+04  0.29839965368E+04  0.50400001928E-02 0. -1.
       -1   -1    0    0    0  501  0.00000000000E+00  0.00000000000E+00 -0.12740284050E+04  0.12740284050E+04  0.50400001928E-02 0.  1.
    10030    2    1    2    0    0  0.00000000000E+00  0.00000000000E+00  0.17099681317E+04  0.42580249418E+04  0.38995878492E+04 0.  0.
        3    1    3    3  502    0 -0.12523298283E+04  0.13369366398E+02  0.24867283360E+04  0.27843000137E+04  0.10100000352E+00 0. -1.
       -3    1    3    3    0  502  0.12523298283E+04 -0.13369366398E+02 -0.77676020427E+03  0.14737249282E+04  0.10100000352E+00 0.  1.
</event>
<event>
 5   0  0.8676098E-08  0.3891482E+04  0.7818609E-02  0.8026803E-01
       -2   -1    0    0    0  501  0.00000000000E+00  0.00000000000E+00  0.27217004430E+04  0.27217004430E+04  0.25500000920E-02 0. -1.
        2   -1    0    0  501    0  0.00000000000E+00  0.00000000000E+00 -0.13910085214E+04  0.13910085214E+04  0.25500000920E-02 0.  1.
    10030    2    1    2    0    0  0.00000000000E+00  0.00000000000E+00  0.13306919216E+04  0.41127089644E+04  0.38914822415E+04 0.  0.
        3    1    3    3  502    0  0.42793324293E+03 -0.11004295104E+04 -0.96913050676E+03  0.15275097110E+04  0.10100000352E+00 0.  1.
       -3    1    3    3    0  502 -0.42793324293E+03  0.11004295104E+04  0.22998224283E+04  0.25851992534E+04  0.10100000352E+00 0. -1.
</event>
<event>
 5   0  0.8438211E-08  0.3899915E+04  0.7818609E-02  0.8025047E-01
       -2   -1    0    0    0  501  0.00000000000E+00  0.00000000000E+00  0.14500197629E+04  0.14500197629E+04  0.25500000920E-02 0.  1.
        2   -1    0    0  501    0  0.00000000000E+00  0.00000000000E+00 -0.26222639624E+04  0.26222639624E+04  0.25500000920E-02 0. -1.
    10030    2    1    2    0    0  0.00000000000E+00  0.00000000000E+00 -0.11722441995E+04  0.40722837253E+04  0.38999151626E+04 0.  0.
        5    1    3    3  502    0  0.80025985328E+03 -0.73649732125E+02  0.12690485491E+04  0.15021139856E+04  0.46999998093E+01 0.  1.
       -5    1    3    3    0  502 -0.80025985328E+03  0.73649732125E+02 -0.24412927487E+04  0.25701697396E+04  0.46999998093E+01 0. -1.
</event>
<event>
 5   0  0.8551754E-08  0.3874414E+04  0.7818609E-02  0.8030372E-01
       -2   -1    0    0    0  501  0.00000000000E+00  0.00000000000E+00  0.13124819944E+04  0.13124819944E+04  0.25500000920E-02 0. -1.
        2   -1    0    0  501    0  0.00000000000E+00  0.00000000000E+00 -0.28592933699E+04  0.28592933699E+04  0.25500000920E-02 0.  1.
    10030    2    1    2    0    0  0.00000000000E+00  0.00000000000E+00 -0.15468113755E+04  0.41717753643E+04  0.38744140536E+04 0.  0.
        1    1    3    3  502    0 -0.19298675261E+04  0.52649202973E+02 -0.94572087493E+03  0.21497787282E+04  0.50400001928E-02 0. -1.
       -1    1    3    3    0  502  0.19298675261E+04 -0.52649202973E+02 -0.60109050059E+03  0.20219966362E+04  0.50400001928E-02 0.  1.
</event>
<event>
 5   0  0.2632875E-08  0.3902844E+04  0.7818609E-02  0.8024438E-01
       -1   -1    0    0    0  501  0.00000000000E+00  0.00000000000E+00  0.30467716012E+04  0.30467716012E+04  0.50400001928E-02 0. -1.
        1   -1    0    0  501    0  0.00000000000E+00  0.00000000000E+00 -0.12498635311E+04  0.12498635311E+04  0.50400001928E-02 0.  1.
    10030    2    1    2    0    0  0.00000000000E+00  0.00000000000E+00  0.17969080701E+04  0.42966351323E+04  0.39028444560E+04 0.  0.
        4    1    3    3  502    0 -0.17020881481E+04  0.77847162228E+03  0.15063702475E+04  0.24025559444E+04  0.12699999809E+01 0. -1.
       -4    1    3    3    0  502  0.17020881481E+04 -0.77847162228E+03  0.29053782256E+03  0.18940791879E+04  0.12699999809E+01 0.  1.
</event>
<event>
 5   0  0.2632875E-08  0.3779039E+04  0.7818609E-02  0.8050668E-01
        1   -1    0    0  501    0  0.00000000000E+00  0.00000000000E+00  0.18078377836E+04  0.18078377836E+04  0.50400001928E-02 0. -1.
       -1   -1    0    0    0  501  0.00000000000E+00  0.00000000000E+00 -0.19748917235E+04  0.19748917235E+04  0.50400001928E-02 0.  1.
    10030    2    1    2    0    0  0.00000000000E+00  0.00000000000E+00 -0.16705393985E+03  0.37827295071E+04  0.37790389658E+04 0.  0.
        5    1    3    3  502    0 -0.18599603461E+04 -0.19851161208E+03  0.18394632941E+03  0.18795525242E+04  0.46999998093E+01 0. -1.
       -5    1    3    3    0  502  0.18599603461E+04  0.19851161208E+03 -0.35100026925E+03  0.19031769829E+04  0.46999998093E+01 0.  1.
</event>
<event>
 5   0  0.2632875E-08  0.3903603E+04  0.7818609E-02  0.8024280E-01
       -1   -1    0    0    0  501  0.00000000000E+00  0.00000000000E+00  0.23143670079E+04  0.23143670079E+04  0.50400001928E-02 0.  1.
        1   -1    0    0  501    0  0.00000000000E+00  0.00000000000E+00 -0.16460351744E+04  0.16460351745E+04  0.50400001928E-02 0. -1.
    10030    2    1    2    0    0  0.00000000000E+00  0.00000000000E+00  0.66833183342E+03  0.39604021823E+04  0.39036032081E+04 0.  0.
        3    1    3    3  502    0 -0.16500696288E+04 -0.10407295202E+04  0.39572645098E+03  0.19905896484E+04  0.10100000352E+00 0. -1.
       -3    1    3    3    0  502  0.16500696288E+04  0.10407295202E+04  0.27260538244E+03  0.19698125339E+04  0.10100000352E+00 0.  1.
</event>
<event>
 5   0  0.8476262E-08  0.3893395E+04  0.7818609E-02  0.8026404E-01
       -2   -1    0    0    0  501  0.00000000000E+00  0.00000000000E+00  0.11001289008E+04  0.11001289008E+04  0.25500000920E-02 0. -1.
        2   -1    0    0  501    0  0.00000000000E+00  0.00000000000E+00 -0.34447148176E+04  0.34447148176E+04  0.25500000920E-02 0.  1.
    10030    2    1    2    0    0  0.00000000000E+00  0.00000000000E+00 -0.23445859168E+04  0.45448437184E+04  0.38933945733E+04 0.  0.
        2    1    3    3  502    0  0.11502717535E+04  0.80191841739E+03  0.40399416991E+03  0.14592496511E+04  0.25500000920E-02 0. -1.
       -2    1    3    3    0  502 -0.11502717535E+04 -0.80191841739E+03 -0.27485800867E+04  0.30855940673E+04  0.25500000920E-02 0.  1.
</event>
<event>
 5   0  0.2632875E-08  0.3890775E+04  0.7818609E-02  0.8026950E-01
       -1   -1    0    0    0  501  0.00000000000E+00  0.00000000000E+00  0.24400798275E+04  0.24400798276E+04  0.50400001928E-02 0. -1.
        1   -1    0    0  501    0  0.00000000000E+00  0.00000000000E+00 -0.15509874909E+04  0.15509874909E+04  0.50400001928E-02 0.  1.
    10030    2    1    2    0    0  0.00000000000E+00  0.00000000000E+00  0.88909233661E+03  0.39910673185E+04  0.38907753929E+04 0.  0.
        3    1    3    3  502    0 -0.19440560515E+04  0.37377224762E+02  0.50763178579E+03  0.20095872781E+04  0.10100000352E+00 0. -1.
       -3    1    3    3    0  502  0.19440560515E+04 -0.37377224762E+02  0.38146055081E+03  0.19814800404E+04  0.10100000352E+00 0.  1.
</event>
<event>
 5   0  0.2632875E-08  0.3891143E+04  0.7818609E-02  0.8026874E-01
       -1   -1    0    0    0  501  0.00000000000E+00  0.00000000000E+00  0.23600696654E+04  0.23600696654E+04  0.50400001928E-02 0. -1.
        1   -1    0    0  501    0  0.00000000000E+00  0.00000000000E+00 -0.16038717582E+04  0.16038717582E+04  0.50400001928E-02 0.  1.
    10030    2    1    2    0    0  0.00000000000E+00  0.00000000000E+00  0.75619790727E+03  0.39639414236E+04  0.38911433197E+04 0.  0.
        2    1    3    3  502    0  0.17557799150E+04  0.75257277783E+02  0.12284750156E+04  0.21441962671E+04  0.25500000920E-02 0. -1.
       -2    1    3    3    0  502 -0.17557799150E+04 -0.75257277783E+02 -0.47227710835E+03  0.18197451565E+04  0.25500000920E-02 0.  1.
</event>
<event>
 5   0  0.2632875E-08  0.3904871E+04  0.7818609E-02  0.8024017E-01
       -1   -1    0    0    0  501  0.00000000000E+00  0.00000000000E+00  0.22111035154E+04  0.22111035154E+04  0.50400001928E-02 0.  1.
        1   -1    0    0  501    0  0.00000000000E+00  0.00000000000E+00 -0.17240282230E+04  0.17240282230E+04  0.50400001928E-02 0. -1.
    10030    2    1    2    0    0  0.00000000000E+00  0.00000000000E+00  0.48707529239E+03  0.39351317384E+04  0.39048712473E+04 0.  0.
        4    1    3    3  502    0 -0.32397340284E+03 -0.10101090366E+04 -0.14082876112E+04  0.17631093672E+04  0.12699999809E+01 0. -1.
       -4    1    3    3    0  502  0.32397340284E+03  0.10101090366E+04  0.18953629036E+04  0.21720223712E+04  0.12699999809E+01 0.  1.
</event>
<event>
 5   0  0.8551754E-08  0.3943190E+04  0.7818609E-02  0.8016106E-01
       -2   -1    0    0    0  501  0.00000000000E+00  0.00000000000E+00  0.17159147303E+04  0.17159147303E+04  0.25500000920E-02 0.  1.
        2   -1    0    0  501    0  0.00000000000E+00  0.00000000000E+00 -0.22653733608E+04  0.22653733608E+04  0.25500000920E-02 0. -1.
    10030    2    1    2    0    0  0.00000000000E+00  0.00000000000E+00 -0.54945863050E+03  0.39812880912E+04  0.39431903426E+04 0.  0.
        1    1    3    3  502    0 -0.22645795011E+03 -0.14964647545E+04 -0.15504629098E+04  0.21667083790E+04  0.50400001928E-02 0. -1.
       -1    1    3    3    0  502  0.22645795011E+03  0.14964647545E+04  0.10010042793E+04  0.18145797122E+04  0.50400001928E-02 0.  1.
</event>
<event>
 5   0  0.8676098E-08  0.3890772E+04  0.7818609E-02  0.8026951E-01
       -2   -1    0    0    0  501  0.00000000000E+00  0.00000000000E+00  0.15133547253E+04  0.15133547253E+04  0.25500000920E-02 0. -1.
        2   -1    0    0  501    0  0.00000000000E+00  0.00000000000E+00 -0.25007537547E+04  0.25007537547E+04  0.25500000920E-02 0.  1.
    10030    2    1    2    0    0  0.00000000000E+00  0.00000000000E+00 -0.98739902948E+03  0.40141084800E+04  0.38907724228E+04 0.  0.
        3    1    3    3  502    0  0.15991316030E+04 -0.11049759523E+04 -0.41159176293E+03  0.19868571988E+04  0.10100000352E+00 0. -1.
       -3    1    3    3    0  502 -0.15991316030E+04  0.11049759523E+04 -0.57580726655E+03  0.20272512812E+04  0.10100000352E+00 0.  1.
</event>
<event>
 5   0  0.2632875E-08  0.3909797E+04  0.7818609E-02  0.8022995E-01
       -1   -1    0    0    0  501  0.00000000000E+00  0.00000000000E+00  0.18070665129E+04  0.18070665129E+04  0.50400001928E-02 0.  1.
        1   -1    0    0  501    0  0.00000000000E+00  0.00000000000E+00 -0.21148241018E+04  0.21148241018E+04  0.50400001928E-02 0. -1.
    10030    2    1    2    0    0  0.00000000000E+00  0.00000000000E+00 -0.30775758891E+03  0.39218906148E+04  0.39097968311E+04 0.  0.
        2    1    3    3  502    0 -0.12381476554E+04 -0.14880276793E+04  0.11971351821E+03  0.19394760420E+04  0.25500000920E-02 0.  1.
       -2    1    3    3    0  502  0.12381476554E+04  0.14880276793E+04 -0.42747110712E+03  0.19824145728E+04  0.25500000920E-02 0. -1.
</event>
<event>
 5   0  0.2632875E-08  0.3895288E+04  0.7818609E-02  0.8026010E-01
       -3   -1    0    0    0  501  0.00000000000E+00  0.00000000000E+00  0.24892221509E+04  0.24892221530E+04  0.10100000352E+00 0.  1.
        3   -1    0    0  501    0  0.00000000000E+00  0.00000000000E+00 -0.15238964313E+04  0.15238964347E+04  0.10100000352E+00 0. -1.
    10030    2    1    2    0    0  0.00000000000E+00  0.00000000000E+00  0.96532571957E+03  0.40131185877E+04  0.38952878011E+04 0.  0.
        2    1    3    3  502    0  0.58094001055E+03  0.38175565804E+03  0.23570626113E+04  0.24574321622E+04  0.25500000920E-02 0.  1.
       -2    1    3    3    0  502 -0.58094001055E+03 -0.38175565804E+03 -0.13917368918E+04  0.15556864254E+04  0.25500000920E-02 0. -1.
</event>
<event>
 5   0  0.8438211E-08  0.3901414E+04  0.7818609E-02  0.8024735E-01
       -2   -1    0    0    0  501  0.00000000000E+00  0.00000000000E+00  0.24245038408E+04  0.24245038408E+04  0.25500000920E-02 0.  1.
        2   -1    0    0  501    0  0.00000000000E+00  0.00000000000E+00 -0.15694997845E+04  0.15694997846E+04  0.25500000920E-02 0. -1.
    10030    2    1    2    0    0  0.00000000000E+00  0.00000000000E+00  0.85500405623E+03  0.39940036253E+04  0.39014142337E+04 0.  0.
        5    1    3    3  502    0  0.13054473168E+04  0.39880511605E+03 -0.99912607202E+03  0.16916007848E+04  0.46999998093E+01 0. -1.
       -5    1    3    3    0  502 -0.13054473168E+04 -0.39880511605E+03  0.18541301282E+04  0.23024028405E+04  0.46999998093E+01 0.  1.
</event>
<event>
 5   0  0.8551754E-08  0.3919261E+04  0.7818609E-02  0.8021035E-01
        2   -1    0    0  501    0  0.00000000000E+00  0.00000000000E+00  0.30773599374E+04  0.30773599374E+04  0.25500000920E-02 0. -1.
       -2   -1    0    0    0  501  0.00000000000E+00  0.00000000000E+00 -0.12478724372E+04  0.12478724373E+04  0.25500000920E-02 0.  1.
    10030    2    1    2    0    0  0.00000000000E+00  0.00000000000E+00  0.18294875001E+04  0.43252323746E+04  0.39192614842E+04 0.  0.
        1    1    3    3  502    0 -0.18666696428E+04 -0.56959551766E+03  0.11098566803E+04  0.22451450866E+04  0.50400001928E-02 0.  1.
       -1    1    3    3    0  502  0.18666696428E+04  0.56959551766E+03  0.71963081981E+03  0.20800872880E+04  0.50400001928E-02 0. -1.
</event>
<event>
 5   0  0.2632875E-08  0.3890295E+04  0.7818609E-02  0.8027051E-01
       -1   -1    0    0    0  501  0.00000000000E+00  0.00000000000E+00  0.15202891836E+04  0.15202891836E+04  0.50400001928E-02 0.  1.
        1   -1    0    0  501    0  0.00000000000E+00  0.00000000000E+00 -0.24887359094E+04  0.24887359094E+04  0.50400001928E-02 0. -1.
    10030    2    1    2    0    0  0.00000000000E+00  0.00000000000E+00 -0.96844672577E+03  0.40090250930E+04  0.38902947363E+04 0.  0.
        4    1    3    3  502    0  0.49021970095E+03  0.69643859819E+03  0.13179355640E+04  0.15691710678E+04  0.12699999809E+01 0.  1.
       -4    1    3    3    0  502 -0.49021970095E+03 -0.69643859819E+03 -0.22863822898E+04  0.24398540252E+04  0.12699999809E+01 0. -1.
</event>
<event>
 5   0  0.8342802E-08  0.3920687E+04  0.7818609E-02  0.8020740E-01
       -2   -1    0    0    0  501  0.00000000000E+00  0.00000000000E+00  0.16735630002E+04  0.16735630002E+04  0.25500000920E-02 0. -1.
        2   -1    0    0  501    0  0.00000000000E+00  0.00000000000E+00 -0.22962662143E+04  0.22962662143E+04  0.25500000920E-02 0.  1.
    10030    2    1    2    0    0  0.00000000000E+00  0.00000000000E+00 -0.62270321406E+03  0.39698292145E+04  0.39206867637E+04 0.  0.
        4    1    3    3  502    0 -0.14246612122E+04  0.12259745749E+02 -0.16747560680E+04  0.21987767897E+04  0.12699999809E+01 0.  1.
       -4    1    3    3    0  502  0.14246612122E+04 -0.12259745749E+02  0.10520528539E+04  0.17710524247E+04  0.12699999809E+01 0. -1.
</event>
<event>
 5   0  0.8676098E-08  0.3900641E+04  0.7818609E-02  0.8024896E-01
       -2   -1    0    0    0  501  0.00000000000E+00  0.00000000000E+00  0.15222204121E+04  0.15222204121E+04  0.25500000920E-02 0. -1.
        2   -1    0    0  501    0  0.00000000000E+00  0.00000000000E+00 -0.24988171116E+04  0.24988171116E+04  0.25500000920E-02 0.  1.
    10030    2    1    2    0    0  0.00000000000E+00  0.00000000000E+00 -0.97659669948E+03  0.40210375238E+04  0.39006411850E+04 0.  0.
        3    1    3    3  502    0  0.14461925182E+04  0.10922710453E+03  0.85592337255E+03  0.16840451864E+04  0.10100000352E+00 0. -1.
       -3    1    3    3    0  502 -0.14461925182E+04 -0.10922710453E+03 -0.18325200720E+04  0.23369923373E+04  0.10100000352E+00 0.  1.
</event>
<event>
 5   0  0.8438211E-08  0.3900826E+04  0.7818609E-02  0.8024858E-01
        2   -1    0    0  501    0  0.00000000000E+00  0.00000000000E+00  0.17478018067E+04  0.17478018067E+04  0.25500000920E-02 0.  1.
       -2   -1    0    0    0  501  0.00000000000E+00  0.00000000000E+00 -0.21765111777E+04  0.21765111777E+04  0.25500000920E-02 0. -1.
    10030    2    1    2    0    0  0.00000000000E+00  0.00000000000E+00 -0.42870937101E+03  0.39243129844E+04  0.39008256402E+04 0.  0.
        5    1    3    3  502    0  0.47069692358E+03 -0.18789786065E+04  0.14991392669E+02  0.19371017085E+04  0.46999998093E+01 0. -1.
       -5    1    3    3    0  502 -0.47069692358E+03  0.18789786065E+04 -0.44370076368E+03  0.19872112759E+04  0.46999998093E+01 0.  1.
</event>
<event>
 5   0  0.8438211E-08  0.3898218E+04  0.7818609E-02  0.8025400E-01
        2   -1    0    0  501    0  0.00000000000E+00  0.00000000000E+00  0.25845413165E+04  0.25845413165E+04  0.25500000920E-02 0.  1.
       -2   -1    0    0    0  501  0.00000000000E+00  0.00000000000E+00 -0.14699034258E+04  0.14699034258E+04  0.25500000920E-02 0. -1.
    10030    2    1    2    0    0  0.00000000000E+00  0.00000000000E+00  0.11146378907E+04  0.40544447422E+04  0.38982181238E+04 0.  0.
        5    1    3    3  502    0  0.11315950024E+04 -0.26363263063E+03  0.21849619878E+04  0.24746899587E+04  0.46999998093E+01 0.  1.
       -5    1    3    3    0  502 -0.11315950024E+04  0.26363263063E+03 -0.10703240971E+04  0.15797547836E+04  0.46999998093E+01 0. -1.
</event>
<event>
 5   0  0.8438211E-08  0.3896814E+04  0.7818609E-02  0.8025692E-01
       -2   -1    0    0    0  501  0.00000000000E+00  0.00000000000E+00  0.15325128556E+04  0.15325128556E+04  0.25500000920E-02 0.  1.
        2   -1    0    0  501    0  0.00000000000E+00  0.00000000000E+00 -0.24771664517E+04  0.24771664517E+04  0.25500000920E-02 0. -1.
    10030    2    1    2    0    0  0.00000000000E+00  0.00000000000E+00 -0.94465359610E+03  0.40096793074E+04  0.38968137923E+04 0.  0.
        5    1    3    3  502    0  0.10870522999E+04  0.13071509313E+04  0.50705034225E+03  0.17741049573E+04  0.46999998093E+01 0.  1.
       -5    1    3    3    0  502 -0.10870522999E+04 -0.13071509313E+04 -0.14517039384E+04  0.22355743501E+04  0.46999998093E+01 0. -1.
</event>
<event>
 5   0  0.2632875E-08  0.3909259E+04  0.7818609E-02  0.8023106E-01
        1   -1    0    0  501    0  0.00000000000E+00  0.00000000000E+00  0.24219279244E+04  0.24219279244E+04  0.50400001928E-02 0. -1.
       -1   -1    0    0    0  501  0.00000000000E+00  0.00000000000E+00 -0.15774937008E+04  0.15774937008E+04  0.50400001928E-02 0.  1.
    10030    2    1    2    0    0  0.00000000000E+00  0.00000000000E+00  0.84443422363E+03  0.39994216252E+04  0.39092587760E+04 0.  0.
        5    1    3    3  502    0  0.18745258461E+03  0.11181431242E+04  0.20511621731E+04  0.23436447828E+04  0.46999998093E+01 0. -1.
       -5    1    3    3    0  502 -0.18745258461E+03 -0.11181431242E+04 -0.12067279494E+04  0.16557768424E+04  0.46999998093E+01 0.  1.
</event>
<event>
 5   0  0.8551754E-08  0.3834527E+04  0.7818609E-02  0.8038786E-01
       -2   -1    0    0    0  501  0.00000000000E+00  0.00000000000E+00  0.12903386977E+04  0.12903386977E+04  0.25500000920E-02 0.  1.
        2   -1    0    0  501    0  0.00000000000E+00  0.00000000000E+00 -0.28487863221E+04  0.28487863221E+04  0.25500000920E-02 0. -1.
    10030    2    1    2    0    0  0.00000000000E+00  0.00000000000E+00 -0.15584476244E+04  0.41391250199E+04  0.38345269503E+04 0.  0.
        1    1    3    3  502    0  0.98387858249E+03  0.99901576789E+01  0.99702429218E+03  0.14007763232E+04  0.50400001928E-02 0.  1.
       -1    1    3    3    0  502 -0.98387858249E+03 -0.99901576789E+01 -0.25554719166E+04  0.27383486967E+04  0.50400001928E-02 0. -1.
</event>
<event>
 5   0  0.2632875E-08  0.3900770E+04  0.7818609E-02  0.8024869E-01
       -1   -1    0    0    0  501  0.00000000000E+00  0.00000000000E+00  0.21805722861E+04  0.21805722861E+04  0.50400001928E-02 0.  1.
        1   -1    0    0  501    0  0.00000000000E+00  0.00000000000E+00 -0.17444966792E+04  0.17444966792E+04  0.50400001928E-02 0. -1.
    10030    2    1    2    0    0  0.00000000000E+00  0.00000000000E+00  0.43607560686E+03  0.39250689653E+04  0.39007697250E+04 0.  0.
        2    1    3    3  502    0 -0.14211330915E+04  0.12394234277E+04 -0.28327391167E+03  0.19068386943E+04  0.25500000920E-02 0.  1.
       -2    1    3    3    0  502  0.14211330915E+04 -0.12394234277E+04  0.71934951853E+03  0.20182302710E+04  0.25500000920E-02 0. -1.
</event>
<event>
 5   0  0.2632875E-08  0.3890442E+04  0.7818609E-02  0.8027020E-01
       -1   -1    0    0    0  501  0.00000000000E+00  0.00000000000E+00  0.14465627416E+04  0.14465627416E+04  0.50400001928E-02 0.  1.
        1   -1    0    0  501    0  0.00000000000E+00  0.00000000000E+00 -0.26157762884E+04  0.26157762884E+04  0.50400001928E-02 0. -1.
    10030    2    1    2    0    0  0.00000000000E+00  0.00000000000E+00 -0.11692135468E+04  0.40623390299E+04  0.38904418870E+04 0.  0.
        4    1    3    3  502    0  0.85921058843E+03  0.42472467503E+01  0.12376737594E+04  0.15066847122E+04  0.12699999809E+01 0.  1.
       -4    1    3    3    0  502 -0.85921058843E+03 -0.42472467503E+01 -0.24068873062E+04  0.25556543178E+04  0.12699999809E+01 0. -1.
</event>
<event>
 5   0  0.2632875E-08  0.3901230E+04  0.7818609E-02  0.8024773E-01
        1   -1    0    0  501    0  0.00000000000E+00  0.00000000000E+00  0.25075706019E+04  0.25075706019E+04  0.50400001928E-02 0. -1.
       -1   -1    0    0    0  501  0.00000000000E+00  0.00000000000E+00 -0.15173649903E+04  0.15173649903E+04  0.50400001928E-02 0.  1.
    10030    2    1    2    0    0  0.00000000000E+00  0.00000000000E+00  0.99020561168E+03  0.40249355922E+04  0.39012304941E+04 0.  0.
        3    1    3    3  502    0  0.12821714731E+04 -0.14247095946E+04  0.12148910918E+03  0.19205521938E+04  0.10100000352E+00 0.  1.
       -3    1    3    3    0  502 -0.12821714731E+04  0.14247095946E+04  0.86871650251E+03  0.21043833984E+04  0.10100000352E+00 0. -1.
</event>
<event>
 5   0  0.8551754E-08  0.3896091E+04  0.7818609E-02  0.8025843E-01
        2   -1    0    0  501    0  0.00000000000E+00  0.00000000000E+00  0.18435859480E+04  0.18435859480E+04  0.25500000920E-02 0.  1.
       -2   -1    0    0    0  501  0.00000000000E+00  0.00000000000E+00 -0.20584234553E+04  0.20584234553E+04  0.25500000920E-02 0. -1.
    10030    2    1    2    0    0  0.00000000000E+00  0.00000000000E+00 -0.21483750723E+03  0.39020094033E+04  0.38960906341E+04 0.  0.
        1    1    3    3  502    0 -0.42075982114E+03  0.74346899445E+03 -0.18608198414E+04  0.20475437614E+04  0.50400001928E-02 0. -1.
       -1    1    3    3    0  502  0.42075982114E+03 -0.74346899445E+03  0.16459823341E+04  0.18544656419E+04  0.50400001928E-02 0.  1.
</event>
<event>
 5   0  0.2632875E-08  0.3908427E+04  0.7818609E-02  0.8023279E-01
       -1   -1    0    0    0  501  0.00000000000E+00  0.00000000000E+00  0.22964518031E+04  0.22964518031E+04  0.50400001928E-02 0. -1.
        1   -1    0    0  501    0  0.00000000000E+00  0.00000000000E+00 -0.16629787450E+04  0.16629787450E+04  0.50400001928E-02 0.  1.
    10030    2    1    2    0    0  0.00000000000E+00  0.00000000000E+00  0.63347305814E+03  0.39594305481E+04  0.39084270685E+04 0.  0.
        4    1    3    3  502    0 -0.12054454036E+04 -0.14869064659E+04  0.71552240825E+03  0.20435174060E+04  0.12699999809E+01 0. -1.
       -4    1    3    3    0  502  0.12054454036E+04  0.14869064659E+04 -0.82049350112E+02  0.19159131421E+04  0.12699999809E+01 0.  1.
</event>
<event>
 5   0  0.2632875E-08  0.3897014E+04  0.7818609E-02  0.8025651E-01
        1   -1    0    0  501    0  0.00000000000E+00  0.00000000000E+00  0.12706148200E+04  0.12706148200E+04  0.50400001928E-02 0. -1.
       -1   -1    0    0    0  501  0.00000000000E+00  0.00000000000E+00 -0.29880642809E+04  0.29880642809E+04  0.50400001928E-02 0.  1.
    10030    2    1    2    0    0  0.00000000000E+00  0.00000000000E+00 -0.17174494609E+04  0.42586791009E+04  0.38970136045E+04 0.  0.
        4    1    3    3  502    0 -0.15386104712E+03  0.69922254700E+03  0.11216648635E+04  0.13306836855E+04  0.12699999809E+01 0. -1.
       -4    1    3    3    0  502  0.15386104712E+03 -0.69922254700E+03 -0.28391143245E+04  0.29279954153E+04  0.12699999809E+01 0.  1.
</event>
<event>
 5   0  0.2632875E-08  0.3796264E+04  0.7818609E-02  0.8046957E-01
        1   -1    0    0  501    0  0.00000000000E+00  0.00000000000E+00  0.24655030417E+04  0.24655030418E+04  0.50400001928E-02 0.  1.
       -1   -1    0    0    0  501  0.00000000000E+00  0.00000000000E+00 -0.14613265412E+04  0.14613265412E+04  0.50400001928E-02 0. -1.
    10030    2    1    2    0    0  0.00000000000E+00  0.00000000000E+00  0.10041765006E+04  0.39268295829E+04  0.37962639699E+04 0.  0.
        5    1    3    3  502    0  0.90360848668E+03 -0.16521420795E+04  0.74861518980E+03  0.20264571401E+04  0.46999998093E+01 0.  1.
       -5    1    3    3    0  502 -0.90360848668E+03  0.16521420795E+04  0.25556131078E+03  0.19003724429E+04  0.46999998093E+01 0. -1.
</event>
<event>
 5   0  0.8476262E-08  0.3973715E+04  0.7818609E-02  0.8009870E-01
       -2   -1    0    0    0  501  0.00000000000E+00  0.00000000000E+00  0.17044550459E+04  0.17044550459E+04  0.25500000920E-02 0. -1.
        2   -1    0    0  501    0  0.00000000000E+00  0.00000000000E+00 -0.23160493656E+04  0.23160493656E+04  0.25500000920E-02 0.  1.
    10030    2    1    2    0    0  0.00000000000E+00  0.00000000000E+00 -0.61159431973E+03  0.40205044115E+04  0.39737146489E+04 0.  0.
        2    1    3    3  502    0  0.41252744282E+03 -0.11045856691E+04 -0.19237872705E+04  0.22563789251E+04  0.25500000920E-02 0.  1.
       -2    1    3    3    0  502 -0.41252744282E+03  0.11045856691E+04  0.13121929508E+04  0.17641254864E+04  0.25500000920E-02 0. -1.
</event>
<event>
 5   0  0.8342802E-08  0.3917620E+04  0.7818609E-02  0.8021375E-01
       -2   -1    0    0    0  501  0.00000000000E+00  0.00000000000E+00  0.17581923131E+04  0.17581923131E+04  0.25500000920E-02 0. -1.
        2   -1    0    0  501    0  0.00000000000E+00  0.00000000000E+00 -0.21823186289E+04  0.21823186289E+04  0.25500000920E-02 0.  1.
    10030    2    1    2    0    0  0.00000000000E+00  0.00000000000E+00 -0.42412631586E+03  0.39405109420E+04  0.39176196028E+04 0.  0.
        4    1    3    3  502    0 -0.52827626168E+03 -0.12555019157E+04  0.12038458698E+04  0.18178579042E+04  0.12699999809E+01 0. -1.
       -4    1    3    3    0  502  0.52827626168E+03  0.12555019157E+04 -0.16279721856E+04  0.21226530378E+04  0.12699999809E+01 0.  1.
</event>
<event>
 5   0  0.8438211E-08  0.3857308E+04  0.7818609E-02  0.8033967E-01
       -2   -1    0    0    0  501  0.00000000000E+00  0.00000000000E+00  0.14108882530E+04  0.14108882530E+04  0.25500000920E-02 0. -1.
        2   -1    0    0  501    0  0.00000000000E+00  0.00000000000E+00 -0.26364283468E+04  0.26364283468E+04  0.25500000920E-02 0.  1.
    10030    2    1    2    0    0  0.00000000000E+00  0.00000000000E+00 -0.12255400938E+04  0.40473165998E+04  0.38573077577E+04 0.  0.
        5    1    3    3  502    0 -0.10882707982E+04  0.95582850852E+03  0.72343712973E+03  0.16190505979E+04  0.46999998093E+01 0. -1.
       -5    1    3    3    0  502  0.10882707982E+04 -0.95582850852E+03 -0.19489772236E+04  0.24282660019E+04  0.46999998093E+01 0.  1.
</event>
<event>
 5   0  0.8676098E-08  0.3933470E+04  0.7818609E-02  0.8018104E-01
        2   -1    0    0  501    0  0.00000000000E+00  0.00000000000E+00  0.19729637531E+04  0.19729637531E+04  0.25500000920E-02 0.  1.
       -2   -1    0    0    0  501  0.00000000000E+00  0.00000000000E+00 -0.19605257130E+04  0.19605257131E+04  0.25500000920E-02 0. -1.
    10030    2    1    2    0    0  0.00000000000E+00  0.00000000000E+00  0.12438040074E+02  0.39334894662E+04  0.39334698010E+04 0.  0.
        3    1    3    3  502    0 -0.48832577472E+03  0.62509923274E+03 -0.17934663498E+04  0.19610539695E+04  0.10100000352E+00 0. -1.
       -3    1    3    3    0  502  0.48832577472E+03 -0.62509923274E+03  0.18059043899E+04  0.19724354967E+04  0.10100000352E+00 0.  1.
</event>
<event>
 5   0  0.8438211E-08  0.3925296E+04  0.7818609E-02  0.8019789E-01
        2   -1    0    0  501    0  0.00000000000E+00  0.00000000000E+00  0.20315037869E+04  0.20315037869E+04  0.25500000920E-02 0.  1.
       -2   -1    0    0    0  501  0.00000000000E+00  0.00000000000E+00 -0.18961262441E+04  0.18961262441E+04  0.25500000920E-02 0. -1.
    10030    2    1    2    0    0  0.00000000000E+00  0.00000000000E+00  0.13537754281E+03  0.39276300310E+04  0.39252962412E+04 0.  0.
        5    1    3    3  502    0 -0.12099240046E+04 -0.37402052262E+03 -0.14325886003E+04  0.19121034585E+04  0.46999998093E+01 0. -1.
       -5    1    3    3    0  502  0.12099240046E+04  0.37402052262E+03  0.15679661432E+04  0.20155265725E+04  0.46999998093E+01 0.  1.
</event>
<event>
 5   0  0.8476262E-08  0.3875556E+04  0.7818609E-02  0.8030132E-01
        2   -1    0    0  501    0  0.00000000000E+00  0.00000000000E+00  0.23461777835E+04  0.23461777835E+04  0.25500000920E-02 0. -1.
       -2   -1    0    0    0  501  0.00000000000E+00  0.00000000000E+00 -0.16004683045E+04  0.16004683045E+04  0.25500000920E-02 0.  1.
    10030    2    1    2    0    0  0.00000000000E+00  0.00000000000E+00  0.74570947897E+03  0.39466460880E+04  0.38755557946E+04 0.  0.
        2    1    3    3  502    0  0.43726841515E+03  0.51811196329E+03  0.22214603722E+04  0.23226127225E+04  0.25500000920E-02 0. -1.
       -2    1    3    3    0  502 -0.43726841515E+03 -0.51811196329E+03 -0.14757508932E+04  0.16240333655E+04  0.25500000920E-02 0.  1.
</event>
<event>
 5   0  0.2632875E-08  0.3895090E+04  0.7818609E-02  0.8026051E-01
        1   -1    0    0  501    0  0.00000000000E+00  0.00000000000E+00  0.21113649461E+04  0.21113649461E+04  0.50400001928E-02 0. -1.
       -1   -1    0    0    0  501  0.00000000000E+00  0.00000000000E+00 -0.17964361658E+04  0.17964361658E+04  0.50400001928E-02 0.  1.
    10030    2    1    2    0    0  0.00000000000E+00  0.00000000000E+00  0.31492878023E+03  0.39078011119E+04  0.38950904218E+04 0.  0.
        1    1    3    3  502    0 -0.10976592834E+04  0.91383833477E+03  0.14857849242E+04  0.20609495980E+04  0.50400001928E-02 0. -1.
       -1    1    3    3    0  502  0.10976592834E+04 -0.91383833477E+03 -0.11708561440E+04  0.18468515139E+04  0.50400001928E-02 0.  1.
</event>
<event>
 5   0  0.2632875E-08  0.3989207E+04  0.7818609E-02  0.8006727E-01
        1   -1    0    0  501    0  0.00000000000E+00  0.00000000000E+00  0.25012896876E+04  0.25012896876E+04  0.50400001928E-02 0. -1.
       -1   -1    0    0    0  501  0.00000000000E+00  0.00000000000E+00 -0.15905564358E+04  0.15905564358E+04  0.50400001928E-02 0.  1.
    10030    2    1    2    0    0  0.00000000000E+00  0.00000000000E+00  0.91073325182E+03  0.40918461234E+04  0.39892066432E+04 0.  0.
        4    1    3    3  502    0  0.60466327627E+03  0.13206003622E+04  0.18575944004E+04  0.23580206877E+04  0.12699999809E+01 0. -1.
       -4    1    3    3    0  502 -0.60466327627E+03 -0.13206003622E+04 -0.94686114856E+03  0.17338254358E+04  0.12699999809E+01 0.  1.
</event>
<event>
 5   0  0.8342802E-08  0.3901169E+04  0.7818609E-02  0.8024786E-01
        2   -1    0    0  501    0  0.00000000000E+00  0.00000000000E+00  0.13910994410E+04  0.13910994410E+04  0.25500000920E-02 0. -1.
       -2   -1    0    0    0  501  0.00000000000E+00  0.00000000000E+00 -0.27350890523E+04  0.27350890523E+04  0.25500000920E-02 0.  1.
    10030    2    1    2    0    0  0.00000000000E+00  0.00000000000E+00 -0.13439896113E+04  0.41261884934E+04  0.39011694923E+04 0.  0.
        4    1    3    3  502    0 -0.41674649480E+03  0.12421070592E+04 -0.22004325037E+04  0.25609397501E+04  0.12699999809E+01 0.  1.
       -4    1    3    3    0  502  0.41674649480E+03 -0.12421070592E+04  0.85644289242E+03  0.15652487433E+04  0.12699999809E+01 0. -1.
</event>
<event>
 5   0  0.8342802E-08  0.3914489E+04  0.7818609E-02  0.8022022E-01
        2   -1    0    0  501    0  0.00000000000E+00  0.00000000000E+00  0.29041557710E+04  0.29041557710E+04  0.25500000920E-02 0.  1.
       -2   -1    0    0    0  501  0.00000000000E+00  0.00000000000E+00 -0.13190775450E+04  0.13190775450E+04  0.25500000920E-02 0. -1.
    10030    2    1    2    0    0  0.00000000000E+00  0.00000000000E+00  0.15850782260E+04  0.42232333161E+04  0.39144893229E+04 0.  0.
        4    1    3    3  502    0  0.11522056204E+04  0.78633228345E+03 -0.68866576373E+03  0.15556858290E+04  0.12699999809E+01 0. -1.
       -4    1    3    3    0  502 -0.11522056204E+04 -0.78633228345E+03  0.22737439897E+04  0.26675474870E+04  0.12699999809E+01 0.  1.
</event>
<event>
 5   0  0.2632875E-08  0.3807810E+04  0.7818609E-02  0.8044481E-01
        1   -1    0    0  501    0  0.00000000000E+00  0.00000000000E+00  0.23546629538E+04  0.23546629539E+04  0.50400001928E-02 0. -1.
       -1   -1    0    0    0  501  0.00000000000E+00  0.00000000000E+00 -0.15394363138E+04  0.15394363138E+04  0.50400001928E-02 0.  1.
    10030    2    1    2    0    0  0.00000000000E+00  0.00000000000E+00  0.81522664003E+03  0.38940992677E+04  0.38078096896E+04 0.  0.
        2    1    3    3  502    0 -0.58133295669E+03  0.10519083921E+02 -0.14464223804E+04  0.15589087081E+04  0.25500000920E-02 0.  1.
       -2    1    3    3    0  502  0.58133295669E+03 -0.10519083921E+02  0.22616490205E+04  0.23351905595E+04  0.25500000920E-02 0. -1.
</event>
<event>
 5   0  0.2632875E-08  0.3909662E+04  0.7818609E-02  0.8023023E-01
        1   -1    0    0  501    0  0.00000000000E+00  0.00000000000E+00  0.11705584493E+04  0.11705584493E+04  0.50400001928E-02 0.  1.
       -1   -1    0    0    0  501  0.00000000000E+00  0.00000000000E+00 -0.32645649276E+04  0.32645649276E+04  0.50400001928E-02 0. -1.
    10030    2    1    2    0    0  0.00000000000E+00  0.00000000000E+00 -0.20940064783E+04  0.44351233769E+04  0.39096619083E+04 0.  0.
        2    1    3    3  502    0  0.87289054010E+03  0.10005732328E+04  0.58048801415E+03  0.14491552794E+04  0.25500000920E-02 0.  1.
       -2    1    3    3    0  502 -0.87289054010E+03 -0.10005732328E+04 -0.26744944924E+04  0.29859680975E+04  0.25500000920E-02 0. -1.
</event>
<event>
 5   0  0.8476262E-08  0.3897342E+04  0.7818609E-02  0.8025582E-01
        2   -1    0    0  501    0  0.00000000000E+00  0.00000000000E+00  0.23206334465E+04  0.23206334465E+04  0.25500000920E-02 0.  1.
       -2   -1    0    0    0  501  0.00000000000E+00  0.00000000000E+00 -0.16363284464E+04  0.16363284464E+04  0.25500000920E-02 0. -1.
    10030    2    1    2    0    0  0.00000000000E+00  0.00000000000E+00  0.68430500006E+03  0.39569618929E+04  0.38973419261E+04 0.  0.
        2    1    3    3  502    0  0.13600183107E+04 -0.15869117752E+03 -0.10655955413E+04  0.17350292657E+04  0.25500000920E-02 0. -1.
       -2    1    3    3    0  502 -0.13600183107E+04  0.15869117752E+03  0.17499005414E+04  0.22219326272E+04  0.25500000920E-02 0.  1.
</event>
<event>
 5   0  0.8676098E-08  0.3913043E+04  0.7818609E-02  0.8022322E-01
       -2   -1    0    0    0  501  0.00000000000E+00  0.00000000000E+00  0.13534077229E+04  0.13534077229E+04  0.25500000920E-02 0.  1.
        2   -1    0    0  501    0  0.00000000000E+00  0.00000000000E+00 -0.28283985043E+04  0.28283985043E+04  0.25500000920E-02 0. -1.
    10030    2    1    2    0    0  0.00000000000E+00  0.00000000000E+00 -0.14749907813E+04  0.41818062272E+04  0.39130429996E+04 0.  0.
        3    1    3    3  502    0 -0.18701773643E+04  0.57036267590E+03 -0.81381029901E+03  0.21178206177E+04  0.10100000352E+00 0. -1.
       -3    1    3    3    0  502  0.18701773643E+04 -0.57036267590E+03 -0.66118048232E+03  0.20639856095E+04  0.10100000352E+00 0.  1.
</event>
<event>
 5   0  0.8476262E-08  0.3900333E+04  0.7818609E-02  0.8024960E-01
        2   -1    0    0  501    0  0.00000000000E+00  0.00000000000E+00  0.22393616895E+04  0.22393616895E+04  0.25500000920E-02 0. -1.
       -2   -1    0    0    0  501  0.00000000000E+00  0.00000000000E+00 -0.16983187982E+04  0.16983187982E+04  0.25500000920E-02 0.  1.
    10030    2    1    2    0    0  0.00000000000E+00  0.00000000000E+00  0.54104289133E+03  0.39376804877E+04  0.39003333464E+04 0.  0.
        2    1    3    3  502    0  0.83518037636E+03  0.91166526693E+03 -0.12520608853E+04  0.17596352692E+04  0.25500000920E-02 0.  1.
       -2    1    3    3    0  502 -0.83518037636E+03 -0.91166526693E+03  0.17931037766E+04  0.21780452185E+04  0.25500000920E-02 0. -1.
</event>
<event>
 5   0  0.8551754E-08  0.3889228E+04  0.7818609E-02  0.8027273E-01
        2   -1    0    0  501    0  0.00000000000E+00  0.00000000000E+00  0.22774879810E+04  0.22774879810E+04  0.25500000920E-02 0.  1.
       -2   -1    0    0    0  501  0.00000000000E+00  0.00000000000E+00 -0.16603924971E+04  0.16603924971E+04  0.25500000920E-02 0. -1.
    10030    2    1    2    0    0  0.00000000000E+00  0.00000000000E+00  0.61709548395E+03  0.39378804781E+04  0.38892281784E+04 0.  0.
        1    1    3    3  502    0 -0.16599989496E+04 -0.48225025421E+03  0.12103988461E+04  0.21102670890E+04  0.50400001928E-02 0.  1.
       -1    1    3    3    0  502  0.16599989496E+04  0.48225025421E+03 -0.59330336216E+03  0.18276133891E+04  0.50400001928E-02 0. -1.
</event>
<event>
 5   0  0.2632875E-08  0.3883756E+04  0.7818609E-02  0.8028416E-01
       -1   -1    0    0    0  501  0.00000000000E+00  0.00000000000E+00  0.14491009026E+04  0.14491009026E+04  0.50400001928E-02 0.  1.
        1   -1    0    0  501    0  0.00000000000E+00  0.00000000000E+00 -0.26022270281E+04  0.26022270281E+04  0.50400001928E-02 0. -1.
    10030    2    1    2    0    0  0.00000000000E+00  0.00000000000E+00 -0.11531261255E+04  0.40513279307E+04  0.38837556747E+04 0.  0.
        5    1    3    3  502    0 -0.13728287577E+03  0.64651772176E+03  0.13281546467E+04  0.14835257356E+04  0.46999998093E+01 0.  1.
       -5    1    3    3    0  502  0.13728287577E+03 -0.64651772176E+03 -0.24812807722E+04  0.25678021951E+04  0.46999998093E+01 0. -1.
</event>
<event>
 5   0  0.8438211E-08  0.3876824E+04  0.7818609E-02  0.8029867E-01
        2   -1    0    0  501    0  0.00000000000E+00  0.00000000000E+00  0.25789810764E+04  0.25789810764E+04  0.25500000920E-02 0.  1.
       -2   -1    0    0    0  501  0.00000000000E+00  0.00000000000E+00 -0.14569475965E+04  0.14569475965E+04  0.25500000920E-02 0. -1.
    10030    2    1    2    0    0  0.00000000000E+00  0.00000000000E+00  0.11220334800E+04  0.40359286729E+04  0.38768235867E+04 0.  0.
        5    1    3    3  502    0  0.10549701508E+04  0.15672629865E+04  0.10946100386E+03  0.18924267725E+04  0.46999998093E+01 0. -1.
       -5    1    3    3    0  502 -0.10549701508E+04 -0.15672629865E+04  0.10125724761E+04  0.21435019004E+04  0.46999998093E+01 0.  1.
</event>
<event>
 5   0  0.8342802E-08  0.3902302E+04  0.7818609E-02  0.8024551E-01
        2   -1    0    0  501    0  0.00000000000E+00  0.00000000000E+00  0.19198699371E+04  0.19198699371E+04  0.25500000920E-02 0. -1.
       -2   -1    0    0    0  501  0.00000000000E+00  0.00000000000E+00 -0.19829412993E+04  0.19829412993E+04  0.25500000920E-02 0.  1.
    10030    2    1    2    0    0  0.00000000000E+00  0.00000000000E+00 -0.63071362208E+02  0.39028112363E+04  0.39023015708E+04 0.  0.
        4    1    3    3  502    0  0.33174045982E+03  0.55904813885E+03  0.18083788079E+04  0.19216716889E+04  0.12699999809E+01 0. -1.
       -4    1    3    3    0  502 -0.33174045982E+03 -0.55904813885E+03 -0.18714501701E+04  0.19811395474E+04  0.12699999809E+01 0.  1.
</event>
<event>
 5   0  0.8476262E-08  0.3900206E+04  0.7818609E-02  0.8024986E-01
       -2   -1    0    0    0  501  0.00000000000E+00  0.00000000000E+00  0.15034628167E+04  0.15034628167E+04  0.25500000920E-02 0. -1.
        2   -1    0    0  501    0  0.00000000000E+00  0.00000000000E+00 -0.25294282194E+04  0.25294282194E+04  0.25500000920E-02 0.  1.
    10030    2    1    2    0    0  0.00000000000E+00  0.00000000000E+00 -0.10259654027E+04  0.40328910361E+04  0.39002057769E+04 0.  0.
        2    1    3    3  502    0 -0.12214323994E+04  0.15043822796E+04 -0.73914283214E+03  0.20739805389E+04  0.25500000920E-02 0.  1.
       -2    1    3    3    0  502  0.12214323994E+04 -0.15043822796E+04 -0.28682257053E+03  0.19589104973E+04  0.25500000920E-02 0. -1.
</event>
<event>
 5   0  0.2632875E-08  0.3894269E+04  0.7818609E-02  0.8026222E-01
        1   -1    0    0  501    0  0.00000000000E+00  0.00000000000E+00  0.11710505090E+04  0.11710505090E+04  0.50400001928E-02 0.  1.
       -1   -1    0    0    0  501  0.00000000000E+00  0.00000000000E+00 -0.32375486047E+04  0.32375486047E+04  0.50400001928E-02 0. -1.
    10030    2    1    2    0    0  0.00000000000E+00  0.00000000000E+00 -0.20664980958E+04  0.44085991137E+04  0.38942690926E+04 0.  0.
        5    1    3    3  502    0  0.69910595978E+03  0.53220971239E+03 -0.30003598792E+04  0.31263681510E+04  0.46999998093E+01 0. -1.
       -5    1    3    3    0  502 -0.69910595978E+03 -0.53220971239E+03  0.93386178348E+03  0.12822309627E+04  0.46999998093E+01 0.  1.
</event>
<event>
 5   0  0.2632875E-08  0.3898153E+04  0.7818609E-02  0.8025414E-01
        1   -1    0    0  501    0  0.00000000000E+00  0.00000000000E+00  0.24881237558E+04  0.24881237558E+04  0.50400001928E-02 0. -1.
       -1   -1    0    0    0  501  0.00000000000E+00  0.00000000000E+00 -0.15268125159E+04  0.15268125159E+04  0.50400001928E-02 0.  1.
    10030    2    1    2    0    0  0.00000000000E+00  0.00000000000E+00  0.96131123988E+03  0.40149362718E+04  0.38981526351E+04 0.  0.
        5    1    3    3  502    0  0.11603022957E+04  0.10431963659E+04 -0.72237686371E+03  0.17194215592E+04  0.46999998093E+01 0.  1.
       -5    1    3    3    0  502 -0.11603022957E+04 -0.10431963659E+04  0.16836881036E+04  0.22955147125E+04  0.46999998093E+01 0. -1.
</event>
<event>
 5   0  0.8551754E-08  0.3905108E+04  0.7818609E-02  0.8023968E-01
       -2   -1    0    0    0  501  0.00000000000E+00  0.00000000000E+00  0.11946142491E+04  0.11946142491E+04  0.25500000920E-02 0.  1.
        2   -1    0    0  501    0  0.00000000000E+00  0.00000000000E+00 -0.31913794082E+04  0.31913794082E+04  0.25500000920E-02 0. -1.
    10030    2    1    2    0    0  0.00000000000E+00  0.00000000000E+00 -0.19967651591E+04  0.43859936573E+04  0.39051080985E+04 0.  0.
        1    1    3    3  502    0  0.10237982568E+04 -0.13281662545E+04  0.12491670186E+03  0.16816041903E+04  0.50400001928E-02 0. -1.
       -1    1    3    3    0  502 -0.10237982568E+04  0.13281662545E+04 -0.21216818610E+04  0.27043894670E+04  0.50400001928E-02 0.  1.
</event>
<event>
 5   0  0.8438211E-08  0.3894125E+04  0.7818609E-02  0.8026252E-01
        2   -1    0    0  501    0  0.00000000000E+00  0.00000000000E+00  0.22322791236E+04  0.22322791236E+04  0.25500000920E-02 0. -1.
       -2   -1    0    0    0  501  0.00000000000E+00  0.00000000000E+00 -0.16982877969E+04  0.16982877969E+04  0.25500000920E-02 0.  1.
    10030    2    1    2    0    0  0.00000000000E+00  0.00000000000E+00  0.53399132668E+03  0.39305669205E+04  0.38941250082E+04 0.  0.
        5    1    3    3  502    0 -0.19854204309E+03 -0.15399761136E+04  0.14527595319E+04  0.21263766649E+04  0.46999998093E+01 0. -1.
       -5    1    3    3    0  502  0.19854204309E+03  0.15399761136E+04 -0.91876820526E+03  0.18041902556E+04  0.46999998093E+01 0.  1.
</event>
<event>
 5   0  0.8438211E-08  0.3886669E+04  0.7818609E-02  0.8027808E-01
       -2   -1    0    0    0  501  0.00000000000E+00  0.00000000000E+00  0.16269746829E+04  0.16269746829E+04  0.25500000920E-02 0. -1.
        2   -1    0    0  501    0  0.00000000000E+00  0.00000000000E+00 -0.23212093742E+04  0.23212093743E+04  0.25500000920E-02 0.  1.
    10030    2    1    2    0    0  0.00000000000E+00  0.00000000000E+00 -0.69423469139E+03  0.39481840571E+04  0.38866689520E+04 0.  0.
        5    1    3    3  502    0  0.70104199231E+03  0.97321517471E+02 -0.21856229943E+04  0.22973683458E+04  0.46999998093E+01 0.  1.
       -5    1    3    3    0  502 -0.70104199231E+03 -0.97321517471E+02  0.14913883029E+04  0.16508157114E+04  0.46999998093E+01 0. -1.
</event>
<event>
 5   0  0.2632875E-08  0.3906126E+04  0.7818609E-02  0.8023756E-01
       -1   -1    0    0    0  501  0.00000000000E+00  0.00000000000E+00  0.13749841630E+04  0.13749841631E+04  0.50400001928E-02 0. -1.
        1   -1    0    0  501    0  0.00000000000E+00  0.00000000000E+00 -0.27741807290E+04  0.27741807290E+04  0.50400001928E-02 0.  1.
    10030    2    1    2    0    0  0.00000000000E+00  0.00000000000E+00 -0.13991965660E+04  0.41491648921E+04  0.39061257368E+04 0.  0.
        4    1    3    3  502    0  0.83696919183E+03 -0.89964068205E+03  0.91294200635E+03  0.15307957097E+04  0.12699999809E+01 0. -1.
       -4    1    3    3    0  502 -0.83696919183E+03  0.89964068205E+03 -0.23121385723E+04  0.26183691824E+04  0.12699999809E+01 0.  1.
</event>
<event>
 5   0  0.2632875E-08  0.3902994E+04  0.7818609E-02  0.8024407E-01
        1   -1    0    0  501    0  0.00000000000E+00  0.00000000000E+00  0.27929042049E+04  0.27929042049E+04  0.50400001928E-02 0. -1.
       -1   -1    0    0    0  501  0.00000000000E+00  0.00000000000E+00 -0.13635773572E+04  0.13635773572E+04  0.50400001928E-02 0.  1.
    10030    2    1    2    0    0  0.00000000000E+00  0.00000000000E+00  0.14293268477E+04  0.41564815621E+04  0.39029942017E+04 0.  0.
        4    1    3    3  502    0  0.13282585507E+04 -0.14153173497E+04  0.93015495807E+03  0.21523438008E+04  0.12699999809E+01 0. -1.
       -4    1    3    3    0  502 -0.13282585507E+04  0.14153173497E+04  0.49917188962E+03  0.20041377613E+04  0.12699999809E+01 0.  1.
</event>
<event>
 5   0  0.2632875E-08  0.3894051E+04  0.7818609E-02  0.8026268E-01
       -1   -1    0    0    0  501  0.00000000000E+00  0.00000000000E+00  0.20941096450E+04  0.20941096450E+04  0.50400001928E-02 0.  1.
        1   -1    0    0  501    0  0.00000000000E+00  0.00000000000E+00 -0.18102718876E+04  0.18102718876E+04  0.50400001928E-02 0. -1.
    10030    2    1    2    0    0  0.00000000000E+00  0.00000000000E+00  0.28383775742E+03  0.39043815326E+04  0.38940507546E+04 0.  0.
        2    1    3    3  502    0 -0.77223314663E+03 -0.17795103074E+03 -0.16412528983E+04  0.18225591015E+04  0.25500000920E-02 0. -1.
       -2    1    3    3    0  502  0.77223314663E+03  0.17795103074E+03  0.19250906557E+04  0.20818224312E+04  0.25500000920E-02 0.  1.
</event>
<event>
 5   0  0.8551754E-08  0.3886077E+04  0.7818609E-02  0.8027931E-01
       -2   -1    0    0    0  501  0.00000000000E+00  0.00000000000E+00  0.16938703197E+04  0.16938703197E+04  0.25500000920E-02 0.  1.
        2   -1    0    0  501    0  0.00000000000E+00  0.00000000000E+00 -0.22288590394E+04  0.22288590394E+04  0.25500000920E-02 0. -1.
    10030    2    1    2    0    0  0.00000000000E+00  0.00000000000E+00 -0.53498871970E+03  0.39227293591E+04  0.38860767741E+04 0.  0.
        1    1    3    3  502    0  0.88210203243E+03  0.47597784872E+03  0.14127591033E+04  0.17322087611E+04  0.50400001928E-02 0.  1.
       -1    1    3    3    0  502 -0.88210203243E+03 -0.47597784872E+03 -0.19477478230E+04  0.21905205980E+04  0.50400001928E-02 0. -1.
</event>
<event>
 5   0  0.8438211E-08  0.3928015E+04  0.7818609E-02  0.8019228E-01
        2   -1    0    0  501    0  0.00000000000E+00  0.00000000000E+00  0.28647198926E+04  0.28647198926E+04  0.25500000920E-02 0. -1.
       -2   -1    0    0    0  501  0.00000000000E+00  0.00000000000E+00 -0.13464927438E+04  0.13464927438E+04  0.25500000920E-02 0.  1.
    10030    2    1    2    0    0  0.00000000000E+00  0.00000000000E+00  0.15182271489E+04  0.42112126364E+04  0.39280145358E+04 0.  0.
        5    1    3    3  502    0  0.13134749641E+03 -0.95503442702E+03  0.25936089438E+04  0.27669789238E+04  0.46999998093E+01 0. -1.
       -5    1    3    3    0  502 -0.13134749641E+03  0.95503442702E+03 -0.10753817949E+04  0.14442337126E+04  0.46999998093E+01 0.  1.
</event>
<event>
 5   0  0.8676098E-08  0.3923224E+04  0.7818609E-02  0.8020216E-01
        2   -1    0    0  501    0  0.00000000000E+00  0.00000000000E+00  0.15144910915E+04  0.15144910915E+04  0.25500000920E-02 0. -1.
       -2   -1    0    0    0  501  0.00000000000E+00  0.00000000000E+00 -0.25407353880E+04  0.25407353880E+04  0.25500000920E-02 0.  1.
    10030    2    1    2    0    0  0.00000000000E+00  0.00000000000E+00 -0.10262442964E+04  0.40552264795E+04  0.39232237311E+04 0.  0.
        3    1    3    3  502    0  0.15331790924E+04 -0.48296057482E+03  0.64899813760E+03  0.17335188603E+04  0.10100000352E+00 0. -1.
       -3    1    3    3    0  502 -0.15331790924E+04  0.48296057482E+03 -0.16752424340E+04  0.23217076192E+04  0.10100000352E+00 0.  1.
</event>
<event>
 5   0  0.2632875E-08  0.3902177E+04  0.7818609E-02  0.8024577E-01
        1   -1    0    0  501    0  0.00000000000E+00  0.00000000000E+00  0.22742250624E+04  0.22742250624E+04  0.50400001928E-02 0.  1.
       -1   -1    0    0    0  501  0.00000000000E+00  0.00000000000E+00 -0.16738648435E+04  0.16738648435E+04  0.50400001928E-02 0. -1.
    10030    2    1    2    0    0  0.00000000000E+00  0.00000000000E+00  0.60036021885E+03  0.39480899059E+04  0.39021765097E+04 0.  0.
        1    1    3    3  502    0  0.42890030315E+03  0.18262778195E+04 -0.24231830066E+03  0.18915507667E+04  0.50400001928E-02 0.  1.
       -1    1    3    3    0  502 -0.42890030315E+03 -0.18262778195E+04  0.84267851951E+03  0.20565391393E+04  0.50400001928E-02 0. -1.
</event>
<event>
 5   0  0.8551754E-08  0.3887864E+04  0.7818609E-02  0.8027558E-01
        2   -1    0    0  501    0  0.00000000000E+00  0.00000000000E+00  0.19202938723E+04  0.19202938723E+04  0.25500000920E-02 0. -1.
       -2   -1    0    0    0  501  0.00000000000E+00  0.00000000000E+00 -0.19678610663E+04  0.19678610663E+04  0.25500000920E-02 0.  1.
    10030    2    1    2    0    0  0.00000000000E+00  0.00000000000E+00 -0.47567194047E+02  0.38881549386E+04  0.38878639622E+04 0.  0.
        1    1    3    3  502    0 -0.12031972759E+03 -0.15600060283E+04 -0.11774625410E+04  0.19581914311E+04  0.50400001928E-02 0.  1.
       -1    1    3    3    0  502  0.12031972759E+03  0.15600060283E+04  0.11298953470E+04  0.19299635075E+04  0.50400001928E-02 0. -1.
</event>
<event>
 5   0  0.2632875E-08  0.3897516E+04  0.7818609E-02  0.8025546E-01
        1   -1    0    0  501    0  0.00000000000E+00  0.00000000000E+00  0.23048723753E+04  0.23048723754E+04  0.50400001928E-02 0. -1.
       -1   -1    0    0    0  501  0.00000000000E+00  0.00000000000E+00 -0.16476651201E+04  0.16476651202E+04  0.50400001928E-02 0.  1.
    10030    2    1    2    0    0  0.00000000000E+00  0.00000000000E+00  0.65720725520E+03  0.39525374955E+04  0.38975160394E+04 0.  0.
        4    1    3    3  502    0  0.15826488488E+04 -0.84014656444E+03  0.11056003542E+04  0.21054636982E+04  0.12699999809E+01 0. -1.
       -4    1    3    3    0  502 -0.15826488488E+04  0.84014656444E+03 -0.44839309902E+03  0.18470737973E+04  0.12699999809E+01 0.  1.
</event>
<event>
 5   0  0.8676098E-08  0.3903534E+04  0.7818609E-02  0.8024295E-01
        2   -1    0    0  501    0  0.00000000000E+00  0.00000000000E+00  0.22463131694E+04  0.22463131694E+04  0.25500000920E-02 0.  1.
       -2   -1    0    0    0  501  0.00000000000E+00  0.00000000000E+00 -0.16958427789E+04  0.16958427789E+04  0.25500000920E-02 0. -1.
    10030    2    1    2    0    0  0.00000000000E+00  0.00000000000E+00  0.55047039050E+03  0.39421559482E+04  0.39035337669E+04 0.  0.
        3    1    3    3  502    0  0.98588547363E+03 -0.83782848267E+03 -0.12005471653E+04  0.17650043172E+04  0.10100000352E+00 0. -1.
       -3    1    3    3    0  502 -0.98588547363E+03  0.83782848267E+03  0.17510175558E+04  0.21771516310E+04  0.10100000352E+00 0.  1.
</event>
<event>
 5   0  0.8342802E-08  0.3906533E+04  0.7818609E-02  0.8023672E-01
        2   -1    0    0  501    0  0.00000000000E+00  0.00000000000E+00  0.21281696935E+04  0.21281696935E+04  0.25500000920E-02 0. -1.
       -2   -1    0    0    0  501  0.00000000000E+00  0.00000000000E+00 -0.17927379908E+04  0.17927379908E+04  0.25500000920E-02 0.  1.
    10030    2    1    2    0    0  0.00000000000E+00  0.00000000000E+00  0.33543170271E+03  0.39209076844E+04  0.39065333279E+04 0.  0.
        4    1    3    3  502    0  0.15339497292E+04 -0.10999413267E+04 -0.33650338944E+03  0.19173181369E+04  0.12699999809E+01 0.  1.
       -4    1    3    3    0  502 -0.15339497292E+04  0.10999413267E+04  0.67193509215E+03  0.20035895475E+04  0.12699999809E+01 0. -1.
</event>
<event>
 5   0  0.2632875E-08  0.3888119E+04  0.7818609E-02  0.8027505E-01
        1   -1    0    0  501    0  0.00000000000E+00  0.00000000000E+00  0.23370547190E+04  0.23370547190E+04  0.50400001928E-02 0. -1.
       -1   -1    0    0    0  501  0.00000000000E+00  0.00000000000E+00 -0.16171496090E+04  0.16171496090E+04  0.50400001928E-02 0.  1.
    10030    2    1    2    0    0  0.00000000000E+00  0.00000000000E+00  0.71990511006E+03  0.39542043280E+04  0.38881188896E+04 0.  0.
        3    1    3    3  502    0  0.18448962112E+03 -0.13717010009E+04 -0.10284499439E+04  0.17243286675E+04  0.10100000352E+00 0.  1.
       -3    1    3    3    0  502 -0.18448962112E+03  0.13717010009E+04  0.17483550540E+04  0.22298756605E+04  0.10100000352E+00 0. -1.
</event>
<event>
 5   0  0.8551754E-08  0.3884515E+04  0.7818609E-02  0.8028258E-01
        2   -1    0    0  501    0  0.00000000000E+00  0.00000000000E+00  0.25238329386E+04  0.25238329386E+04  0.25500000920E-02 0. -1.
       -2   -1    0    0    0  501  0.00000000000E+00  0.00000000000E+00 -0.14946963719E+04  0.14946963719E+04  0.25500000920E-02 0.  1.
    10030    2    1    2    0    0  0.00000000000E+00  0.00000000000E+00  0.10291365667E+04  0.40185293105E+04  0.38845148663E+04 0.  0.
        1    1    3    3  502    0 -0.22541699221E+03 -0.15016279303E+04  0.17674087382E+04  0.23301143554E+04  0.50400001928E-02 0. -1.
       -1    1    3    3    0  502  0.22541699221E+03  0.15016279303E+04 -0.73827217155E+03  0.16884149551E+04  0.50400001928E-02 0.  1.
</event>
<event>
 5   0  0.2632875E-08  0.3916246E+04  0.7818609E-02  0.8021659E-01
       -1   -1    0    0    0  501  0.00000000000E+00  0.00000000000E+00  0.13657242816E+04  0.13657242816E+04  0.50400001928E-02 0.  1.
        1   -1    0    0  501    0  0.00000000000E+00  0.00000000000E+00 -0.28074817579E+04  0.28074817579E+04  0.50400001928E-02 0. -1.
    10030    2    1    2    0    0  0.00000000000E+00  0.00000000000E+00 -0.14417574764E+04  0.41732060395E+04  0.39162461653E+04 0.  0.
        5    1    3    3  502    0 -0.11589366134E+04  0.78991528370E+03  0.73520512519E+03  0.15835557759E+04  0.46999998093E+01 0. -1.
       -5    1    3    3    0  502  0.11589366134E+04 -0.78991528370E+03 -0.21769626016E+04  0.25896502636E+04  0.46999998093E+01 0.  1.
</event>
<event>
 5   0  0.2632875E-08  0.3882071E+04  0.7818609E-02  0.8028769E-01
        1   -1    0    0  501    0  0.00000000000E+00  0.00000000000E+00  0.15089144510E+04  0.15089144510E+04  0.50400001928E-02 0. -1.
       -1   -1    0    0    0  501  0.00000000000E+00  0.00000000000E+00 -0.24969065597E+04  0.24969065597E+04  0.50400001928E-02 0.  1.
    10030    2    1    2    0    0  0.00000000000E+00  0.00000000000E+00 -0.98799210867E+03  0.40058210106E+04  0.38820707828E+04 0.  0.
        5    1    3    3  502    0  0.14997819935E+04 -0.10913023470E+04  0.96350957260E+02  0.18573078468E+04  0.46999998093E+01 0. -1.
       -5    1    3    3    0  502 -0.14997819935E+04  0.10913023470E+04 -0.10843430659E+04  0.21485131639E+04  0.46999998093E+01 0.  1.
</event>
<event>
 5   0  0.2632875E-08  0.3861347E+04  0.7818609E-02  0.8033117E-01
        1   -1    0    0  501    0  0.00000000000E+00  0.00000000000E+00  0.15417932832E+04  0.15417932832E+04  0.50400001928E-02 0.  1.
       -1   -1    0    0    0  501  0.00000000000E+00  0.00000000000E+00 -0.24176389263E+04  0.24176389263E+04  0.50400001928E-02 0. -1.
    10030    2    1    2    0    0  0.00000000000E+00  0.00000000000E+00 -0.87584564302E+03  0.39594322095E+04  0.38613466344E+04 0.  0.
        1    1    3    3  502    0  0.34878692422E+03  0.17713604367E+04 -0.11395025846E+04  0.21349089572E+04  0.50400001928E-02 0. -1.
       -1    1    3    3    0  502 -0.34878692422E+03 -0.17713604367E+04  0.26365694161E+03  0.18245232523E+04  0.50400001928E-02 0.  1.
</event>
<event>
 5   0  0.2632875E-08  0.3940633E+04  0.7818609E-02  0.8016631E-01
       -1   -1    0    0    0  501  0.00000000000E+00  0.00000000000E+00  0.29437340312E+04  0.29437340312E+04  0.50400001928E-02 0.  1.
        1   -1    0    0  501    0  0.00000000000E+00  0.00000000000E+00 -0.13187830274E+04  0.13187830274E+04  0.50400001928E-02 0. -1.
    10030    2    1    2    0    0  0.00000000000E+00  0.00000000000E+00  0.16249510038E+04  0.42625170586E+04  0.39406326789E+04 0.  0.
        3    1    3    3  502    0  0.91639273677E+03 -0.48258019761E+03  0.26255418714E+04  0.28224332452E+04  0.10100000352E+00 0.  1.
       -3    1    3    3    0  502 -0.91639273677E+03  0.48258019761E+03 -0.10005908676E+04  0.14400838134E+04  0.10100000352E+00 0. -1.
</event>
<event>
 5   0  0.2632875E-08  0.3967523E+04  0.7818609E-02  0.8011130E-01
        1   -1    0    0  501    0  0.00000000000E+00  0.00000000000E+00  0.22520929755E+04  0.22520929755E+04  0.50400001928E-02 0. -1.
       -1   -1    0    0    0  501  0.00000000000E+00  0.00000000000E+00 -0.17474010923E+04  0.17474010923E+04  0.50400001928E-02 0.  1.
    10030    2    1    2    0    0  0.00000000000E+00  0.00000000000E+00  0.50469188320E+03  0.39994940678E+04  0.39675230184E+04 0.  0.
        5    1    3    3  502    0  0.16649824838E+04  0.13539763133E+03 -0.82622377081E+03  0.18636434743E+04  0.46999998093E+01 0.  1.
       -5    1    3    3    0  502 -0.16649824838E+04 -0.13539763133E+03  0.13309156540E+04  0.21358505935E+04  0.46999998093E+01 0. -1.
</event>
<event>
 5   0  0.2632875E-08  0.3907600E+04  0.7818609E-02  0.8023450E-01
        1   -1    0    0  501    0  0.00000000000E+00  0.00000000000E+00  0.28082280752E+04  0.28082280752E+04  0.50400001928E-02 0.  1.
       -1   -1    0    0    0  501  0.00000000000E+00  0.00000000000E+00 -0.13593390733E+04  0.13593390734E+04  0.50400001928E-02 0. -1.
    10030    2    1    2    0    0  0.00000000000E+00  0.00000000000E+00  0.14488890019E+04  0.41675671486E+04  0.39075998513E+04 0.  0.
        4    1    3    3  502    0 -0.15805229720E+04 -0.65226325042E+03  0.17327695346E+04  0.24343360668E+04  0.12699999809E+01 0.  1.
       -4    1    3    3    0  502  0.15805229720E+04  0.65226325042E+03 -0.28388053278E+03  0.17332310818E+04  0.12699999809E+01 0. -1.
</event>
<event>
 5   0  0.2632875E-08  0.3922435E+04  0.7818609E-02  0.8020379E-01
        1   -1    0    0  501    0  0.00000000000E+00  0.00000000000E+00  0.13343096782E+04  0.13343096782E+04  0.50400001928E-02 0.  1.
       -1   -1    0    0    0  501  0.00000000000E+00  0.00000000000E+00 -0.28826692781E+04  0.28826692781E+04  0.50400001928E-02 0. -1.
    10030    2    1    2    0    0  0.00000000000E+00  0.00000000000E+00 -0.15483595999E+04  0.42169789563E+04  0.39224347116E+04 0.  0.
        3    1    3    3  502    0 -0.14682147195E+04  0.69520101803E+03 -0.19555171079E+04  0.25422443013E+04  0.10100000352E+00 0. -1.
       -3    1    3    3    0  502  0.14682147195E+04 -0.69520101803E+03  0.40715750803E+03  0.16747346550E+04  0.10100000352E+00 0.  1.
</event>
<event>
 5   0  0.2632875E-08  0.3903674E+04  0.7818609E-02  0.8024266E-01
        1   -1    0    0  501    0  0.00000000000E+00  0.00000000000E+00  0.21759766346E+04  0.21759766346E+04  0.50400001928E-02 0.  1.
       -1   -1    0    0    0  501  0.00000000000E+00  0.00000000000E+00 -0.17507848374E+04  0.17507848374E+04  0.50400001928E-02 0. -1.
    10030    2    1    2    0    0  0.00000000000E+00  0.00000000000E+00  0.42519179721E+03  0.39267614720E+04  0.39036736023E+04 0.  0.
        3    1    3    3  502    0  0.46674553367E+03 -0.16105672774E+04  0.12174477589E+04  0.20721866239E+04  0.10100000352E+00 0.  1.
       -3    1    3    3    0  502 -0.46674553367E+03  0.16105672774E+04 -0.79225596172E+03  0.18545748481E+04  0.10100000352E+00 0. -1.
</event>
<event>
 5   0  0.2632875E-08  0.3849868E+04  0.7818609E-02  0.8035537E-01
       -1   -1    0    0    0  501  0.00000000000E+00  0.00000000000E+00  0.16425340229E+04  0.16425340229E+04  0.50400001928E-02 0.  1.
        1   -1    0    0  501    0  0.00000000000E+00  0.00000000000E+00 -0.22558872626E+04  0.22558872626E+04  0.50400001928E-02 0. -1.
    10030    2    1    2    0    0  0.00000000000E+00  0.00000000000E+00 -0.61335323969E+03  0.38984212856E+04  0.38498683514E+04 0.  0.
        5    1    3    3  502    0  0.69648069127E+03  0.17518137054E+04  0.87348853698E+02  0.18872171375E+04  0.46999998093E+01 0.  1.
       -5    1    3    3    0  502 -0.69648069127E+03 -0.17518137054E+04 -0.70070209339E+03  0.20112041481E+04  0.46999998093E+01 0. -1.
</event>
<event>
 5   0  0.8676098E-08  0.3872832E+04  0.7818609E-02  0.8030704E-01
        2   -1    0    0  501    0  0.00000000000E+00  0.00000000000E+00  0.13791125110E+04  0.13791125110E+04  0.25500000920E-02 0.  1.
       -2   -1    0    0    0  501  0.00000000000E+00  0.00000000000E+00 -0.27189272196E+04  0.27189272196E+04  0.25500000920E-02 0. -1.
    10030    2    1    2    0    0  0.00000000000E+00  0.00000000000E+00 -0.13398147087E+04  0.40980397306E+04  0.38728318037E+04 0.  0.
        3    1    3    3  502    0 -0.40539837573E+03 -0.10032845118E+04  0.10293320904E+04  0.14934698582E+04  0.10100000352E+00 0.  1.
       -3    1    3    3    0  502  0.40539837573E+03  0.10032845118E+04 -0.23691467990E+04  0.26045698724E+04  0.10100000352E+00 0. -1.
</event>
<event>
 5   0  0.8476262E-08  0.3896136E+04  0.7818609E-02  0.8025833E-01
        2   -1    0    0  501    0  0.00000000000E+00  0.00000000000E+00  0.31338489175E+04  0.31338489175E+04  0.25500000920E-02 0. -1.
       -2   -1    0    0    0  501  0.00000000000E+00  0.00000000000E+00 -0.12109607998E+04  0.12109607998E+04  0.25500000920E-02 0.  1.
    10030    2    1    2    0    0  0.00000000000E+00  0.00000000000E+00  0.19228881177E+04  0.43448097173E+04  0.38961356196E+04 0.  0.
        2    1    3    3  502    0 -0.78524223405E+03 -0.15067905729E+04 -0.10114775262E+03  0.17021322112E+04  0.25500000920E-02 0.  1.
       -2    1    3    3    0  502  0.78524223405E+03  0.15067905729E+04  0.20240358703E+04  0.26426775061E+04  0.25500000920E-02 0. -1.
</event>
<event>
 5   0  0.2632875E-08  0.3899415E+04  0.7818609E-02  0.8025151E-01
        3   -1    0    0  501    0  0.00000000000E+00  0.00000000000E+00  0.23195578290E+04  0.23195578312E+04  0.10100000352E+00 0.  1.
       -3   -1    0    0    0  501  0.00000000000E+00  0.00000000000E+00 -0.16388295247E+04  0.16388295278E+04  0.10100000352E+00 0. -1.
    10030    2    1    2    0    0  0.00000000000E+00  0.00000000000E+00  0.68072830428E+03  0.39583873590E+04  0.38994152715E+04 0.  0.
        4    1    3    3  502    0  0.18550825296E+04  0.16019083786E+02  0.94924392536E+03  0.20839034156E+04  0.12699999809E+01 0.  1.
       -4    1    3    3    0  502 -0.18550825296E+04 -0.16019083786E+02 -0.26851562107E+03  0.18744839435E+04  0.12699999809E+01 0. -1.
</event>
<event>
 5   0  0.8676098E-08  0.3820033E+04  0.7818609E-02  0.8041869E-01
        2   -1    0    0  501    0  0.00000000000E+00  0.00000000000E+00  0.23845469741E+04  0.23845469741E+04  0.25500000920E-02 0. -1.
       -2   -1    0    0    0  501  0.00000000000E+00  0.00000000000E+00 -0.15299186927E+04  0.15299186927E+04  0.25500000920E-02 0.  1.
    10030    2    1    2    0    0  0.00000000000E+00  0.00000000000E+00  0.85462828141E+03  0.39144656669E+04  0.38200329786E+04 0.  0.
        3    1    3    3  502    0 -0.92304079281E+03  0.81465399027E+03  0.19237208493E+04  0.22839368085E+04  0.10100000352E+00 0. -1.
       -3    1    3    3    0  502  0.92304079281E+03 -0.81465399027E+03 -0.10690925679E+04  0.16305288584E+04  0.10100000352E+00 0.  1.
</event>
<event>
 5   0  0.8551754E-08  0.3876008E+04  0.7818609E-02  0.8030038E-01
        2   -1    0    0  501    0  0.00000000000E+00  0.00000000000E+00  0.14435971603E+04  0.14435971603E+04  0.25500000920E-02 0.  1.
       -2   -1    0    0    0  501  0.00000000000E+00  0.00000000000E+00 -0.26017359145E+04  0.26017359145E+04  0.25500000920E-02 0. -1.
    10030    2    1    2    0    0  0.00000000000E+00  0.00000000000E+00 -0.11581387542E+04  0.40453330747E+04  0.38760075221E+04 0.  0.
        1    1    3    3  502    0 -0.39124627556E+03  0.12708350228E+04  0.89240263236E+03  0.16013986891E+04  0.50400001928E-02 0.  1.
       -1    1    3    3    0  502  0.39124627556E+03 -0.12708350228E+04 -0.20505413866E+04  0.24439343856E+04  0.50400001928E-02 0. -1.
</event>
<event>
 5   0  0.8342802E-08  0.3902047E+04  0.7818609E-02  0.8024604E-01
        2   -1    0    0  501    0  0.00000000000E+00  0.00000000000E+00  0.23893238632E+04  0.23893238632E+04  0.25500000920E-02 0. -1.
       -2   -1    0    0    0  501  0.00000000000E+00  0.00000000000E+00 -0.15931252901E+04  0.15931252901E+04  0.25500000920E-02 0.  1.
    10030    2    1    2    0    0  0.00000000000E+00  0.00000000000E+00  0.79619857306E+03  0.39824491533E+04  0.39020467823E+04 0.  0.
        4    1    3    3  502    0 -0.11023872634E+04  0.44355269069E+03  0.19773993160E+04  0.23069690800E+04  0.12699999809E+01 0. -1.
       -4    1    3    3    0  502  0.11023872634E+04 -0.44355269069E+03 -0.11812007430E+04  0.16754800733E+04  0.12699999809E+01 0.  1.
</event>
<event>
 5   0  0.8476262E-08  0.3880300E+04  0.7818609E-02  0.8029139E-01
        2   -1    0    0  501    0  0.00000000000E+00  0.00000000000E+00  0.19416734699E+04  0.19416734699E+04  0.25500000920E-02 0.  1.
       -2   -1    0    0    0  501  0.00000000000E+00  0.00000000000E+00 -0.19386277834E+04  0.19386277834E+04  0.25500000920E-02 0. -1.
    10030    2    1    2    0    0  0.00000000000E+00  0.00000000000E+00  0.30456864839E+01  0.38803012533E+04  0.38803000580E+04 0.  0.
        2    1    3    3  502    0 -0.12772509052E+04 -0.13718255129E+04  0.50242919872E+03  0.19405437929E+04  0.25500000920E-02 0.  1.
       -2    1    3    3    0  502  0.12772509052E+04  0.13718255129E+04 -0.49938351224E+03  0.19397574603E+04  0.25500000920E-02 0. -1.
</event>
<event>
 5   0  0.2632875E-08  0.3910593E+04  0.7818609E-02  0.8022830E-01
       -1   -1    0    0    0  501  0.00000000000E+00  0.00000000000E+00  0.13784178795E+04  0.13784178795E+04  0.50400001928E-02 0.  1.
        1   -1    0    0  501    0  0.00000000000E+00  0.00000000000E+00 -0.27736039084E+04  0.27736039084E+04  0.50400001928E-02 0. -1.
    10030    2    1    2    0    0  0.00000000000E+00  0.00000000000E+00 -0.13951860289E+04  0.41520217879E+04  0.39105934168E+04 0.  0.
        5    1    3    3  502    0 -0.13593226929E+04  0.27249830993E+03 -0.21615391818E+04  0.25679344300E+04  0.46999998093E+01 0. -1.
       -5    1    3    3    0  502  0.13593226929E+04 -0.27249830993E+03  0.76635315296E+03  0.15840873578E+04  0.46999998093E+01 0.  1.
</event>
<event>
 5   0  0.8476262E-08  0.3922150E+04  0.7818609E-02  0.8020438E-01
       -2   -1    0    0    0  501  0.00000000000E+00  0.00000000000E+00  0.28154323932E+04  0.28154323932E+04  0.25500000920E-02 0. -1.
        2   -1    0    0  501    0  0.00000000000E+00  0.00000000000E+00 -0.13659767840E+04  0.13659767840E+04  0.25500000920E-02 0.  1.
    10030    2    1    2    0    0  0.00000000000E+00  0.00000000000E+00  0.14494556091E+04  0.41814091772E+04  0.39221500665E+04 0.  0.
        2    1    3    3  502    0 -0.16414264285E+04  0.53523981988E+03 -0.26683401374E+03  0.17469867704E+04  0.25500000920E-02 0.  1.
       -2    1    3    3    0  502  0.16414264285E+04 -0.53523981988E+03  0.17162896229E+04  0.24344224068E+04  0.25500000920E-02 0. -1.
</event>
<event>
 5   0  0.2632875E-08  0.3890248E+04  0.7818609E-02  0.8027060E-01
        1   -1    0    0  501    0  0.00000000000E+00  0.00000000000E+00  0.21690605984E+04  0.21690605984E+04  0.50400001928E-02 0. -1.
       -1   -1    0    0    0  501  0.00000000000E+00  0.00000000000E+00 -0.17443070005E+04  0.17443070005E+04  0.50400001928E-02 0.  1.
    10030    2    1    2    0    0  0.00000000000E+00  0.00000000000E+00  0.42475359791E+03  0.39133675989E+04  0.38902481084E+04 0.  0.
        5    1    3    3  502    0 -0.49332800448E+03  0.89827449145E+03 -0.14506923802E+04  0.17761756822E+04  0.46999998093E+01 0.  1.
       -5    1    3    3    0  502  0.49332800448E+03 -0.89827449145E+03  0.18754459781E+04  0.21371919167E+04  0.46999998093E+01 0. -1.
</event>
<event>
 5   0  0.2632875E-08  0.3898998E+04  0.7818609E-02  0.8025238E-01
       -1   -1    0    0    0  501  0.00000000000E+00  0.00000000000E+00  0.18981683345E+04  0.18981683345E+04  0.50400001928E-02 0. -1.
        1   -1    0    0  501    0  0.00000000000E+00  0.00000000000E+00 -0.20022180522E+04  0.20022180522E+04  0.50400001928E-02 0.  1.
    10030    2    1    2    0    0  0.00000000000E+00  0.00000000000E+00 -0.10404971765E+03  0.39003863867E+04  0.38989982844E+04 0.  0.
        4    1    3    3  502    0  0.38357793128E+03  0.12771960635E+04 -0.14745661027E+04  0.19881420015E+04  0.12699999809E+01 0.  1.
       -4    1    3    3    0  502 -0.38357793128E+03 -0.12771960635E+04  0.13705163851E+04  0.19122443852E+04  0.12699999809E+01 0. -1.
</event>
<event>
 5   0  0.2632875E-08  0.3908468E+04  0.7818609E-02  0.8023270E-01
        1   -1    0    0  501    0  0.00000000000E+00  0.00000000000E+00  0.16994612983E+04  0.16994612983E+04  0.50400001928E-02 0.  1.
       -1   -1    0    0    0  501  0.00000000000E+00  0.00000000000E+00 -0.22472002887E+04  0.22472002887E+04  0.50400001928E-02 0. -1.
    10030    2    1    2    0    0  0.00000000000E+00  0.00000000000E+00 -0.54773899040E+03  0.39466615870E+04  0.39084676896E+04 0.  0.
        2    1    3    3  502    0 -0.11192655423E+04  0.13568217741E+04 -0.11338427947E+04  0.20926825282E+04  0.25500000920E-02 0. -1.
       -2    1    3    3    0  502  0.11192655423E+04 -0.13568217741E+04  0.58610380434E+03  0.18539790588E+04  0.25500000920E-02 0.  1.
</event>
<event>
 5   0  0.2632875E-08  0.3873550E+04  0.7818609E-02  0.8030553E-01
       -1   -1    0    0    0  501  0.00000000000E+00  0.00000000000E+00  0.24749610026E+04  0.24749610026E+04  0.50400001928E-02 0.  1.
        1   -1    0    0  501    0  0.00000000000E+00  0.00000000000E+00 -0.15156191279E+04  0.15156191279E+04  0.50400001928E-02 0. -1.
    10030    2    1    2    0    0  0.00000000000E+00  0.00000000000E+00  0.95934187475E+03  0.39905801305E+04  0.38735504315E+04 0.  0.
        4    1    3    3  502    0  0.89027298334E+03 -0.17164690534E+04  0.36567231329E+03  0.19678846129E+04  0.12699999809E+01 0. -1.
       -4    1    3    3    0  502 -0.89027298334E+03  0.17164690534E+04  0.59366956147E+03  0.20226955177E+04  0.12699999809E+01 0.  1.
</event>
<event>
 5   0  0.8551754E-08  0.3898046E+04  0.7818609E-02  0.8025436E-01
       -2   -1    0    0    0  501  0.00000000000E+00  0.00000000000E+00  0.17542210804E+04  0.17542210804E+04  0.25500000920E-02 0.  1.
        2   -1    0    0  501    0  0.00000000000E+00  0.00000000000E+00 -0.21654569634E+04  0.21654569634E+04  0.25500000920E-02 0. -1.
    10030    2    1    2    0    0  0.00000000000E+00  0.00000000000E+00 -0.41123588304E+03  0.39196780438E+04  0.38980457945E+04 0.  0.
        1    1    3    3  502    0 -0.15569484622E+04  0.59778962646E+03  0.80856700407E+03  0.18534350681E+04  0.50400001928E-02 0.  1.
       -1    1    3    3    0  502  0.15569484622E+04 -0.59778962646E+03 -0.12198028871E+04  0.20662429758E+04  0.50400001928E-02 0. -1.
</event>
<event>
 5   0  0.8342802E-08  0.3901169E+04  0.7818609E-02  0.8024786E-01
       -2   -1    0    0    0  501  0.00000000000E+00  0.00000000000E+00  0.12878559200E+04  0.12878559200E+04  0.25500000920E-02 0.  1.
        2   -1    0    0  501    0  0.00000000000E+00  0.00000000000E+00 -0.29543516559E+04  0.29543516559E+04  0.25500000920E-02 0. -1.
    10030    2    1    2    0    0  0.00000000000E+00  0.00000000000E+00 -0.16664957359E+04  0.42422075760E+04  0.39011686813E+04 0.  0.
        4    1    3    3  502    0 -0.28172489763E+03  0.19161158878E+04 -0.10857275234E+04  0.22202871169E+04  0.12699999809E+01 0. -1.
       -4    1    3    3    0  502  0.28172489763E+03 -0.19161158878E+04 -0.58076821243E+03  0.20219204591E+04  0.12699999809E+01 0.  1.
</event>
<event>
 5   0  0.2632875E-08  0.3873363E+04  0.7818609E-02  0.8030592E-01
        1   -1    0    0  501    0  0.00000000000E+00  0.00000000000E+00  0.13903713184E+04  0.13903713184E+04  0.50400001928E-02 0.  1.
       -1   -1    0    0    0  501  0.00000000000E+00  0.00000000000E+00 -0.26976494012E+04  0.26976494012E+04  0.50400001928E-02 0. -1.
    10030    2    1    2    0    0  0.00000000000E+00  0.00000000000E+00 -0.13072780828E+04  0.40880207196E+04  0.38733625467E+04 0.  0.
        5    1    3    3  502    0  0.31864448654E+03 -0.14274475297E+03  0.13568724932E+04  0.14010836614E+04  0.46999998093E+01 0.  1.
       -5    1    3    3    0  502 -0.31864448654E+03  0.14274475297E+03 -0.26641505760E+04  0.26869370582E+04  0.46999998093E+01 0. -1.
</event>
<event>
 5   0  0.8676098E-08  0.3903588E+04  0.7818609E-02  0.8024283E-01
        2   -1    0    0  501    0  0.00000000000E+00  0.00000000000E+00  0.21655138204E+04  0.21655138204E+04  0.25500000920E-02 0.  1.
       -2   -1    0    0    0  501  0.00000000000E+00  0.00000000000E+00 -0.17591666064E+04  0.17591666064E+04  0.25500000920E-02 0. -1.
    10030    2    1    2    0    0  0.00000000000E+00  0.00000000000E+00  0.40634721402E+03  0.39246804268E+04  0.39035878873E+04 0.  0.
        3    1    3    3  502    0  0.74355752026E+03 -0.78017367462E+03 -0.14328715880E+04  0.17929500122E+04  0.10100000352E+00 0. -1.
       -3    1    3    3    0  502 -0.74355752026E+03  0.78017367462E+03  0.18392188020E+04  0.21317304146E+04  0.10100000352E+00 0.  1.
</event>
<event>
 5   0  0.2632875E-08  0.3902083E+04  0.7818609E-02  0.8024596E-01
       -1   -1    0    0    0  501  0.00000000000E+00  0.00000000000E+00  0.18159232060E+04  0.18159232060E+04  0.50400001928E-02 0. -1.
        1   -1    0    0  501    0  0.00000000000E+00  0.00000000000E+00 -0.20962132038E+04  0.20962132038E+04  0.50400001928E-02 0.  1.
    10030    2    1    2    0    0  0.00000000000E+00  0.00000000000E+00 -0.28028999785E+03  0.39121364098E+04  0.39020826242E+04 0.  0.
        3    1    3    3  502    0  0.82305064494E+03 -0.36213704319E+03 -0.18760814397E+04  0.20804415831E+04  0.10100000352E+00 0.  1.
       -3    1    3    3    0  502 -0.82305064494E+03  0.36213704319E+03  0.15957914418E+04  0.18316948267E+04  0.10100000352E+00 0. -1.
</event>
<event>
 5   0  0.2632875E-08  0.3903564E+04  0.7818609E-02  0.8024288E-01
       -1   -1    0    0    0  501  0.00000000000E+00  0.00000000000E+00  0.22149872755E+04  0.22149872755E+04  0.50400001928E-02 0. -1.
        1   -1    0    0  501    0  0.00000000000E+00  0.00000000000E+00 -0.17198528086E+04  0.17198528086E+04  0.50400001928E-02 0.  1.
    10030    2    1    2    0    0  0.00000000000E+00  0.00000000000E+00  0.49513446687E+03  0.39348400841E+04  0.39035635446E+04 0.  0.
        2    1    3    3  502    0 -0.10169381227E+04 -0.16574229623E+04  0.41695549142E+03  0.19887347494E+04  0.25500000920E-02 0.  1.
       -2    1    3    3    0  502  0.10169381227E+04  0.16574229623E+04  0.78178975453E+02  0.19461053347E+04  0.25500000920E-02 0. -1.
</event>
<event>
 5   0  0.8476262E-08  0.3682622E+04  0.7818609E-02  0.8071824E-01
       -2   -1    0    0    0  501  0.00000000000E+00  0.00000000000E+00  0.10011537663E+04  0.10011537663E+04  0.25500000920E-02 0. -1.
        2   -1    0    0  501    0  0.00000000000E+00  0.00000000000E+00 -0.33865184133E+04  0.33865184133E+04  0.25500000920E-02 0.  1.
    10030    2    1    2    0    0  0.00000000000E+00  0.00000000000E+00 -0.23853646470E+04  0.43876721795E+04  0.36826217096E+04 0.  0.
        2    1    3    3  502    0 -0.40619500756E+03 -0.56946660508E+03 -0.32220527945E+04  0.32971064297E+04  0.25500000920E-02 0.  1.
       -2    1    3    3    0  502  0.40619500756E+03  0.56946660508E+03  0.83668814748E+03  0.10905657498E+04  0.25500000920E-02 0. -1.
</event>
<event>
 5   0  0.2632875E-08  0.3862176E+04  0.7818609E-02  0.8032942E-01
        1   -1    0    0  501    0  0.00000000000E+00  0.00000000000E+00  0.16589884001E+04  0.16589884001E+04  0.50400001928E-02 0.  1.
       -1   -1    0    0    0  501  0.00000000000E+00  0.00000000000E+00 -0.22478163239E+04  0.22478163239E+04  0.50400001928E-02 0. -1.
    10030    2    1    2    0    0  0.00000000000E+00  0.00000000000E+00 -0.58882792386E+03  0.39068047240E+04  0.38621761777E+04 0.  0.
        1    1    3    3  502    0  0.30233193509E+03  0.63115215530E+03 -0.21150290154E+04  0.22278028140E+04  0.50400001928E-02 0. -1.
       -1    1    3    3    0  502 -0.30233193509E+03 -0.63115215530E+03  0.15262010915E+04  0.16790019100E+04  0.50400001928E-02 0.  1.
</event>
<event>
 5   0  0.8342802E-08  0.3818327E+04  0.7818609E-02  0.8042233E-01
        2   -1    0    0  501    0  0.00000000000E+00  0.00000000000E+00  0.25870298766E+04  0.25870298766E+04  0.25500000920E-02 0.  1.
       -2   -1    0    0    0  501  0.00000000000E+00  0.00000000000E+00 -0.14089146833E+04  0.14089146833E+04  0.25500000920E-02 0. -1.
    10030    2    1    2    0    0  0.00000000000E+00  0.00000000000E+00  0.11781151933E+04  0.39959445599E+04  0.38183265336E+04 0.  0.
        4    1    3    3  502    0 -0.55900316811E+03 -0.84193718502E+03  0.22841441909E+04  0.24977307828E+04  0.12699999809E+01 0.  1.
       -4    1    3    3    0  502  0.55900316811E+03  0.84193718502E+03 -0.11060289976E+04  0.14982137771E+04  0.12699999809E+01 0. -1.
</event>
<event>
 5   0  0.2632875E-08  0.3891234E+04  0.7818609E-02  0.8026855E-01
        1   -1    0    0  501    0  0.00000000000E+00  0.00000000000E+00  0.18811885345E+04  0.18811885345E+04  0.50400001928E-02 0. -1.
       -1   -1    0    0    0  501  0.00000000000E+00  0.00000000000E+00 -0.20122518235E+04  0.20122518235E+04  0.50400001928E-02 0.  1.
    10030    2    1    2    0    0  0.00000000000E+00  0.00000000000E+00 -0.13106328900E+03  0.38934403580E+04  0.38912337678E+04 0.  0.
        1    1    3    3  502    0 -0.16207717374E+04 -0.62842619144E+03 -0.93987187087E+03  0.19761527361E+04  0.50400001928E-02 0.  1.
       -1    1    3    3    0  502  0.16207717374E+04  0.62842619144E+03  0.80880858187E+03  0.19172876219E+04  0.50400001928E-02 0. -1.
</event>
<event>
 5   0  0.8342802E-08  0.3923048E+04  0.7818609E-02  0.8020253E-01
       -2   -1    0    0    0  501  0.00000000000E+00  0.00000000000E+00  0.14141499525E+04  0.14141499525E+04  0.25500000920E-02 0. -1.
        2   -1    0    0  501    0  0.00000000000E+00  0.00000000000E+00 -0.27207696334E+04  0.27207696334E+04  0.25500000920E-02 0.  1.
    10030    2    1    2    0    0  0.00000000000E+00  0.00000000000E+00 -0.13066196809E+04  0.41349195860E+04  0.39230479212E+04 0.  0.
        4    1    3    3  502    0 -0.87218715083E+03 -0.12221363760E+04  0.67709860818E+03  0.16470555199E+04  0.12699999809E+01 0. -1.
       -4    1    3    3    0  502  0.87218715083E+03  0.12221363760E+04 -0.19837182891E+04  0.24878640660E+04  0.12699999809E+01 0.  1.
</event>
<event>
 5   0  0.8438211E-08  0.3903981E+04  0.7818609E-02  0.8024202E-01
        2   -1    0    0  501    0  0.00000000000E+00  0.00000000000E+00  0.21292237667E+04  0.21292237667E+04  0.25500000920E-02 0.  1.
       -2   -1    0    0    0  501  0.00000000000E+00  0.00000000000E+00 -0.17895098340E+04  0.17895098340E+04  0.25500000920E-02 0. -1.
    10030    2    1    2    0    0  0.00000000000E+00  0.00000000000E+00  0.33971393267E+03  0.39187336008E+04  0.39039809781E+04 0.  0.
        5    1    3    3  502    0  0.71408313664E+03 -0.93948039983E+03  0.17306303442E+04  0.20946698131E+04  0.46999998093E+01 0.  1.
       -5    1    3    3    0  502 -0.71408313664E+03  0.93948039983E+03 -0.13909164115E+04  0.18240637877E+04  0.46999998093E+01 0. -1.
</event>
<event>
 5   0  0.2632875E-08  0.3890716E+04  0.7818609E-02  0.8026963E-01
       -1   -1    0    0    0  501  0.00000000000E+00  0.00000000000E+00  0.15366935745E+04  0.15366935745E+04  0.50400001928E-02 0. -1.
        1   -1    0    0  501    0  0.00000000000E+00  0.00000000000E+00 -0.24627010740E+04  0.24627010741E+04  0.50400001928E-02 0.  1.
    10030    2    1    2    0    0  0.00000000000E+00  0.00000000000E+00 -0.92600749954E+03  0.39993946486E+04  0.38907155725E+04 0.  0.
        4    1    3    3  502    0 -0.13631305715E+04 -0.13499532238E+04 -0.79436928051E+03  0.20764206771E+04  0.12699999809E+01 0.  1.
       -4    1    3    3    0  502  0.13631305715E+04  0.13499532238E+04 -0.13163821903E+03  0.19229739715E+04  0.12699999809E+01 0. -1.
</event>
<event>
 5   0  0.8438211E-08  0.3893454E+04  0.7818609E-02  0.8026392E-01
        2   -1    0    0  501    0  0.00000000000E+00  0.00000000000E+00  0.18552216652E+04  0.18552216652E+04  0.25500000920E-02 0. -1.
       -2   -1    0    0    0  501  0.00000000000E+00  0.00000000000E+00 -0.20427451602E+04  0.20427451602E+04  0.25500000920E-02 0.  1.
    10030    2    1    2    0    0  0.00000000000E+00  0.00000000000E+00 -0.18752349501E+03  0.38979668254E+04  0.38934535198E+04 0.  0.
        5    1    3    3  502    0 -0.43070283140E+03  0.63365493188E+03  0.16979215258E+04  0.18627890646E+04  0.46999998093E+01 0. -1.
       -5    1    3    3    0  502  0.43070283140E+03 -0.63365493188E+03 -0.18854450208E+04  0.20351777608E+04  0.46999998093E+01 0.  1.
</event>
<event>
 5   0  0.2632875E-08  0.3923408E+04  0.7818609E-02  0.8020178E-01
        1   -1    0    0  501    0  0.00000000000E+00  0.00000000000E+00  0.12874038412E+04  0.12874038412E+04  0.50400001928E-02 0. -1.
       -1   -1    0    0    0  501  0.00000000000E+00  0.00000000000E+00 -0.29891808733E+04  0.29891808733E+04  0.50400001928E-02 0.  1.
    10030    2    1    2    0    0  0.00000000000E+00  0.00000000000E+00 -0.17017770321E+04  0.42765847144E+04  0.39234081807E+04 0.  0.
        2    1    3    3  502    0 -0.53985609654E+03 -0.15275367082E+04 -0.20565634652E+04  0.26180653709E+04  0.25500000920E-02 0. -1.
       -2    1    3    3    0  502  0.53985609654E+03  0.15275367082E+04  0.35478643312E+03  0.16585193435E+04  0.25500000920E-02 0.  1.
</event>
<event>
 5   0  0.8476262E-08  0.3902214E+04  0.7818609E-02  0.8024569E-01
       -2   -1    0    0    0  501  0.00000000000E+00  0.00000000000E+00  0.14550456861E+04  0.14550456861E+04  0.25500000920E-02 0. -1.
        2   -1    0    0  501    0  0.00000000000E+00  0.00000000000E+00 -0.26162884986E+04  0.26162884986E+04  0.25500000920E-02 0.  1.
    10030    2    1    2    0    0  0.00000000000E+00  0.00000000000E+00 -0.11612428125E+04  0.40713341847E+04  0.39022143936E+04 0.  0.
        2    1    3    3  502    0 -0.15890117302E+04 -0.29652716297E+03 -0.17206494660E+04  0.23608306212E+04  0.25500000920E-02 0.  1.
       -2    1    3    3    0  502  0.15890117302E+04  0.29652716297E+03  0.55940665345E+03  0.17105035636E+04  0.25500000920E-02 0. -1.
</event>
<event>
 5   0  0.2632875E-08  0.3901354E+04  0.7818609E-02  0.8024748E-01
        1   -1    0    0  501    0  0.00000000000E+00  0.00000000000E+00  0.16194528434E+04  0.16194528434E+04  0.50400001928E-02 0.  1.
       -1   -1    0    0    0  501  0.00000000000E+00  0.00000000000E+00 -0.23496457040E+04  0.23496457041E+04  0.50400001928E-02 0. -1.
    10030    2    1    2    0    0  0.00000000000E+00  0.00000000000E+00 -0.73019286064E+03  0.39690985475E+04  0.39013538247E+04 0.  0.
        5    1    3    3  502    0 -0.10214759176E+04  0.14153867720E+04  0.52087878037E+03  0.18215569051E+04  0.46999998093E+01 0.  1.
       -5    1    3    3    0  502  0.10214759176E+04 -0.14153867720E+04 -0.12510716410E+04  0.21475416424E+04  0.46999998093E+01 0. -1.
</event>
</LesHouchesEvents>
