<LesHouchesEvents version="3.0">
<header>
<!--
#*********************************************************************
#                                                                    *
#                        MadGraph5_aMC@NLO                           *
#                                                                    *
#                           Going Beyond                             *
#                                                                    *
#                   http://madgraph.hep.uiuc.edu                     *
#                   http://madgraph.phys.ucl.ac.be                   *
#                   http://amcatnlo.cern.ch                          *
#                                                                    *
#                     The MadGraph5_aMC@NLO team                     *
#                                                                    *
#....................................................................*
#                                                                    *
# This file contains all the information necessary to reproduce      *
# the events generated:                                              *
#                                                                    *
# 1. software version                                                *
# 2. proc_card          : code generation info including model       *
# 3. param_card         : model primary parameters in the LH format  *
# 4. run_card           : running parameters (collider and cuts)     *
# 5. pythia_card        : present only if pythia has been run        *
# 6. pgs_card           : present only if pgs has been run           *
# 7. delphes_cards      : present only if delphes has been run       *
#                                                                    *
#                                                                    *
#*********************************************************************
-->
<MGVersion>
#5.2.2.3
</MGVersion>
<MG5ProcCard>
#************************************************************
#*                     MadGraph5_aMC@NLO                    *
#*                                                          *
#*                *                       *                 *
#*                  *        * *        *                   *
#*                    * * * * 5 * * * *                     *
#*                  *        * *        *                   *
#*                *                       *                 *
#*                                                          *
#*                                                          *
#*         VERSION 2.2.3                 2015-02-10         *
#*                                                          *
#*    The MadGraph5_aMC@NLO Development Team - Find us at   *
#*    https://server06.fynu.ucl.ac.be/projects/madgraph     *
#*                                                          *
#************************************************************
#*                                                          *
#*               Command File for MadGraph5_aMC@NLO         *
#*                                                          *
#*     run as ./bin/mg5_aMC  filename                       *
#*                                                          *
#************************************************************
set group_subprocesses Auto
set ignore_six_quark_processes False
set loop_optimized_output True
set gauge unitary
set complex_mass_scheme False
import model sm
define p = g u c d s u~ c~ d~ s~
define j = g u c d s u~ c~ d~ s~
define l+ = e+ mu+
define l- = e- mu-
define vl = ve vm vt
define vl~ = ve~ vm~ vt~
import model Zprime_UFO
generate p p > zph, zph > j j
add process p p > zph, zph > b b~
output Dijet_signal
</MG5ProcCard>
<MGProcCard>
#*********************************************************************
#                        MadGraph/MadEvent                           *
#                   http://madgraph.hep.uiuc.edu                     *
#                                                                    *
#                          proc_card.dat                             *
#*********************************************************************
#                                                                    *
#            This Files is generated by MADGRAPH 5                   *
#                                                                    *
# WARNING: This Files is generated for MADEVENT (compatibility issue)*
#          This files is NOT a valid MG4 proc_card.dat               *
#          Running this in MG4 will NEVER reproduce the result of MG5*
#                                                                    *
#*********************************************************************
#*********************************************************************
# Process(es) requested : mg2 input                                  *
#*********************************************************************
# Begin PROCESS # This is TAG. Do not modify this line
p p > zph , zph > j j           #Process
# Be carefull the coupling are here in MG5 convention
          
end_coup           # End the couplings input

done               # this tells MG there are no more procs
# End PROCESS  # This is TAG. Do not modify this line
#*********************************************************************
# Model information                                                  *
#*********************************************************************
# Begin MODEL  # This is TAG. Do not modify this line
Zprime_UFO
# End   MODEL  # This is TAG. Do not modify this line
#*********************************************************************
# Start multiparticle definitions                                    *
#*********************************************************************
# Begin MULTIPARTICLES # This is TAG. Do not modify this line

# End  MULTIPARTICLES # This is TAG. Do not modify this line
</MGProcCard>
<MGRunCard>
#*********************************************************************
#                       MadGraph5_aMC@NLO                            *
#                                                                    *
#                     run_card.dat MadEvent                          *
#                                                                    *
#  This file is used to set the parameters of the run.               *
#                                                                    *
#  Some notation/conventions:                                        *
#                                                                    *
#   Lines starting with a '# ' are info or comments                  *
#                                                                    *
#   mind the format:   value    = variable     ! comment             *
#*********************************************************************
#
#*******************                                                 
# Running parameters
#*******************                                                 
#                                                                    
#*********************************************************************
# Tag name for the run (one word)                                    *
#*********************************************************************
  tag_1     = run_tag ! name of the run 
#*********************************************************************
# Run to generate the grid pack                                      *
#*********************************************************************
  .false.     = gridpack  !True = setting up the grid pack
#*********************************************************************
# Number of events and rnd seed                                      *
# Warning: Do not generate more than 1M events in a single run       *
# If you want to run Pythia, avoid more than 50k events in a run.    *
#*********************************************************************
  2000 = nevents ! Number of unweighted events requested 
 1893 = iseed   ! rnd seed (0=assigned automatically=default))
#*********************************************************************
# Collider type and energy                                           *
# lpp: 0=No PDF, 1=proton, -1=antiproton, 2=photon from proton,      *
#                                         3=photon from electron     *
#*********************************************************************
        1     = lpp1    ! beam 1 type 
        1     = lpp2    ! beam 2 type
     4000     = ebeam1  ! beam 1 total energy in GeV
     4000     = ebeam2  ! beam 2 total energy in GeV
#*********************************************************************
# Beam polarization from -100 (left-handed) to 100 (right-handed)    *
#*********************************************************************
        0     = polbeam1 ! beam polarization for beam 1
        0     = polbeam2 ! beam polarization for beam 2
#*********************************************************************
# PDF CHOICE: this automatically fixes also alpha_s and its evol.    *
#*********************************************************************
 'nn23lo1'    = pdlabel     ! PDF set                                     
 230000    = lhaid     ! if pdlabel=lhapdf, this is the lhapdf number
#*********************************************************************
# Renormalization and factorization scales                           *
#*********************************************************************
 F        = fixed_ren_scale  ! if .true. use fixed ren scale
 F        = fixed_fac_scale  ! if .true. use fixed fac scale
 91.1880  = scale            ! fixed ren scale
 91.1880  = dsqrt_q2fact1    ! fixed fact scale for pdf1
 91.1880  = dsqrt_q2fact2    ! fixed fact scale for pdf2
 1        = scalefact        ! scale factor for event-by-event scales
#*********************************************************************
# Matching - Warning! ickkw > 1 is still beta
#*********************************************************************
 0        = ickkw            ! 0 no matching, 1 MLM, 2 CKKW matching
 1        = highestmult      ! for ickkw=2, highest mult group
 1        = ktscheme         ! for ickkw=1, 1 Durham kT, 2 Pythia pTE
 1        = alpsfact         ! scale factor for QCD emission vx
 F        = chcluster        ! cluster only according to channel diag
 T        = pdfwgt           ! for ickkw=1, perform pdf reweighting
 5        = asrwgtflavor     ! highest quark flavor for a_s reweight
 T        = clusinfo         ! include clustering tag in output
 3.0      = lhe_version       ! Change the way clustering information pass to shower.        
#*********************************************************************
#**********************************************************
#
#**********************************************************
# Automatic ptj and mjj cuts if xqcut > 0
# (turn off for VBF and single top processes)
#**********************************************************
   T  = auto_ptj_mjj  ! Automatic setting of ptj and mjj
#**********************************************************
#                                                                    
#**********************************
# BW cutoff (M+/-bwcutoff*Gamma)
#**********************************
  15  = bwcutoff      ! (M+/-bwcutoff*Gamma)
#**********************************************************
# Apply pt/E/eta/dr/mij cuts on decay products or not
# (note that etmiss/ptll/ptheavy/ht/sorted cuts always apply)
#**********************************************************
   T  = cut_decays    ! Cut decay products 
#*************************************************************
# Number of helicities to sum per event (0 = all helicities)
# 0 gives more stable result, but longer run time (needed for
# long decay chains e.g.).
# Use >=2 if most helicities contribute, e.g. pure QCD.
#*************************************************************
   0  = nhel          ! Number of helicities used per event
#*******************                                                 
# Standard Cuts
#*******************                                                 
#                                                                    
#*********************************************************************
# Minimum and maximum pt's (for max, -1 means no cut)                *
#*********************************************************************
 20  = ptj       ! minimum pt for the jets 
  0  = ptb       ! minimum pt for the b 
 10  = pta       ! minimum pt for the photons 
 10  = ptl       ! minimum pt for the charged leptons 
  0  = misset    ! minimum missing Et (sum of neutrino's momenta)
  0  = ptheavy   ! minimum pt for one heavy final state
 1.0 = ptonium   ! minimum pt for the quarkonium states
 -1  = ptjmax    ! maximum pt for the jets
 -1  = ptbmax    ! maximum pt for the b
 -1  = ptamax    ! maximum pt for the photons
 -1  = ptlmax    ! maximum pt for the charged leptons
 -1  = missetmax ! maximum missing Et (sum of neutrino's momenta)
#*********************************************************************
# Minimum and maximum E's (in the center of mass frame)              *
#*********************************************************************
  0  = ej     ! minimum E for the jets 
  0  = eb     ! minimum E for the b 
  0  = ea     ! minimum E for the photons 
  0  = el     ! minimum E for the charged leptons 
 -1   = ejmax ! maximum E for the jets
 -1   = ebmax ! maximum E for the b
 -1   = eamax ! maximum E for the photons
 -1   = elmax ! maximum E for the charged leptons
#*********************************************************************
# Maximum and minimum absolute rapidity (for max, -1 means no cut)   *
#*********************************************************************
   5  = etaj    ! max rap for the jets 
  -1  = etab    ! max rap for the b
 2.5  = etaa    ! max rap for the photons 
 2.5  = etal    ! max rap for the charged leptons 
 0.6  = etaonium ! max rap for the quarkonium states
   0  = etajmin ! min rap for the jets
   0  = etabmin ! min rap for the b
   0  = etaamin ! min rap for the photons
   0  = etalmin ! main rap for the charged leptons
#*********************************************************************
# Minimum and maximum DeltaR distance                                *
#*********************************************************************
 0.4 = drjj    ! min distance between jets 
 0   = drbb    ! min distance between b's 
 0.4 = drll    ! min distance between leptons 
 0.4 = draa    ! min distance between gammas 
 0   = drbj    ! min distance between b and jet 
 0.4 = draj    ! min distance between gamma and jet 
 0.4 = drjl    ! min distance between jet and lepton 
 0   = drab    ! min distance between gamma and b 
 0   = drbl    ! min distance between b and lepton 
 0.4 = dral    ! min distance between gamma and lepton 
 -1  = drjjmax ! max distance between jets
 -1  = drbbmax ! max distance between b's
 -1  = drllmax ! max distance between leptons
 -1  = draamax ! max distance between gammas
 -1  = drbjmax ! max distance between b and jet
 -1  = drajmax ! max distance between gamma and jet
 -1  = drjlmax ! max distance between jet and lepton
 -1  = drabmax ! max distance between gamma and b
 -1  = drblmax ! max distance between b and lepton
 -1  = dralmax ! maxdistance between gamma and lepton
#*********************************************************************
# Minimum and maximum invariant mass for pairs                       *
# WARNING: for four lepton final state mmll cut require to have      *
#          different lepton masses for each flavor!                  *           
#*********************************************************************
 0   = mmjj    ! min invariant mass of a jet pair 
 0   = mmbb    ! min invariant mass of a b pair 
 0   = mmaa    ! min invariant mass of gamma gamma pair
 0   = mmll    ! min invariant mass of l+l- (same flavour) lepton pair
 -1  = mmjjmax ! max invariant mass of a jet pair
 -1  = mmbbmax ! max invariant mass of a b pair
 -1  = mmaamax ! max invariant mass of gamma gamma pair
 -1  = mmllmax ! max invariant mass of l+l- (same flavour) lepton pair
#*********************************************************************
# Minimum and maximum invariant mass for all letpons                 *
#*********************************************************************
 0   = mmnl    ! min invariant mass for all letpons (l+- and vl) 
 -1  = mmnlmax ! max invariant mass for all letpons (l+- and vl) 
#*********************************************************************
# Minimum and maximum pt for 4-momenta sum of leptons                *
#*********************************************************************
 0   = ptllmin  ! Minimum pt for 4-momenta sum of leptons(l and vl)
 -1  = ptllmax  ! Maximum pt for 4-momenta sum of leptons(l and vl)
#*********************************************************************
# Inclusive cuts                                                     *
#*********************************************************************
 0  = xptj ! minimum pt for at least one jet  
 0  = xptb ! minimum pt for at least one b 
 0  = xpta ! minimum pt for at least one photon 
 0  = xptl ! minimum pt for at least one charged lepton 
#*********************************************************************
# Control the pt's of the jets sorted by pt                          *
#*********************************************************************
 0   = ptj1min ! minimum pt for the leading jet in pt
 0   = ptj2min ! minimum pt for the second jet in pt
 0   = ptj3min ! minimum pt for the third jet in pt
 0   = ptj4min ! minimum pt for the fourth jet in pt
 -1  = ptj1max ! maximum pt for the leading jet in pt 
 -1  = ptj2max ! maximum pt for the second jet in pt
 -1  = ptj3max ! maximum pt for the third jet in pt
 -1  = ptj4max ! maximum pt for the fourth jet in pt
 0   = cutuse  ! reject event if fails any (0) / all (1) jet pt cuts
#*********************************************************************
# Control the pt's of leptons sorted by pt                           *
#*********************************************************************
 0   = ptl1min ! minimum pt for the leading lepton in pt
 0   = ptl2min ! minimum pt for the second lepton in pt
 0   = ptl3min ! minimum pt for the third lepton in pt
 0   = ptl4min ! minimum pt for the fourth lepton in pt
 -1  = ptl1max ! maximum pt for the leading lepton in pt 
 -1  = ptl2max ! maximum pt for the second lepton in pt
 -1  = ptl3max ! maximum pt for the third lepton in pt
 -1  = ptl4max ! maximum pt for the fourth lepton in pt
#*********************************************************************
# Control the Ht(k)=Sum of k leading jets                            *
#*********************************************************************
 0   = htjmin ! minimum jet HT=Sum(jet pt)
 -1  = htjmax ! maximum jet HT=Sum(jet pt)
 0   = ihtmin  !inclusive Ht for all partons (including b)
 -1  = ihtmax  !inclusive Ht for all partons (including b)
 0   = ht2min ! minimum Ht for the two leading jets
 0   = ht3min ! minimum Ht for the three leading jets
 0   = ht4min ! minimum Ht for the four leading jets
 -1  = ht2max ! maximum Ht for the two leading jets
 -1  = ht3max ! maximum Ht for the three leading jets
 -1  = ht4max ! maximum Ht for the four leading jets
#***********************************************************************
# Photon-isolation cuts, according to hep-ph/9801442                   *
# When ptgmin=0, all the other parameters are ignored                  *
# When ptgmin>0, pta and draj are not going to be used                 *
#***********************************************************************
   0 = ptgmin ! Min photon transverse momentum
 0.4 = R0gamma ! Radius of isolation code
 1.0 = xn ! n parameter of eq.(3.4) in hep-ph/9801442
 1.0 = epsgamma ! epsilon_gamma parameter of eq.(3.4) in hep-ph/9801442
 .true. = isoEM ! isolate photons from EM energy (photons and leptons)
#*********************************************************************
# WBF cuts                                                           *
#*********************************************************************
 0   = xetamin ! minimum rapidity for two jets in the WBF case  
 0   = deltaeta ! minimum rapidity for two jets in the WBF case 
#*********************************************************************
# KT DURHAM CUT                                                      *
#*********************************************************************
 -1    =  ktdurham        
 0.4  =  dparameter 
#*********************************************************************
# maximal pdg code for quark to be considered as a light jet         *
# (otherwise b cuts are applied)                                     *
#*********************************************************************
 4 = maxjetflavor    ! Maximum jet pdg code
#*********************************************************************
# Jet measure cuts                                                   *
#*********************************************************************
 0   = xqcut   ! minimum kt jet measure between partons
#*********************************************************************
#
#*********************************************************************
# Store info for systematics studies                                 *
# WARNING: If use_syst is T, matched Pythia output is                *
#          meaningful ONLY if plotted taking matchscale              *
#          reweighting into account!                                 *
#*********************************************************************
   F  = use_syst      ! Enable systematics studies
#
#**************************************
# Parameter of the systematics study
#  will be used by SysCalc (if installed)
#**************************************                                  
#
0.5 1 2 = sys_scalefact  # factorization/renormalization scale factor
0.5 1 2 = sys_alpsfact  # \alpha_s emission scale factors
30 50 = sys_matchscale # variation of merging scale
# PDF sets and number of members (0 or none for all members).
CT10nlo.LHgrid = sys_pdf # matching scales
# MSTW2008nlo68cl.LHgrid 1  = sys_pdf
</MGRunCard>
<slha>
######################################################################
## PARAM_CARD AUTOMATICALY GENERATED BY MG5 FOLLOWING UFO MODEL   ####
######################################################################
##                                                                  ##
##  Width set on Auto will be computed following the information    ##
##        present in the decay.py files of the model.               ##
##        See  arXiv:1402.1178 for more details.                    ##
##                                                                  ##
######################################################################

###################################
## INFORMATION FOR CKMBLOCK
###################################
Block ckmblock 
    1 2.277360e-01 # cabi 

###################################
## INFORMATION FOR FRBLOCK
###################################
Block frblock 
    1 1.000000e+00 # gz 

###################################
## INFORMATION FOR MASS
###################################
Block mass 
    1 5.040000e-03 # MD 
    2 2.550000e-03 # MU 
    3 1.010000e-01 # MS 
    4 1.270000e+00 # MC 
    5 4.700000e+00 # MB 
    6 1.720000e+02 # MT 
   11 5.110000e-04 # Me 
   13 1.056600e-01 # MM 
   15 1.777000e+00 # MTA 
   23 9.118760e+01 # MZ 
   25 1.200000e+02 # MH 
  10030 1.600000e+03 # MZph 
  10031 3.000000e+02 # MZpl 
## Dependent parameters, given by model restrictions.
## Those values should be edited following the 
## analytical expression. MG5 ignores those values 
## but they are important for interfacing the output of MG5
## to external program such as Pythia.
  12 0.000000 # ve : 0.0 
  14 0.000000 # vm : 0.0 
  16 0.000000 # vt : 0.0 
  21 0.000000 # g : 0.0 
  22 0.000000 # a : 0.0 
  24 79.824360 # w+ : cmath.sqrt(MZ__exp__2/2. + cmath.sqrt(MZ__exp__4/4. - (aEW*cmath.pi*MZ__exp__2)/(Gf*sqrt__2))) 

###################################
## INFORMATION FOR SMINPUTS
###################################
Block sminputs 
    1 1.279000e+02 # aEWM1 
    2 1.166370e-05 # Gf 
    3 1.184000e-01 # aS 

###################################
## INFORMATION FOR YUKAWA
###################################
Block yukawa 
    1 5.040000e-03 # ymdo 
    2 2.550000e-03 # ymup 
    3 1.010000e-01 # yms 
    4 1.270000e+00 # ymc 
    5 4.700000e+00 # ymb 
    6 1.720000e+02 # ymt 
   11 5.110000e-04 # yme 
   13 1.056600e-01 # ymm 
   15 1.777000e+00 # ymtau 

###################################
## INFORMATION FOR DECAY
###################################
DECAY   6 1.508336e+00 # WT 
DECAY  23 2.495200e+00 # WZ 
DECAY  24 2.085000e+00 # WW 
DECAY  25 5.753088e-03 # WH 
## Dependent parameters, given by model restrictions.
## Those values should be edited following the 
## analytical expression. MG5 ignores those values 
## but they are important for interfacing the output of MG5
## to external program such as Pythia.
DECAY  1 0.000000 # d : 0.0 
DECAY  2 0.000000 # u : 0.0 
DECAY  3 0.000000 # s : 0.0 
DECAY  4 0.000000 # c : 0.0 
DECAY  5 0.000000 # b : 0.0 
DECAY  11 0.000000 # e- : 0.0 
DECAY  12 0.000000 # ve : 0.0 
DECAY  13 0.000000 # mu- : 0.0 
DECAY  14 0.000000 # vm : 0.0 
DECAY  15 0.000000 # ta- : 0.0 
DECAY  16 0.000000 # vt : 0.0 
DECAY  21 0.000000 # g : 0.0 
DECAY  22 0.000000 # a : 0.0 
DECAY  10030 0.308725 # zph : (gz__exp__2*MZph*(5 + cmath.sqrt(1 - (4*MT__exp__2)/MZph__exp__2)))/(144.*cmath.pi) 
DECAY  10031 0.132629 # zpl : (5*gz__exp__2*MZpl)/(144.*cmath.pi) 
#===========================================================
# QUANTUM NUMBERS OF NEW STATE(S) (NON SM PDG CODE)
#===========================================================

Block QNUMBERS 10030  # zph 
        1 0  # 3 times electric charge
        2 3  # number of spin states (2S+1)
        3 1  # colour rep (1: singlet, 3: triplet, 8: octet)
        4 0  # Particle/Antiparticle distinction (0=own anti)
Block QNUMBERS 10031  # zpl 
        1 0  # 3 times electric charge
        2 3  # number of spin states (2S+1)
        3 1  # colour rep (1: singlet, 3: triplet, 8: octet)
        4 0  # Particle/Antiparticle distinction (0=own anti)
</slha>
## END BANNER##
<MGGenerationInfo>
#  Number of Events        :         3934
#  Integrated weight (pb)  :  0.15265E+00
#  Max wgt                 :  0.53812E-04
#  Average wgt             :  0.38803E-04
</MGGenerationInfo>
</header>
<init>
     2212     2212  0.40000000000E+04  0.40000000000E+04 0 0  247000  247000 2   1
  0.15282029613E+00  0.30796318045E-03  0.53811640000E-04   0
</init>
<event>
 5   0  0.5131239E-04  0.1629183E+04  0.7818609E-02  0.8802818E-01
       -2   -1    0    0    0  501  0.00000000000E+00  0.00000000000E+00  0.12174661508E+04  0.12174661508E+04  0.25500000920E-02 0.  1.
        2   -1    0    0  501    0  0.00000000000E+00  0.00000000000E+00 -0.54503289600E+03  0.54503289601E+03  0.25500000920E-02 0. -1.
    10030    2    1    2    0    0  0.00000000000E+00  0.00000000000E+00  0.67243325476E+03  0.17624990468E+04  0.16291827423E+04 0.  0.
        1    1    3    3  502    0  0.35796194431E+03 -0.52936689592E+03  0.88272082327E+03  0.10897532363E+04  0.50400001928E-02 0.  1.
       -1    1    3    3    0  502 -0.35796194431E+03  0.52936689592E+03 -0.21028756851E+03  0.67274581052E+03  0.50400001928E-02 0. -1.
</event>
<event>
 5   0  0.5131239E-04  0.1613368E+04  0.7818609E-02  0.8812377E-01
       -2   -1    0    0    0  501  0.00000000000E+00  0.00000000000E+00  0.37452718580E+03  0.37452718581E+03  0.25500000920E-02 0.  1.
        2   -1    0    0  501    0  0.00000000000E+00  0.00000000000E+00 -0.17374955347E+04  0.17374955347E+04  0.25500000920E-02 0. -1.
    10030    2    1    2    0    0  0.00000000000E+00  0.00000000000E+00 -0.13629683489E+04  0.21120227205E+04  0.16133682939E+04 0.  0.
        1    1    3    3  502    0 -0.63188783810E+03 -0.29822212923E+03 -0.12092233361E+04  0.13965814530E+04  0.50400001928E-02 0. -1.
       -1    1    3    3    0  502  0.63188783810E+03  0.29822212923E+03 -0.15374501284E+03  0.71544126754E+03  0.50400001928E-02 0.  1.
</event>
<event>
 5   0  0.5264308E-04  0.1595004E+04  0.7818609E-02  0.8823623E-01
        2   -1    0    0  501    0  0.00000000000E+00  0.00000000000E+00  0.71257982737E+03  0.71257982737E+03  0.25500000920E-02 0. -1.
       -2   -1    0    0    0  501  0.00000000000E+00  0.00000000000E+00 -0.89254505265E+03  0.89254505265E+03  0.25500000920E-02 0.  1.
    10030    2    1    2    0    0  0.00000000000E+00  0.00000000000E+00 -0.17996522528E+03  0.16051248800E+04  0.15950042000E+04 0.  0.
        3    1    3    3  502    0  0.37188649853E+03 -0.38833564748E+03 -0.68270667007E+03  0.86901815312E+03  0.10100000352E+00 0.  1.
       -3    1    3    3    0  502 -0.37188649853E+03  0.38833564748E+03  0.50274144478E+03  0.73610672691E+03  0.10100000352E+00 0. -1.
</event>
<event>
 5   0  0.5131239E-04  0.1587548E+04  0.7818609E-02  0.8828234E-01
       -2   -1    0    0    0  501  0.00000000000E+00  0.00000000000E+00  0.12329310913E+04  0.12329310913E+04  0.25500000920E-02 0.  1.
        2   -1    0    0  501    0  0.00000000000E+00  0.00000000000E+00 -0.51104034258E+03  0.51104034259E+03  0.25500000920E-02 0. -1.
    10030    2    1    2    0    0  0.00000000000E+00  0.00000000000E+00  0.72189074867E+03  0.17439714338E+04  0.15875484588E+04 0.  0.
        1    1    3    3  502    0 -0.74084013405E+03 -0.18257259107E+03  0.60137234219E+03  0.97150684465E+03  0.50400001928E-02 0.  1.
       -1    1    3    3    0  502  0.74084013405E+03  0.18257259107E+03  0.12051840648E+03  0.77246458919E+03  0.50400001928E-02 0. -1.
</event>
<event>
 5   0  0.5264308E-04  0.1386299E+04  0.7818609E-02  0.8963796E-01
       -2   -1    0    0    0  501  0.00000000000E+00  0.00000000000E+00  0.21805162941E+03  0.21805162943E+03  0.25500000920E-02 0.  1.
        2   -1    0    0  501    0  0.00000000000E+00  0.00000000000E+00 -0.22034053607E+04  0.22034053607E+04  0.25500000920E-02 0. -1.
    10030    2    1    2    0    0  0.00000000000E+00  0.00000000000E+00 -0.19853537313E+04  0.24214569901E+04  0.13862988555E+04 0.  0.
        3    1    3    3  502    0 -0.28136713249E+03  0.36317847122E+03 -0.86087389626E+02  0.46741535496E+03  0.10100000352E+00 0.  1.
       -3    1    3    3    0  502  0.28136713249E+03 -0.36317847122E+03 -0.18992663416E+04  0.19540416351E+04  0.10100000352E+00 0. -1.
</event>
<event>
 5   0  0.2689675E-04  0.1555972E+04  0.7818609E-02  0.8848062E-01
       -1   -1    0    0    0  501  0.00000000000E+00  0.00000000000E+00  0.40434778070E+03  0.40434778073E+03  0.50400001928E-02 0.  1.
        1   -1    0    0  501    0  0.00000000000E+00  0.00000000000E+00 -0.14968847673E+04  0.14968847673E+04  0.50400001928E-02 0. -1.
    10030    2    1    2    0    0  0.00000000000E+00  0.00000000000E+00 -0.10925369866E+04  0.19012325481E+04  0.15559717654E+04 0.  0.
        1    1    3    3  502    0  0.72628757329E+01  0.67749050935E+03 -0.10134986012E+04  0.12191085080E+04  0.50400001928E-02 0. -1.
       -1    1    3    3    0  502 -0.72628757329E+01 -0.67749050935E+03 -0.79038385422E+02  0.68212404005E+03  0.50400001928E-02 0.  1.
</event>
<event>
 5   0  0.2796994E-04  0.1590942E+04  0.7818609E-02  0.8826132E-01
        1   -1    0    0  501    0  0.00000000000E+00  0.00000000000E+00  0.20463522736E+04  0.20463522737E+04  0.50400001928E-02 0.  1.
       -1   -1    0    0    0  501  0.00000000000E+00  0.00000000000E+00 -0.30922045919E+03  0.30922045924E+03  0.50400001928E-02 0. -1.
    10030    2    1    2    0    0  0.00000000000E+00  0.00000000000E+00  0.17371318145E+04  0.23555727329E+04  0.15909418466E+04 0.  0.
        3    1    3    3  502    0 -0.33549767682E+02 -0.25149328142E+03  0.19848354244E+04  0.20009862892E+04  0.10100000352E+00 0.  1.
       -3    1    3    3    0  502  0.33549767682E+02  0.25149328142E+03 -0.24770360990E+03  0.35458644371E+03  0.10100000352E+00 0. -1.
</event>
<event>
 5   0  0.5131239E-04  0.1638163E+04  0.7818609E-02  0.8797440E-01
        2   -1    0    0  501    0  0.00000000000E+00  0.00000000000E+00  0.19173849638E+04  0.19173849638E+04  0.25500000920E-02 0. -1.
       -2   -1    0    0    0  501  0.00000000000E+00  0.00000000000E+00 -0.34990060485E+03  0.34990060486E+03  0.25500000920E-02 0.  1.
    10030    2    1    2    0    0  0.00000000000E+00  0.00000000000E+00  0.15674843589E+04  0.22672855686E+04  0.16381625787E+04 0.  0.
        1    1    3    3  502    0  0.26554935224E+03 -0.76057762626E+03  0.57892561455E+03  0.99204317005E+03  0.50400001928E-02 0.  1.
       -1    1    3    3    0  502 -0.26554935224E+03  0.76057762626E+03  0.98855874435E+03  0.12752423986E+04  0.50400001928E-02 0. -1.
</event>
<event>
 5   0  0.2649086E-04  0.1590938E+04  0.7818609E-02  0.8826135E-01
        1   -1    0    0  501    0  0.00000000000E+00  0.00000000000E+00  0.53913736570E+03  0.53913736573E+03  0.50400001928E-02 0. -1.
       -1   -1    0    0    0  501  0.00000000000E+00  0.00000000000E+00 -0.11736729142E+04  0.11736729142E+04  0.50400001928E-02 0.  1.
    10030    2    1    2    0    0  0.00000000000E+00  0.00000000000E+00 -0.63453554853E+03  0.17128102800E+04  0.15909379915E+04 0.  0.
        2    1    3    3  502    0 -0.22616954888E+03 -0.53073792134E+03 -0.90688471911E+03  0.10748373364E+04  0.25500000920E-02 0.  1.
       -2    1    3    3    0  502  0.22616954888E+03  0.53073792134E+03  0.27234917058E+03  0.63797294356E+03  0.25500000920E-02 0. -1.
</event>
<event>
 5   0  0.5131239E-04  0.1588326E+04  0.7818609E-02  0.8827752E-01
       -2   -1    0    0    0  501  0.00000000000E+00  0.00000000000E+00  0.67484821506E+03  0.67484821506E+03  0.25500000920E-02 0.  1.
        2   -1    0    0  501    0  0.00000000000E+00  0.00000000000E+00 -0.93457243995E+03  0.93457243995E+03  0.25500000920E-02 0. -1.
    10030    2    1    2    0    0  0.00000000000E+00  0.00000000000E+00 -0.25972422489E+03  0.16094206550E+04  0.15883255875E+04 0.  0.
        1    1    3    3  502    0 -0.74581590222E+03 -0.20860653999E+03 -0.30808586684E+03  0.83347162513E+03  0.50400001928E-02 0. -1.
       -1    1    3    3    0  502  0.74581590222E+03  0.20860653999E+03  0.48361641956E+02  0.77594902988E+03  0.50400001928E-02 0.  1.
</event>
<event>
 5   0  0.1908125E-04  0.1589846E+04  0.7818609E-02  0.8826810E-01
       -4   -1    0    0    0  501  0.00000000000E+00  0.00000000000E+00  0.53696133023E+03  0.53696283210E+03  0.12699999809E+01 0. -1.
        4   -1    0    0  501    0  0.00000000000E+00  0.00000000000E+00 -0.11768087458E+04  0.11768094310E+04  0.12699999809E+01 0.  1.
    10030    2    1    2    0    0  0.00000000000E+00  0.00000000000E+00 -0.63984741553E+03  0.17137722631E+04  0.15898461104E+04 0.  0.
        5    1    3    3  502    0  0.19748118414E+03 -0.25408371692E+03 -0.11034397093E+04  0.11494166500E+04  0.46999998093E+01 0.  1.
       -5    1    3    3    0  502 -0.19748118414E+03  0.25408371692E+03  0.46359229373E+03  0.56435561316E+03  0.46999998093E+01 0. -1.
</event>
<event>
 5   0  0.5381164E-04  0.1583168E+04  0.7818609E-02  0.8830956E-01
        2   -1    0    0  501    0  0.00000000000E+00  0.00000000000E+00  0.11669214584E+04  0.11669214584E+04  0.25500000920E-02 0. -1.
       -2   -1    0    0    0  501  0.00000000000E+00  0.00000000000E+00 -0.53697305705E+03  0.53697305705E+03  0.25500000920E-02 0.  1.
    10030    2    1    2    0    0  0.00000000000E+00  0.00000000000E+00  0.62994840130E+03  0.17038945154E+04  0.15831681943E+04 0.  0.
        5    1    3    3  502    0  0.51744311143E+03  0.58733553966E+03  0.44173909895E+03  0.89881362431E+03  0.46999998093E+01 0. -1.
       -5    1    3    3    0  502 -0.51744311143E+03 -0.58733553966E+03  0.18820930236E+03  0.80508089109E+03  0.46999998093E+01 0.  1.
</event>
<event>
 5   0  0.2730707E-04  0.1599160E+04  0.7818609E-02  0.8821064E-01
       -1   -1    0    0    0  501  0.00000000000E+00  0.00000000000E+00  0.68225022701E+03  0.68225022703E+03  0.50400001928E-02 0.  1.
        1   -1    0    0  501    0  0.00000000000E+00  0.00000000000E+00 -0.93708765335E+03  0.93708765336E+03  0.50400001928E-02 0. -1.
    10030    2    1    2    0    0  0.00000000000E+00  0.00000000000E+00 -0.25483742634E+03  0.16193378804E+04  0.15991601099E+04 0.  0.
        5    1    3    3  502    0  0.32640815241E+03  0.32481988494E+02  0.61096559126E+03  0.69346838806E+03  0.46999998093E+01 0.  1.
       -5    1    3    3    0  502 -0.32640815241E+03 -0.32481988494E+02 -0.86580301760E+03  0.92586949233E+03  0.46999998093E+01 0. -1.
</event>
<event>
 5   0  0.2689675E-04  0.1604646E+04  0.7818609E-02  0.8817699E-01
        1   -1    0    0  501    0  0.00000000000E+00  0.00000000000E+00  0.85289516871E+03  0.85289516872E+03  0.50400001928E-02 0.  1.
       -1   -1    0    0    0  501  0.00000000000E+00  0.00000000000E+00 -0.75474926006E+03  0.75474926008E+03  0.50400001928E-02 0. -1.
    10030    2    1    2    0    0  0.00000000000E+00  0.00000000000E+00  0.98145908645E+02  0.16076444288E+04  0.16046457522E+04 0.  0.
        1    1    3    3  502    0 -0.27675007172E+03  0.30386846915E+03 -0.64126866503E+03  0.76167719509E+03  0.50400001928E-02 0. -1.
       -1    1    3    3    0  502  0.27675007172E+03 -0.30386846915E+03  0.73941457367E+03  0.84596723372E+03  0.50400001928E-02 0.  1.
</event>
<event>
 5   0  0.2796994E-04  0.1607974E+04  0.7818609E-02  0.8815664E-01
        1   -1    0    0  501    0  0.00000000000E+00  0.00000000000E+00  0.65896883760E+03  0.65896883762E+03  0.50400001928E-02 0.  1.
       -1   -1    0    0    0  501  0.00000000000E+00  0.00000000000E+00 -0.98091917136E+03  0.98091917137E+03  0.50400001928E-02 0. -1.
    10030    2    1    2    0    0  0.00000000000E+00  0.00000000000E+00 -0.32195033376E+03  0.16398880090E+04  0.16079740870E+04 0.  0.
        3    1    3    3  502    0  0.62923933199E+03 -0.22068273338E+03 -0.61905822563E+03  0.90987697116E+03  0.10100000352E+00 0. -1.
       -3    1    3    3    0  502 -0.62923933199E+03  0.22068273338E+03  0.29710789187E+03  0.73001103783E+03  0.10100000352E+00 0.  1.
</event>
<event>
 5   0  0.2796994E-04  0.1612375E+04  0.7818609E-02  0.8812982E-01
       -1   -1    0    0    0  501  0.00000000000E+00  0.00000000000E+00  0.34770189074E+03  0.34770189078E+03  0.50400001928E-02 0. -1.
        1   -1    0    0  501    0  0.00000000000E+00  0.00000000000E+00 -0.18692392269E+04  0.18692392269E+04  0.50400001928E-02 0.  1.
    10030    2    1    2    0    0  0.00000000000E+00  0.00000000000E+00 -0.15215373361E+04  0.22169411177E+04  0.16123746630E+04 0.  0.
        3    1    3    3  502    0 -0.53048945961E+03 -0.50221501422E+03 -0.29187300759E+03  0.78665675490E+03  0.10100000352E+00 0. -1.
       -3    1    3    3    0  502  0.53048945961E+03  0.50221501422E+03 -0.12296643285E+04  0.14302843628E+04  0.10100000352E+00 0.  1.
</event>
<event>
 5   0  0.5131239E-04  0.1367341E+04  0.7818609E-02  0.8977804E-01
        2   -1    0    0  501    0  0.00000000000E+00  0.00000000000E+00  0.15939200209E+04  0.15939200209E+04  0.25500000920E-02 0.  1.
       -2   -1    0    0    0  501  0.00000000000E+00  0.00000000000E+00 -0.29324273562E+03  0.29324273563E+03  0.25500000920E-02 0. -1.
    10030    2    1    2    0    0  0.00000000000E+00  0.00000000000E+00  0.13006772852E+04  0.18871627565E+04  0.13673411678E+04 0.  0.
        1    1    3    3  502    0  0.36280456641E+03  0.15193486557E+03 -0.12143922150E+03  0.41165378818E+03  0.50400001928E-02 0. -1.
       -1    1    3    3    0  502 -0.36280456641E+03 -0.15193486557E+03  0.14221165067E+04  0.14755089683E+04  0.50400001928E-02 0.  1.
</event>
<event>
 5   0  0.2763895E-04  0.1607223E+04  0.7818609E-02  0.8816123E-01
        1   -1    0    0  501    0  0.00000000000E+00  0.00000000000E+00  0.94604851499E+03  0.94604851500E+03  0.50400001928E-02 0.  1.
       -1   -1    0    0    0  501  0.00000000000E+00  0.00000000000E+00 -0.68261946657E+03  0.68261946659E+03  0.50400001928E-02 0. -1.
    10030    2    1    2    0    0  0.00000000000E+00  0.00000000000E+00  0.26342904842E+03  0.16286679816E+04  0.16072226139E+04 0.  0.
        4    1    3    3  502    0  0.26335862238E+03 -0.10262995014E+02 -0.63757672303E+03  0.68990490917E+03  0.12699999809E+01 0. -1.
       -4    1    3    3    0  502 -0.26335862238E+03  0.10262995014E+02  0.90100577145E+03  0.93876307242E+03  0.12699999809E+01 0.  1.
</event>
<event>
 5   0  0.2689675E-04  0.1614876E+04  0.7818609E-02  0.8811461E-01
        1   -1    0    0  501    0  0.00000000000E+00  0.00000000000E+00  0.39675242475E+03  0.39675242478E+03  0.50400001928E-02 0. -1.
       -1   -1    0    0    0  501  0.00000000000E+00  0.00000000000E+00 -0.16432325307E+04  0.16432325307E+04  0.50400001928E-02 0.  1.
    10030    2    1    2    0    0  0.00000000000E+00  0.00000000000E+00 -0.12464801060E+04  0.20399849555E+04  0.16148764548E+04 0.  0.
        1    1    3    3  502    0 -0.11771637346E+03 -0.44081452203E+03  0.21829547640E+03  0.50579393280E+03  0.50400001928E-02 0. -1.
       -1    1    3    3    0  502  0.11771637346E+03  0.44081452203E+03 -0.14647755824E+04  0.15341910227E+04  0.50400001928E-02 0.  1.
</event>
<event>
 5   0  0.5315984E-04  0.1600399E+04  0.7818609E-02  0.8820303E-01
       -2   -1    0    0    0  501  0.00000000000E+00  0.00000000000E+00  0.62433613906E+03  0.62433613906E+03  0.25500000920E-02 0.  1.
        2   -1    0    0  501    0  0.00000000000E+00  0.00000000000E+00 -0.10255999974E+04  0.10255999974E+04  0.25500000920E-02 0. -1.
    10030    2    1    2    0    0  0.00000000000E+00  0.00000000000E+00 -0.40126385838E+03  0.16499361365E+04  0.16003988786E+04 0.  0.
        2    1    3    3  502    0 -0.51036749499E+03  0.60678692557E+03 -0.89337741745E+02  0.79790136301E+03  0.25500000920E-02 0.  1.
       -2    1    3    3    0  502  0.51036749499E+03 -0.60678692557E+03 -0.31192611664E+03  0.85203477349E+03  0.25500000920E-02 0. -1.
</event>
<event>
 5   0  0.2796994E-04  0.1606680E+04  0.7818609E-02  0.8816455E-01
       -1   -1    0    0    0  501  0.00000000000E+00  0.00000000000E+00  0.33763520909E+03  0.33763520913E+03  0.50400001928E-02 0. -1.
        1   -1    0    0  501    0  0.00000000000E+00  0.00000000000E+00 -0.19113972534E+04  0.19113972534E+04  0.50400001928E-02 0.  1.
    10030    2    1    2    0    0  0.00000000000E+00  0.00000000000E+00 -0.15737620443E+04  0.22490324625E+04  0.16066798204E+04 0.  0.
        3    1    3    3  502    0  0.16051742053E+03 -0.72024468689E+02 -0.18840981193E+04  0.18922946652E+04  0.10100000352E+00 0.  1.
       -3    1    3    3    0  502 -0.16051742053E+03  0.72024468689E+02  0.31033607504E+03  0.35673779734E+03  0.10100000352E+00 0. -1.
</event>
<event>
 5   0  0.5264308E-04  0.1596512E+04  0.7818609E-02  0.8822694E-01
        2   -1    0    0  501    0  0.00000000000E+00  0.00000000000E+00  0.60609749596E+03  0.60609749597E+03  0.25500000920E-02 0. -1.
       -2   -1    0    0    0  501  0.00000000000E+00  0.00000000000E+00 -0.10513362861E+04  0.10513362861E+04  0.25500000920E-02 0.  1.
    10030    2    1    2    0    0  0.00000000000E+00  0.00000000000E+00 -0.44523879018E+03  0.16574337821E+04  0.15965115602E+04 0.  0.
        3    1    3    3  502    0 -0.30415612006E+03  0.22224747233E+02 -0.98847401859E+03  0.10344495060E+04  0.10100000352E+00 0.  1.
       -3    1    3    3    0  502  0.30415612006E+03 -0.22224747233E+02  0.54323522841E+03  0.62298427616E+03  0.10100000352E+00 0. -1.
</event>
<event>
 5   0  0.2689675E-04  0.1593631E+04  0.7818609E-02  0.8824470E-01
       -1   -1    0    0    0  501  0.00000000000E+00  0.00000000000E+00  0.69068790361E+03  0.69068790363E+03  0.50400001928E-02 0.  1.
        1   -1    0    0  501    0  0.00000000000E+00  0.00000000000E+00 -0.91925038841E+03  0.91925038842E+03  0.50400001928E-02 0. -1.
    10030    2    1    2    0    0  0.00000000000E+00  0.00000000000E+00 -0.22856248480E+03  0.16099382921E+04  0.15936312292E+04 0.  0.
        1    1    3    3  502    0  0.41237709433E+03  0.68175050357E+03 -0.10544493316E+03  0.80371465770E+03  0.50400001928E-02 0. -1.
       -1    1    3    3    0  502 -0.41237709433E+03 -0.68175050357E+03 -0.12311755164E+03  0.80622363436E+03  0.50400001928E-02 0.  1.
</event>
<event>
 5   0  0.5315984E-04  0.1604606E+04  0.7818609E-02  0.8817723E-01
       -2   -1    0    0    0  501  0.00000000000E+00  0.00000000000E+00  0.11249715373E+04  0.11249715373E+04  0.25500000920E-02 0.  1.
        2   -1    0    0  501    0  0.00000000000E+00  0.00000000000E+00 -0.57218373103E+03  0.57218373104E+03  0.25500000920E-02 0. -1.
    10030    2    1    2    0    0  0.00000000000E+00  0.00000000000E+00  0.55278780632E+03  0.16971552684E+04  0.16046063836E+04 0.  0.
        2    1    3    3  502    0 -0.56231975577E+02  0.55999581728E+03 -0.32836529344E+03  0.65159889226E+03  0.25500000920E-02 0. -1.
       -2    1    3    3    0  502  0.56231975577E+02 -0.55999581728E+03  0.88115309975E+03  0.10455563761E+04  0.25500000920E-02 0.  1.
</event>
<event>
 5   0  0.2649086E-04  0.1641069E+04  0.7818609E-02  0.8795708E-01
        1   -1    0    0  501    0  0.00000000000E+00  0.00000000000E+00  0.88859593736E+03  0.88859593738E+03  0.50400001928E-02 0. -1.
       -1   -1    0    0    0  501  0.00000000000E+00  0.00000000000E+00 -0.75768578282E+03  0.75768578284E+03  0.50400001928E-02 0.  1.
    10030    2    1    2    0    0  0.00000000000E+00  0.00000000000E+00  0.13091015454E+03  0.16462817202E+04  0.16410685646E+04 0.  0.
        2    1    3    3  502    0  0.65136895345E+03  0.15729134828E+03 -0.40960435103E+03  0.78536475994E+03  0.25500000920E-02 0.  1.
       -2    1    3    3    0  502 -0.65136895345E+03 -0.15729134828E+03  0.54051450557E+03  0.86091696028E+03  0.25500000920E-02 0. -1.
</event>
<event>
 5   0  0.5264308E-04  0.1611126E+04  0.7818609E-02  0.8813742E-01
       -2   -1    0    0    0  501  0.00000000000E+00  0.00000000000E+00  0.19593536436E+04  0.19593536436E+04  0.25500000920E-02 0.  1.
        2   -1    0    0  501    0  0.00000000000E+00  0.00000000000E+00 -0.33119691223E+03  0.33119691224E+03  0.25500000920E-02 0. -1.
    10030    2    1    2    0    0  0.00000000000E+00  0.00000000000E+00  0.16281567313E+04  0.22905505558E+04  0.16111261611E+04 0.  0.
        3    1    3    3  502    0 -0.21358686626E+03 -0.77245371727E+03  0.92982119765E+03  0.12275469704E+04  0.10100000352E+00 0.  1.
       -3    1    3    3    0  502  0.21358686626E+03  0.77245371727E+03  0.69833553369E+03  0.10630035854E+04  0.10100000352E+00 0. -1.
</event>
<event>
 5   0  0.5381164E-04  0.1611225E+04  0.7818609E-02  0.8813682E-01
        2   -1    0    0  501    0  0.00000000000E+00  0.00000000000E+00  0.23188667642E+04  0.23188667642E+04  0.25500000920E-02 0. -1.
       -2   -1    0    0    0  501  0.00000000000E+00  0.00000000000E+00 -0.27988299083E+03  0.27988299085E+03  0.25500000920E-02 0.  1.
    10030    2    1    2    0    0  0.00000000000E+00  0.00000000000E+00  0.20389837734E+04  0.25987497550E+04  0.16112248326E+04 0.  0.
        5    1    3    3  502    0  0.36510338928E+03 -0.28146041438E+03  0.20850691120E+04  0.21354287020E+04  0.46999998093E+01 0. -1.
       -5    1    3    3    0  502 -0.36510338928E+03  0.28146041438E+03 -0.46085338628E+02  0.46332105300E+03  0.46999998093E+01 0.  1.
</event>
<event>
 5   0  0.2649086E-04  0.1601053E+04  0.7818609E-02  0.8819901E-01
        1   -1    0    0  501    0  0.00000000000E+00  0.00000000000E+00  0.13343446046E+04  0.13343446046E+04  0.50400001928E-02 0.  1.
       -1   -1    0    0    0  501  0.00000000000E+00  0.00000000000E+00 -0.48026804519E+03  0.48026804521E+03  0.50400001928E-02 0. -1.
    10030    2    1    2    0    0  0.00000000000E+00  0.00000000000E+00  0.85407655942E+03  0.18146126498E+04  0.16010534968E+04 0.  0.
        2    1    3    3  502    0  0.70831406013E+03  0.19876557341E+03  0.69299881866E+02  0.73893100800E+03  0.25500000920E-02 0. -1.
       -2    1    3    3    0  502 -0.70831406013E+03 -0.19876557341E+03  0.78477667755E+03  0.10756816418E+04  0.25500000920E-02 0.  1.
</event>
<event>
 5   0  0.5264308E-04  0.1620853E+04  0.7818609E-02  0.8807839E-01
       -2   -1    0    0    0  501  0.00000000000E+00  0.00000000000E+00  0.71647958739E+03  0.71647958740E+03  0.25500000920E-02 0. -1.
        2   -1    0    0  501    0  0.00000000000E+00  0.00000000000E+00 -0.91669199959E+03  0.91669199960E+03  0.25500000920E-02 0.  1.
    10030    2    1    2    0    0  0.00000000000E+00  0.00000000000E+00 -0.20021241220E+03  0.16331715870E+04  0.16208529923E+04 0.  0.
        3    1    3    3  502    0 -0.54537420650E+03 -0.41496774194E+03  0.33580147851E+03  0.76314736135E+03  0.10100000352E+00 0. -1.
       -3    1    3    3    0  502  0.54537420650E+03  0.41496774194E+03 -0.53601389071E+03  0.87002422564E+03  0.10100000352E+00 0.  1.
</event>
<event>
 5   0  0.5131239E-04  0.1576280E+04  0.7818609E-02  0.8835254E-01
        2   -1    0    0  501    0  0.00000000000E+00  0.00000000000E+00  0.14330132638E+04  0.14330132638E+04  0.25500000920E-02 0. -1.
       -2   -1    0    0    0  501  0.00000000000E+00  0.00000000000E+00 -0.43346723755E+03  0.43346723755E+03  0.25500000920E-02 0.  1.
    10030    2    1    2    0    0  0.00000000000E+00  0.00000000000E+00  0.99954602630E+03  0.18664805014E+04  0.15762795448E+04 0.  0.
        1    1    3    3  502    0 -0.66188911940E+03 -0.42601053114E+03  0.45267417702E+03  0.90801767031E+03  0.50400001928E-02 0.  1.
       -1    1    3    3    0  502  0.66188911940E+03  0.42601053114E+03  0.54687184928E+03  0.95846283109E+03  0.50400001928E-02 0. -1.
</event>
<event>
 5   0  0.2730707E-04  0.1600285E+04  0.7818609E-02  0.8820373E-01
        1   -1    0    0  501    0  0.00000000000E+00  0.00000000000E+00  0.77013816445E+03  0.77013816447E+03  0.50400001928E-02 0.  1.
       -1   -1    0    0    0  501  0.00000000000E+00  0.00000000000E+00 -0.83131557306E+03  0.83131557307E+03  0.50400001928E-02 0. -1.
    10030    2    1    2    0    0  0.00000000000E+00  0.00000000000E+00 -0.61177408605E+02  0.16014537375E+04  0.16002847866E+04 0.  0.
        5    1    3    3  502    0 -0.56433688757E+03 -0.36852151571E+03 -0.46208985914E+03  0.81721071832E+03  0.46999998093E+01 0. -1.
       -5    1    3    3    0  502  0.56433688757E+03  0.36852151571E+03  0.40091245054E+03  0.78424301922E+03  0.46999998093E+01 0.  1.
</event>
<event>
 5   0  0.5264308E-04  0.1528079E+04  0.7818609E-02  0.8865993E-01
        2   -1    0    0  501    0  0.00000000000E+00  0.00000000000E+00  0.76304052642E+03  0.76304052642E+03  0.25500000920E-02 0. -1.
       -2   -1    0    0    0  501  0.00000000000E+00  0.00000000000E+00 -0.76503937040E+03  0.76503937040E+03  0.25500000920E-02 0.  1.
    10030    2    1    2    0    0  0.00000000000E+00  0.00000000000E+00 -0.19988439810E+01  0.15280798968E+04  0.15280785895E+04 0.  0.
        3    1    3    3  502    0  0.64342098129E+03  0.37588932949E+03  0.16773923763E+03  0.76381922549E+03  0.10100000352E+00 0. -1.
       -3    1    3    3    0  502 -0.64342098129E+03 -0.37588932949E+03 -0.16973808161E+03  0.76426067133E+03  0.10100000352E+00 0.  1.
</event>
<event>
 5   0  0.2763895E-04  0.1591505E+04  0.7818609E-02  0.8825784E-01
        1   -1    0    0  501    0  0.00000000000E+00  0.00000000000E+00  0.11587717566E+04  0.11587717567E+04  0.50400001928E-02 0.  1.
       -1   -1    0    0    0  501  0.00000000000E+00  0.00000000000E+00 -0.54645979122E+03  0.54645979125E+03  0.50400001928E-02 0. -1.
    10030    2    1    2    0    0  0.00000000000E+00  0.00000000000E+00  0.61231196542E+03  0.17052315479E+04  0.15915051646E+04 0.  0.
        4    1    3    3  502    0  0.73877315004E+02 -0.55452052315E+03  0.91251972821E+03  0.10703479507E+04  0.12699999809E+01 0.  1.
       -4    1    3    3    0  502 -0.73877315004E+02  0.55452052315E+03 -0.30020776279E+03  0.63488359721E+03  0.12699999809E+01 0. -1.
</event>
<event>
 5   0  0.2689675E-04  0.1596568E+04  0.7818609E-02  0.8822659E-01
       -1   -1    0    0    0  501  0.00000000000E+00  0.00000000000E+00  0.50025536131E+03  0.50025536134E+03  0.50400001928E-02 0.  1.
        1   -1    0    0  501    0  0.00000000000E+00  0.00000000000E+00 -0.12738643498E+04  0.12738643498E+04  0.50400001928E-02 0. -1.
    10030    2    1    2    0    0  0.00000000000E+00  0.00000000000E+00 -0.77360898848E+03  0.17741197111E+04  0.15965681578E+04 0.  0.
        1    1    3    3  502    0  0.14185181249E+03 -0.27641031708E+03 -0.12039263804E+04  0.12433677371E+04  0.50400001928E-02 0. -1.
       -1    1    3    3    0  502 -0.14185181249E+03  0.27641031708E+03  0.43031739197E+03  0.53075197404E+03  0.50400001928E-02 0.  1.
</event>
<event>
 5   0  0.2796994E-04  0.1483301E+04  0.7818609E-02  0.8895634E-01
        1   -1    0    0  501    0  0.00000000000E+00  0.00000000000E+00  0.17163205735E+04  0.17163205735E+04  0.50400001928E-02 0. -1.
       -1   -1    0    0    0  501  0.00000000000E+00  0.00000000000E+00 -0.32047949139E+03  0.32047949143E+03  0.50400001928E-02 0.  1.
    10030    2    1    2    0    0  0.00000000000E+00  0.00000000000E+00  0.13958410821E+04  0.20368000649E+04  0.14833011083E+04 0.  0.
        3    1    3    3  502    0 -0.69146239590E+03 -0.25859579355E+03  0.79553528617E+03  0.10852964715E+04  0.10100000352E+00 0.  1.
       -3    1    3    3    0  502  0.69146239590E+03  0.25859579355E+03  0.60030579591E+03  0.95150359337E+03  0.10100000352E+00 0. -1.
</event>
<event>
 5   0  0.5083831E-04  0.1572358E+04  0.7818609E-02  0.8837712E-01
       -2   -1    0    0    0  501  0.00000000000E+00  0.00000000000E+00  0.55815109563E+03  0.55815109563E+03  0.25500000920E-02 0.  1.
        2   -1    0    0  501    0  0.00000000000E+00  0.00000000000E+00 -0.11073654823E+04  0.11073654823E+04  0.25500000920E-02 0. -1.
    10030    2    1    2    0    0  0.00000000000E+00  0.00000000000E+00 -0.54921438671E+03  0.16655165780E+04  0.15723577929E+04 0.  0.
        4    1    3    3  502    0 -0.13889074805E+03  0.47734096346E+03  0.37051787592E+03  0.62002430966E+03  0.12699999809E+01 0.  1.
       -4    1    3    3    0  502  0.13889074805E+03 -0.47734096346E+03 -0.91973226263E+03  0.10454922683E+04  0.12699999809E+01 0. -1.
</event>
<event>
 5   0  0.5083831E-04  0.1583569E+04  0.7818609E-02  0.8830706E-01
        2   -1    0    0  501    0  0.00000000000E+00  0.00000000000E+00  0.10821357526E+04  0.10821357526E+04  0.25500000920E-02 0. -1.
       -2   -1    0    0    0  501  0.00000000000E+00  0.00000000000E+00 -0.57933828774E+03  0.57933828774E+03  0.25500000920E-02 0.  1.
    10030    2    1    2    0    0  0.00000000000E+00  0.00000000000E+00  0.50279746488E+03  0.16614740404E+04  0.15835689742E+04 0.  0.
        4    1    3    3  502    0  0.36621967695E+02  0.41494814352E+03 -0.45507552661E+03  0.61694284836E+03  0.12699999809E+01 0.  1.
       -4    1    3    3    0  502 -0.36621967695E+02 -0.41494814352E+03  0.95787299149E+03  0.10445311920E+04  0.12699999809E+01 0. -1.
</event>
<event>
 5   0  0.2649086E-04  0.1558110E+04  0.7818609E-02  0.8846704E-01
       -1   -1    0    0    0  501  0.00000000000E+00  0.00000000000E+00  0.84199880087E+03  0.84199880088E+03  0.50400001928E-02 0. -1.
        1   -1    0    0  501    0  0.00000000000E+00  0.00000000000E+00 -0.72081615313E+03  0.72081615314E+03  0.50400001928E-02 0.  1.
    10030    2    1    2    0    0  0.00000000000E+00  0.00000000000E+00  0.12118264774E+03  0.15628149540E+04  0.15581095425E+04 0.  0.
        2    1    3    3  502    0  0.14056746219E+03  0.21222038181E+02 -0.70769625942E+03  0.72183348629E+03  0.25500000920E-02 0.  1.
       -2    1    3    3    0  502 -0.14056746219E+03 -0.21222038181E+02  0.82887890716E+03  0.84098146774E+03  0.25500000920E-02 0. -1.
</event>
<event>
 5   0  0.2730707E-04  0.1563509E+04  0.7818609E-02  0.8843285E-01
       -1   -1    0    0    0  501  0.00000000000E+00  0.00000000000E+00  0.27650780638E+03  0.27650780642E+03  0.50400001928E-02 0.  1.
        1   -1    0    0  501    0  0.00000000000E+00  0.00000000000E+00 -0.22102098402E+04  0.22102098402E+04  0.50400001928E-02 0. -1.
    10030    2    1    2    0    0  0.00000000000E+00  0.00000000000E+00 -0.19337020338E+04  0.24867176466E+04  0.15635092256E+04 0.  0.
        5    1    3    3  502    0 -0.17637274195E+03  0.55320043317E+03 -0.17993535332E+04  0.18907229546E+04  0.46999998093E+01 0. -1.
       -5    1    3    3    0  502  0.17637274195E+03 -0.55320043317E+03 -0.13434850059E+03  0.59599469206E+03  0.46999998093E+01 0.  1.
</event>
<event>
 5   0  0.2730707E-04  0.1598314E+04  0.7818609E-02  0.8821584E-01
       -1   -1    0    0    0  501  0.00000000000E+00  0.00000000000E+00  0.83279536457E+03  0.83279536458E+03  0.50400001928E-02 0.  1.
        1   -1    0    0  501    0  0.00000000000E+00  0.00000000000E+00 -0.76687778831E+03  0.76687778833E+03  0.50400001928E-02 0. -1.
    10030    2    1    2    0    0  0.00000000000E+00  0.00000000000E+00  0.65917576254E+02  0.15996731529E+04  0.15983144463E+04 0.  0.
        5    1    3    3  502    0 -0.70792980945E+03  0.36250185875E+03 -0.44940304240E+02  0.79662659612E+03  0.46999998093E+01 0. -1.
       -5    1    3    3    0  502  0.70792980945E+03 -0.36250185875E+03  0.11085788049E+03  0.80304655679E+03  0.46999998093E+01 0.  1.
</event>
<event>
 5   0  0.5315984E-04  0.1576859E+04  0.7818609E-02  0.8834892E-01
       -2   -1    0    0    0  501  0.00000000000E+00  0.00000000000E+00  0.82231499222E+03  0.82231499223E+03  0.25500000920E-02 0.  1.
        2   -1    0    0  501    0  0.00000000000E+00  0.00000000000E+00 -0.75594053743E+03  0.75594053743E+03  0.25500000920E-02 0. -1.
    10030    2    1    2    0    0  0.00000000000E+00  0.00000000000E+00  0.66374454794E+02  0.15782555297E+04  0.15768592038E+04 0.  0.
        2    1    3    3  502    0 -0.12928806894E+03  0.16874720898E+03 -0.72671509145E+03  0.75716963057E+03  0.25500000920E-02 0. -1.
       -2    1    3    3    0  502  0.12928806894E+03 -0.16874720898E+03  0.79308954625E+03  0.82108589909E+03  0.25500000920E-02 0.  1.
</event>
<event>
 5   0  0.5264308E-04  0.1597250E+04  0.7818609E-02  0.8822239E-01
       -2   -1    0    0    0  501  0.00000000000E+00  0.00000000000E+00  0.26966957241E+03  0.26966957242E+03  0.25500000920E-02 0.  1.
        2   -1    0    0  501    0  0.00000000000E+00  0.00000000000E+00 -0.23651223558E+04  0.23651223558E+04  0.25500000920E-02 0. -1.
    10030    2    1    2    0    0  0.00000000000E+00  0.00000000000E+00 -0.20954527834E+04  0.26347919282E+04  0.15972495539E+04 0.  0.
        3    1    3    3  502    0  0.57088990211E+03 -0.17941339751E+03 -0.19201301189E+04  0.20112195632E+04  0.10100000352E+00 0. -1.
       -3    1    3    3    0  502 -0.57088990211E+03  0.17941339751E+03 -0.17532266444E+03  0.62357236501E+03  0.10100000352E+00 0.  1.
</event>
<event>
 5   0  0.5131239E-04  0.1614379E+04  0.7818609E-02  0.8811763E-01
        2   -1    0    0  501    0  0.00000000000E+00  0.00000000000E+00  0.17018297911E+04  0.17018297911E+04  0.25500000920E-02 0. -1.
       -2   -1    0    0    0  501  0.00000000000E+00  0.00000000000E+00 -0.38285528638E+03  0.38285528638E+03  0.25500000920E-02 0.  1.
    10030    2    1    2    0    0  0.00000000000E+00  0.00000000000E+00  0.13189745047E+04  0.20846850775E+04  0.16143785579E+04 0.  0.
        1    1    3    3  502    0 -0.29720519212E+02 -0.58740754826E+03 -0.54398175417E+02  0.59066919551E+03  0.50400001928E-02 0.  1.
       -1    1    3    3    0  502  0.29720519212E+02  0.58740754826E+03  0.13733726801E+04  0.14940158820E+04  0.50400001928E-02 0. -1.
</event>
<event>
 5   0  0.5315984E-04  0.1597079E+04  0.7818609E-02  0.8822345E-01
       -2   -1    0    0    0  501  0.00000000000E+00  0.00000000000E+00  0.93613820483E+03  0.93613820484E+03  0.25500000920E-02 0. -1.
        2   -1    0    0  501    0  0.00000000000E+00  0.00000000000E+00 -0.68116565012E+03  0.68116565013E+03  0.25500000920E-02 0.  1.
    10030    2    1    2    0    0  0.00000000000E+00  0.00000000000E+00  0.25497255471E+03  0.16173038550E+04  0.15970788195E+04 0.  0.
        2    1    3    3  502    0  0.35154802223E+03 -0.47166397406E+02  0.85198652437E+03  0.92287145296E+03  0.25500000920E-02 0. -1.
       -2    1    3    3    0  502 -0.35154802223E+03  0.47166397406E+02 -0.59701396965E+03  0.69443240200E+03  0.25500000920E-02 0.  1.
</event>
<event>
 5   0  0.5264308E-04  0.1572562E+04  0.7818609E-02  0.8837584E-01
       -2   -1    0    0    0  501  0.00000000000E+00  0.00000000000E+00  0.67451949979E+03  0.67451949980E+03  0.25500000920E-02 0. -1.
        2   -1    0    0  501    0  0.00000000000E+00  0.00000000000E+00 -0.91656032675E+03  0.91656032676E+03  0.25500000920E-02 0.  1.
    10030    2    1    2    0    0  0.00000000000E+00  0.00000000000E+00 -0.24204082696E+03  0.15910798266E+04  0.15725620028E+04 0.  0.
        3    1    3    3  502    0  0.10869465922E+03 -0.17953612042E+03  0.64565586281E+03  0.67891034081E+03  0.10100000352E+00 0. -1.
       -3    1    3    3    0  502 -0.10869465922E+03  0.17953612042E+03 -0.88769668977E+03  0.91216948574E+03  0.10100000352E+00 0.  1.
</event>
<event>
 5   0  0.2796994E-04  0.1586038E+04  0.7818609E-02  0.8829172E-01
       -1   -1    0    0    0  501  0.00000000000E+00  0.00000000000E+00  0.55579545606E+03  0.55579545608E+03  0.50400001928E-02 0.  1.
        1   -1    0    0  501    0  0.00000000000E+00  0.00000000000E+00 -0.11314936155E+04  0.11314936155E+04  0.50400001928E-02 0. -1.
    10030    2    1    2    0    0  0.00000000000E+00  0.00000000000E+00 -0.57569815946E+03  0.16872890716E+04  0.15860378433E+04 0.  0.
        3    1    3    3  502    0 -0.21191398450E+03  0.25341093749E+02 -0.11003667989E+04  0.11208732356E+04  0.10100000352E+00 0. -1.
       -3    1    3    3    0  502  0.21191398450E+03 -0.25341093749E+02  0.52466863947E+03  0.56641583603E+03  0.10100000352E+00 0.  1.
</event>
<event>
 5   0  0.5381164E-04  0.1595884E+04  0.7818609E-02  0.8823080E-01
       -2   -1    0    0    0  501  0.00000000000E+00  0.00000000000E+00  0.55976527148E+03  0.55976527149E+03  0.25500000920E-02 0.  1.
        2   -1    0    0  501    0  0.00000000000E+00  0.00000000000E+00 -0.11374619300E+04  0.11374619300E+04  0.25500000920E-02 0. -1.
    10030    2    1    2    0    0  0.00000000000E+00  0.00000000000E+00 -0.57769665854E+03  0.16972272015E+04  0.15958843142E+04 0.  0.
        5    1    3    3  502    0 -0.13193145580E+03 -0.32515914534E+03 -0.10509837572E+04  0.11080267716E+04  0.46999998093E+01 0. -1.
       -5    1    3    3    0  502  0.13193145580E+03  0.32515914534E+03  0.47328709864E+03  0.58920042987E+03  0.46999998093E+01 0.  1.
</event>
<event>
 5   0  0.2730707E-04  0.1641897E+04  0.7818609E-02  0.8795215E-01
       -1   -1    0    0    0  501  0.00000000000E+00  0.00000000000E+00  0.79063951954E+03  0.79063951955E+03  0.50400001928E-02 0.  1.
        1   -1    0    0  501    0  0.00000000000E+00  0.00000000000E+00 -0.85241890625E+03  0.85241890627E+03  0.50400001928E-02 0. -1.
    10030    2    1    2    0    0  0.00000000000E+00  0.00000000000E+00 -0.61779386714E+02  0.16430584258E+04  0.16418965552E+04 0.  0.
        5    1    3    3  502    0  0.55712552729E+02  0.32393477723E+03  0.72190346583E+03  0.79322401149E+03  0.46999998093E+01 0.  1.
       -5    1    3    3    0  502 -0.55712552729E+02 -0.32393477723E+03 -0.78368285254E+03  0.84983441434E+03  0.46999998093E+01 0. -1.
</event>
<event>
 5   0  0.2796994E-04  0.1608912E+04  0.7818609E-02  0.8815092E-01
        1   -1    0    0  501    0  0.00000000000E+00  0.00000000000E+00  0.16873775972E+04  0.16873775972E+04  0.50400001928E-02 0.  1.
       -1   -1    0    0    0  501  0.00000000000E+00  0.00000000000E+00 -0.38352364156E+03  0.38352364160E+03  0.50400001928E-02 0. -1.
    10030    2    1    2    0    0  0.00000000000E+00  0.00000000000E+00  0.13038539557E+04  0.20709012388E+04  0.16089116829E+04 0.  0.
        3    1    3    3  502    0  0.52940298648E+03 -0.27563068743E+03  0.13461612577E+04  0.14725453949E+04  0.10100000352E+00 0. -1.
       -3    1    3    3    0  502 -0.52940298648E+03  0.27563068743E+03 -0.42307302094E+02  0.59835584393E+03  0.10100000352E+00 0.  1.
</event>
<event>
 5   0  0.5264308E-04  0.1612947E+04  0.7818609E-02  0.8812634E-01
       -2   -1    0    0    0  501  0.00000000000E+00  0.00000000000E+00  0.10033451990E+04  0.10033451990E+04  0.25500000920E-02 0.  1.
        2   -1    0    0  501    0  0.00000000000E+00  0.00000000000E+00 -0.64823069267E+03  0.64823069268E+03  0.25500000920E-02 0. -1.
    10030    2    1    2    0    0  0.00000000000E+00  0.00000000000E+00  0.35511450632E+03  0.16515758917E+04  0.16129465625E+04 0.  0.
        3    1    3    3  502    0  0.52415898617E+03 -0.51487793638E+03 -0.16290744879E+03  0.75258273912E+03  0.10100000352E+00 0. -1.
       -3    1    3    3    0  502 -0.52415898617E+03  0.51487793638E+03  0.51802195511E+03  0.89899315255E+03  0.10100000352E+00 0.  1.
</event>
<event>
 5   0  0.2689675E-04  0.1396862E+04  0.7818609E-02  0.8956093E-01
        1   -1    0    0  501    0  0.00000000000E+00  0.00000000000E+00  0.12273232736E+04  0.12273232737E+04  0.50400001928E-02 0.  1.
       -1   -1    0    0    0  501  0.00000000000E+00  0.00000000000E+00 -0.39745489404E+03  0.39745489407E+03  0.50400001928E-02 0. -1.
    10030    2    1    2    0    0  0.00000000000E+00  0.00000000000E+00  0.82986837960E+03  0.16247781677E+04  0.13968616849E+04 0.  0.
        1    1    3    3  502    0  0.15476680008E+03 -0.12744336613E+03 -0.36326554401E+03  0.41491737668E+03  0.50400001928E-02 0. -1.
       -1    1    3    3    0  502 -0.15476680008E+03  0.12744336613E+03  0.11931339236E+04  0.12098607910E+04  0.50400001928E-02 0.  1.
</event>
<event>
 5   0  0.2796994E-04  0.1597850E+04  0.7818609E-02  0.8821870E-01
        1   -1    0    0  501    0  0.00000000000E+00  0.00000000000E+00  0.12457849660E+04  0.12457849660E+04  0.50400001928E-02 0. -1.
       -1   -1    0    0    0  501  0.00000000000E+00  0.00000000000E+00 -0.51235233983E+03  0.51235233986E+03  0.50400001928E-02 0.  1.
    10030    2    1    2    0    0  0.00000000000E+00  0.00000000000E+00  0.73343262621E+03  0.17581373059E+04  0.15978496078E+04 0.  0.
        3    1    3    3  502    0  0.61514426286E+03 -0.44790819905E+03  0.63456239746E+03  0.99080455459E+03  0.10100000352E+00 0.  1.
       -3    1    3    3    0  502 -0.61514426286E+03  0.44790819905E+03  0.98870228742E+02  0.76733275132E+03  0.10100000352E+00 0. -1.
</event>
<event>
 5   0  0.2649086E-04  0.1600492E+04  0.7818609E-02  0.8820246E-01
       -1   -1    0    0    0  501  0.00000000000E+00  0.00000000000E+00  0.70330749973E+03  0.70330749975E+03  0.50400001928E-02 0.  1.
        1   -1    0    0  501    0  0.00000000000E+00  0.00000000000E+00 -0.91054619426E+03  0.91054619428E+03  0.50400001928E-02 0. -1.
    10030    2    1    2    0    0  0.00000000000E+00  0.00000000000E+00 -0.20723869453E+03  0.16138536940E+04  0.16004923834E+04 0.  0.
        2    1    3    3  502    0  0.29217335578E+03 -0.31324331400E+03  0.57797284773E+03  0.71940201300E+03  0.25500000920E-02 0.  1.
       -2    1    3    3    0  502 -0.29217335578E+03  0.31324331400E+03 -0.78521154226E+03  0.89445168103E+03  0.25500000920E-02 0. -1.
</event>
<event>
 5   0  0.2730707E-04  0.1625032E+04  0.7818609E-02  0.8805316E-01
        1   -1    0    0  501    0  0.00000000000E+00  0.00000000000E+00  0.77359820434E+03  0.77359820435E+03  0.50400001928E-02 0.  1.
       -1   -1    0    0    0  501  0.00000000000E+00  0.00000000000E+00 -0.85339207257E+03  0.85339207258E+03  0.50400001928E-02 0. -1.
    10030    2    1    2    0    0  0.00000000000E+00  0.00000000000E+00 -0.79793868229E+02  0.16269902769E+04  0.16250323996E+04 0.  0.
        5    1    3    3  502    0 -0.16206526011E+03  0.58209081751E+03 -0.58375081975E+03  0.84016782724E+03  0.46999998093E+01 0. -1.
       -5    1    3    3    0  502  0.16206526011E+03 -0.58209081751E+03  0.50395695152E+03  0.78682244970E+03  0.46999998093E+01 0.  1.
</event>
<event>
 5   0  0.5083831E-04  0.1558186E+04  0.7818609E-02  0.8846656E-01
        2   -1    0    0  501    0  0.00000000000E+00  0.00000000000E+00  0.15142226470E+04  0.15142226470E+04  0.25500000920E-02 0.  1.
       -2   -1    0    0    0  501  0.00000000000E+00  0.00000000000E+00 -0.40085620298E+03  0.40085620299E+03  0.25500000920E-02 0. -1.
    10030    2    1    2    0    0  0.00000000000E+00  0.00000000000E+00  0.11133664440E+04  0.19150788499E+04  0.15581855355E+04 0.  0.
        4    1    3    3  502    0 -0.69927906290E+03 -0.34067609957E+03  0.61071247340E+03  0.98895032772E+03  0.12699999809E+01 0. -1.
       -4    1    3    3    0  502  0.69927906290E+03  0.34067609957E+03  0.50265397058E+03  0.92612852222E+03  0.12699999809E+01 0.  1.
</event>
<event>
 5   0  0.5131239E-04  0.1693148E+04  0.7818609E-02  0.8765282E-01
        2   -1    0    0  501    0  0.00000000000E+00  0.00000000000E+00  0.88705982254E+03  0.88705982254E+03  0.25500000920E-02 0.  1.
       -2   -1    0    0    0  501  0.00000000000E+00  0.00000000000E+00 -0.80793577341E+03  0.80793577341E+03  0.25500000920E-02 0. -1.
    10030    2    1    2    0    0  0.00000000000E+00  0.00000000000E+00  0.79124049130E+02  0.16949955959E+04  0.16931477948E+04 0.  0.
        1    1    3    3  502    0  0.89714656123E+02  0.72350470339E+03  0.47035663574E+03  0.86760771098E+03  0.50400001928E-02 0.  1.
       -1    1    3    3    0  502 -0.89714656123E+02 -0.72350470339E+03 -0.39123258661E+03  0.82738788497E+03  0.50400001928E-02 0. -1.
</event>
<event>
 5   0  0.2763895E-04  0.1643988E+04  0.7818609E-02  0.8793971E-01
       -1   -1    0    0    0  501  0.00000000000E+00  0.00000000000E+00  0.87255330507E+03  0.87255330508E+03  0.50400001928E-02 0. -1.
        1   -1    0    0  501    0  0.00000000000E+00  0.00000000000E+00 -0.77436424808E+03  0.77436424809E+03  0.50400001928E-02 0.  1.
    10030    2    1    2    0    0  0.00000000000E+00  0.00000000000E+00  0.98189056993E+02  0.16469175532E+04  0.16439879367E+04 0.  0.
        4    1    3    3  502    0  0.32657258399E+03 -0.47005722958E+03 -0.54193056015E+03  0.78822192092E+03  0.12699999809E+01 0.  1.
       -4    1    3    3    0  502 -0.32657258399E+03  0.47005722958E+03  0.64011961715E+03  0.85869563225E+03  0.12699999809E+01 0. -1.
</event>
<event>
 5   0  0.5315984E-04  0.1612863E+04  0.7818609E-02  0.8812685E-01
       -2   -1    0    0    0  501  0.00000000000E+00  0.00000000000E+00  0.71307728903E+03  0.71307728904E+03  0.25500000920E-02 0. -1.
        2   -1    0    0  501    0  0.00000000000E+00  0.00000000000E+00 -0.91200741414E+03  0.91200741415E+03  0.25500000920E-02 0.  1.
    10030    2    1    2    0    0  0.00000000000E+00  0.00000000000E+00 -0.19893012511E+03  0.16250847032E+04  0.16128630127E+04 0.  0.
        2    1    3    3  502    0 -0.36068797205E+03  0.71199136188E+03 -0.21568320032E+03  0.82676886461E+03  0.25500000920E-02 0.  1.
       -2    1    3    3    0  502  0.36068797205E+03 -0.71199136188E+03  0.16753075209E+02  0.79831583857E+03  0.25500000920E-02 0. -1.
</event>
<event>
 5   0  0.2730707E-04  0.1600457E+04  0.7818609E-02  0.8820267E-01
        1   -1    0    0  501    0  0.00000000000E+00  0.00000000000E+00  0.13362760924E+04  0.13362760924E+04  0.50400001928E-02 0.  1.
       -1   -1    0    0    0  501  0.00000000000E+00  0.00000000000E+00 -0.47921685949E+03  0.47921685951E+03  0.50400001928E-02 0. -1.
    10030    2    1    2    0    0  0.00000000000E+00  0.00000000000E+00  0.85705923287E+03  0.18154929519E+04  0.16004574751E+04 0.  0.
        5    1    3    3  502    0  0.37907136040E+03  0.14090403965E+03 -0.35474892285E+03  0.53797577355E+03  0.46999998093E+01 0. -1.
       -5    1    3    3    0  502 -0.37907136040E+03 -0.14090403965E+03  0.12118081557E+04  0.12775171783E+04  0.46999998093E+01 0.  1.
</event>
<event>
 5   0  0.5315984E-04  0.1586616E+04  0.7818609E-02  0.8828813E-01
        2   -1    0    0  501    0  0.00000000000E+00  0.00000000000E+00  0.15099353249E+04  0.15099353249E+04  0.25500000920E-02 0. -1.
       -2   -1    0    0    0  501  0.00000000000E+00  0.00000000000E+00 -0.41679764848E+03  0.41679764849E+03  0.25500000920E-02 0.  1.
    10030    2    1    2    0    0  0.00000000000E+00  0.00000000000E+00  0.10931376764E+04  0.19267329734E+04  0.15866158865E+04 0.  0.
        2    1    3    3  502    0 -0.15804580546E+03  0.25420460525E+03 -0.34558889722E+03  0.45719814506E+03  0.25500000920E-02 0.  1.
       -2    1    3    3    0  502  0.15804580546E+03 -0.25420460525E+03  0.14387265737E+04  0.14695348283E+04  0.25500000920E-02 0. -1.
</event>
<event>
 5   0  0.2763895E-04  0.1598294E+04  0.7818609E-02  0.8821597E-01
       -1   -1    0    0    0  501  0.00000000000E+00  0.00000000000E+00  0.87676426798E+03  0.87676426800E+03  0.50400001928E-02 0.  1.
        1   -1    0    0  501    0  0.00000000000E+00  0.00000000000E+00 -0.72840068956E+03  0.72840068958E+03  0.50400001928E-02 0. -1.
    10030    2    1    2    0    0  0.00000000000E+00  0.00000000000E+00  0.14836357842E+03  0.16051649576E+04  0.15982937119E+04 0.  0.
        4    1    3    3  502    0  0.35232665991E+03  0.38113628104E+03  0.68444135385E+03  0.85898807894E+03  0.12699999809E+01 0.  1.
       -4    1    3    3    0  502 -0.35232665991E+03 -0.38113628104E+03 -0.53607777543E+03  0.74617687864E+03  0.12699999809E+01 0. -1.
</event>
<event>
 5   0  0.2763895E-04  0.1614422E+04  0.7818609E-02  0.8811737E-01
        1   -1    0    0  501    0  0.00000000000E+00  0.00000000000E+00  0.14606651268E+04  0.14606651268E+04  0.50400001928E-02 0.  1.
       -1   -1    0    0    0  501  0.00000000000E+00  0.00000000000E+00 -0.44609099064E+03  0.44609099067E+03  0.50400001928E-02 0. -1.
    10030    2    1    2    0    0  0.00000000000E+00  0.00000000000E+00  0.10145741361E+04  0.19067561175E+04  0.16144219441E+04 0.  0.
        4    1    3    3  502    0  0.67950516575E+03  0.39764962826E+03  0.29688481720E+03  0.84142421211E+03  0.12699999809E+01 0. -1.
       -4    1    3    3    0  502 -0.67950516575E+03 -0.39764962826E+03  0.71768931893E+03  0.10653319053E+04  0.12699999809E+01 0.  1.
</event>
<event>
 5   0  0.2649086E-04  0.1605272E+04  0.7818609E-02  0.8817315E-01
       -1   -1    0    0    0  501  0.00000000000E+00  0.00000000000E+00  0.37729860528E+03  0.37729860531E+03  0.50400001928E-02 0. -1.
        1   -1    0    0  501    0  0.00000000000E+00  0.00000000000E+00 -0.17074670381E+04  0.17074670381E+04  0.50400001928E-02 0.  1.
    10030    2    1    2    0    0  0.00000000000E+00  0.00000000000E+00 -0.13301684328E+04  0.20847656434E+04  0.16052724779E+04 0.  0.
        2    1    3    3  502    0 -0.67234031793E+03 -0.30482266320E+03 -0.10742600688E+04  0.13034542779E+04  0.25500000920E-02 0.  1.
       -2    1    3    3    0  502  0.67234031793E+03  0.30482266320E+03 -0.25590836401E+03  0.78131136552E+03  0.25500000920E-02 0. -1.
</event>
<event>
 5   0  0.5083831E-04  0.1601134E+04  0.7818609E-02  0.8819851E-01
       -2   -1    0    0    0  501  0.00000000000E+00  0.00000000000E+00  0.49387093966E+03  0.49387093966E+03  0.25500000920E-02 0. -1.
        2   -1    0    0  501    0  0.00000000000E+00  0.00000000000E+00 -0.12977233514E+04  0.12977233514E+04  0.25500000920E-02 0.  1.
    10030    2    1    2    0    0  0.00000000000E+00  0.00000000000E+00 -0.80385241174E+03  0.17915942911E+04  0.16011344116E+04 0.  0.
        4    1    3    3  502    0 -0.74539586981E+03 -0.32584768883E+02 -0.77180133121E+02  0.75009009841E+03  0.12699999809E+01 0.  1.
       -4    1    3    3    0  502  0.74539586981E+03  0.32584768883E+02 -0.72667227862E+03  0.10415041927E+04  0.12699999809E+01 0. -1.
</event>
<event>
 5   0  0.1908125E-04  0.1570116E+04  0.7818609E-02  0.8839120E-01
       -3   -1    0    0    0  501  0.00000000000E+00  0.00000000000E+00  0.81370261702E+03  0.81370262328E+03  0.10100000352E+00 0.  1.
        3   -1    0    0  501    0  0.00000000000E+00  0.00000000000E+00 -0.75742195491E+03  0.75742196164E+03  0.10100000352E+00 0. -1.
    10030    2    1    2    0    0  0.00000000000E+00  0.00000000000E+00  0.56280662106E+02  0.15711245849E+04  0.15701162213E+04 0.  0.
        4    1    3    3  502    0 -0.43730937529E+03 -0.72699555331E+01 -0.62421568762E+03  0.76219366275E+03  0.12699999809E+01 0. -1.
       -4    1    3    3    0  502  0.43730937529E+03  0.72699555331E+01  0.68049634972E+03  0.80893092218E+03  0.12699999809E+01 0.  1.
</event>
<event>
 5   0  0.5381164E-04  0.1611869E+04  0.7818609E-02  0.8813290E-01
        2   -1    0    0  501    0  0.00000000000E+00  0.00000000000E+00  0.15568042001E+04  0.15568042001E+04  0.25500000920E-02 0. -1.
       -2   -1    0    0    0  501  0.00000000000E+00  0.00000000000E+00 -0.41722029010E+03  0.41722029011E+03  0.25500000920E-02 0.  1.
    10030    2    1    2    0    0  0.00000000000E+00  0.00000000000E+00  0.11395839100E+04  0.19740244902E+04  0.16118688532E+04 0.  0.
        5    1    3    3  502    0  0.16610288918E+02 -0.20997283226E+03 -0.38289912207E+03  0.43703354524E+03  0.46999998093E+01 0.  1.
       -5    1    3    3    0  502 -0.16610288918E+02  0.20997283226E+03  0.15224830321E+04  0.15369909450E+04  0.46999998093E+01 0. -1.
</event>
<event>
 5   0  0.5381164E-04  0.1503187E+04  0.7818609E-02  0.8882336E-01
       -2   -1    0    0    0  501  0.00000000000E+00  0.00000000000E+00  0.60164370766E+03  0.60164370766E+03  0.25500000920E-02 0. -1.
        2   -1    0    0  501    0  0.00000000000E+00  0.00000000000E+00 -0.93891557354E+03  0.93891557354E+03  0.25500000920E-02 0.  1.
    10030    2    1    2    0    0  0.00000000000E+00  0.00000000000E+00 -0.33727186588E+03  0.15405592812E+04  0.15031868105E+04 0.  0.
        5    1    3    3  502    0 -0.54548384565E+03  0.48310356391E+03 -0.35741342158E+03  0.81160835583E+03  0.46999998093E+01 0.  1.
       -5    1    3    3    0  502  0.54548384565E+03 -0.48310356391E+03  0.20141555698E+02  0.72895092537E+03  0.46999998093E+01 0. -1.
</event>
<event>
 5   0  0.5083831E-04  0.1609526E+04  0.7818609E-02  0.8814717E-01
       -2   -1    0    0    0  501  0.00000000000E+00  0.00000000000E+00  0.39873985437E+03  0.39873985438E+03  0.25500000920E-02 0. -1.
        2   -1    0    0  501    0  0.00000000000E+00  0.00000000000E+00 -0.16242254462E+04  0.16242254462E+04  0.25500000920E-02 0.  1.
    10030    2    1    2    0    0  0.00000000000E+00  0.00000000000E+00 -0.12254855918E+04  0.20229653006E+04  0.16095259152E+04 0.  0.
        4    1    3    3  502    0 -0.61548523715E+03 -0.41003432240E+03 -0.21391350848E+03  0.76987714910E+03  0.12699999809E+01 0. -1.
       -4    1    3    3    0  502  0.61548523715E+03  0.41003432240E+03 -0.10115720834E+04  0.12530881515E+04  0.12699999809E+01 0.  1.
</event>
<event>
 5   0  0.2763895E-04  0.1531757E+04  0.7818609E-02  0.8863605E-01
       -1   -1    0    0    0  501  0.00000000000E+00  0.00000000000E+00  0.24681348982E+03  0.24681348987E+03  0.50400001928E-02 0. -1.
        1   -1    0    0  501    0  0.00000000000E+00  0.00000000000E+00 -0.23765705075E+04  0.23765705075E+04  0.50400001928E-02 0.  1.
    10030    2    1    2    0    0  0.00000000000E+00  0.00000000000E+00 -0.21297570177E+04  0.26233839974E+04  0.15317567181E+04 0.  0.
        4    1    3    3  502    0 -0.19368233906E+03  0.17518931263E+03  0.16819636237E+03  0.31063768757E+03  0.12699999809E+01 0. -1.
       -4    1    3    3    0  502  0.19368233906E+03 -0.17518931263E+03 -0.22979533800E+04  0.23127463098E+04  0.12699999809E+01 0.  1.
</event>
<event>
 5   0  0.2649086E-04  0.1608825E+04  0.7818609E-02  0.8815145E-01
       -1   -1    0    0    0  501  0.00000000000E+00  0.00000000000E+00  0.80208331048E+03  0.80208331050E+03  0.50400001928E-02 0. -1.
        1   -1    0    0  501    0  0.00000000000E+00  0.00000000000E+00 -0.80674873442E+03  0.80674873444E+03  0.50400001928E-02 0.  1.
    10030    2    1    2    0    0  0.00000000000E+00  0.00000000000E+00 -0.46654239403E+01  0.16088320449E+04  0.16088252803E+04 0.  0.
        2    1    3    3  502    0 -0.75174586241E+03 -0.25955474330E+02  0.28277227029E+03  0.80358925151E+03  0.25500000920E-02 0. -1.
       -2    1    3    3    0  502  0.75174586241E+03  0.25955474330E+02 -0.28743769423E+03  0.80524279343E+03  0.25500000920E-02 0.  1.
</event>
<event>
 5   0  0.5315984E-04  0.1623549E+04  0.7818609E-02  0.8806210E-01
        2   -1    0    0  501    0  0.00000000000E+00  0.00000000000E+00  0.16917354888E+04  0.16917354888E+04  0.25500000920E-02 0.  1.
       -2   -1    0    0    0  501  0.00000000000E+00  0.00000000000E+00 -0.38952750529E+03  0.38952750530E+03  0.25500000920E-02 0. -1.
    10030    2    1    2    0    0  0.00000000000E+00  0.00000000000E+00  0.13022079835E+04  0.20812629941E+04  0.16235485882E+04 0.  0.
        2    1    3    3  502    0  0.43189561086E+03 -0.66987859019E+03  0.84847988666E+03  0.11641259650E+04  0.25500000920E-02 0. -1.
       -2    1    3    3    0  502 -0.43189561086E+03  0.66987859019E+03  0.45372809682E+03  0.91713702909E+03  0.25500000920E-02 0.  1.
</event>
<event>
 5   0  0.2649086E-04  0.1613348E+04  0.7818609E-02  0.8812389E-01
        1   -1    0    0  501    0  0.00000000000E+00  0.00000000000E+00  0.18951899492E+04  0.18951899492E+04  0.50400001928E-02 0.  1.
       -1   -1    0    0    0  501  0.00000000000E+00  0.00000000000E+00 -0.34335517022E+03  0.34335517025E+03  0.50400001928E-02 0. -1.
    10030    2    1    2    0    0  0.00000000000E+00  0.00000000000E+00  0.15518347790E+04  0.22385451195E+04  0.16133484033E+04 0.  0.
        2    1    3    3  502    0 -0.18641928445E+03 -0.71410038574E+03  0.32410756751E+03  0.80606279275E+03  0.25500000920E-02 0.  1.
       -2    1    3    3    0  502  0.18641928445E+03  0.71410038574E+03  0.12277272115E+04  0.14324823267E+04  0.25500000920E-02 0. -1.
</event>
<event>
 5   0  0.5264308E-04  0.1379662E+04  0.7818609E-02  0.8968673E-01
       -2   -1    0    0    0  501  0.00000000000E+00  0.00000000000E+00  0.21768923095E+03  0.21768923097E+03  0.25500000920E-02 0. -1.
        2   -1    0    0  501    0  0.00000000000E+00  0.00000000000E+00 -0.21859930330E+04  0.21859930330E+04  0.25500000920E-02 0.  1.
    10030    2    1    2    0    0  0.00000000000E+00  0.00000000000E+00 -0.19683038021E+04  0.24036822640E+04  0.13796624837E+04 0.  0.
        3    1    3    3  502    0 -0.55851524869E+03  0.37994597522E+03 -0.12278698225E+04  0.14014144777E+04  0.10100000352E+00 0.  1.
       -3    1    3    3    0  502  0.55851524869E+03 -0.37994597522E+03 -0.74043397954E+03  0.10022677863E+04  0.10100000352E+00 0. -1.
</event>
<event>
 5   0  0.5381164E-04  0.1611857E+04  0.7818609E-02  0.8813297E-01
       -2   -1    0    0    0  501  0.00000000000E+00  0.00000000000E+00  0.38779119314E+03  0.38779119315E+03  0.25500000920E-02 0. -1.
        2   -1    0    0  501    0  0.00000000000E+00  0.00000000000E+00 -0.16749229699E+04  0.16749229699E+04  0.25500000920E-02 0.  1.
    10030    2    1    2    0    0  0.00000000000E+00  0.00000000000E+00 -0.12871317767E+04  0.20627141630E+04  0.16118565407E+04 0.  0.
        5    1    3    3  502    0 -0.51195926911E+03  0.52345428334E+02 -0.14372522030E+04  0.15266166258E+04  0.46999998093E+01 0.  1.
       -5    1    3    3    0  502  0.51195926911E+03 -0.52345428334E+02  0.15012042624E+03  0.53609753727E+03  0.46999998093E+01 0. -1.
</event>
<event>
 5   0  0.2730707E-04  0.1607417E+04  0.7818609E-02  0.8816004E-01
       -1   -1    0    0    0  501  0.00000000000E+00  0.00000000000E+00  0.88030014130E+03  0.88030014132E+03  0.50400001928E-02 0. -1.
        1   -1    0    0  501    0  0.00000000000E+00  0.00000000000E+00 -0.73378086313E+03  0.73378086314E+03  0.50400001928E-02 0.  1.
    10030    2    1    2    0    0  0.00000000000E+00  0.00000000000E+00  0.14651927817E+03  0.16140810045E+04  0.16074170554E+04 0.  0.
        5    1    3    3  502    0 -0.58370973795E+03  0.19084549560E+03 -0.44733569986E+03  0.75978311362E+03  0.46999998093E+01 0.  1.
       -5    1    3    3    0  502  0.58370973795E+03 -0.19084549560E+03  0.59385497804E+03  0.85429789085E+03  0.46999998093E+01 0. -1.
</event>
<event>
 5   0  0.2796994E-04  0.1604689E+04  0.7818609E-02  0.8817672E-01
       -1   -1    0    0    0  501  0.00000000000E+00  0.00000000000E+00  0.94040860828E+03  0.94040860830E+03  0.50400001928E-02 0. -1.
        1   -1    0    0  501    0  0.00000000000E+00  0.00000000000E+00 -0.68455018089E+03  0.68455018091E+03  0.50400001928E-02 0.  1.
    10030    2    1    2    0    0  0.00000000000E+00  0.00000000000E+00  0.25585842739E+03  0.16249587892E+04  0.16046892321E+04 0.  0.
        3    1    3    3  502    0  0.76565809369E+03 -0.10781489945E+03  0.34487945564E+03  0.84663936721E+03  0.10100000352E+00 0. -1.
       -3    1    3    3    0  502 -0.76565809369E+03  0.10781489945E+03 -0.89021028246E+02  0.77831942199E+03  0.10100000352E+00 0.  1.
</event>
<event>
 5   0  0.5264308E-04  0.1628385E+04  0.7818609E-02  0.8803298E-01
       -2   -1    0    0    0  501  0.00000000000E+00  0.00000000000E+00  0.97863732249E+03  0.97863732250E+03  0.25500000920E-02 0.  1.
        2   -1    0    0  501    0  0.00000000000E+00  0.00000000000E+00 -0.67737971935E+03  0.67737971935E+03  0.25500000920E-02 0. -1.
    10030    2    1    2    0    0  0.00000000000E+00  0.00000000000E+00  0.30125760315E+03  0.16560170418E+04  0.16283845674E+04 0.  0.
        3    1    3    3  502    0 -0.57288654909E+03  0.57830584082E+03  0.16741406339E+03  0.83106204490E+03  0.10100000352E+00 0. -1.
       -3    1    3    3    0  502  0.57288654909E+03 -0.57830584082E+03  0.13384353976E+03  0.82495499695E+03  0.10100000352E+00 0.  1.
</event>
<event>
 5   0  0.5131239E-04  0.1425687E+04  0.7818609E-02  0.8935432E-01
        2   -1    0    0  501    0  0.00000000000E+00  0.00000000000E+00  0.38521136551E+03  0.38521136552E+03  0.25500000920E-02 0. -1.
       -2   -1    0    0    0  501  0.00000000000E+00  0.00000000000E+00 -0.13191355381E+04  0.13191355381E+04  0.25500000920E-02 0.  1.
    10030    2    1    2    0    0  0.00000000000E+00  0.00000000000E+00 -0.93392417261E+03  0.17043469036E+04  0.14256872054E+04 0.  0.
        1    1    3    3  502    0  0.69090962578E+02  0.61876156337E+02 -0.13118916821E+04  0.13151661512E+04  0.50400001928E-02 0.  1.
       -1    1    3    3    0  502 -0.69090962578E+02 -0.61876156337E+02  0.37796750944E+03  0.38918075242E+03  0.50400001928E-02 0. -1.
</event>
<event>
 5   0  0.5131239E-04  0.1602501E+04  0.7818609E-02  0.8819013E-01
       -2   -1    0    0    0  501  0.00000000000E+00  0.00000000000E+00  0.81736374939E+03  0.81736374940E+03  0.25500000920E-02 0. -1.
        2   -1    0    0  501    0  0.00000000000E+00  0.00000000000E+00 -0.78545528791E+03  0.78545528792E+03  0.25500000920E-02 0.  1.
    10030    2    1    2    0    0  0.00000000000E+00  0.00000000000E+00  0.31908461479E+02  0.16028190373E+04  0.16025013936E+04 0.  0.
        1    1    3    3  502    0  0.42546249213E+02 -0.28713401299E+03  0.76292657725E+03  0.81628002979E+03  0.50400001928E-02 0. -1.
       -1    1    3    3    0  502 -0.42546249213E+02  0.28713401299E+03 -0.73101811577E+03  0.78653900752E+03  0.50400001928E-02 0.  1.
</event>
<event>
 5   0  0.5315984E-04  0.1603357E+04  0.7818609E-02  0.8818488E-01
        2   -1    0    0  501    0  0.00000000000E+00  0.00000000000E+00  0.75574830211E+03  0.75574830211E+03  0.25500000920E-02 0. -1.
       -2   -1    0    0    0  501  0.00000000000E+00  0.00000000000E+00 -0.85040047329E+03  0.85040047329E+03  0.25500000920E-02 0.  1.
    10030    2    1    2    0    0  0.00000000000E+00  0.00000000000E+00 -0.94652171176E+02  0.16061487754E+04  0.16033573698E+04 0.  0.
        2    1    3    3  502    0 -0.66716888007E+03  0.15160055657E+03  0.37124304763E+03  0.77840763338E+03  0.25500000920E-02 0. -1.
       -2    1    3    3    0  502  0.66716888007E+03 -0.15160055657E+03 -0.46589521880E+03  0.82774114202E+03  0.25500000920E-02 0.  1.
</event>
<event>
 5   0  0.2689675E-04  0.1598417E+04  0.7818609E-02  0.8821521E-01
        1   -1    0    0  501    0  0.00000000000E+00  0.00000000000E+00  0.99185438369E+03  0.99185438370E+03  0.50400001928E-02 0.  1.
       -1   -1    0    0    0  501  0.00000000000E+00  0.00000000000E+00 -0.64398013036E+03  0.64398013038E+03  0.50400001928E-02 0. -1.
    10030    2    1    2    0    0  0.00000000000E+00  0.00000000000E+00  0.34787425333E+03  0.16358345141E+04  0.15984173614E+04 0.  0.
        1    1    3    3  502    0  0.36443830320E+03 -0.50715584846E+03 -0.33644764680E+03  0.70937955322E+03  0.50400001928E-02 0. -1.
       -1    1    3    3    0  502 -0.36443830320E+03  0.50715584846E+03  0.68432190013E+03  0.92645496086E+03  0.50400001928E-02 0.  1.
</event>
<event>
 5   0  0.5131239E-04  0.1574741E+04  0.7818609E-02  0.8836217E-01
        2   -1    0    0  501    0  0.00000000000E+00  0.00000000000E+00  0.95124505305E+03  0.95124505305E+03  0.25500000920E-02 0. -1.
       -2   -1    0    0    0  501  0.00000000000E+00  0.00000000000E+00 -0.65172750266E+03  0.65172750266E+03  0.25500000920E-02 0.  1.
    10030    2    1    2    0    0  0.00000000000E+00  0.00000000000E+00  0.29951755039E+03  0.16029725557E+04  0.15747413284E+04 0.  0.
        1    1    3    3  502    0 -0.25587228243E+03 -0.45728390637E+03  0.74797926430E+03  0.91326457054E+03  0.50400001928E-02 0. -1.
       -1    1    3    3    0  502  0.25587228243E+03  0.45728390637E+03 -0.44846171392E+03  0.68970798518E+03  0.50400001928E-02 0.  1.
</event>
<event>
 5   0  0.5083831E-04  0.1667289E+04  0.7818609E-02  0.8780243E-01
        2   -1    0    0  501    0  0.00000000000E+00  0.00000000000E+00  0.96702546834E+03  0.96702546834E+03  0.25500000920E-02 0. -1.
       -2   -1    0    0    0  501  0.00000000000E+00  0.00000000000E+00 -0.71866099440E+03  0.71866099440E+03  0.25500000920E-02 0.  1.
    10030    2    1    2    0    0  0.00000000000E+00  0.00000000000E+00  0.24836447394E+03  0.16856864627E+04  0.16672893986E+04 0.  0.
        4    1    3    3  502    0 -0.70513881223E+03  0.34305102720E+03  0.41024793949E+03  0.88499137653E+03  0.12699999809E+01 0. -1.
       -4    1    3    3    0  502  0.70513881223E+03 -0.34305102720E+03 -0.16188346554E+03  0.80069508622E+03  0.12699999809E+01 0.  1.
</event>
<event>
 5   0  0.5264308E-04  0.1604276E+04  0.7818609E-02  0.8817926E-01
       -2   -1    0    0    0  501  0.00000000000E+00  0.00000000000E+00  0.37778292960E+03  0.37778292961E+03  0.25500000920E-02 0. -1.
        2   -1    0    0  501    0  0.00000000000E+00  0.00000000000E+00 -0.17031607231E+04  0.17031607231E+04  0.25500000920E-02 0.  1.
    10030    2    1    2    0    0  0.00000000000E+00  0.00000000000E+00 -0.13253777935E+04  0.20809436527E+04  0.16042755967E+04 0.  0.
        3    1    3    3  502    0  0.61615602416E+03  0.32157758963E+03 -0.14324857714E+03  0.70963410100E+03  0.10100000352E+00 0. -1.
       -3    1    3    3    0  502 -0.61615602416E+03 -0.32157758963E+03 -0.11821292164E+04  0.13713095517E+04  0.10100000352E+00 0.  1.
</event>
<event>
 5   0  0.2730707E-04  0.1544154E+04  0.7818609E-02  0.8855610E-01
        1   -1    0    0  501    0  0.00000000000E+00  0.00000000000E+00  0.15908331721E+04  0.15908331722E+04  0.50400001928E-02 0. -1.
       -1   -1    0    0    0  501  0.00000000000E+00  0.00000000000E+00 -0.37471128688E+03  0.37471128692E+03  0.50400001928E-02 0.  1.
    10030    2    1    2    0    0  0.00000000000E+00  0.00000000000E+00  0.12161218853E+04  0.19655444591E+04  0.15441543254E+04 0.  0.
        5    1    3    3  502    0  0.51117868704E+03  0.37797245306E+03  0.50431420608E+02  0.63775562995E+03  0.46999998093E+01 0.  1.
       -5    1    3    3    0  502 -0.51117868704E+03 -0.37797245306E+03  0.11656904646E+04  0.13277888291E+04  0.46999998093E+01 0. -1.
</event>
<event>
 5   0  0.2649086E-04  0.1590601E+04  0.7818609E-02  0.8826343E-01
       -1   -1    0    0    0  501  0.00000000000E+00  0.00000000000E+00  0.88640039636E+03  0.88640039638E+03  0.50400001928E-02 0. -1.
        1   -1    0    0  501    0  0.00000000000E+00  0.00000000000E+00 -0.71356301078E+03  0.71356301080E+03  0.50400001928E-02 0.  1.
    10030    2    1    2    0    0  0.00000000000E+00  0.00000000000E+00  0.17283738558E+03  0.15999634072E+04  0.15906005603E+04 0.  0.
        2    1    3    3  502    0 -0.39299832484E+03  0.31331865406E+02 -0.60835187735E+03  0.72492853151E+03  0.25500000920E-02 0.  1.
       -2    1    3    3    0  502  0.39299832484E+03 -0.31331865406E+02  0.78118926293E+03  0.87503487567E+03  0.25500000920E-02 0. -1.
</event>
<event>
 5   0  0.5131239E-04  0.1607211E+04  0.7818609E-02  0.8816130E-01
        2   -1    0    0  501    0  0.00000000000E+00  0.00000000000E+00  0.17034623991E+04  0.17034623991E+04  0.25500000920E-02 0. -1.
       -2   -1    0    0    0  501  0.00000000000E+00  0.00000000000E+00 -0.37909936837E+03  0.37909936838E+03  0.25500000920E-02 0.  1.
    10030    2    1    2    0    0  0.00000000000E+00  0.00000000000E+00  0.13243630307E+04  0.20825617675E+04  0.16072106515E+04 0.  0.
        1    1    3    3  502    0 -0.45951925809E+02 -0.39454730726E+03 -0.24300078105E+03  0.46564851204E+03  0.50400001928E-02 0.  1.
       -1    1    3    3    0  502  0.45951925809E+02  0.39454730726E+03  0.15673638117E+04  0.16169132554E+04  0.50400001928E-02 0. -1.
</event>
<event>
 5   0  0.5083831E-04  0.1602446E+04  0.7818609E-02  0.8819047E-01
       -2   -1    0    0    0  501  0.00000000000E+00  0.00000000000E+00  0.94728377758E+03  0.94728377759E+03  0.25500000920E-02 0.  1.
        2   -1    0    0  501    0  0.00000000000E+00  0.00000000000E+00 -0.67768301219E+03  0.67768301220E+03  0.25500000920E-02 0. -1.
    10030    2    1    2    0    0  0.00000000000E+00  0.00000000000E+00  0.26960076539E+03  0.16249667898E+04  0.16024457854E+04 0.  0.
        4    1    3    3  502    0 -0.48753696972E+03 -0.52567540087E+03  0.49749962070E+03  0.87265938913E+03  0.12699999809E+01 0.  1.
       -4    1    3    3    0  502  0.48753696972E+03  0.52567540087E+03 -0.22789885531E+03  0.75230740066E+03  0.12699999809E+01 0. -1.
</event>
<event>
 5   0  0.5264308E-04  0.1634220E+04  0.7818609E-02  0.8799797E-01
       -2   -1    0    0    0  501  0.00000000000E+00  0.00000000000E+00  0.58469106583E+03  0.58469106584E+03  0.25500000920E-02 0. -1.
        2   -1    0    0  501    0  0.00000000000E+00  0.00000000000E+00 -0.11419167896E+04  0.11419167897E+04  0.25500000920E-02 0.  1.
    10030    2    1    2    0    0  0.00000000000E+00  0.00000000000E+00 -0.55722572381E+03  0.17266078555E+04  0.16342197463E+04 0.  0.
        3    1    3    3  502    0  0.50115411142E+03 -0.60357682084E+03 -0.52002119385E+03  0.94121329904E+03  0.10100000352E+00 0.  1.
       -3    1    3    3    0  502 -0.50115411142E+03  0.60357682084E+03 -0.37204529968E+02  0.78539455645E+03  0.10100000352E+00 0. -1.
</event>
<event>
 5   0  0.2689675E-04  0.1609921E+04  0.7818609E-02  0.8814476E-01
        1   -1    0    0  501    0  0.00000000000E+00  0.00000000000E+00  0.96513773476E+03  0.96513773477E+03  0.50400001928E-02 0. -1.
       -1   -1    0    0    0  501  0.00000000000E+00  0.00000000000E+00 -0.67136683988E+03  0.67136683990E+03  0.50400001928E-02 0.  1.
    10030    2    1    2    0    0  0.00000000000E+00  0.00000000000E+00  0.29377089488E+03  0.16365045747E+04  0.16099210801E+04 0.  0.
        1    1    3    3  502    0  0.52713527126E+03  0.25586373099E+03  0.70792622749E+03  0.91896538925E+03  0.50400001928E-02 0. -1.
       -1    1    3    3    0  502 -0.52713527126E+03 -0.25586373099E+03 -0.41415533261E+03  0.71753918541E+03  0.50400001928E-02 0.  1.
</event>
<event>
 5   0  0.5315984E-04  0.1635591E+04  0.7818609E-02  0.8798976E-01
        2   -1    0    0  501    0  0.00000000000E+00  0.00000000000E+00  0.18777136549E+04  0.18777136549E+04  0.25500000920E-02 0.  1.
       -2   -1    0    0    0  501  0.00000000000E+00  0.00000000000E+00 -0.35617230259E+03  0.35617230260E+03  0.25500000920E-02 0. -1.
    10030    2    1    2    0    0  0.00000000000E+00  0.00000000000E+00  0.15215413523E+04  0.22338859575E+04  0.16355911422E+04 0.  0.
        2    1    3    3  502    0 -0.39972315301E+03 -0.35206251300E+03  0.16082949276E+04  0.16942075394E+04  0.25500000920E-02 0.  1.
       -2    1    3    3    0  502  0.39972315301E+03  0.35206251300E+03 -0.86753575389E+02  0.53967841810E+03  0.25500000920E-02 0. -1.
</event>
<event>
 5   0  0.2689675E-04  0.1591467E+04  0.7818609E-02  0.8825808E-01
        1   -1    0    0  501    0  0.00000000000E+00  0.00000000000E+00  0.10862695372E+04  0.10862695373E+04  0.50400001928E-02 0.  1.
       -1   -1    0    0    0  501  0.00000000000E+00  0.00000000000E+00 -0.58290456611E+03  0.58290456614E+03  0.50400001928E-02 0. -1.
    10030    2    1    2    0    0  0.00000000000E+00  0.00000000000E+00  0.50336497114E+03  0.16691741034E+04  0.15914665857E+04 0.  0.
        1    1    3    3  502    0 -0.58995006154E+03 -0.14767853352E+03  0.78990730896E+03  0.99689697619E+03  0.50400001928E-02 0.  1.
       -1    1    3    3    0  502  0.58995006154E+03  0.14767853352E+03 -0.28654233782E+03  0.67227712720E+03  0.50400001928E-02 0. -1.
</event>
<event>
 5   0  0.2649086E-04  0.1618032E+04  0.7818609E-02  0.8809546E-01
        1   -1    0    0  501    0  0.00000000000E+00  0.00000000000E+00  0.19704910163E+04  0.19704910163E+04  0.50400001928E-02 0. -1.
       -1   -1    0    0    0  501  0.00000000000E+00  0.00000000000E+00 -0.33215406989E+03  0.33215406993E+03  0.50400001928E-02 0.  1.
    10030    2    1    2    0    0  0.00000000000E+00  0.00000000000E+00  0.16383369464E+04  0.23026450863E+04  0.16180316571E+04 0.  0.
        2    1    3    3  502    0  0.13955595426E+03 -0.12964924911E+03  0.19381222687E+04  0.19474605826E+04  0.25500000920E-02 0. -1.
       -2    1    3    3    0  502 -0.13955595426E+03  0.12964924911E+03 -0.29978532231E+03  0.35518450367E+03  0.25500000920E-02 0.  1.
</event>
<event>
 5   0  0.5381164E-04  0.1605230E+04  0.7818609E-02  0.8817341E-01
       -2   -1    0    0    0  501  0.00000000000E+00  0.00000000000E+00  0.96829956140E+03  0.96829956141E+03  0.25500000920E-02 0. -1.
        2   -1    0    0  501    0  0.00000000000E+00  0.00000000000E+00 -0.66528075556E+03  0.66528075556E+03  0.25500000920E-02 0.  1.
    10030    2    1    2    0    0  0.00000000000E+00  0.00000000000E+00  0.30301880585E+03  0.16335803170E+04  0.16052302811E+04 0.  0.
        5    1    3    3  502    0  0.11498242215E+03 -0.39941113054E+03  0.85023488385E+03  0.94639931124E+03  0.46999998093E+01 0. -1.
       -5    1    3    3    0  502 -0.11498242215E+03  0.39941113054E+03 -0.54721607801E+03  0.68718100573E+03  0.46999998093E+01 0.  1.
</event>
<event>
 5   0  0.2689675E-04  0.1600827E+04  0.7818609E-02  0.8820040E-01
       -1   -1    0    0    0  501  0.00000000000E+00  0.00000000000E+00  0.90031349273E+03  0.90031349274E+03  0.50400001928E-02 0. -1.
        1   -1    0    0  501    0  0.00000000000E+00  0.00000000000E+00 -0.71159811157E+03  0.71159811159E+03  0.50400001928E-02 0.  1.
    10030    2    1    2    0    0  0.00000000000E+00  0.00000000000E+00  0.18871538115E+03  0.16119116043E+04  0.16008265131E+04 0.  0.
        1    1    3    3  502    0 -0.70708507272E+03  0.21301662010E+03  0.40522843938E+03  0.84235115517E+03  0.50400001928E-02 0. -1.
       -1    1    3    3    0  502  0.70708507272E+03 -0.21301662010E+03 -0.21651305822E+03  0.76956044916E+03  0.50400001928E-02 0.  1.
</event>
<event>
 5   0  0.5083831E-04  0.1599587E+04  0.7818609E-02  0.8820802E-01
        2   -1    0    0  501    0  0.00000000000E+00  0.00000000000E+00  0.89484831379E+03  0.89484831380E+03  0.25500000920E-02 0.  1.
       -2   -1    0    0    0  501  0.00000000000E+00  0.00000000000E+00 -0.71483572835E+03  0.71483572836E+03  0.25500000920E-02 0. -1.
    10030    2    1    2    0    0  0.00000000000E+00  0.00000000000E+00  0.18001258544E+03  0.16096840422E+04  0.15995868794E+04 0.  0.
        4    1    3    3  502    0  0.60049520008E+03 -0.10037879628E+03 -0.43191734201E+03  0.74647477606E+03  0.12699999809E+01 0. -1.
       -4    1    3    3    0  502 -0.60049520008E+03  0.10037879628E+03  0.61192992745E+03  0.86320926609E+03  0.12699999809E+01 0.  1.
</event>
<event>
 5   0  0.1908125E-04  0.1608593E+04  0.7818609E-02  0.8815286E-01
        3   -1    0    0  501    0  0.00000000000E+00  0.00000000000E+00  0.83553881545E+03  0.83553882156E+03  0.10100000352E+00 0. -1.
       -3   -1    0    0    0  501  0.00000000000E+00  0.00000000000E+00 -0.77422274239E+03  0.77422274898E+03  0.10100000352E+00 0.  1.
    10030    2    1    2    0    0  0.00000000000E+00  0.00000000000E+00  0.61316073059E+02  0.16097615705E+04  0.16085933772E+04 0.  0.
        1    1    3    3  502    0 -0.67337012248E+03 -0.28437931738E+03  0.36645238002E+03  0.81767124497E+03  0.50400001928E-02 0. -1.
       -1    1    3    3    0  502  0.67337012248E+03  0.28437931738E+03 -0.30513630696E+03  0.79209032557E+03  0.50400001928E-02 0.  1.
</event>
<event>
 5   0  0.5264308E-04  0.1530017E+04  0.7818609E-02  0.8864734E-01
       -2   -1    0    0    0  501  0.00000000000E+00  0.00000000000E+00  0.10313781821E+04  0.10313781821E+04  0.25500000920E-02 0.  1.
        2   -1    0    0  501    0  0.00000000000E+00  0.00000000000E+00 -0.56743313896E+03  0.56743313896E+03  0.25500000920E-02 0. -1.
    10030    2    1    2    0    0  0.00000000000E+00  0.00000000000E+00  0.46394504310E+03  0.15988113210E+04  0.15300172016E+04 0.  0.
        3    1    3    3  502    0  0.23505733562E+03  0.84301536339E+02 -0.52364442198E+03  0.58013980292E+03  0.10100000352E+00 0. -1.
       -3    1    3    3    0  502 -0.23505733562E+03 -0.84301536339E+02  0.98758946508E+03  0.10186715181E+04  0.10100000352E+00 0.  1.
</event>
<event>
 5   0  0.5264308E-04  0.1587000E+04  0.7818609E-02  0.8828574E-01
        2   -1    0    0  501    0  0.00000000000E+00  0.00000000000E+00  0.11409847746E+04  0.11409847746E+04  0.25500000920E-02 0.  1.
       -2   -1    0    0    0  501  0.00000000000E+00  0.00000000000E+00 -0.55184114083E+03  0.55184114084E+03  0.25500000920E-02 0. -1.
    10030    2    1    2    0    0  0.00000000000E+00  0.00000000000E+00  0.58914363373E+03  0.16928259154E+04  0.15870001130E+04 0.  0.
        3    1    3    3  502    0 -0.25259962575E+03  0.53973822888E+02  0.10948844603E+04  0.11249407700E+04  0.10100000352E+00 0.  1.
       -3    1    3    3    0  502  0.25259962575E+03 -0.53973822888E+02 -0.50574082656E+03  0.56788514537E+03  0.10100000352E+00 0. -1.
</event>
<event>
 5   0  0.2796994E-04  0.1626609E+04  0.7818609E-02  0.8804366E-01
        1   -1    0    0  501    0  0.00000000000E+00  0.00000000000E+00  0.11777896840E+04  0.11777896840E+04  0.50400001928E-02 0. -1.
       -1   -1    0    0    0  501  0.00000000000E+00  0.00000000000E+00 -0.56161496657E+03  0.56161496659E+03  0.50400001928E-02 0.  1.
    10030    2    1    2    0    0  0.00000000000E+00  0.00000000000E+00  0.61617471740E+03  0.17394046506E+04  0.16266091282E+04 0.  0.
        3    1    3    3  502    0 -0.17761699952E+03  0.38958273177E+03  0.10475151646E+04  0.11316406380E+04  0.10100000352E+00 0. -1.
       -3    1    3    3    0  502  0.17761699952E+03 -0.38958273177E+03 -0.43134044716E+03  0.60776401256E+03  0.10100000352E+00 0.  1.
</event>
<event>
 5   0  0.5315984E-04  0.1630268E+04  0.7818609E-02  0.8802166E-01
        2   -1    0    0  501    0  0.00000000000E+00  0.00000000000E+00  0.12497911549E+04  0.12497911549E+04  0.25500000920E-02 0. -1.
       -2   -1    0    0    0  501  0.00000000000E+00  0.00000000000E+00 -0.53164350184E+03  0.53164350185E+03  0.25500000920E-02 0.  1.
    10030    2    1    2    0    0  0.00000000000E+00  0.00000000000E+00  0.71814765310E+03  0.17814346568E+04  0.16302678874E+04 0.  0.
        2    1    3    3  502    0 -0.38381612168E+03  0.53544516949E+03  0.88361261298E+03  0.11021740310E+04  0.25500000920E-02 0. -1.
       -2    1    3    3    0  502  0.38381612168E+03 -0.53544516949E+03 -0.16546495988E+03  0.67926062579E+03  0.25500000920E-02 0.  1.
</event>
<event>
 5   0  0.5083831E-04  0.1694853E+04  0.7818609E-02  0.8764305E-01
        2   -1    0    0  501    0  0.00000000000E+00  0.00000000000E+00  0.88987087674E+03  0.88987087675E+03  0.25500000920E-02 0. -1.
       -2   -1    0    0    0  501  0.00000000000E+00  0.00000000000E+00 -0.80700650026E+03  0.80700650027E+03  0.25500000920E-02 0.  1.
    10030    2    1    2    0    0  0.00000000000E+00  0.00000000000E+00  0.82864376482E+02  0.16968773770E+04  0.16948528927E+04 0.  0.
        4    1    3    3  502    0 -0.59056494372E+03  0.38863318117E+03  0.50924535355E+03  0.87128361931E+03  0.12699999809E+01 0. -1.
       -4    1    3    3    0  502  0.59056494372E+03 -0.38863318117E+03 -0.42638097706E+03  0.82559375771E+03  0.12699999809E+01 0.  1.
</event>
<event>
 5   0  0.5083831E-04  0.1642803E+04  0.7818609E-02  0.8794675E-01
        2   -1    0    0  501    0  0.00000000000E+00  0.00000000000E+00  0.43408126846E+03  0.43408126847E+03  0.25500000920E-02 0. -1.
       -2   -1    0    0    0  501  0.00000000000E+00  0.00000000000E+00 -0.15543190778E+04  0.15543190778E+04  0.25500000920E-02 0.  1.
    10030    2    1    2    0    0  0.00000000000E+00  0.00000000000E+00 -0.11202378094E+04  0.19884003463E+04  0.16428034537E+04 0.  0.
        4    1    3    3  502    0  0.16402691557E+03 -0.55077573323E+03 -0.12704736643E+04  0.13944044184E+04  0.12699999809E+01 0.  1.
       -4    1    3    3    0  502 -0.16402691557E+03  0.55077573323E+03  0.15023585498E+03  0.59399592790E+03  0.12699999809E+01 0. -1.
</event>
<event>
 5   0  0.2763895E-04  0.1638194E+04  0.7818609E-02  0.8797421E-01
        1   -1    0    0  501    0  0.00000000000E+00  0.00000000000E+00  0.18691789542E+04  0.18691789543E+04  0.50400001928E-02 0. -1.
       -1   -1    0    0    0  501  0.00000000000E+00  0.00000000000E+00 -0.35893837275E+03  0.35893837278E+03  0.50400001928E-02 0.  1.
    10030    2    1    2    0    0  0.00000000000E+00  0.00000000000E+00  0.15102405815E+04  0.22281173270E+04  0.16381941915E+04 0.  0.
        4    1    3    3  502    0 -0.66335068700E+02  0.81148443840E+03  0.63338433613E+03  0.10315447956E+04  0.12699999809E+01 0.  1.
       -4    1    3    3    0  502  0.66335068700E+02 -0.81148443840E+03  0.87685624537E+03  0.11965725315E+04  0.12699999809E+01 0. -1.
</event>
<event>
 5   0  0.2730707E-04  0.1595923E+04  0.7818609E-02  0.8823056E-01
       -1   -1    0    0    0  501  0.00000000000E+00  0.00000000000E+00  0.69468654373E+03  0.69468654374E+03  0.50400001928E-02 0.  1.
        1   -1    0    0  501    0  0.00000000000E+00  0.00000000000E+00 -0.91659022532E+03  0.91659022534E+03  0.50400001928E-02 0. -1.
    10030    2    1    2    0    0  0.00000000000E+00  0.00000000000E+00 -0.22190368160E+03  0.16112767691E+04  0.15959234263E+04 0.  0.
        5    1    3    3  502    0 -0.36242781000E+02  0.23135054554E+03  0.65920003084E+03  0.69957371646E+03  0.46999998093E+01 0.  1.
       -5    1    3    3    0  502  0.36242781000E+02 -0.23135054554E+03 -0.88110371244E+03  0.91170305263E+03  0.46999998093E+01 0. -1.
</event>
<event>
 5   0  0.2689675E-04  0.1594566E+04  0.7818609E-02  0.8823893E-01
        1   -1    0    0  501    0  0.00000000000E+00  0.00000000000E+00  0.59433867560E+03  0.59433867562E+03  0.50400001928E-02 0. -1.
       -1   -1    0    0    0  501  0.00000000000E+00  0.00000000000E+00 -0.10695252697E+04  0.10695252697E+04  0.50400001928E-02 0.  1.
    10030    2    1    2    0    0  0.00000000000E+00  0.00000000000E+00 -0.47518659412E+03  0.16638639454E+04  0.15945660630E+04 0.  0.
        1    1    3    3  502    0  0.13667401458E+03 -0.16992995273E+03  0.56261390500E+03  0.60339902321E+03  0.50400001928E-02 0. -1.
       -1    1    3    3    0  502 -0.13667401458E+03  0.16992995273E+03 -0.10378004991E+04  0.10604649221E+04  0.50400001928E-02 0.  1.
</event>
<event>
 5   0  0.2763895E-04  0.1666998E+04  0.7818609E-02  0.8780414E-01
        1   -1    0    0  501    0  0.00000000000E+00  0.00000000000E+00  0.76812431765E+03  0.76812431766E+03  0.50400001928E-02 0.  1.
       -1   -1    0    0    0  501  0.00000000000E+00  0.00000000000E+00 -0.90443796032E+03  0.90443796033E+03  0.50400001928E-02 0. -1.
    10030    2    1    2    0    0  0.00000000000E+00  0.00000000000E+00 -0.13631364267E+03  0.16725622780E+04  0.16669982497E+04 0.  0.
        4    1    3    3  502    0  0.77515189454E+03  0.12637253017E+03  0.21186017185E+03  0.81345978469E+03  0.12699999809E+01 0.  1.
       -4    1    3    3    0  502 -0.77515189454E+03 -0.12637253017E+03 -0.34817381451E+03  0.85910249331E+03  0.12699999809E+01 0. -1.
</event>
<event>
 5   0  0.2689675E-04  0.1598495E+04  0.7818609E-02  0.8821473E-01
        1   -1    0    0  501    0  0.00000000000E+00  0.00000000000E+00  0.68821387557E+03  0.68821387558E+03  0.50400001928E-02 0.  1.
       -1   -1    0    0    0  501  0.00000000000E+00  0.00000000000E+00 -0.92819474712E+03  0.92819474714E+03  0.50400001928E-02 0. -1.
    10030    2    1    2    0    0  0.00000000000E+00  0.00000000000E+00 -0.23998087156E+03  0.16164086227E+04  0.15984949224E+04 0.  0.
        1    1    3    3  502    0 -0.15455707060E+03 -0.78368953459E+03 -0.92495107051E+02  0.80412220436E+03  0.50400001928E-02 0.  1.
       -1    1    3    3    0  502  0.15455707060E+03  0.78368953459E+03 -0.14748576451E+03  0.81228641836E+03  0.50400001928E-02 0. -1.
</event>
<event>
 5   0  0.5315984E-04  0.1586287E+04  0.7818609E-02  0.8829017E-01
       -2   -1    0    0    0  501  0.00000000000E+00  0.00000000000E+00  0.44050935678E+03  0.44050935679E+03  0.25500000920E-02 0. -1.
        2   -1    0    0  501    0  0.00000000000E+00  0.00000000000E+00 -0.14280664554E+04  0.14280664554E+04  0.25500000920E-02 0.  1.
    10030    2    1    2    0    0  0.00000000000E+00  0.00000000000E+00 -0.98755709860E+03  0.18685758122E+04  0.15862870304E+04 0.  0.
        2    1    3    3  502    0 -0.69697478172E+03  0.72007380218E+02 -0.56000824367E+02  0.70291891530E+03  0.25500000920E-02 0.  1.
       -2    1    3    3    0  502  0.69697478172E+03 -0.72007380218E+02 -0.93155627423E+03  0.11656568969E+04  0.25500000920E-02 0. -1.
</event>
<event>
 5   0  0.2763895E-04  0.1551061E+04  0.7818609E-02  0.8851190E-01
        1   -1    0    0  501    0  0.00000000000E+00  0.00000000000E+00  0.10033136606E+04  0.10033136607E+04  0.50400001928E-02 0. -1.
       -1   -1    0    0    0  501  0.00000000000E+00  0.00000000000E+00 -0.59946132098E+03  0.59946132100E+03  0.50400001928E-02 0.  1.
    10030    2    1    2    0    0  0.00000000000E+00  0.00000000000E+00  0.40385233966E+03  0.16027749817E+04  0.15510612269E+04 0.  0.
        4    1    3    3  502    0 -0.61723811216E+03  0.83913461427E+02 -0.27545245066E+03  0.68110206400E+03  0.12699999809E+01 0.  1.
       -4    1    3    3    0  502  0.61723811216E+03 -0.83913461427E+02  0.67930479031E+03  0.92167291766E+03  0.12699999809E+01 0. -1.
</event>
<event>
 5   0  0.5083831E-04  0.1658878E+04  0.7818609E-02  0.8785172E-01
        2   -1    0    0  501    0  0.00000000000E+00  0.00000000000E+00  0.92794022603E+03  0.92794022603E+03  0.25500000920E-02 0. -1.
       -2   -1    0    0    0  501  0.00000000000E+00  0.00000000000E+00 -0.74139377151E+03  0.74139377151E+03  0.25500000920E-02 0.  1.
    10030    2    1    2    0    0  0.00000000000E+00  0.00000000000E+00  0.18654645452E+03  0.16693339975E+04  0.16588780593E+04 0.  0.
        4    1    3    3  502    0 -0.38353811436E+03 -0.64480149665E+03  0.44919313869E+03  0.87444070353E+03  0.12699999809E+01 0. -1.
       -4    1    3    3    0  502  0.38353811436E+03  0.64480149665E+03 -0.26264668416E+03  0.79489329401E+03  0.12699999809E+01 0.  1.
</event>
<event>
 5   0  0.2689675E-04  0.1581755E+04  0.7818609E-02  0.8831836E-01
        1   -1    0    0  501    0  0.00000000000E+00  0.00000000000E+00  0.86309474645E+03  0.86309474647E+03  0.50400001928E-02 0. -1.
       -1   -1    0    0    0  501  0.00000000000E+00  0.00000000000E+00 -0.72470248385E+03  0.72470248387E+03  0.50400001928E-02 0.  1.
    10030    2    1    2    0    0  0.00000000000E+00  0.00000000000E+00  0.13839226260E+03  0.15877972303E+04  0.15817546037E+04 0.  0.
        1    1    3    3  502    0  0.49453036025E+02 -0.25905568481E+03  0.81765261855E+03  0.85913401472E+03  0.50400001928E-02 0. -1.
       -1    1    3    3    0  502 -0.49453036025E+02  0.25905568481E+03 -0.67926035594E+03  0.72866321561E+03  0.50400001928E-02 0.  1.
</event>
<event>
 5   0  0.2796994E-04  0.1594457E+04  0.7818609E-02  0.8823960E-01
       -1   -1    0    0    0  501  0.00000000000E+00  0.00000000000E+00  0.62902067848E+03  0.62902067850E+03  0.50400001928E-02 0. -1.
        1   -1    0    0  501    0  0.00000000000E+00  0.00000000000E+00 -0.10104175439E+04  0.10104175439E+04  0.50400001928E-02 0.  1.
    10030    2    1    2    0    0  0.00000000000E+00  0.00000000000E+00 -0.38139686538E+03  0.16394382224E+04  0.15944573108E+04 0.  0.
        3    1    3    3  502    0  0.12820005456E+03 -0.78684082692E+03 -0.19527113000E+03  0.82078289779E+03  0.10100000352E+00 0.  1.
       -3    1    3    3    0  502 -0.12820005456E+03  0.78684082692E+03 -0.18612573538E+03  0.81865532458E+03  0.10100000352E+00 0. -1.
</event>
<event>
 5   0  0.5315984E-04  0.1601845E+04  0.7818609E-02  0.8819416E-01
        2   -1    0    0  501    0  0.00000000000E+00  0.00000000000E+00  0.62264720705E+03  0.62264720706E+03  0.25500000920E-02 0.  1.
       -2   -1    0    0    0  501  0.00000000000E+00  0.00000000000E+00 -0.10302409365E+04  0.10302409365E+04  0.25500000920E-02 0. -1.
    10030    2    1    2    0    0  0.00000000000E+00  0.00000000000E+00 -0.40759372949E+03  0.16528881436E+04  0.16018447387E+04 0.  0.
        2    1    3    3  502    0 -0.71442854843E+02 -0.61193236912E+01  0.61932850961E+03  0.62346558081E+03  0.25500000920E-02 0.  1.
       -2    1    3    3    0  502  0.71442854843E+02  0.61193236912E+01 -0.10269222391E+04  0.10294225628E+04  0.25500000920E-02 0. -1.
</event>
<event>
 5   0  0.5264308E-04  0.1487644E+04  0.7818609E-02  0.8892711E-01
        2   -1    0    0  501    0  0.00000000000E+00  0.00000000000E+00  0.67202462207E+03  0.67202462208E+03  0.25500000920E-02 0.  1.
       -2   -1    0    0    0  501  0.00000000000E+00  0.00000000000E+00 -0.82329053226E+03  0.82329053226E+03  0.25500000920E-02 0. -1.
    10030    2    1    2    0    0  0.00000000000E+00  0.00000000000E+00 -0.15126591019E+03  0.14953151543E+04  0.14876444586E+04 0.  0.
        3    1    3    3  502    0  0.25836147627E+03 -0.66907096256E+03  0.12252537117E+03  0.72761190352E+03  0.10100000352E+00 0. -1.
       -3    1    3    3    0  502 -0.25836147627E+03  0.66907096256E+03 -0.27379128136E+03  0.76770325082E+03  0.10100000352E+00 0.  1.
</event>
<event>
 5   0  0.5381164E-04  0.1607246E+04  0.7818609E-02  0.8816109E-01
        2   -1    0    0  501    0  0.00000000000E+00  0.00000000000E+00  0.19852206276E+04  0.19852206276E+04  0.25500000920E-02 0.  1.
       -2   -1    0    0    0  501  0.00000000000E+00  0.00000000000E+00 -0.32530877755E+03  0.32530877756E+03  0.25500000920E-02 0. -1.
    10030    2    1    2    0    0  0.00000000000E+00  0.00000000000E+00  0.16599118500E+04  0.23105294052E+04  0.16072457131E+04 0.  0.
        5    1    3    3  502    0  0.56186492811E+03 -0.58970766284E+02  0.83771967456E+01  0.56503275670E+03  0.46999998093E+01 0. -1.
       -5    1    3    3    0  502 -0.56186492811E+03  0.58970766284E+02  0.16515346533E+04  0.17454966485E+04  0.46999998093E+01 0.  1.
</event>
<event>
 5   0  0.2763895E-04  0.1571992E+04  0.7818609E-02  0.8837942E-01
        1   -1    0    0  501    0  0.00000000000E+00  0.00000000000E+00  0.87605124081E+03  0.87605124082E+03  0.50400001928E-02 0. -1.
       -1   -1    0    0    0  501  0.00000000000E+00  0.00000000000E+00 -0.70519803901E+03  0.70519803902E+03  0.50400001928E-02 0.  1.
    10030    2    1    2    0    0  0.00000000000E+00  0.00000000000E+00  0.17085320180E+03  0.15812492798E+04  0.15719918793E+04 0.  0.
        4    1    3    3  502    0  0.18880316702E+03 -0.54447110970E+03  0.62307644267E+03  0.84871743913E+03  0.12699999809E+01 0. -1.
       -4    1    3    3    0  502 -0.18880316702E+03  0.54447110970E+03 -0.45222324087E+03  0.73253184071E+03  0.12699999809E+01 0.  1.
</event>
<event>
 5   0  0.2689675E-04  0.1597634E+04  0.7818609E-02  0.8822003E-01
       -1   -1    0    0    0  501  0.00000000000E+00  0.00000000000E+00  0.27699081770E+03  0.27699081774E+03  0.50400001928E-02 0. -1.
        1   -1    0    0  501    0  0.00000000000E+00  0.00000000000E+00 -0.23037181686E+04  0.23037181687E+04  0.50400001928E-02 0.  1.
    10030    2    1    2    0    0  0.00000000000E+00  0.00000000000E+00 -0.20267273510E+04  0.25807089864E+04  0.15976342251E+04 0.  0.
        1    1    3    3  502    0  0.42924442130E+03 -0.24007839561E+03  0.34235426536E+01  0.49183343718E+03  0.50400001928E-02 0. -1.
       -1    1    3    3    0  502 -0.42924442130E+03  0.24007839561E+03 -0.20301508936E+04  0.20888755492E+04  0.50400001928E-02 0.  1.
</event>
<event>
 5   0  0.2730707E-04  0.1606437E+04  0.7818609E-02  0.8816603E-01
        1   -1    0    0  501    0  0.00000000000E+00  0.00000000000E+00  0.54711969733E+03  0.54711969735E+03  0.50400001928E-02 0.  1.
       -1   -1    0    0    0  501  0.00000000000E+00  0.00000000000E+00 -0.11791936616E+04  0.11791936616E+04  0.50400001928E-02 0. -1.
    10030    2    1    2    0    0  0.00000000000E+00  0.00000000000E+00 -0.63207396426E+03  0.17263133589E+04  0.16064371500E+04 0.  0.
        5    1    3    3  502    0 -0.16249180773E+03  0.67942765985E+03 -0.74198951210E+03  0.10191153314E+04  0.46999998093E+01 0. -1.
       -5    1    3    3    0  502  0.16249180773E+03 -0.67942765985E+03  0.10991554785E+03  0.70719802758E+03  0.46999998093E+01 0.  1.
</event>
<event>
 5   0  0.5264308E-04  0.1854977E+04  0.7818609E-02  0.8677597E-01
        2   -1    0    0  501    0  0.00000000000E+00  0.00000000000E+00  0.92800319638E+03  0.92800319639E+03  0.25500000920E-02 0. -1.
       -2   -1    0    0    0  501  0.00000000000E+00  0.00000000000E+00 -0.92697420805E+03  0.92697420805E+03  0.25500000920E-02 0.  1.
    10030    2    1    2    0    0  0.00000000000E+00  0.00000000000E+00  0.10289883351E+01  0.18549774044E+04  0.18549771190E+04 0.  0.
        3    1    3    3  502    0 -0.77932379120E+03 -0.78120345304E+01 -0.50230604661E+03  0.92720977889E+03  0.10100000352E+00 0.  1.
       -3    1    3    3    0  502  0.77932379120E+03  0.78120345304E+01  0.50333503494E+03  0.92776762555E+03  0.10100000352E+00 0. -1.
</event>
<event>
 5   0  0.5315984E-04  0.1607320E+04  0.7818609E-02  0.8816064E-01
        2   -1    0    0  501    0  0.00000000000E+00  0.00000000000E+00  0.19874205832E+04  0.19874205832E+04  0.25500000920E-02 0.  1.
       -2   -1    0    0    0  501  0.00000000000E+00  0.00000000000E+00 -0.32497880466E+03  0.32497880467E+03  0.25500000920E-02 0. -1.
    10030    2    1    2    0    0  0.00000000000E+00  0.00000000000E+00  0.16624417785E+04  0.23123993878E+04  0.16073202114E+04 0.  0.
        2    1    3    3  502    0  0.55539284679E+03 -0.36891675791E+02  0.16652105776E+04  0.17557757481E+04  0.25500000920E-02 0.  1.
       -2    1    3    3    0  502 -0.55539284679E+03  0.36891675791E+02 -0.27687990963E+01  0.55662363970E+03  0.25500000920E-02 0. -1.
</event>
<event>
 5   0  0.2649086E-04  0.1614011E+04  0.7818609E-02  0.8811986E-01
        1   -1    0    0  501    0  0.00000000000E+00  0.00000000000E+00  0.16279202199E+04  0.16279202199E+04  0.50400001928E-02 0. -1.
       -1   -1    0    0    0  501  0.00000000000E+00  0.00000000000E+00 -0.40005538071E+03  0.40005538074E+03  0.50400001928E-02 0.  1.
    10030    2    1    2    0    0  0.00000000000E+00  0.00000000000E+00  0.12278648392E+04  0.20279756006E+04  0.16140114539E+04 0.  0.
        2    1    3    3  502    0 -0.40503972814E+03 -0.18966590975E+03  0.14579550431E+04  0.15250125397E+04  0.25500000920E-02 0. -1.
       -2    1    3    3    0  502  0.40503972814E+03  0.18966590975E+03 -0.23009020391E+03  0.50296306090E+03  0.25500000920E-02 0.  1.
</event>
<event>
 5   0  0.2649086E-04  0.1603509E+04  0.7818609E-02  0.8818395E-01
       -1   -1    0    0    0  501  0.00000000000E+00  0.00000000000E+00  0.46305811563E+03  0.46305811565E+03  0.50400001928E-02 0. -1.
        1   -1    0    0  501    0  0.00000000000E+00  0.00000000000E+00 -0.13881850134E+04  0.13881850134E+04  0.50400001928E-02 0.  1.
    10030    2    1    2    0    0  0.00000000000E+00  0.00000000000E+00 -0.92512689773E+03  0.18512431290E+04  0.16035090726E+04 0.  0.
        2    1    3    3  502    0 -0.52748779244E+03  0.43308266488E+03  0.23157110881E+02  0.68289107300E+03  0.25500000920E-02 0. -1.
       -2    1    3    3    0  502  0.52748779244E+03 -0.43308266488E+03 -0.94828400861E+03  0.11683520560E+04  0.25500000920E-02 0.  1.
</event>
<event>
 5   0  0.5131239E-04  0.1595084E+04  0.7818609E-02  0.8823574E-01
        2   -1    0    0  501    0  0.00000000000E+00  0.00000000000E+00  0.44968380101E+03  0.44968380102E+03  0.25500000920E-02 0.  1.
       -2   -1    0    0    0  501  0.00000000000E+00  0.00000000000E+00 -0.14144891220E+04  0.14144891220E+04  0.25500000920E-02 0. -1.
    10030    2    1    2    0    0  0.00000000000E+00  0.00000000000E+00 -0.96480532100E+03  0.18641729230E+04  0.15950835024E+04 0.  0.
        1    1    3    3  502    0  0.40718321483E+03  0.96207255392E+02  0.31112507053E+03  0.52139506707E+03  0.50400001928E-02 0.  1.
       -1    1    3    3    0  502 -0.40718321483E+03 -0.96207255392E+02 -0.12759303915E+04  0.13427778560E+04  0.50400001928E-02 0. -1.
</event>
<event>
 5   0  0.2796994E-04  0.1368832E+04  0.7818609E-02  0.8976694E-01
       -1   -1    0    0    0  501  0.00000000000E+00  0.00000000000E+00  0.28109406991E+03  0.28109406996E+03  0.50400001928E-02 0. -1.
        1   -1    0    0  501    0  0.00000000000E+00  0.00000000000E+00 -0.16664354798E+04  0.16664354798E+04  0.50400001928E-02 0.  1.
    10030    2    1    2    0    0  0.00000000000E+00  0.00000000000E+00 -0.13853414099E+04  0.19475295498E+04  0.13688318104E+04 0.  0.
        3    1    3    3  502    0 -0.73222006294E+02  0.66971323430E+03 -0.86427701979E+03  0.10958339544E+04  0.10100000352E+00 0.  1.
       -3    1    3    3    0  502  0.73222006294E+02 -0.66971323430E+03 -0.52106439008E+03  0.85169559539E+03  0.10100000352E+00 0. -1.
</event>
<event>
 5   0  0.5131239E-04  0.1605434E+04  0.7818609E-02  0.8817217E-01
       -2   -1    0    0    0  501  0.00000000000E+00  0.00000000000E+00  0.41421582828E+03  0.41421582829E+03  0.25500000920E-02 0.  1.
        2   -1    0    0  501    0  0.00000000000E+00  0.00000000000E+00 -0.15556001902E+04  0.15556001902E+04  0.25500000920E-02 0. -1.
    10030    2    1    2    0    0  0.00000000000E+00  0.00000000000E+00 -0.11413843620E+04  0.19698160185E+04  0.16054335505E+04 0.  0.
        1    1    3    3  502    0  0.36771024499E+03  0.19937136538E+02 -0.14458447953E+04  0.14920038492E+04  0.50400001928E-02 0. -1.
       -1    1    3    3    0  502 -0.36771024499E+03 -0.19937136538E+02  0.30446043338E+03  0.47781216937E+03  0.50400001928E-02 0.  1.
</event>
<event>
 5   0  0.2649086E-04  0.1580863E+04  0.7818609E-02  0.8832391E-01
       -1   -1    0    0    0  501  0.00000000000E+00  0.00000000000E+00  0.57922199653E+03  0.57922199655E+03  0.50400001928E-02 0. -1.
        1   -1    0    0  501    0  0.00000000000E+00  0.00000000000E+00 -0.10786574327E+04  0.10786574327E+04  0.50400001928E-02 0.  1.
    10030    2    1    2    0    0  0.00000000000E+00  0.00000000000E+00 -0.49943543621E+03  0.16578794293E+04  0.15808631968E+04 0.  0.
        2    1    3    3  502    0 -0.56425873205E+03  0.20508955088E+03  0.28946245271E+03  0.66651192946E+03  0.25500000920E-02 0. -1.
       -2    1    3    3    0  502  0.56425873205E+03 -0.20508955088E+03 -0.78889788892E+03  0.99136749983E+03  0.25500000920E-02 0.  1.
</event>
<event>
 5   0  0.2763895E-04  0.1607373E+04  0.7818609E-02  0.8816031E-01
        1   -1    0    0  501    0  0.00000000000E+00  0.00000000000E+00  0.17868190176E+04  0.17868190176E+04  0.50400001928E-02 0. -1.
       -1   -1    0    0    0  501  0.00000000000E+00  0.00000000000E+00 -0.36148730202E+03  0.36148730205E+03  0.50400001928E-02 0.  1.
    10030    2    1    2    0    0  0.00000000000E+00  0.00000000000E+00  0.14253317156E+04  0.21483063197E+04  0.16073734923E+04 0.  0.
        4    1    3    3  502    0 -0.31775695716E+03 -0.60857402103E+03  0.15422736952E+03  0.70364729609E+03  0.12699999809E+01 0.  1.
       -4    1    3    3    0  502  0.31775695716E+03  0.60857402103E+03  0.12711043461E+04  0.14446590236E+04  0.12699999809E+01 0. -1.
</event>
<event>
 5   0  0.5083831E-04  0.1597470E+04  0.7818609E-02  0.8822104E-01
        2   -1    0    0  501    0  0.00000000000E+00  0.00000000000E+00  0.20839912718E+04  0.20839912718E+04  0.25500000920E-02 0. -1.
       -2   -1    0    0    0  501  0.00000000000E+00  0.00000000000E+00 -0.30613266020E+03  0.30613266022E+03  0.25500000920E-02 0.  1.
    10030    2    1    2    0    0  0.00000000000E+00  0.00000000000E+00  0.17778586115E+04  0.23901239320E+04  0.15974702399E+04 0.  0.
        4    1    3    3  502    0 -0.26204970744E+01  0.15476056816E+03 -0.28347759169E+03  0.32298430047E+03  0.12699999809E+01 0.  1.
       -4    1    3    3    0  502  0.26204970744E+01 -0.15476056816E+03  0.20613362032E+04  0.20671396315E+04  0.12699999809E+01 0. -1.
</event>
<event>
 5   0  0.5315984E-04  0.1610641E+04  0.7818609E-02  0.8814037E-01
       -2   -1    0    0    0  501  0.00000000000E+00  0.00000000000E+00  0.47313726045E+03  0.47313726046E+03  0.25500000920E-02 0.  1.
        2   -1    0    0  501    0  0.00000000000E+00  0.00000000000E+00 -0.13707249817E+04  0.13707249817E+04  0.25500000920E-02 0. -1.
    10030    2    1    2    0    0  0.00000000000E+00  0.00000000000E+00 -0.89758772125E+03  0.18438622422E+04  0.16106409441E+04 0.  0.
        2    1    3    3  502    0  0.11616339988E+03  0.32412559770E+03 -0.12822129825E+04  0.13276375526E+04  0.25500000920E-02 0. -1.
       -2    1    3    3    0  502 -0.11616339988E+03 -0.32412559770E+03  0.38462526123E+03  0.51622468959E+03  0.25500000920E-02 0.  1.
</event>
<event>
 5   0  0.2730707E-04  0.1610821E+04  0.7818609E-02  0.8813928E-01
       -1   -1    0    0    0  501  0.00000000000E+00  0.00000000000E+00  0.19583511629E+04  0.19583511630E+04  0.50400001928E-02 0. -1.
        1   -1    0    0  501    0  0.00000000000E+00  0.00000000000E+00 -0.33124086010E+03  0.33124086014E+03  0.50400001928E-02 0.  1.
    10030    2    1    2    0    0  0.00000000000E+00  0.00000000000E+00  0.16271103028E+04  0.22895920231E+04  0.16108208139E+04 0.  0.
        5    1    3    3  502    0 -0.61396526637E+03  0.25854846804E+03  0.17021179528E+03  0.68760075908E+03  0.46999998093E+01 0.  1.
       -5    1    3    3    0  502  0.61396526637E+03 -0.25854846804E+03  0.14568985076E+04  0.16019912640E+04  0.46999998093E+01 0. -1.
</event>
<event>
 5   0  0.5381164E-04  0.1644885E+04  0.7818609E-02  0.8793438E-01
        2   -1    0    0  501    0  0.00000000000E+00  0.00000000000E+00  0.98251049190E+03  0.98251049190E+03  0.25500000920E-02 0.  1.
       -2   -1    0    0    0  501  0.00000000000E+00  0.00000000000E+00 -0.68845253354E+03  0.68845253354E+03  0.25500000920E-02 0. -1.
    10030    2    1    2    0    0  0.00000000000E+00  0.00000000000E+00  0.29405795837E+03  0.16709630254E+04  0.16448852086E+04 0.  0.
        5    1    3    3  502    0 -0.33264606610E+01 -0.93412521852E+01  0.98243612270E+03  0.98249740433E+03  0.46999998093E+01 0.  1.
       -5    1    3    3    0  502  0.33264606610E+01  0.93412521852E+01 -0.68837816433E+03  0.68846562112E+03  0.46999998093E+01 0. -1.
</event>
<event>
 5   0  0.5315984E-04  0.1578865E+04  0.7818609E-02  0.8833639E-01
        2   -1    0    0  501    0  0.00000000000E+00  0.00000000000E+00  0.83731305497E+03  0.83731305497E+03  0.25500000920E-02 0.  1.
       -2   -1    0    0    0  501  0.00000000000E+00  0.00000000000E+00 -0.74428954080E+03  0.74428954080E+03  0.25500000920E-02 0. -1.
    10030    2    1    2    0    0  0.00000000000E+00  0.00000000000E+00  0.93023514169E+02  0.15816025958E+04  0.15788645910E+04 0.  0.
        2    1    3    3  502    0  0.43113288712E+03  0.14085996299E+03 -0.60074050099E+03  0.75273251894E+03  0.25500000920E-02 0. -1.
       -2    1    3    3    0  502 -0.43113288712E+03 -0.14085996299E+03  0.69376401516E+03  0.82887007683E+03  0.25500000920E-02 0.  1.
</event>
<event>
 5   0  0.1908125E-04  0.1600475E+04  0.7818609E-02  0.8820256E-01
        4   -1    0    0  501    0  0.00000000000E+00  0.00000000000E+00  0.10378580453E+04  0.10378588223E+04  0.12699999809E+01 0. -1.
       -4   -1    0    0    0  501  0.00000000000E+00  0.00000000000E+00 -0.61701951180E+03  0.61702081881E+03  0.12699999809E+01 0.  1.
    10030    2    1    2    0    0  0.00000000000E+00  0.00000000000E+00  0.42083853349E+03  0.16548796411E+04  0.16004754154E+04 0.  0.
        3    1    3    3  502    0  0.32764154264E+03 -0.10095055628E+03 -0.53723698295E+03  0.63730964321E+03  0.10100000352E+00 0.  1.
       -3    1    3    3    0  502 -0.32764154264E+03  0.10095055628E+03  0.95807551644E+03  0.10175699979E+04  0.10100000352E+00 0. -1.
</event>
<event>
 5   0  0.2796994E-04  0.1590886E+04  0.7818609E-02  0.8826167E-01
       -1   -1    0    0    0  501  0.00000000000E+00  0.00000000000E+00  0.57892028623E+03  0.57892028625E+03  0.50400001928E-02 0. -1.
        1   -1    0    0  501    0  0.00000000000E+00  0.00000000000E+00 -0.10929476016E+04  0.10929476016E+04  0.50400001928E-02 0.  1.
    10030    2    1    2    0    0  0.00000000000E+00  0.00000000000E+00 -0.51402731533E+03  0.16718678878E+04  0.15908859649E+04 0.  0.
        3    1    3    3  502    0 -0.28211366475E+03  0.72544584892E+03 -0.84749650414E+02  0.78297018653E+03  0.10100000352E+00 0. -1.
       -3    1    3    3    0  502  0.28211366475E+03 -0.72544584892E+03 -0.42927766492E+03  0.88889770129E+03  0.10100000352E+00 0.  1.
</event>
<event>
 5   0  0.5131239E-04  0.1610961E+04  0.7818609E-02  0.8813842E-01
       -2   -1    0    0    0  501  0.00000000000E+00  0.00000000000E+00  0.45249805981E+03  0.45249805982E+03  0.25500000920E-02 0.  1.
        2   -1    0    0  501    0  0.00000000000E+00  0.00000000000E+00 -0.14338159250E+04  0.14338159250E+04  0.25500000920E-02 0. -1.
    10030    2    1    2    0    0  0.00000000000E+00  0.00000000000E+00 -0.98131786523E+03  0.18863139849E+04  0.16109611097E+04 0.  0.
        1    1    3    3  502    0 -0.33604557907E+03 -0.34950665511E+03  0.26248991683E+03  0.55134607067E+03  0.50400001928E-02 0.  1.
       -1    1    3    3    0  502  0.33604557907E+03  0.34950665511E+03 -0.12438077821E+04  0.13349679142E+04  0.50400001928E-02 0. -1.
</event>
<event>
 5   0  0.2796994E-04  0.1604895E+04  0.7818609E-02  0.8817547E-01
        1   -1    0    0  501    0  0.00000000000E+00  0.00000000000E+00  0.10699779760E+04  0.10699779760E+04  0.50400001928E-02 0.  1.
       -1   -1    0    0    0  501  0.00000000000E+00  0.00000000000E+00 -0.60180827713E+03  0.60180827715E+03  0.50400001928E-02 0. -1.
    10030    2    1    2    0    0  0.00000000000E+00  0.00000000000E+00  0.46816969888E+03  0.16717862532E+04  0.16048945166E+04 0.  0.
        3    1    3    3  502    0  0.64985686341E+03 -0.47069629526E+03  0.24164308423E+03  0.83800974675E+03  0.10100000352E+00 0.  1.
       -3    1    3    3    0  502 -0.64985686341E+03  0.47069629526E+03  0.22652661465E+03  0.83377650641E+03  0.10100000352E+00 0. -1.
</event>
<event>
 5   0  0.5315984E-04  0.1597040E+04  0.7818609E-02  0.8822369E-01
        2   -1    0    0  501    0  0.00000000000E+00  0.00000000000E+00  0.75036487744E+03  0.75036487744E+03  0.25500000920E-02 0. -1.
       -2   -1    0    0    0  501  0.00000000000E+00  0.00000000000E+00 -0.84976500770E+03  0.84976500771E+03  0.25500000920E-02 0.  1.
    10030    2    1    2    0    0  0.00000000000E+00  0.00000000000E+00 -0.99400130266E+02  0.16001298852E+04  0.15970395310E+04 0.  0.
        2    1    3    3  502    0 -0.35936257289E+03 -0.22079911001E+03  0.62965335790E+03  0.75786348170E+03  0.25500000920E-02 0. -1.
       -2    1    3    3    0  502  0.35936257289E+03  0.22079911001E+03 -0.72905348817E+03  0.84226640345E+03  0.25500000920E-02 0.  1.
</event>
<event>
 5   0  0.5264308E-04  0.1609443E+04  0.7818609E-02  0.8814768E-01
       -2   -1    0    0    0  501  0.00000000000E+00  0.00000000000E+00  0.77872268945E+03  0.77872268945E+03  0.25500000920E-02 0. -1.
        2   -1    0    0  501    0  0.00000000000E+00  0.00000000000E+00 -0.83158860195E+03  0.83158860196E+03  0.25500000920E-02 0.  1.
    10030    2    1    2    0    0  0.00000000000E+00  0.00000000000E+00 -0.52865912504E+02  0.16103112914E+04  0.16094432735E+04 0.  0.
        3    1    3    3  502    0 -0.85532956740E+02 -0.21524436184E+03  0.74465179940E+03  0.77984122393E+03  0.10100000352E+00 0. -1.
       -3    1    3    3    0  502  0.85532956740E+02  0.21524436184E+03 -0.79751771190E+03  0.83047006748E+03  0.10100000352E+00 0.  1.
</event>
<event>
 5   0  0.5131239E-04  0.1602370E+04  0.7818609E-02  0.8819093E-01
        2   -1    0    0  501    0  0.00000000000E+00  0.00000000000E+00  0.10136600599E+04  0.10136600599E+04  0.25500000920E-02 0. -1.
       -2   -1    0    0    0  501  0.00000000000E+00  0.00000000000E+00 -0.63324720430E+03  0.63324720431E+03  0.25500000920E-02 0.  1.
    10030    2    1    2    0    0  0.00000000000E+00  0.00000000000E+00  0.38041285560E+03  0.16469072642E+04  0.16023699935E+04 0.  0.
        1    1    3    3  502    0  0.68071514359E+03  0.19922707262E+03  0.57316560893E+03  0.91191191925E+03  0.50400001928E-02 0. -1.
       -1    1    3    3    0  502 -0.68071514359E+03 -0.19922707262E+03 -0.19275275334E+03  0.73499534497E+03  0.50400001928E-02 0.  1.
</event>
<event>
 5   0  0.5381164E-04  0.1613678E+04  0.7818609E-02  0.8812189E-01
        2   -1    0    0  501    0  0.00000000000E+00  0.00000000000E+00  0.20988650068E+04  0.20988650068E+04  0.25500000920E-02 0. -1.
       -2   -1    0    0    0  501  0.00000000000E+00  0.00000000000E+00 -0.31016233288E+03  0.31016233289E+03  0.25500000920E-02 0.  1.
    10030    2    1    2    0    0  0.00000000000E+00  0.00000000000E+00  0.17887026739E+04  0.24090273397E+04  0.16136776220E+04 0.  0.
        5    1    3    3  502    0  0.32426513980E+03 -0.46867713423E+03  0.41760368895E+02  0.57146492058E+03  0.46999998093E+01 0.  1.
       -5    1    3    3    0  502 -0.32426513980E+03  0.46867713423E+03  0.17469423050E+04  0.18375624191E+04  0.46999998093E+01 0. -1.
</event>
<event>
 5   0  0.2763895E-04  0.1571012E+04  0.7818609E-02  0.8838557E-01
        1   -1    0    0  501    0  0.00000000000E+00  0.00000000000E+00  0.14399055415E+04  0.14399055415E+04  0.50400001928E-02 0.  1.
       -1   -1    0    0    0  501  0.00000000000E+00  0.00000000000E+00 -0.42851417776E+03  0.42851417779E+03  0.50400001928E-02 0. -1.
    10030    2    1    2    0    0  0.00000000000E+00  0.00000000000E+00  0.10113913638E+04  0.18684197193E+04  0.15710123350E+04 0.  0.
        4    1    3    3  502    0 -0.58512330553E+03 -0.51990066635E+03  0.58415712517E+03  0.97668170113E+03  0.12699999809E+01 0.  1.
       -4    1    3    3    0  502  0.58512330553E+03  0.51990066635E+03  0.42723423859E+03  0.89173801818E+03  0.12699999809E+01 0. -1.
</event>
<event>
 5   0  0.2730707E-04  0.1608832E+04  0.7818609E-02  0.8815140E-01
       -1   -1    0    0    0  501  0.00000000000E+00  0.00000000000E+00  0.26303904195E+03  0.26303904200E+03  0.50400001928E-02 0.  1.
        1   -1    0    0  501    0  0.00000000000E+00  0.00000000000E+00 -0.24600356132E+04  0.24600356132E+04  0.50400001928E-02 0. -1.
    10030    2    1    2    0    0  0.00000000000E+00  0.00000000000E+00 -0.21969965713E+04  0.27230746553E+04  0.16088323852E+04 0.  0.
        5    1    3    3  502    0  0.22597045438E+03 -0.45573673363E+03 -0.43783403043E+02  0.51058563730E+03  0.46999998093E+01 0.  1.
       -5    1    3    3    0  502 -0.22597045438E+03  0.45573673363E+03 -0.21532131682E+04  0.22124890180E+04  0.46999998093E+01 0. -1.
</event>
<event>
 5   0  0.5083831E-04  0.1608701E+04  0.7818609E-02  0.8815221E-01
        2   -1    0    0  501    0  0.00000000000E+00  0.00000000000E+00  0.21185756531E+04  0.21185756532E+04  0.25500000920E-02 0. -1.
       -2   -1    0    0    0  501  0.00000000000E+00  0.00000000000E+00 -0.30538414269E+03  0.30538414270E+03  0.25500000920E-02 0.  1.
    10030    2    1    2    0    0  0.00000000000E+00  0.00000000000E+00  0.18131915105E+04  0.24239597958E+04  0.16087006055E+04 0.  0.
        4    1    3    3  502    0 -0.67033625088E+03 -0.34737722080E+03  0.48859995271E+03  0.89930703848E+03  0.12699999809E+01 0.  1.
       -4    1    3    3    0  502  0.67033625088E+03  0.34737722080E+03  0.13245915578E+04  0.15246527574E+04  0.12699999809E+01 0. -1.
</event>
<event>
 5   0  0.2763895E-04  0.1608812E+04  0.7818609E-02  0.8815153E-01
       -1   -1    0    0    0  501  0.00000000000E+00  0.00000000000E+00  0.16122881369E+04  0.16122881369E+04  0.50400001928E-02 0.  1.
        1   -1    0    0  501    0  0.00000000000E+00  0.00000000000E+00 -0.40133559807E+03  0.40133559810E+03  0.50400001928E-02 0. -1.
    10030    2    1    2    0    0  0.00000000000E+00  0.00000000000E+00  0.12109525388E+04  0.20136237350E+04  0.16088115163E+04 0.  0.
        4    1    3    3  502    0 -0.55599399314E+02  0.34159525825E+03  0.15143368401E+04  0.15533822105E+04  0.12699999809E+01 0.  1.
       -4    1    3    3    0  502  0.55599399314E+02 -0.34159525825E+03 -0.30338430132E+03  0.46024152447E+03  0.12699999809E+01 0. -1.
</event>
<event>
 5   0  0.2689675E-04  0.1594011E+04  0.7818609E-02  0.8824236E-01
       -1   -1    0    0    0  501  0.00000000000E+00  0.00000000000E+00  0.10167840918E+04  0.10167840918E+04  0.50400001928E-02 0.  1.
        1   -1    0    0  501    0  0.00000000000E+00  0.00000000000E+00 -0.62473197901E+03  0.62473197903E+03  0.50400001928E-02 0. -1.
    10030    2    1    2    0    0  0.00000000000E+00  0.00000000000E+00  0.39205211275E+03  0.16415160708E+04  0.15940107125E+04 0.  0.
        1    1    3    3  502    0  0.25607468213E+03  0.37678055273E+03  0.86948825949E+03  0.98160463587E+03  0.50400001928E-02 0.  1.
       -1    1    3    3    0  502 -0.25607468213E+03 -0.37678055273E+03 -0.47743614673E+03  0.65991143495E+03  0.50400001928E-02 0. -1.
</event>
<event>
 5   0  0.5131239E-04  0.1510388E+04  0.7818609E-02  0.8877574E-01
        2   -1    0    0  501    0  0.00000000000E+00  0.00000000000E+00  0.13991687191E+04  0.13991687191E+04  0.25500000920E-02 0. -1.
       -2   -1    0    0    0  501  0.00000000000E+00  0.00000000000E+00 -0.40761217966E+03  0.40761217967E+03  0.25500000920E-02 0.  1.
    10030    2    1    2    0    0  0.00000000000E+00  0.00000000000E+00  0.99155653946E+03  0.18067808988E+04  0.15103883094E+04 0.  0.
        1    1    3    3  502    0  0.11371910708E+01  0.21936142869E+03  0.13602170893E+04  0.13777921686E+04  0.50400001928E-02 0. -1.
       -1    1    3    3    0  502 -0.11371910708E+01 -0.21936142869E+03 -0.36866054987E+03  0.42898873023E+03  0.50400001928E-02 0.  1.
</event>
<event>
 5   0  0.2730707E-04  0.1607365E+04  0.7818609E-02  0.8816036E-01
        1   -1    0    0  501    0  0.00000000000E+00  0.00000000000E+00  0.15690116362E+04  0.15690116362E+04  0.50400001928E-02 0. -1.
       -1   -1    0    0    0  501  0.00000000000E+00  0.00000000000E+00 -0.41166383266E+03  0.41166383269E+03  0.50400001928E-02 0.  1.
    10030    2    1    2    0    0  0.00000000000E+00  0.00000000000E+00  0.11573478036E+04  0.19806754689E+04  0.16073647298E+04 0.  0.
        5    1    3    3  502    0 -0.27099278172E+02 -0.69321647369E+03  0.10786089042E+04  0.12824596323E+04  0.46999998093E+01 0. -1.
       -5    1    3    3    0  502  0.27099278172E+02  0.69321647369E+03  0.78738899402E+02  0.69821583665E+03  0.46999998093E+01 0.  1.
</event>
<event>
 5   0  0.5083831E-04  0.1600398E+04  0.7818609E-02  0.8820303E-01
        2   -1    0    0  501    0  0.00000000000E+00  0.00000000000E+00  0.14909738913E+04  0.14909738913E+04  0.25500000920E-02 0. -1.
       -2   -1    0    0    0  501  0.00000000000E+00  0.00000000000E+00 -0.42946334816E+03  0.42946334817E+03  0.25500000920E-02 0.  1.
    10030    2    1    2    0    0  0.00000000000E+00  0.00000000000E+00  0.10615105431E+04  0.19204372395E+04  0.16003982497E+04 0.  0.
        4    1    3    3  502    0  0.19648505964E+03 -0.22023541131E+03  0.14232710221E+04  0.14535515231E+04  0.12699999809E+01 0. -1.
       -4    1    3    3    0  502 -0.19648505964E+03  0.22023541131E+03 -0.36176047900E+03  0.46688571634E+03  0.12699999809E+01 0.  1.
</event>
<event>
 5   0  0.5131239E-04  0.1523362E+04  0.7818609E-02  0.8869064E-01
       -2   -1    0    0    0  501  0.00000000000E+00  0.00000000000E+00  0.40008307346E+03  0.40008307347E+03  0.25500000920E-02 0.  1.
        2   -1    0    0  501    0  0.00000000000E+00  0.00000000000E+00 -0.14500936930E+04  0.14500936930E+04  0.25500000920E-02 0. -1.
    10030    2    1    2    0    0  0.00000000000E+00  0.00000000000E+00 -0.10500106195E+04  0.18501767665E+04  0.15233619944E+04 0.  0.
        1    1    3    3  502    0 -0.30890068378E+03  0.12631805286E+03 -0.13565691526E+04  0.13970167317E+04  0.50400001928E-02 0. -1.
       -1    1    3    3    0  502  0.30890068378E+03 -0.12631805286E+03  0.30655853303E+03  0.45316003477E+03  0.50400001928E-02 0.  1.
</event>
<event>
 5   0  0.5264308E-04  0.1598365E+04  0.7818609E-02  0.8821553E-01
        2   -1    0    0  501    0  0.00000000000E+00  0.00000000000E+00  0.20582287799E+04  0.20582287799E+04  0.25500000920E-02 0. -1.
       -2   -1    0    0    0  501  0.00000000000E+00  0.00000000000E+00 -0.31031193465E+03  0.31031193466E+03  0.25500000920E-02 0.  1.
    10030    2    1    2    0    0  0.00000000000E+00  0.00000000000E+00  0.17479168453E+04  0.23685407146E+04  0.15983653583E+04 0.  0.
        3    1    3    3  502    0 -0.37890993206E+03  0.58897208476E+03  0.30343180122E+03  0.76323765724E+03  0.10100000352E+00 0.  1.
       -3    1    3    3    0  502  0.37890993206E+03 -0.58897208476E+03  0.14444850441E+04  0.16053030573E+04  0.10100000352E+00 0. -1.
</event>
<event>
 5   0  0.5315984E-04  0.1627478E+04  0.7818609E-02  0.8803843E-01
       -2   -1    0    0    0  501  0.00000000000E+00  0.00000000000E+00  0.74155664164E+03  0.74155664164E+03  0.25500000920E-02 0.  1.
        2   -1    0    0  501    0  0.00000000000E+00  0.00000000000E+00 -0.89294737213E+03  0.89294737214E+03  0.25500000920E-02 0. -1.
    10030    2    1    2    0    0  0.00000000000E+00  0.00000000000E+00 -0.15139073050E+03  0.16345040138E+04  0.16274778701E+04 0.  0.
        2    1    3    3  502    0  0.38050681481E+03  0.69350341628E+03  0.11601779187E+03  0.79949518607E+03  0.25500000920E-02 0. -1.
       -2    1    3    3    0  502 -0.38050681481E+03 -0.69350341628E+03 -0.26740852237E+03  0.83500882771E+03  0.25500000920E-02 0.  1.
</event>
<event>
 5   0  0.5131239E-04  0.1892056E+04  0.7818609E-02  0.8658821E-01
        2   -1    0    0  501    0  0.00000000000E+00  0.00000000000E+00  0.86062600848E+03  0.86062600849E+03  0.25500000920E-02 0.  1.
       -2   -1    0    0    0  501  0.00000000000E+00  0.00000000000E+00 -0.10399046028E+04  0.10399046028E+04  0.25500000920E-02 0. -1.
    10030    2    1    2    0    0  0.00000000000E+00  0.00000000000E+00 -0.17927859431E+03  0.19005306113E+04  0.18920559691E+04 0.  0.
        1    1    3    3  502    0  0.54914406057E+03 -0.53462362343E+03  0.46745037946E+03  0.89771458453E+03  0.50400001928E-02 0.  1.
       -1    1    3    3    0  502 -0.54914406057E+03  0.53462362343E+03 -0.64672897376E+03  0.10028160268E+04  0.50400001928E-02 0. -1.
</event>
<event>
 5   0  0.5381164E-04  0.1584643E+04  0.7818609E-02  0.8830038E-01
        2   -1    0    0  501    0  0.00000000000E+00  0.00000000000E+00  0.16912823472E+04  0.16912823472E+04  0.25500000920E-02 0. -1.
       -2   -1    0    0    0  501  0.00000000000E+00  0.00000000000E+00 -0.37118184118E+03  0.37118184119E+03  0.25500000920E-02 0.  1.
    10030    2    1    2    0    0  0.00000000000E+00  0.00000000000E+00  0.13201005060E+04  0.20624641884E+04  0.15846429195E+04 0.  0.
        5    1    3    3  502    0  0.70033757873E+03  0.72665110394E+02  0.18718314045E+03  0.72856884405E+03  0.46999998093E+01 0.  1.
       -5    1    3    3    0  502 -0.70033757873E+03 -0.72665110394E+02  0.11329173656E+04  0.13338953443E+04  0.46999998093E+01 0. -1.
</event>
<event>
 5   0  0.5315984E-04  0.1654675E+04  0.7818609E-02  0.8787646E-01
        2   -1    0    0  501    0  0.00000000000E+00  0.00000000000E+00  0.76366162050E+03  0.76366162050E+03  0.25500000920E-02 0. -1.
       -2   -1    0    0    0  501  0.00000000000E+00  0.00000000000E+00 -0.89632262841E+03  0.89632262842E+03  0.25500000920E-02 0.  1.
    10030    2    1    2    0    0  0.00000000000E+00  0.00000000000E+00 -0.13266100792E+03  0.16599842489E+04  0.16546748211E+04 0.  0.
        2    1    3    3  502    0  0.22077493683E+03  0.40637854810E+03  0.62187515018E+03  0.77499277384E+03  0.25500000920E-02 0. -1.
       -2    1    3    3    0  502 -0.22077493683E+03 -0.40637854810E+03 -0.75453615809E+03  0.88499147508E+03  0.25500000920E-02 0.  1.
</event>
<event>
 5   0  0.2796994E-04  0.1623467E+04  0.7818609E-02  0.8806259E-01
       -1   -1    0    0    0  501  0.00000000000E+00  0.00000000000E+00  0.26969840925E+03  0.26969840930E+03  0.50400001928E-02 0.  1.
        1   -1    0    0  501    0  0.00000000000E+00  0.00000000000E+00 -0.24431423087E+04  0.24431423087E+04  0.50400001928E-02 0. -1.
    10030    2    1    2    0    0  0.00000000000E+00  0.00000000000E+00 -0.21734438994E+04  0.27128407180E+04  0.16234673933E+04 0.  0.
        3    1    3    3  502    0  0.75272752944E+02  0.63958319267E+03 -0.19124457900E+04  0.20179647068E+04  0.10100000352E+00 0. -1.
       -3    1    3    3    0  502 -0.75272752944E+02 -0.63958319267E+03 -0.26099810940E+03  0.69487601123E+03  0.10100000352E+00 0.  1.
</event>
<event>
 5   0  0.2689675E-04  0.1530156E+04  0.7818609E-02  0.8864644E-01
        1   -1    0    0  501    0  0.00000000000E+00  0.00000000000E+00  0.63897323524E+03  0.63897323526E+03  0.50400001928E-02 0. -1.
       -1   -1    0    0    0  501  0.00000000000E+00  0.00000000000E+00 -0.91606967318E+03  0.91606967319E+03  0.50400001928E-02 0.  1.
    10030    2    1    2    0    0  0.00000000000E+00  0.00000000000E+00 -0.27709643794E+03  0.15550429084E+04  0.15301555513E+04 0.  0.
        1    1    3    3  502    0  0.36902740530E+03 -0.44125707623E+03 -0.65118795146E+03  0.86886982992E+03  0.50400001928E-02 0.  1.
       -1    1    3    3    0  502 -0.36902740530E+03  0.44125707623E+03  0.37409151352E+03  0.68617307853E+03  0.50400001928E-02 0. -1.
</event>
<event>
 5   0  0.5083831E-04  0.1584843E+04  0.7818609E-02  0.8829914E-01
        2   -1    0    0  501    0  0.00000000000E+00  0.00000000000E+00  0.89516225030E+03  0.89516225030E+03  0.25500000920E-02 0.  1.
       -2   -1    0    0    0  501  0.00000000000E+00  0.00000000000E+00 -0.70147265104E+03  0.70147265104E+03  0.25500000920E-02 0. -1.
    10030    2    1    2    0    0  0.00000000000E+00  0.00000000000E+00  0.19368959926E+03  0.15966349013E+04  0.15848430040E+04 0.  0.
        4    1    3    3  502    0 -0.24370197174E+03 -0.25191438707E+03  0.81282152478E+03  0.88517340306E+03  0.12699999809E+01 0.  1.
       -4    1    3    3    0  502  0.24370197174E+03  0.25191438707E+03 -0.61913192552E+03  0.71146149828E+03  0.12699999809E+01 0. -1.
</event>
<event>
 5   0  0.5381164E-04  0.1548587E+04  0.7818609E-02  0.8852771E-01
        2   -1    0    0  501    0  0.00000000000E+00  0.00000000000E+00  0.10600601622E+04  0.10600601622E+04  0.25500000920E-02 0.  1.
       -2   -1    0    0    0  501  0.00000000000E+00  0.00000000000E+00 -0.56556254285E+03  0.56556254286E+03  0.25500000920E-02 0. -1.
    10030    2    1    2    0    0  0.00000000000E+00  0.00000000000E+00  0.49449761931E+03  0.16256227050E+04  0.15485868667E+04 0.  0.
        5    1    3    3  502    0  0.76851716406E+03  0.57791323926E+02  0.16904617640E+03  0.78902292002E+03  0.46999998093E+01 0. -1.
       -5    1    3    3    0  502 -0.76851716406E+03 -0.57791323926E+02  0.32545144291E+03  0.83659978500E+03  0.46999998093E+01 0.  1.
</event>
<event>
 5   0  0.5381164E-04  0.1603301E+04  0.7818609E-02  0.8818523E-01
        2   -1    0    0  501    0  0.00000000000E+00  0.00000000000E+00  0.16261200979E+04  0.16261200979E+04  0.25500000920E-02 0.  1.
       -2   -1    0    0    0  501  0.00000000000E+00  0.00000000000E+00 -0.39520036168E+03  0.39520036168E+03  0.25500000920E-02 0. -1.
    10030    2    1    2    0    0  0.00000000000E+00  0.00000000000E+00  0.12309197362E+04  0.20213204596E+04  0.16033006591E+04 0.  0.
        5    1    3    3  502    0  0.34976395375E+03 -0.71300396637E+03  0.47786357444E+03  0.92686847243E+03  0.46999998093E+01 0. -1.
       -5    1    3    3    0  502 -0.34976395375E+03  0.71300396637E+03  0.75305616178E+03  0.10944519872E+04  0.46999998093E+01 0.  1.
</event>
<event>
 5   0  0.2763895E-04  0.1617650E+04  0.7818609E-02  0.8809778E-01
       -1   -1    0    0    0  501  0.00000000000E+00  0.00000000000E+00  0.13042895308E+04  0.13042895308E+04  0.50400001928E-02 0. -1.
        1   -1    0    0  501    0  0.00000000000E+00  0.00000000000E+00 -0.50157400340E+03  0.50157400342E+03  0.50400001928E-02 0.  1.
    10030    2    1    2    0    0  0.00000000000E+00  0.00000000000E+00  0.80271552741E+03  0.18058635342E+04  0.16176498034E+04 0.  0.
        4    1    3    3  502    0  0.36867958733E+03 -0.41319142259E+03  0.10594784107E+04  0.11954697426E+04  0.12699999809E+01 0. -1.
       -4    1    3    3    0  502 -0.36867958733E+03  0.41319142259E+03 -0.25676288325E+03  0.61039379169E+03  0.12699999809E+01 0.  1.
</event>
<event>
 5   0  0.2730707E-04  0.1610705E+04  0.7818609E-02  0.8813999E-01
        1   -1    0    0  501    0  0.00000000000E+00  0.00000000000E+00  0.69758386813E+03  0.69758386815E+03  0.50400001928E-02 0.  1.
       -1   -1    0    0    0  501  0.00000000000E+00  0.00000000000E+00 -0.92976965057E+03  0.92976965058E+03  0.50400001928E-02 0. -1.
    10030    2    1    2    0    0  0.00000000000E+00  0.00000000000E+00 -0.23218578244E+03  0.16273535187E+04  0.16107045779E+04 0.  0.
        5    1    3    3  502    0 -0.35175900361E+03  0.22092478071E+03  0.58098657957E+03  0.71421960977E+03  0.46999998093E+01 0.  1.
       -5    1    3    3    0  502  0.35175900361E+03 -0.22092478071E+03 -0.81317236201E+03  0.91313390895E+03  0.46999998093E+01 0. -1.
</event>
<event>
 5   0  0.5131239E-04  0.1580913E+04  0.7818609E-02  0.8832361E-01
        2   -1    0    0  501    0  0.00000000000E+00  0.00000000000E+00  0.16480608105E+04  0.16480608105E+04  0.25500000920E-02 0. -1.
       -2   -1    0    0    0  501  0.00000000000E+00  0.00000000000E+00 -0.37912501814E+03  0.37912501815E+03  0.25500000920E-02 0.  1.
    10030    2    1    2    0    0  0.00000000000E+00  0.00000000000E+00  0.12689357924E+04  0.20271858287E+04  0.15809125020E+04 0.  0.
        1    1    3    3  502    0  0.52415634996E+03  0.36293908771E+03  0.12336636325E+04  0.13886650492E+04  0.50400001928E-02 0. -1.
       -1    1    3    3    0  502 -0.52415634996E+03 -0.36293908771E+03  0.35272159889E+02  0.63852077952E+03  0.50400001928E-02 0.  1.
</event>
<event>
 5   0  0.5083831E-04  0.1606598E+04  0.7818609E-02  0.8816505E-01
       -2   -1    0    0    0  501  0.00000000000E+00  0.00000000000E+00  0.47584551636E+03  0.47584551637E+03  0.25500000920E-02 0. -1.
        2   -1    0    0  501    0  0.00000000000E+00  0.00000000000E+00 -0.13560894557E+04  0.13560894557E+04  0.25500000920E-02 0.  1.
    10030    2    1    2    0    0  0.00000000000E+00  0.00000000000E+00 -0.88024393935E+03  0.18319349721E+04  0.16065977559E+04 0.  0.
        4    1    3    3  502    0 -0.12597977569E+03  0.37199230005E+03  0.35890342250E+03  0.53203614046E+03  0.12699999809E+01 0. -1.
       -4    1    3    3    0  502  0.12597977569E+03 -0.37199230005E+03 -0.12391473618E+04  0.12998988316E+04  0.12699999809E+01 0.  1.
</event>
<event>
 5   0  0.5315984E-04  0.1602541E+04  0.7818609E-02  0.8818988E-01
       -2   -1    0    0    0  501  0.00000000000E+00  0.00000000000E+00  0.32543666803E+03  0.32543666804E+03  0.25500000920E-02 0.  1.
        2   -1    0    0  501    0  0.00000000000E+00  0.00000000000E+00 -0.19728405152E+04  0.19728405152E+04  0.25500000920E-02 0. -1.
    10030    2    1    2    0    0  0.00000000000E+00  0.00000000000E+00 -0.16474038471E+04  0.22982771832E+04  0.16025412866E+04 0.  0.
        2    1    3    3  502    0 -0.66759507197E+03 -0.25744118038E+03 -0.13409405315E+04  0.15198949472E+04  0.25500000920E-02 0. -1.
       -2    1    3    3    0  502  0.66759507197E+03  0.25744118038E+03 -0.30646331559E+03  0.77838223598E+03  0.25500000920E-02 0.  1.
</event>
<event>
 5   0  0.5315984E-04  0.1597968E+04  0.7818609E-02  0.8821797E-01
       -2   -1    0    0    0  501  0.00000000000E+00  0.00000000000E+00  0.67515075772E+03  0.67515075773E+03  0.25500000920E-02 0. -1.
        2   -1    0    0  501    0  0.00000000000E+00  0.00000000000E+00 -0.94552999160E+03  0.94552999160E+03  0.25500000920E-02 0.  1.
    10030    2    1    2    0    0  0.00000000000E+00  0.00000000000E+00 -0.27037923388E+03  0.16206807493E+04  0.15979678223E+04 0.  0.
        2    1    3    3  502    0  0.57404916661E+03  0.45942349865E+03 -0.45232060279E+03  0.86324754533E+03  0.25500000920E-02 0.  1.
       -2    1    3    3    0  502 -0.57404916661E+03 -0.45942349865E+03  0.18194136892E+03  0.75743320400E+03  0.25500000920E-02 0. -1.
</event>
<event>
 5   0  0.2649086E-04  0.1603615E+04  0.7818609E-02  0.8818330E-01
        1   -1    0    0  501    0  0.00000000000E+00  0.00000000000E+00  0.17006606368E+04  0.17006606368E+04  0.50400001928E-02 0.  1.
       -1   -1    0    0    0  501  0.00000000000E+00  0.00000000000E+00 -0.37802700173E+03  0.37802700176E+03  0.50400001928E-02 0. -1.
    10030    2    1    2    0    0  0.00000000000E+00  0.00000000000E+00  0.13226336351E+04  0.20786876386E+04  0.16036154670E+04 0.  0.
        2    1    3    3  502    0 -0.50579130890E+03 -0.59092296785E+03  0.91360609571E+03  0.11998712015E+04  0.25500000920E-02 0.  1.
       -2    1    3    3    0  502  0.50579130890E+03  0.59092296785E+03  0.40902753938E+03  0.87881643708E+03  0.25500000920E-02 0. -1.
</event>
<event>
 5   0  0.2796994E-04  0.1593567E+04  0.7818609E-02  0.8824510E-01
       -1   -1    0    0    0  501  0.00000000000E+00  0.00000000000E+00  0.10280151154E+04  0.10280151154E+04  0.50400001928E-02 0.  1.
        1   -1    0    0  501    0  0.00000000000E+00  0.00000000000E+00 -0.61756315669E+03  0.61756315672E+03  0.50400001928E-02 0. -1.
    10030    2    1    2    0    0  0.00000000000E+00  0.00000000000E+00  0.41045195869E+03  0.16455782721E+04  0.15935673940E+04 0.  0.
        3    1    3    3  502    0  0.61971913081E+03  0.36017079341E+03  0.56456241796E+03  0.91241741297E+03  0.10100000352E+00 0.  1.
       -3    1    3    3    0  502 -0.61971913081E+03 -0.36017079341E+03 -0.15411045927E+03  0.73316085914E+03  0.10100000352E+00 0. -1.
</event>
<event>
 5   0  0.5381164E-04  0.1556087E+04  0.7818609E-02  0.8847989E-01
        2   -1    0    0  501    0  0.00000000000E+00  0.00000000000E+00  0.21367602598E+04  0.21367602598E+04  0.25500000920E-02 0.  1.
       -2   -1    0    0    0  501  0.00000000000E+00  0.00000000000E+00 -0.28330339814E+03  0.28330339815E+03  0.25500000920E-02 0. -1.
    10030    2    1    2    0    0  0.00000000000E+00  0.00000000000E+00  0.18534568617E+04  0.24200636580E+04  0.15560866848E+04 0.  0.
        5    1    3    3  502    0 -0.40536987328E+03  0.65646151508E+03  0.77071767810E+03  0.10905476992E+04  0.46999998093E+01 0. -1.
       -5    1    3    3    0  502  0.40536987328E+03 -0.65646151508E+03  0.10827391836E+04  0.13295159588E+04  0.46999998093E+01 0.  1.
</event>
<event>
 5   0  0.5131239E-04  0.1603494E+04  0.7818609E-02  0.8818405E-01
        2   -1    0    0  501    0  0.00000000000E+00  0.00000000000E+00  0.15047962537E+04  0.15047962537E+04  0.25500000920E-02 0.  1.
       -2   -1    0    0    0  501  0.00000000000E+00  0.00000000000E+00 -0.42716615315E+03  0.42716615316E+03  0.25500000920E-02 0. -1.
    10030    2    1    2    0    0  0.00000000000E+00  0.00000000000E+00  0.10776301005E+04  0.19319624068E+04  0.16034937193E+04 0.  0.
        1    1    3    3  502    0  0.52637513689E+03 -0.58723490080E+03  0.36470583678E+03  0.86886475407E+03  0.50400001928E-02 0. -1.
       -1    1    3    3    0  502 -0.52637513689E+03  0.58723490080E+03  0.71292426373E+03  0.10630976528E+04  0.50400001928E-02 0.  1.
</event>
<event>
 5   0  0.2763895E-04  0.1604481E+04  0.7818609E-02  0.8817800E-01
       -1   -1    0    0    0  501  0.00000000000E+00  0.00000000000E+00  0.60338135269E+03  0.60338135271E+03  0.50400001928E-02 0.  1.
        1   -1    0    0  501    0  0.00000000000E+00  0.00000000000E+00 -0.10666389052E+04  0.10666389053E+04  0.50400001928E-02 0. -1.
    10030    2    1    2    0    0  0.00000000000E+00  0.00000000000E+00 -0.46325755256E+03  0.16700202580E+04  0.16044812564E+04 0.  0.
        4    1    3    3  502    0  0.42439101548E+03  0.24594612057E+03  0.42911771292E+03  0.65172145330E+03  0.12699999809E+01 0.  1.
       -4    1    3    3    0  502 -0.42439101548E+03 -0.24594612057E+03 -0.89237526548E+03  0.10182988047E+04  0.12699999809E+01 0. -1.
</event>
<event>
 5   0  0.2796994E-04  0.1617619E+04  0.7818609E-02  0.8809796E-01
        1   -1    0    0  501    0  0.00000000000E+00  0.00000000000E+00  0.98121223018E+03  0.98121223020E+03  0.50400001928E-02 0. -1.
       -1   -1    0    0    0  501  0.00000000000E+00  0.00000000000E+00 -0.66669868341E+03  0.66669868343E+03  0.50400001928E-02 0.  1.
    10030    2    1    2    0    0  0.00000000000E+00  0.00000000000E+00  0.31451354677E+03  0.16479109136E+04  0.16176191171E+04 0.  0.
        3    1    3    3  502    0  0.13129904865E+03 -0.69874680785E+02  0.96716071745E+03  0.97853041586E+03  0.10100000352E+00 0. -1.
       -3    1    3    3    0  502 -0.13129904865E+03  0.69874680785E+02 -0.65264717067E+03  0.66938049776E+03  0.10100000352E+00 0.  1.
</event>
<event>
 5   0  0.5381164E-04  0.1539448E+04  0.7818609E-02  0.8858636E-01
       -2   -1    0    0    0  501  0.00000000000E+00  0.00000000000E+00  0.36752116169E+03  0.36752116170E+03  0.25500000920E-02 0.  1.
        2   -1    0    0  501    0  0.00000000000E+00  0.00000000000E+00 -0.16120846546E+04  0.16120846546E+04  0.25500000920E-02 0. -1.
    10030    2    1    2    0    0  0.00000000000E+00  0.00000000000E+00 -0.12445634929E+04  0.19796058163E+04  0.15394482453E+04 0.  0.
        5    1    3    3  502    0 -0.47763137157E+02 -0.72316340246E+03 -0.28891728222E+03  0.78021914222E+03  0.46999998093E+01 0.  1.
       -5    1    3    3    0  502  0.47763137157E+02  0.72316340246E+03 -0.95564621069E+03  0.11993866741E+04  0.46999998093E+01 0. -1.
</event>
<event>
 5   0  0.1908125E-04  0.1612379E+04  0.7818609E-02  0.8812979E-01
        4   -1    0    0  501    0  0.00000000000E+00  0.00000000000E+00  0.82052668445E+03  0.82052766729E+03  0.12699999809E+01 0. -1.
       -4   -1    0    0    0  501  0.00000000000E+00  0.00000000000E+00 -0.79210042975E+03  0.79210144787E+03  0.12699999809E+01 0.  1.
    10030    2    1    2    0    0  0.00000000000E+00  0.00000000000E+00  0.28426254697E+02  0.16126291152E+04  0.16123785570E+04 0.  0.
        4    1    3    3  502    0  0.16748708373E+03  0.78545532051E+03  0.84562924279E+02  0.80755463270E+03  0.12699999809E+01 0.  1.
       -4    1    3    3    0  502 -0.16748708373E+03 -0.78545532051E+03 -0.56136669582E+02  0.80507448246E+03  0.12699999809E+01 0. -1.
</event>
<event>
 5   0  0.5315984E-04  0.1598054E+04  0.7818609E-02  0.8821745E-01
        2   -1    0    0  501    0  0.00000000000E+00  0.00000000000E+00  0.67190366043E+03  0.67190366044E+03  0.25500000920E-02 0.  1.
       -2   -1    0    0    0  501  0.00000000000E+00  0.00000000000E+00 -0.95020167709E+03  0.95020167709E+03  0.25500000920E-02 0. -1.
    10030    2    1    2    0    0  0.00000000000E+00  0.00000000000E+00 -0.27829801666E+03  0.16221053375E+04  0.15980537976E+04 0.  0.
        2    1    3    3  502    0 -0.95400640399E+02  0.45326230030E+03 -0.80002094739E+03  0.92443577999E+03  0.25500000920E-02 0. -1.
       -2    1    3    3    0  502  0.95400640399E+02 -0.45326230030E+03  0.52172293073E+03  0.69766955754E+03  0.25500000920E-02 0.  1.
</event>
<event>
 5   0  0.5083831E-04  0.1597741E+04  0.7818609E-02  0.8821937E-01
       -2   -1    0    0    0  501  0.00000000000E+00  0.00000000000E+00  0.79786991369E+03  0.79786991369E+03  0.25500000920E-02 0. -1.
        2   -1    0    0  501    0  0.00000000000E+00  0.00000000000E+00 -0.79987231380E+03  0.79987231381E+03  0.25500000920E-02 0.  1.
    10030    2    1    2    0    0  0.00000000000E+00  0.00000000000E+00 -0.20024001158E+01  0.15977422275E+04  0.15977409727E+04 0.  0.
        4    1    3    3  502    0  0.46135747566E+03 -0.36890371484E+03  0.53682054015E+03  0.79819707867E+03  0.12699999809E+01 0. -1.
       -4    1    3    3    0  502 -0.46135747566E+03  0.36890371484E+03 -0.53882294026E+03  0.79954514883E+03  0.12699999809E+01 0.  1.
</event>
<event>
 5   0  0.2689675E-04  0.1618473E+04  0.7818609E-02  0.8809279E-01
       -1   -1    0    0    0  501  0.00000000000E+00  0.00000000000E+00  0.32798954144E+03  0.32798954148E+03  0.50400001928E-02 0.  1.
        1   -1    0    0  501    0  0.00000000000E+00  0.00000000000E+00 -0.19966004829E+04  0.19966004829E+04  0.50400001928E-02 0. -1.
    10030    2    1    2    0    0  0.00000000000E+00  0.00000000000E+00 -0.16686109415E+04  0.23245900244E+04  0.16184734498E+04 0.  0.
        1    1    3    3  502    0 -0.76113646845E+03  0.26681210371E+03 -0.92899857510E+03  0.12302665463E+04  0.50400001928E-02 0. -1.
       -1    1    3    3    0  502  0.76113646845E+03 -0.26681210371E+03 -0.73961236639E+03  0.10943234782E+04  0.50400001928E-02 0.  1.
</event>
<event>
 5   0  0.2689675E-04  0.1614331E+04  0.7818609E-02  0.8811792E-01
        1   -1    0    0  501    0  0.00000000000E+00  0.00000000000E+00  0.81452341802E+03  0.81452341803E+03  0.50400001928E-02 0. -1.
       -1   -1    0    0    0  501  0.00000000000E+00  0.00000000000E+00 -0.79987363610E+03  0.79987363612E+03  0.50400001928E-02 0.  1.
    10030    2    1    2    0    0  0.00000000000E+00  0.00000000000E+00  0.14649781913E+02  0.16143970542E+04  0.16143305834E+04 0.  0.
        1    1    3    3  502    0 -0.77691536154E+03  0.16189713483E+03  0.15466610882E+03  0.80853556910E+03  0.50400001928E-02 0.  1.
       -1    1    3    3    0  502  0.77691536154E+03 -0.16189713483E+03 -0.14001632691E+03  0.80586148505E+03  0.50400001928E-02 0. -1.
</event>
<event>
 5   0  0.2730707E-04  0.1567489E+04  0.7818609E-02  0.8840773E-01
       -1   -1    0    0    0  501  0.00000000000E+00  0.00000000000E+00  0.81674087318E+03  0.81674087319E+03  0.50400001928E-02 0. -1.
        1   -1    0    0  501    0  0.00000000000E+00  0.00000000000E+00 -0.75208123425E+03  0.75208123426E+03  0.50400001928E-02 0.  1.
    10030    2    1    2    0    0  0.00000000000E+00  0.00000000000E+00  0.64659638930E+02  0.15688221075E+04  0.15674890545E+04 0.  0.
        5    1    3    3  502    0  0.48164911203E+03 -0.75983101432E+01 -0.58641093946E+03  0.75890940260E+03  0.46999998093E+01 0.  1.
       -5    1    3    3    0  502 -0.48164911203E+03  0.75983101432E+01  0.65107057839E+03  0.80991270486E+03  0.46999998093E+01 0. -1.
</event>
<event>
 5   0  0.5131239E-04  0.1613514E+04  0.7818609E-02  0.8812288E-01
       -2   -1    0    0    0  501  0.00000000000E+00  0.00000000000E+00  0.34869190564E+03  0.34869190565E+03  0.25500000920E-02 0.  1.
        2   -1    0    0  501    0  0.00000000000E+00  0.00000000000E+00 -0.18665678562E+04  0.18665678562E+04  0.25500000920E-02 0. -1.
    10030    2    1    2    0    0  0.00000000000E+00  0.00000000000E+00 -0.15178759505E+04  0.22152597618E+04  0.16135143046E+04 0.  0.
        1    1    3    3  502    0 -0.90801847191E+02  0.34393620838E+02 -0.18585163863E+04  0.18610510618E+04  0.50400001928E-02 0. -1.
       -1    1    3    3    0  502  0.90801847191E+02 -0.34393620838E+02  0.34064043579E+03  0.35420869996E+03  0.50400001928E-02 0.  1.
</event>
<event>
 5   0  0.5083831E-04  0.1597392E+04  0.7818609E-02  0.8822152E-01
        2   -1    0    0  501    0  0.00000000000E+00  0.00000000000E+00  0.13686961703E+04  0.13686961703E+04  0.25500000920E-02 0.  1.
       -2   -1    0    0    0  501  0.00000000000E+00  0.00000000000E+00 -0.46607539732E+03  0.46607539733E+03  0.25500000920E-02 0. -1.
    10030    2    1    2    0    0  0.00000000000E+00  0.00000000000E+00  0.90262077301E+03  0.18347715677E+04  0.15973923894E+04 0.  0.
        4    1    3    3  502    0 -0.14083195065E+03  0.78592911935E+03  0.47416095795E+03  0.92862718348E+03  0.12699999809E+01 0.  1.
       -4    1    3    3    0  502  0.14083195065E+03 -0.78592911935E+03  0.42845981506E+03  0.90614438418E+03  0.12699999809E+01 0. -1.
</event>
<event>
 5   0  0.2763895E-04  0.1588693E+04  0.7818609E-02  0.8827525E-01
        1   -1    0    0  501    0  0.00000000000E+00  0.00000000000E+00  0.68977656207E+03  0.68977656209E+03  0.50400001928E-02 0. -1.
       -1   -1    0    0    0  501  0.00000000000E+00  0.00000000000E+00 -0.91476865677E+03  0.91476865679E+03  0.50400001928E-02 0.  1.
    10030    2    1    2    0    0  0.00000000000E+00  0.00000000000E+00 -0.22499209470E+03  0.16045452189E+04  0.15886925180E+04 0.  0.
        4    1    3    3  502    0 -0.78152797405E+03  0.14168588379E+03 -0.10127199172E+03  0.80069875302E+03  0.12699999809E+01 0. -1.
       -4    1    3    3    0  502  0.78152797405E+03 -0.14168588379E+03 -0.12372010298E+03  0.80384646585E+03  0.12699999809E+01 0.  1.
</event>
<event>
 5   0  0.2730707E-04  0.1600178E+04  0.7818609E-02  0.8820439E-01
        1   -1    0    0  501    0  0.00000000000E+00  0.00000000000E+00  0.54425127695E+03  0.54425127698E+03  0.50400001928E-02 0.  1.
       -1   -1    0    0    0  501  0.00000000000E+00  0.00000000000E+00 -0.11761893181E+04  0.11761893181E+04  0.50400001928E-02 0. -1.
    10030    2    1    2    0    0  0.00000000000E+00  0.00000000000E+00 -0.63193804112E+03  0.17204405951E+04  0.16001781630E+04 0.  0.
        5    1    3    3  502    0  0.62011220787E+03 -0.47350946992E+03 -0.50639629625E+03  0.93016647290E+03  0.46999998093E+01 0.  1.
       -5    1    3    3    0  502 -0.62011220787E+03  0.47350946992E+03 -0.12554174487E+03  0.79027412216E+03  0.46999998093E+01 0. -1.
</event>
<event>
 5   0  0.5131239E-04  0.1624633E+04  0.7818609E-02  0.8805556E-01
       -2   -1    0    0    0  501  0.00000000000E+00  0.00000000000E+00  0.22444756074E+04  0.22444756074E+04  0.25500000920E-02 0.  1.
        2   -1    0    0  501    0  0.00000000000E+00  0.00000000000E+00 -0.29399206418E+03  0.29399206419E+03  0.25500000920E-02 0. -1.
    10030    2    1    2    0    0  0.00000000000E+00  0.00000000000E+00  0.19504835432E+04  0.25384676716E+04  0.16246329023E+04 0.  0.
        1    1    3    3  502    0  0.36974895205E+03 -0.38488627137E+03  0.19320737182E+04  0.20044352277E+04  0.50400001928E-02 0.  1.
       -1    1    3    3    0  502 -0.36974895205E+03  0.38488627137E+03  0.18409824993E+02  0.53403244388E+03  0.50400001928E-02 0. -1.
</event>
<event>
 5   0  0.2796994E-04  0.1615763E+04  0.7818609E-02  0.8810923E-01
        1   -1    0    0  501    0  0.00000000000E+00  0.00000000000E+00  0.14442682424E+04  0.14442682424E+04  0.50400001928E-02 0.  1.
       -1   -1    0    0    0  501  0.00000000000E+00  0.00000000000E+00 -0.45190512871E+03  0.45190512874E+03  0.50400001928E-02 0. -1.
    10030    2    1    2    0    0  0.00000000000E+00  0.00000000000E+00  0.99236311370E+03  0.18961733712E+04  0.16157626385E+04 0.  0.
        3    1    3    3  502    0 -0.35934324584E+03  0.44692029925E+03  0.11639771162E+04  0.12975777662E+04  0.10100000352E+00 0.  1.
       -3    1    3    3    0  502  0.35934324584E+03 -0.44692029925E+03 -0.17161400246E+03  0.59859560494E+03  0.10100000352E+00 0. -1.
</event>
<event>
 5   0  0.5315984E-04  0.1588881E+04  0.7818609E-02  0.8827408E-01
       -2   -1    0    0    0  501  0.00000000000E+00  0.00000000000E+00  0.11010500778E+04  0.11010500778E+04  0.25500000920E-02 0.  1.
        2   -1    0    0  501    0  0.00000000000E+00  0.00000000000E+00 -0.57321244123E+03  0.57321244123E+03  0.25500000920E-02 0. -1.
    10030    2    1    2    0    0  0.00000000000E+00  0.00000000000E+00  0.52783763658E+03  0.16742625190E+04  0.15888808678E+04 0.  0.
        2    1    3    3  502    0 -0.41330316109E+03  0.52207527490E+02  0.97672376816E+03  0.10618542500E+04  0.25500000920E-02 0.  1.
       -2    1    3    3    0  502  0.41330316109E+03 -0.52207527490E+02 -0.44888613158E+03  0.61240826907E+03  0.25500000920E-02 0. -1.
</event>
<event>
 5   0  0.5315984E-04  0.1594319E+04  0.7818609E-02  0.8824045E-01
        2   -1    0    0  501    0  0.00000000000E+00  0.00000000000E+00  0.72356213953E+03  0.72356213953E+03  0.25500000920E-02 0.  1.
       -2   -1    0    0    0  501  0.00000000000E+00  0.00000000000E+00 -0.87824332745E+03  0.87824332745E+03  0.25500000920E-02 0. -1.
    10030    2    1    2    0    0  0.00000000000E+00  0.00000000000E+00 -0.15468118792E+03  0.16018054670E+04  0.15943194423E+04 0.  0.
        2    1    3    3  502    0 -0.74629656415E+02  0.40761190361E+03  0.60684635438E+03  0.73483300648E+03  0.25500000920E-02 0.  1.
       -2    1    3    3    0  502  0.74629656415E+02 -0.40761190361E+03 -0.76152754230E+03  0.86697246051E+03  0.25500000920E-02 0. -1.
</event>
<event>
 5   0  0.5083831E-04  0.1581593E+04  0.7818609E-02  0.8831937E-01
        2   -1    0    0  501    0  0.00000000000E+00  0.00000000000E+00  0.15661131303E+04  0.15661131303E+04  0.25500000920E-02 0. -1.
       -2   -1    0    0    0  501  0.00000000000E+00  0.00000000000E+00 -0.39930630984E+03  0.39930630984E+03  0.25500000920E-02 0.  1.
    10030    2    1    2    0    0  0.00000000000E+00  0.00000000000E+00  0.11668068205E+04  0.19654194402E+04  0.15815926844E+04 0.  0.
        4    1    3    3  502    0  0.24407935568E+03  0.69205147796E+02  0.15141669916E+04  0.15352743650E+04  0.12699999809E+01 0. -1.
       -4    1    3    3    0  502 -0.24407935568E+03 -0.69205147796E+02 -0.34736017111E+03  0.43014507521E+03  0.12699999809E+01 0.  1.
</event>
<event>
 5   0  0.5381164E-04  0.1594556E+04  0.7818609E-02  0.8823899E-01
        2   -1    0    0  501    0  0.00000000000E+00  0.00000000000E+00  0.83486263928E+03  0.83486263928E+03  0.25500000920E-02 0. -1.
       -2   -1    0    0    0  501  0.00000000000E+00  0.00000000000E+00 -0.76138581642E+03  0.76138581643E+03  0.25500000920E-02 0.  1.
    10030    2    1    2    0    0  0.00000000000E+00  0.00000000000E+00  0.73476822855E+02  0.15962484557E+04  0.15945564552E+04 0.  0.
        5    1    3    3  502    0 -0.75240250494E+03 -0.79399654569E+02  0.28843441558E+03  0.80971003246E+03  0.46999998093E+01 0. -1.
       -5    1    3    3    0  502  0.75240250494E+03  0.79399654569E+02 -0.21495759272E+03  0.78653842325E+03  0.46999998093E+01 0.  1.
</event>
<event>
 5   0  0.5131239E-04  0.1585425E+04  0.7818609E-02  0.8829552E-01
       -2   -1    0    0    0  501  0.00000000000E+00  0.00000000000E+00  0.29397881688E+03  0.29397881689E+03  0.25500000920E-02 0. -1.
        2   -1    0    0  501    0  0.00000000000E+00  0.00000000000E+00 -0.21375448915E+04  0.21375448915E+04  0.25500000920E-02 0.  1.
    10030    2    1    2    0    0  0.00000000000E+00  0.00000000000E+00 -0.18435660746E+04  0.24315237084E+04  0.15854247611E+04 0.  0.
        1    1    3    3  502    0 -0.22952769096E+03  0.21367023609E+03 -0.20383720099E+04  0.20623526327E+04  0.50400001928E-02 0.  1.
       -1    1    3    3    0  502  0.22952769096E+03 -0.21367023609E+03  0.19480593528E+03  0.36917107573E+03  0.50400001928E-02 0. -1.
</event>
<event>
 5   0  0.5381164E-04  0.1600561E+04  0.7818609E-02  0.8820204E-01
        2   -1    0    0  501    0  0.00000000000E+00  0.00000000000E+00  0.83665608209E+03  0.83665608210E+03  0.25500000920E-02 0. -1.
       -2   -1    0    0    0  501  0.00000000000E+00  0.00000000000E+00 -0.76548610938E+03  0.76548610938E+03  0.25500000920E-02 0.  1.
    10030    2    1    2    0    0  0.00000000000E+00  0.00000000000E+00  0.71169972716E+02  0.16021421915E+04  0.16005606632E+04 0.  0.
        5    1    3    3  502    0 -0.68016322227E+03 -0.40612887094E+03 -0.77945999564E+02  0.79602784976E+03  0.46999998093E+01 0. -1.
       -5    1    3    3    0  502  0.68016322227E+03  0.40612887094E+03  0.14911597228E+03  0.80611434172E+03  0.46999998093E+01 0.  1.
</event>
<event>
 5   0  0.2763895E-04  0.1601980E+04  0.7818609E-02  0.8819333E-01
        1   -1    0    0  501    0  0.00000000000E+00  0.00000000000E+00  0.10695870589E+04  0.10695870589E+04  0.50400001928E-02 0. -1.
       -1   -1    0    0    0  501  0.00000000000E+00  0.00000000000E+00 -0.59984352852E+03  0.59984352854E+03  0.50400001928E-02 0.  1.
    10030    2    1    2    0    0  0.00000000000E+00  0.00000000000E+00  0.46974353034E+03  0.16694305874E+04  0.16019798694E+04 0.  0.
        4    1    3    3  502    0  0.30215812635E+03  0.63421409381E+03 -0.16611000579E+03  0.72188724676E+03  0.12699999809E+01 0.  1.
       -4    1    3    3    0  502 -0.30215812635E+03 -0.63421409381E+03  0.63585353613E+03  0.94754334066E+03  0.12699999809E+01 0. -1.
</event>
<event>
 5   0  0.2730707E-04  0.1604345E+04  0.7818609E-02  0.8817883E-01
       -1   -1    0    0    0  501  0.00000000000E+00  0.00000000000E+00  0.55405482970E+03  0.55405482973E+03  0.50400001928E-02 0.  1.
        1   -1    0    0  501    0  0.00000000000E+00  0.00000000000E+00 -0.11614027459E+04  0.11614027459E+04  0.50400001928E-02 0. -1.
    10030    2    1    2    0    0  0.00000000000E+00  0.00000000000E+00 -0.60734791617E+03  0.17154575756E+04  0.16043451008E+04 0.  0.
        5    1    3    3  502    0  0.48917294745E+03 -0.27926847554E+03  0.30699985067E+03  0.64152322815E+03  0.46999998093E+01 0.  1.
       -5    1    3    3    0  502 -0.48917294745E+03  0.27926847554E+03 -0.91434776684E+03  0.10739343475E+04  0.46999998093E+01 0. -1.
</event>
<event>
 5   0  0.5083831E-04  0.1601157E+04  0.7818609E-02  0.8819837E-01
       -2   -1    0    0    0  501  0.00000000000E+00  0.00000000000E+00  0.72675986577E+03  0.72675986578E+03  0.25500000920E-02 0.  1.
        2   -1    0    0  501    0  0.00000000000E+00  0.00000000000E+00 -0.88189541835E+03  0.88189541836E+03  0.25500000920E-02 0. -1.
    10030    2    1    2    0    0  0.00000000000E+00  0.00000000000E+00 -0.15513555258E+03  0.16086552841E+04  0.16011573263E+04 0.  0.
        4    1    3    3  502    0 -0.14985326836E+02 -0.14781481551E+03  0.71278678224E+03  0.72810740248E+03  0.12699999809E+01 0.  1.
       -4    1    3    3    0  502  0.14985326836E+02  0.14781481551E+03 -0.86792233482E+03  0.88054788165E+03  0.12699999809E+01 0. -1.
</event>
<event>
 5   0  0.5315984E-04  0.1583053E+04  0.7818609E-02  0.8831028E-01
        2   -1    0    0  501    0  0.00000000000E+00  0.00000000000E+00  0.11523496951E+04  0.11523496951E+04  0.25500000920E-02 0. -1.
       -2   -1    0    0    0  501  0.00000000000E+00  0.00000000000E+00 -0.54368378590E+03  0.54368378591E+03  0.25500000920E-02 0.  1.
    10030    2    1    2    0    0  0.00000000000E+00  0.00000000000E+00  0.60866590923E+03  0.16960334810E+04  0.15830525512E+04 0.  0.
        2    1    3    3  502    0 -0.77651396320E+03  0.22343261808E+02  0.46695776978E+03  0.90637890265E+03  0.25500000920E-02 0.  1.
       -2    1    3    3    0  502  0.77651396320E+03 -0.22343261808E+02  0.14170813945E+03  0.78965457840E+03  0.25500000920E-02 0. -1.
</event>
<event>
 5   0  0.2730707E-04  0.1606562E+04  0.7818609E-02  0.8816527E-01
       -1   -1    0    0    0  501  0.00000000000E+00  0.00000000000E+00  0.74643718460E+03  0.74643718461E+03  0.50400001928E-02 0.  1.
        1   -1    0    0  501    0  0.00000000000E+00  0.00000000000E+00 -0.86445313684E+03  0.86445313686E+03  0.50400001928E-02 0. -1.
    10030    2    1    2    0    0  0.00000000000E+00  0.00000000000E+00 -0.11801595225E+03  0.16108903215E+04  0.16065615030E+04 0.  0.
        5    1    3    3  502    0 -0.62494425686E+02  0.53853932513E+03 -0.65331718748E+03  0.84898503839E+03  0.46999998093E+01 0. -1.
       -5    1    3    3    0  502  0.62494425686E+02 -0.53853932513E+03  0.53530123523E+03  0.76190528309E+03  0.46999998093E+01 0.  1.
</event>
<event>
 5   0  0.2649086E-04  0.1629470E+04  0.7818609E-02  0.8802645E-01
       -1   -1    0    0    0  501  0.00000000000E+00  0.00000000000E+00  0.95623175970E+03  0.95623175972E+03  0.50400001928E-02 0. -1.
        1   -1    0    0  501    0  0.00000000000E+00  0.00000000000E+00 -0.69417580406E+03  0.69417580408E+03  0.50400001928E-02 0.  1.
    10030    2    1    2    0    0  0.00000000000E+00  0.00000000000E+00  0.26205595564E+03  0.16504075638E+04  0.16294697919E+04 0.  0.
        2    1    3    3  502    0  0.69863003414E+03 -0.41568002910E+03  0.18575128246E+03  0.83389288888E+03  0.25500000920E-02 0. -1.
       -2    1    3    3    0  502 -0.69863003414E+03  0.41568002910E+03  0.76304673189E+02  0.81651467491E+03  0.25500000920E-02 0.  1.
</event>
<event>
 5   0  0.5381164E-04  0.1604200E+04  0.7818609E-02  0.8817972E-01
        2   -1    0    0  501    0  0.00000000000E+00  0.00000000000E+00  0.19127928789E+04  0.19127928789E+04  0.25500000920E-02 0. -1.
       -2   -1    0    0    0  501  0.00000000000E+00  0.00000000000E+00 -0.33634834321E+03  0.33634834322E+03  0.25500000920E-02 0.  1.
    10030    2    1    2    0    0  0.00000000000E+00  0.00000000000E+00  0.15764445357E+04  0.22491412221E+04  0.16042003812E+04 0.  0.
        5    1    3    3  502    0 -0.51129301044E+03  0.45555428094E+03  0.13737154779E+04  0.15349483866E+04  0.46999998093E+01 0.  1.
       -5    1    3    3    0  502  0.51129301044E+03 -0.45555428094E+03  0.20272905782E+03  0.71419283551E+03  0.46999998093E+01 0. -1.
</event>
<event>
 5   0  0.2649086E-04  0.1564491E+04  0.7818609E-02  0.8842664E-01
        1   -1    0    0  501    0  0.00000000000E+00  0.00000000000E+00  0.10273512674E+04  0.10273512674E+04  0.50400001928E-02 0. -1.
       -1   -1    0    0    0  501  0.00000000000E+00  0.00000000000E+00 -0.59561716560E+03  0.59561716563E+03  0.50400001928E-02 0.  1.
    10030    2    1    2    0    0  0.00000000000E+00  0.00000000000E+00  0.43173410178E+03  0.16229684330E+04  0.15644910354E+04 0.  0.
        2    1    3    3  502    0  0.71614948101E+03 -0.26546056723E+03  0.40526682573E+02  0.76484103179E+03  0.25500000920E-02 0. -1.
       -2    1    3    3    0  502 -0.71614948101E+03  0.26546056723E+03  0.39120741920E+03  0.85812740123E+03  0.25500000920E-02 0.  1.
</event>
<event>
 5   0  0.2796994E-04  0.1617039E+04  0.7818609E-02  0.8810148E-01
        1   -1    0    0  501    0  0.00000000000E+00  0.00000000000E+00  0.87487489100E+03  0.87487489101E+03  0.50400001928E-02 0.  1.
       -1   -1    0    0    0  501  0.00000000000E+00  0.00000000000E+00 -0.74719677331E+03  0.74719677333E+03  0.50400001928E-02 0. -1.
    10030    2    1    2    0    0  0.00000000000E+00  0.00000000000E+00  0.12767811768E+03  0.16220716643E+04  0.16170388933E+04 0.  0.
        3    1    3    3  502    0  0.42461251462E+03 -0.37625522436E+03 -0.51400928983E+03  0.76555165839E+03  0.10100000352E+00 0. -1.
       -3    1    3    3    0  502 -0.42461251462E+03  0.37625522436E+03  0.64168740752E+03  0.85652000595E+03  0.10100000352E+00 0.  1.
</event>
<event>
 5   0  0.2689675E-04  0.1594245E+04  0.7818609E-02  0.8824092E-01
        1   -1    0    0  501    0  0.00000000000E+00  0.00000000000E+00  0.57167950588E+03  0.57167950591E+03  0.50400001928E-02 0.  1.
       -1   -1    0    0    0  501  0.00000000000E+00  0.00000000000E+00 -0.11114689877E+04  0.11114689877E+04  0.50400001928E-02 0. -1.
    10030    2    1    2    0    0  0.00000000000E+00  0.00000000000E+00 -0.53978948177E+03  0.16831484936E+04  0.15942447010E+04 0.  0.
        1    1    3    3  502    0  0.77429731321E+03  0.76931982350E+02 -0.87185742468E+02  0.78297906285E+03  0.50400001928E-02 0.  1.
       -1    1    3    3    0  502 -0.77429731321E+03 -0.76931982350E+02 -0.45260373930E+03  0.90016943072E+03  0.50400001928E-02 0. -1.
</event>
<event>
 5   0  0.5131239E-04  0.1758033E+04  0.7818609E-02  0.8728941E-01
        2   -1    0    0  501    0  0.00000000000E+00  0.00000000000E+00  0.92435290630E+03  0.92435290630E+03  0.25500000920E-02 0.  1.
       -2   -1    0    0    0  501  0.00000000000E+00  0.00000000000E+00 -0.83590403476E+03  0.83590403477E+03  0.25500000920E-02 0. -1.
    10030    2    1    2    0    0  0.00000000000E+00  0.00000000000E+00  0.88448871533E+02  0.17602569411E+04  0.17580333602E+04 0.  0.
        1    1    3    3  502    0  0.55625645260E+03 -0.12178488659E+03 -0.62626237909E+03  0.84643804684E+03  0.50400001928E-02 0. -1.
       -1    1    3    3    0  502 -0.55625645260E+03  0.12178488659E+03  0.71471125062E+03  0.91381889423E+03  0.50400001928E-02 0.  1.
</event>
<event>
 5   0  0.5264308E-04  0.1617634E+04  0.7818609E-02  0.8809787E-01
        2   -1    0    0  501    0  0.00000000000E+00  0.00000000000E+00  0.11068137156E+04  0.11068137156E+04  0.25500000920E-02 0.  1.
       -2   -1    0    0    0  501  0.00000000000E+00  0.00000000000E+00 -0.59105246877E+03  0.59105246877E+03  0.25500000920E-02 0. -1.
    10030    2    1    2    0    0  0.00000000000E+00  0.00000000000E+00  0.51576124687E+03  0.16978661844E+04  0.16176340490E+04 0.  0.
        3    1    3    3  502    0  0.40430838145E+03  0.41036586638E+03  0.85377118703E+03  0.10299469217E+04  0.10100000352E+00 0.  1.
       -3    1    3    3    0  502 -0.40430838145E+03 -0.41036586638E+03 -0.33800994016E+03  0.66791926267E+03  0.10100000352E+00 0. -1.
</event>
<event>
 5   0  0.5381164E-04  0.1589196E+04  0.7818609E-02  0.8827213E-01
        2   -1    0    0  501    0  0.00000000000E+00  0.00000000000E+00  0.18359972983E+04  0.18359972983E+04  0.25500000920E-02 0. -1.
       -2   -1    0    0    0  501  0.00000000000E+00  0.00000000000E+00 -0.34389279756E+03  0.34389279757E+03  0.25500000920E-02 0.  1.
    10030    2    1    2    0    0  0.00000000000E+00  0.00000000000E+00  0.14921045007E+04  0.21798900958E+04  0.15891963343E+04 0.  0.
        5    1    3    3  502    0 -0.14484144881E+02  0.15744226732E+03  0.18141833781E+04  0.18210659728E+04  0.46999998093E+01 0. -1.
       -5    1    3    3    0  502  0.14484144881E+02 -0.15744226732E+03 -0.32207887739E+03  0.35882412301E+03  0.46999998093E+01 0.  1.
</event>
<event>
 5   0  0.5083831E-04  0.1604242E+04  0.7818609E-02  0.8817946E-01
        2   -1    0    0  501    0  0.00000000000E+00  0.00000000000E+00  0.79426191284E+03  0.79426191284E+03  0.25500000920E-02 0. -1.
       -2   -1    0    0    0  501  0.00000000000E+00  0.00000000000E+00 -0.81005785759E+03  0.81005785760E+03  0.25500000920E-02 0.  1.
    10030    2    1    2    0    0  0.00000000000E+00  0.00000000000E+00 -0.15795944755E+02  0.16043197704E+04  0.16042420060E+04 0.  0.
        4    1    3    3  502    0 -0.64042209149E+03  0.85851661107E+02 -0.48319517139E+03  0.80683960583E+03  0.12699999809E+01 0.  1.
       -4    1    3    3    0  502  0.64042209149E+03 -0.85851661107E+02  0.46739922663E+03  0.79748016461E+03  0.12699999809E+01 0. -1.
</event>
<event>
 5   0  0.5131239E-04  0.1597423E+04  0.7818609E-02  0.8822133E-01
        2   -1    0    0  501    0  0.00000000000E+00  0.00000000000E+00  0.58537659391E+03  0.58537659391E+03  0.25500000920E-02 0.  1.
       -2   -1    0    0    0  501  0.00000000000E+00  0.00000000000E+00 -0.10897947276E+04  0.10897947276E+04  0.25500000920E-02 0. -1.
    10030    2    1    2    0    0  0.00000000000E+00  0.00000000000E+00 -0.50441813371E+03  0.16751713215E+04  0.15974233324E+04 0.  0.
        1    1    3    3  502    0  0.37135399939E+02 -0.79666193331E+03 -0.29781180467E+03  0.85131729980E+03  0.50400001928E-02 0. -1.
       -1    1    3    3    0  502 -0.37135399939E+02  0.79666193331E+03 -0.20660632904E+03  0.82385402174E+03  0.50400001928E-02 0.  1.
</event>
<event>
 5   0  0.2649086E-04  0.1600101E+04  0.7818609E-02  0.8820486E-01
       -1   -1    0    0    0  501  0.00000000000E+00  0.00000000000E+00  0.77091293842E+03  0.77091293843E+03  0.50400001928E-02 0.  1.
        1   -1    0    0  501    0  0.00000000000E+00  0.00000000000E+00 -0.83028969203E+03  0.83028969205E+03  0.50400001928E-02 0. -1.
    10030    2    1    2    0    0  0.00000000000E+00  0.00000000000E+00 -0.59376753613E+02  0.16012026305E+04  0.16001013296E+04 0.  0.
        2    1    3    3  502    0 -0.57643202664E+03 -0.55215960336E+03  0.24450221076E+02  0.79859371537E+03  0.25500000920E-02 0.  1.
       -2    1    3    3    0  502  0.57643202664E+03  0.55215960336E+03 -0.83826974689E+02  0.80260891511E+03  0.25500000920E-02 0. -1.
</event>
<event>
 5   0  0.2796994E-04  0.1585970E+04  0.7818609E-02  0.8829214E-01
        1   -1    0    0  501    0  0.00000000000E+00  0.00000000000E+00  0.11494623300E+04  0.11494623300E+04  0.50400001928E-02 0.  1.
       -1   -1    0    0    0  501  0.00000000000E+00  0.00000000000E+00 -0.54706058657E+03  0.54706058659E+03  0.50400001928E-02 0. -1.
    10030    2    1    2    0    0  0.00000000000E+00  0.00000000000E+00  0.60240174343E+03  0.16965229166E+04  0.15859704115E+04 0.  0.
        3    1    3    3  502    0  0.41829180415E+03  0.35225754802E+03  0.91548827988E+03  0.10663827710E+04  0.10100000352E+00 0.  1.
       -3    1    3    3    0  502 -0.41829180415E+03 -0.35225754802E+03 -0.31308653644E+03  0.63014014557E+03  0.10100000352E+00 0. -1.
</event>
<event>
 5   0  0.5264308E-04  0.1561524E+04  0.7818609E-02  0.8844540E-01
        2   -1    0    0  501    0  0.00000000000E+00  0.00000000000E+00  0.84788399453E+03  0.84788399454E+03  0.25500000920E-02 0. -1.
       -2   -1    0    0    0  501  0.00000000000E+00  0.00000000000E+00 -0.71895377454E+03  0.71895377455E+03  0.25500000920E-02 0.  1.
    10030    2    1    2    0    0  0.00000000000E+00  0.00000000000E+00  0.12893021999E+03  0.15668377691E+04  0.15615241250E+04 0.  0.
        3    1    3    3  502    0 -0.45694337637E+03 -0.19489208984E+03  0.66885123606E+03  0.83315194417E+03  0.10100000352E+00 0. -1.
       -3    1    3    3    0  502  0.45694337637E+03  0.19489208984E+03 -0.53992101607E+03  0.73368582492E+03  0.10100000352E+00 0.  1.
</event>
<event>
 5   0  0.5264308E-04  0.1604903E+04  0.7818609E-02  0.8817542E-01
        2   -1    0    0  501    0  0.00000000000E+00  0.00000000000E+00  0.28507425306E+04  0.28507425306E+04  0.25500000920E-02 0.  1.
       -2   -1    0    0    0  501  0.00000000000E+00  0.00000000000E+00 -0.22588082926E+03  0.22588082928E+03  0.25500000920E-02 0. -1.
    10030    2    1    2    0    0  0.00000000000E+00  0.00000000000E+00  0.26248617013E+04  0.30766233599E+04  0.16049025975E+04 0.  0.
        3    1    3    3  502    0  0.58980722314E+03 -0.53379373306E+03  0.15145807323E+04  0.17107785113E+04  0.10100000352E+00 0. -1.
       -3    1    3    3    0  502 -0.58980722314E+03  0.53379373306E+03  0.11102809690E+04  0.13658448486E+04  0.10100000352E+00 0.  1.
</event>
<event>
 5   0  0.2649086E-04  0.1588866E+04  0.7818609E-02  0.8827417E-01
        1   -1    0    0  501    0  0.00000000000E+00  0.00000000000E+00  0.73570289140E+03  0.73570289141E+03  0.50400001928E-02 0.  1.
       -1   -1    0    0    0  501  0.00000000000E+00  0.00000000000E+00 -0.85785158883E+03  0.85785158885E+03  0.50400001928E-02 0. -1.
    10030    2    1    2    0    0  0.00000000000E+00  0.00000000000E+00 -0.12214869743E+03  0.15935544803E+04  0.15888661294E+04 0.  0.
        2    1    3    3  502    0  0.15898045361E+03  0.23165729060E+03 -0.80635787463E+03  0.85390450690E+03  0.25500000920E-02 0. -1.
       -2    1    3    3    0  502 -0.15898045361E+03 -0.23165729060E+03  0.68420917720E+03  0.73964997336E+03  0.25500000920E-02 0.  1.
</event>
<event>
 5   0  0.2689675E-04  0.1577462E+04  0.7818609E-02  0.8834515E-01
        1   -1    0    0  501    0  0.00000000000E+00  0.00000000000E+00  0.78162936807E+03  0.78162936808E+03  0.50400001928E-02 0. -1.
       -1   -1    0    0    0  501  0.00000000000E+00  0.00000000000E+00 -0.79589696546E+03  0.79589696547E+03  0.50400001928E-02 0.  1.
    10030    2    1    2    0    0  0.00000000000E+00  0.00000000000E+00 -0.14267597390E+02  0.15775263336E+04  0.15774618121E+04 0.  0.
        1    1    3    3  502    0 -0.64519339536E+03 -0.42751350324E+03  0.14470827469E+03  0.78738986383E+03  0.50400001928E-02 0. -1.
       -1    1    3    3    0  502  0.64519339536E+03  0.42751350324E+03 -0.15897587208E+03  0.79013646973E+03  0.50400001928E-02 0.  1.
</event>
<event>
 5   0  0.5381164E-04  0.1614842E+04  0.7818609E-02  0.8811481E-01
       -2   -1    0    0    0  501  0.00000000000E+00  0.00000000000E+00  0.61779053551E+03  0.61779053552E+03  0.25500000920E-02 0.  1.
        2   -1    0    0  501    0  0.00000000000E+00  0.00000000000E+00 -0.10552588770E+04  0.10552588770E+04  0.25500000920E-02 0. -1.
    10030    2    1    2    0    0  0.00000000000E+00  0.00000000000E+00 -0.43746834145E+03  0.16730494125E+04  0.16148423412E+04 0.  0.
        5    1    3    3  502    0  0.23463285553E+03 -0.55277065883E+03  0.34044121503E+03  0.69031173324E+03  0.46999998093E+01 0.  1.
       -5    1    3    3    0  502 -0.23463285553E+03  0.55277065883E+03 -0.77790955648E+03  0.98273767925E+03  0.46999998093E+01 0. -1.
</event>
<event>
 5   0  0.2763895E-04  0.1594211E+04  0.7818609E-02  0.8824113E-01
       -1   -1    0    0    0  501  0.00000000000E+00  0.00000000000E+00  0.47340395592E+03  0.47340395595E+03  0.50400001928E-02 0.  1.
        1   -1    0    0  501    0  0.00000000000E+00  0.00000000000E+00 -0.13421451660E+04  0.13421451660E+04  0.50400001928E-02 0. -1.
    10030    2    1    2    0    0  0.00000000000E+00  0.00000000000E+00 -0.86874121006E+03  0.18155491219E+04  0.15942105645E+04 0.  0.
        4    1    3    3  502    0 -0.43934920138E+03  0.11335752693E+03  0.31197963312E+03  0.55064557934E+03  0.12699999809E+01 0.  1.
       -4    1    3    3    0  502  0.43934920138E+03 -0.11335752693E+03 -0.11807208432E+04  0.12649035426E+04  0.12699999809E+01 0. -1.
</event>
<event>
 5   0  0.2689675E-04  0.1627033E+04  0.7818609E-02  0.8804110E-01
       -1   -1    0    0    0  501  0.00000000000E+00  0.00000000000E+00  0.70754954320E+03  0.70754954321E+03  0.50400001928E-02 0. -1.
        1   -1    0    0  501    0  0.00000000000E+00  0.00000000000E+00 -0.93535390309E+03  0.93535390311E+03  0.50400001928E-02 0.  1.
    10030    2    1    2    0    0  0.00000000000E+00  0.00000000000E+00 -0.22780435990E+03  0.16429034463E+04  0.16270331612E+04 0.  0.
        1    1    3    3  502    0 -0.68932123620E+02  0.77912211600E+03  0.11194512054E+03  0.79013582335E+03  0.50400001928E-02 0. -1.
       -1    1    3    3    0  502  0.68932123620E+02 -0.77912211600E+03 -0.33974948044E+03  0.85276762297E+03  0.50400001928E-02 0.  1.
</event>
<event>
 5   0  0.5083831E-04  0.1637018E+04  0.7818609E-02  0.8798124E-01
       -2   -1    0    0    0  501  0.00000000000E+00  0.00000000000E+00  0.11338294985E+04  0.11338294985E+04  0.25500000920E-02 0. -1.
        2   -1    0    0  501    0  0.00000000000E+00  0.00000000000E+00 -0.59088000473E+03  0.59088000474E+03  0.25500000920E-02 0.  1.
    10030    2    1    2    0    0  0.00000000000E+00  0.00000000000E+00  0.54294949379E+03  0.17247095033E+04  0.16370182399E+04 0.  0.
        4    1    3    3  502    0  0.17803664387E+03 -0.27051505017E+03 -0.52051116309E+03  0.61303256253E+03  0.12699999809E+01 0.  1.
       -4    1    3    3    0  502 -0.17803664387E+03  0.27051505017E+03  0.10634606569E+04  0.11116769407E+04  0.12699999809E+01 0. -1.
</event>
<event>
 5   0  0.2796994E-04  0.1618015E+04  0.7818609E-02  0.8809557E-01
        1   -1    0    0  501    0  0.00000000000E+00  0.00000000000E+00  0.97860366063E+03  0.97860366064E+03  0.50400001928E-02 0. -1.
       -1   -1    0    0    0  501  0.00000000000E+00  0.00000000000E+00 -0.66880300577E+03  0.66880300579E+03  0.50400001928E-02 0.  1.
    10030    2    1    2    0    0  0.00000000000E+00  0.00000000000E+00  0.30980065486E+03  0.16474066664E+04  0.16180149192E+04 0.  0.
        3    1    3    3  502    0  0.57058203264E+01  0.72649121049E+03 -0.20747359618E+03  0.75555763421E+03  0.10100000352E+00 0.  1.
       -3    1    3    3    0  502 -0.57058203264E+01 -0.72649121049E+03  0.51727425103E+03  0.89184903223E+03  0.10100000352E+00 0. -1.
</event>
<event>
 5   0  0.2689675E-04  0.1595630E+04  0.7818609E-02  0.8823237E-01
       -1   -1    0    0    0  501  0.00000000000E+00  0.00000000000E+00  0.13339387056E+04  0.13339387056E+04  0.50400001928E-02 0.  1.
        1   -1    0    0  501    0  0.00000000000E+00  0.00000000000E+00 -0.47716471772E+03  0.47716471774E+03  0.50400001928E-02 0. -1.
    10030    2    1    2    0    0  0.00000000000E+00  0.00000000000E+00  0.85677398787E+03  0.18111034233E+04  0.15956296387E+04 0.  0.
        1    1    3    3  502    0 -0.20123568257E+03  0.38739248141E+02 -0.44678105432E+03  0.49153823840E+03  0.50400001928E-02 0. -1.
       -1    1    3    3    0  502  0.20123568257E+03 -0.38739248141E+02  0.13035550422E+04  0.13195651849E+04  0.50400001928E-02 0.  1.
</event>
<event>
 5   0  0.2689675E-04  0.1594965E+04  0.7818609E-02  0.8823647E-01
        1   -1    0    0  501    0  0.00000000000E+00  0.00000000000E+00  0.91525098201E+03  0.91525098203E+03  0.50400001928E-02 0.  1.
       -1   -1    0    0    0  501  0.00000000000E+00  0.00000000000E+00 -0.69486739032E+03  0.69486739034E+03  0.50400001928E-02 0. -1.
    10030    2    1    2    0    0  0.00000000000E+00  0.00000000000E+00  0.22038359169E+03  0.16101183724E+04  0.15949646534E+04 0.  0.
        1    1    3    3  502    0  0.41155075792E+03 -0.57885667003E+03 -0.25592317347E+03  0.75494750912E+03  0.50400001928E-02 0.  1.
       -1    1    3    3    0  502 -0.41155075792E+03  0.57885667003E+03  0.47630676516E+03  0.85517086325E+03  0.50400001928E-02 0. -1.
</event>
<event>
 5   0  0.2730707E-04  0.1593436E+04  0.7818609E-02  0.8824591E-01
        1   -1    0    0  501    0  0.00000000000E+00  0.00000000000E+00  0.73362720023E+03  0.73362720025E+03  0.50400001928E-02 0. -1.
       -1   -1    0    0    0  501  0.00000000000E+00  0.00000000000E+00 -0.86523446460E+03  0.86523446461E+03  0.50400001928E-02 0.  1.
    10030    2    1    2    0    0  0.00000000000E+00  0.00000000000E+00 -0.13160726436E+03  0.15988616649E+04  0.15934359577E+04 0.  0.
        5    1    3    3  502    0 -0.50529197087E+03  0.37376896885E+03  0.42546969348E+03  0.75899260074E+03  0.46999998093E+01 0. -1.
       -5    1    3    3    0  502  0.50529197087E+03 -0.37376896885E+03 -0.55707695785E+03  0.83986906412E+03  0.46999998093E+01 0.  1.
</event>
<event>
 5   0  0.2730707E-04  0.1594163E+04  0.7818609E-02  0.8824142E-01
       -1   -1    0    0    0  501  0.00000000000E+00  0.00000000000E+00  0.69809709388E+03  0.69809709390E+03  0.50400001928E-02 0. -1.
        1   -1    0    0  501    0  0.00000000000E+00  0.00000000000E+00 -0.91010076126E+03  0.91010076128E+03  0.50400001928E-02 0.  1.
    10030    2    1    2    0    0  0.00000000000E+00  0.00000000000E+00 -0.21200366739E+03  0.16081978552E+04  0.15941627227E+04 0.  0.
        5    1    3    3  502    0  0.36175645093E+03  0.40820645928E+03 -0.69233865771E+03  0.88139386777E+03  0.46999998093E+01 0.  1.
       -5    1    3    3    0  502 -0.36175645093E+03 -0.40820645928E+03  0.48033499032E+03  0.72680398741E+03  0.46999998093E+01 0. -1.
</event>
<event>
 5   0  0.2649086E-04  0.1599983E+04  0.7818609E-02  0.8820558E-01
       -1   -1    0    0    0  501  0.00000000000E+00  0.00000000000E+00  0.12846993735E+04  0.12846993735E+04  0.50400001928E-02 0.  1.
        1   -1    0    0  501    0  0.00000000000E+00  0.00000000000E+00 -0.49816042466E+03  0.49816042469E+03  0.50400001928E-02 0. -1.
    10030    2    1    2    0    0  0.00000000000E+00  0.00000000000E+00  0.78653894880E+03  0.17828597982E+04  0.15999829818E+04 0.  0.
        2    1    3    3  502    0 -0.56302471545E+03 -0.41807790798E+03  0.82223910146E+03  0.10806771522E+04  0.25500000920E-02 0.  1.
       -2    1    3    3    0  502  0.56302471545E+03  0.41807790798E+03 -0.35700152666E+02  0.70218264594E+03  0.25500000920E-02 0. -1.
</event>
<event>
 5   0  0.2649086E-04  0.1601234E+04  0.7818609E-02  0.8819790E-01
       -1   -1    0    0    0  501  0.00000000000E+00  0.00000000000E+00  0.19760557935E+04  0.19760557935E+04  0.50400001928E-02 0.  1.
        1   -1    0    0  501    0  0.00000000000E+00  0.00000000000E+00 -0.32437744988E+03  0.32437744992E+03  0.50400001928E-02 0. -1.
    10030    2    1    2    0    0  0.00000000000E+00  0.00000000000E+00  0.16516783436E+04  0.23004332434E+04  0.16012344478E+04 0.  0.
        2    1    3    3  502    0  0.56440204235E+03  0.10002145747E+03  0.22805340593E+02  0.57364975458E+03  0.25500000920E-02 0. -1.
       -2    1    3    3    0  502 -0.56440204235E+03 -0.10002145747E+03  0.16288730030E+04  0.17267834889E+04  0.25500000920E-02 0.  1.
</event>
<event>
 5   0  0.2649086E-04  0.1604517E+04  0.7818609E-02  0.8817778E-01
        1   -1    0    0  501    0  0.00000000000E+00  0.00000000000E+00  0.89013271855E+03  0.89013271856E+03  0.50400001928E-02 0.  1.
       -1   -1    0    0    0  501  0.00000000000E+00  0.00000000000E+00 -0.72305961564E+03  0.72305961565E+03  0.50400001928E-02 0. -1.
    10030    2    1    2    0    0  0.00000000000E+00  0.00000000000E+00  0.16707310291E+03  0.16131923342E+04  0.16045173996E+04 0.  0.
        2    1    3    3  502    0  0.64562802842E+03 -0.35226748505E+03 -0.23865051225E+03  0.77322829689E+03  0.25500000920E-02 0. -1.
       -2    1    3    3    0  502 -0.64562802842E+03  0.35226748505E+03  0.40572361516E+03  0.83996403733E+03  0.25500000920E-02 0.  1.
</event>
<event>
 5   0  0.5381164E-04  0.1459622E+04  0.7818609E-02  0.8911757E-01
       -2   -1    0    0    0  501  0.00000000000E+00  0.00000000000E+00  0.70428276482E+03  0.70428276483E+03  0.25500000920E-02 0.  1.
        2   -1    0    0  501    0  0.00000000000E+00  0.00000000000E+00 -0.75626428723E+03  0.75626428724E+03  0.25500000920E-02 0. -1.
    10030    2    1    2    0    0  0.00000000000E+00  0.00000000000E+00 -0.51981522413E+02  0.14605470521E+04  0.14596217361E+04 0.  0.
        5    1    3    3  502    0  0.56586422374E+02 -0.37157293006E+03  0.59997223321E+03  0.70799522327E+03  0.46999998093E+01 0.  1.
       -5    1    3    3    0  502 -0.56586422374E+02  0.37157293006E+03 -0.65195375563E+03  0.75255182879E+03  0.46999998093E+01 0. -1.
</event>
<event>
 5   0  0.2689675E-04  0.1576553E+04  0.7818609E-02  0.8835083E-01
        1   -1    0    0  501    0  0.00000000000E+00  0.00000000000E+00  0.53938632722E+03  0.53938632725E+03  0.50400001928E-02 0. -1.
       -1   -1    0    0    0  501  0.00000000000E+00  0.00000000000E+00 -0.11520126289E+04  0.11520126289E+04  0.50400001928E-02 0.  1.
    10030    2    1    2    0    0  0.00000000000E+00  0.00000000000E+00 -0.61262630170E+03  0.16913989562E+04  0.15765530259E+04 0.  0.
        1    1    3    3  502    0  0.63133012063E+03 -0.33244918720E+03 -0.66580417739E+03  0.97590746792E+03  0.50400001928E-02 0.  1.
       -1    1    3    3    0  502 -0.63133012063E+03  0.33244918720E+03  0.53177875691E+02  0.71549148826E+03  0.50400001928E-02 0. -1.
</event>
<event>
 5   0  0.1908125E-04  0.1594375E+04  0.7818609E-02  0.8824011E-01
        3   -1    0    0  501    0  0.00000000000E+00  0.00000000000E+00  0.12850937769E+04  0.12850937809E+04  0.10100000352E+00 0. -1.
       -3   -1    0    0    0  501  0.00000000000E+00  0.00000000000E+00 -0.49452261789E+03  0.49452262820E+03  0.10100000352E+00 0.  1.
    10030    2    1    2    0    0  0.00000000000E+00  0.00000000000E+00  0.79057115901E+03  0.17796164091E+04  0.15943750519E+04 0.  0.
        3    1    3    3  502    0  0.53942250777E+03  0.39534038267E+02  0.10489621806E+04  0.11801954282E+04  0.10100000352E+00 0. -1.
       -3    1    3    3    0  502 -0.53942250777E+03 -0.39534038267E+02 -0.25839102164E+03  0.59942098089E+03  0.10100000352E+00 0.  1.
</event>
<event>
 5   0  0.5381164E-04  0.1635225E+04  0.7818609E-02  0.8799196E-01
       -2   -1    0    0    0  501  0.00000000000E+00  0.00000000000E+00  0.38884011954E+03  0.38884011954E+03  0.25500000920E-02 0.  1.
        2   -1    0    0  501    0  0.00000000000E+00  0.00000000000E+00 -0.17191899612E+04  0.17191899612E+04  0.25500000920E-02 0. -1.
    10030    2    1    2    0    0  0.00000000000E+00  0.00000000000E+00 -0.13303498416E+04  0.21080300807E+04  0.16352247919E+04 0.  0.
        5    1    3    3  502    0  0.33847205502E+03  0.39159082936E+02  0.29293391250E+03  0.44936525555E+03  0.46999998093E+01 0.  1.
       -5    1    3    3    0  502 -0.33847205502E+03 -0.39159082936E+02 -0.16232837541E+04  0.16586648252E+04  0.46999998093E+01 0. -1.
</event>
<event>
 5   0  0.2763895E-04  0.1611996E+04  0.7818609E-02  0.8813212E-01
       -1   -1    0    0    0  501  0.00000000000E+00  0.00000000000E+00  0.48085039459E+03  0.48085039461E+03  0.50400001928E-02 0.  1.
        1   -1    0    0  501    0  0.00000000000E+00  0.00000000000E+00 -0.13510078800E+04  0.13510078800E+04  0.50400001928E-02 0. -1.
    10030    2    1    2    0    0  0.00000000000E+00  0.00000000000E+00 -0.87015748538E+03  0.18318582746E+04  0.16119958712E+04 0.  0.
        4    1    3    3  502    0  0.57918223373E+03 -0.33440707499E+03  0.76109108400E+02  0.67310798610E+03  0.12699999809E+01 0.  1.
       -4    1    3    3    0  502 -0.57918223373E+03  0.33440707499E+03 -0.94626659378E+03  0.11587502885E+04  0.12699999809E+01 0. -1.
</event>
<event>
 5   0  0.5083831E-04  0.1633071E+04  0.7818609E-02  0.8800485E-01
       -2   -1    0    0    0  501  0.00000000000E+00  0.00000000000E+00  0.39858868376E+03  0.39858868377E+03  0.25500000920E-02 0.  1.
        2   -1    0    0  501    0  0.00000000000E+00  0.00000000000E+00 -0.16727273423E+04  0.16727273423E+04  0.25500000920E-02 0. -1.
    10030    2    1    2    0    0  0.00000000000E+00  0.00000000000E+00 -0.12741386585E+04  0.20713160260E+04  0.16330709595E+04 0.  0.
        4    1    3    3  502    0  0.65005023492E+03 -0.42765201698E+03 -0.95104076005E+03  0.12287927798E+04  0.12699999809E+01 0. -1.
       -4    1    3    3    0  502 -0.65005023492E+03  0.42765201698E+03 -0.32309789846E+03  0.84252324623E+03  0.12699999809E+01 0.  1.
</event>
<event>
 5   0  0.5131239E-04  0.1605790E+04  0.7818609E-02  0.8816999E-01
        2   -1    0    0  501    0  0.00000000000E+00  0.00000000000E+00  0.10156359923E+04  0.10156359923E+04  0.25500000920E-02 0. -1.
       -2   -1    0    0    0  501  0.00000000000E+00  0.00000000000E+00 -0.63471624854E+03  0.63471624855E+03  0.25500000920E-02 0.  1.
    10030    2    1    2    0    0  0.00000000000E+00  0.00000000000E+00  0.38091974371E+03  0.16503522408E+04  0.16057903560E+04 0.  0.
        1    1    3    3  502    0 -0.79791112614E+03  0.89146931180E+02  0.18470755998E+03  0.82384842253E+03  0.50400001928E-02 0. -1.
       -1    1    3    3    0  502  0.79791112614E+03 -0.89146931180E+02  0.19621218373E+03  0.82650381828E+03  0.50400001928E-02 0.  1.
</event>
<event>
 5   0  0.2796994E-04  0.1587377E+04  0.7818609E-02  0.8828341E-01
       -1   -1    0    0    0  501  0.00000000000E+00  0.00000000000E+00  0.30883089205E+03  0.30883089209E+03  0.50400001928E-02 0.  1.
        1   -1    0    0  501    0  0.00000000000E+00  0.00000000000E+00 -0.20397615326E+04  0.20397615326E+04  0.50400001928E-02 0. -1.
    10030    2    1    2    0    0  0.00000000000E+00  0.00000000000E+00 -0.17309306405E+04  0.23485924246E+04  0.15873769227E+04 0.  0.
        3    1    3    3  502    0  0.11110562359E+03  0.71560649048E+03 -0.13460418759E+04  0.15284848219E+04  0.10100000352E+00 0.  1.
       -3    1    3    3    0  502 -0.11110562359E+03 -0.71560649048E+03 -0.38488876461E+03  0.82010760278E+03  0.10100000352E+00 0. -1.
</event>
<event>
 5   0  0.5264308E-04  0.1596153E+04  0.7818609E-02  0.8822915E-01
       -2   -1    0    0    0  501  0.00000000000E+00  0.00000000000E+00  0.66598658290E+03  0.66598658291E+03  0.25500000920E-02 0. -1.
        2   -1    0    0  501    0  0.00000000000E+00  0.00000000000E+00 -0.95636474140E+03  0.95636474140E+03  0.25500000920E-02 0.  1.
    10030    2    1    2    0    0  0.00000000000E+00  0.00000000000E+00 -0.29037815850E+03  0.16223513243E+04  0.15961529828E+04 0.  0.
        3    1    3    3  502    0 -0.48489638839E+03 -0.63081037320E+03 -0.20849981887E+03  0.82250739759E+03  0.10100000352E+00 0. -1.
       -3    1    3    3    0  502  0.48489638839E+03  0.63081037320E+03 -0.81878339624E+02  0.79984392672E+03  0.10100000352E+00 0.  1.
</event>
<event>
 5   0  0.2763895E-04  0.1592880E+04  0.7818609E-02  0.8824934E-01
        1   -1    0    0  501    0  0.00000000000E+00  0.00000000000E+00  0.79528467180E+03  0.79528467182E+03  0.50400001928E-02 0. -1.
       -1   -1    0    0    0  501  0.00000000000E+00  0.00000000000E+00 -0.79759684109E+03  0.79759684111E+03  0.50400001928E-02 0.  1.
    10030    2    1    2    0    0  0.00000000000E+00  0.00000000000E+00 -0.23121692933E+01  0.15928815129E+04  0.15928798348E+04 0.  0.
        4    1    3    3  502    0 -0.21397896504E+03 -0.40857871112E+03  0.64814527587E+03  0.79549825405E+03  0.12699999809E+01 0. -1.
       -4    1    3    3    0  502  0.21397896504E+03  0.40857871112E+03 -0.65045744516E+03  0.79738325887E+03  0.12699999809E+01 0.  1.
</event>
<event>
 5   0  0.5315984E-04  0.1576249E+04  0.7818609E-02  0.8835274E-01
        2   -1    0    0  501    0  0.00000000000E+00  0.00000000000E+00  0.78523291786E+03  0.78523291787E+03  0.25500000920E-02 0.  1.
       -2   -1    0    0    0  501  0.00000000000E+00  0.00000000000E+00 -0.79102626986E+03  0.79102626986E+03  0.25500000920E-02 0. -1.
    10030    2    1    2    0    0  0.00000000000E+00  0.00000000000E+00 -0.57933519935E+01  0.15762591877E+04  0.15762485413E+04 0.  0.
        2    1    3    3  502    0  0.60904498824E+03 -0.10911499256E+02 -0.50298505396E+03  0.78996760885E+03  0.25500000920E-02 0. -1.
       -2    1    3    3    0  502 -0.60904498824E+03  0.10911499256E+02  0.49719170197E+03  0.78629157888E+03  0.25500000920E-02 0.  1.
</event>
<event>
 5   0  0.2763895E-04  0.1597964E+04  0.7818609E-02  0.8821800E-01
        1   -1    0    0  501    0  0.00000000000E+00  0.00000000000E+00  0.81734963091E+03  0.81734963093E+03  0.50400001928E-02 0. -1.
       -1   -1    0    0    0  501  0.00000000000E+00  0.00000000000E+00 -0.78102743566E+03  0.78102743568E+03  0.50400001928E-02 0.  1.
    10030    2    1    2    0    0  0.00000000000E+00  0.00000000000E+00  0.36322195248E+02  0.15983770666E+04  0.15979643129E+04 0.  0.
        4    1    3    3  502    0  0.10285610677E+03 -0.50241118449E+03 -0.59467529139E+03  0.78526218048E+03  0.12699999809E+01 0.  1.
       -4    1    3    3    0  502 -0.10285610677E+03  0.50241118449E+03  0.63099748664E+03  0.81311488613E+03  0.12699999809E+01 0. -1.
</event>
<event>
 5   0  0.2763895E-04  0.1606968E+04  0.7818609E-02  0.8816279E-01
       -1   -1    0    0    0  501  0.00000000000E+00  0.00000000000E+00  0.63074830553E+03  0.63074830555E+03  0.50400001928E-02 0.  1.
        1   -1    0    0  501    0  0.00000000000E+00  0.00000000000E+00 -0.10235245132E+04  0.10235245133E+04  0.50400001928E-02 0. -1.
    10030    2    1    2    0    0  0.00000000000E+00  0.00000000000E+00 -0.39277620772E+03  0.16542728188E+04  0.16069677687E+04 0.  0.
        4    1    3    3  502    0 -0.64314263330E+03  0.46292438139E+03 -0.59611114508E+02  0.79466126591E+03  0.12699999809E+01 0.  1.
       -4    1    3    3    0  502  0.64314263330E+03 -0.46292438139E+03 -0.33316509321E+03  0.85961155291E+03  0.12699999809E+01 0. -1.
</event>
<event>
 5   0  0.2649086E-04  0.1607038E+04  0.7818609E-02  0.8816236E-01
        1   -1    0    0  501    0  0.00000000000E+00  0.00000000000E+00  0.18094403951E+04  0.18094403951E+04  0.50400001928E-02 0. -1.
       -1   -1    0    0    0  501  0.00000000000E+00  0.00000000000E+00 -0.35681925887E+03  0.35681925891E+03  0.50400001928E-02 0.  1.
    10030    2    1    2    0    0  0.00000000000E+00  0.00000000000E+00  0.14526211362E+04  0.21662596540E+04  0.16070384946E+04 0.  0.
        2    1    3    3  502    0 -0.17769261472E+03  0.66853214730E+03  0.12773919058E+04  0.14526665063E+04  0.25500000920E-02 0.  1.
       -2    1    3    3    0  502  0.17769261472E+03 -0.66853214730E+03  0.17522923035E+03  0.71359314772E+03  0.25500000920E-02 0. -1.
</event>
<event>
 5   0  0.5315984E-04  0.1608242E+04  0.7818609E-02  0.8815501E-01
       -2   -1    0    0    0  501  0.00000000000E+00  0.00000000000E+00  0.83471351216E+03  0.83471351217E+03  0.25500000920E-02 0. -1.
        2   -1    0    0  501    0  0.00000000000E+00  0.00000000000E+00 -0.77464945555E+03  0.77464945556E+03  0.25500000920E-02 0.  1.
    10030    2    1    2    0    0  0.00000000000E+00  0.00000000000E+00  0.60064056610E+02  0.16093629677E+04  0.16082417328E+04 0.  0.
        2    1    3    3  502    0 -0.24630334941E+03  0.25464841986E+03  0.75240732128E+03  0.83164171059E+03  0.25500000920E-02 0. -1.
       -2    1    3    3    0  502  0.24630334941E+03 -0.25464841986E+03 -0.69234326467E+03  0.77772125714E+03  0.25500000920E-02 0.  1.
</event>
<event>
 5   0  0.5131239E-04  0.1599904E+04  0.7818609E-02  0.8820607E-01
       -2   -1    0    0    0  501  0.00000000000E+00  0.00000000000E+00  0.26644061241E+03  0.26644061242E+03  0.25500000920E-02 0. -1.
        2   -1    0    0  501    0  0.00000000000E+00  0.00000000000E+00 -0.24017472904E+04  0.24017472904E+04  0.25500000920E-02 0.  1.
    10030    2    1    2    0    0  0.00000000000E+00  0.00000000000E+00 -0.21353066780E+04  0.26681879028E+04  0.15999037707E+04 0.  0.
        1    1    3    3  502    0 -0.65391708237E+03 -0.30675058145E+03 -0.49424078355E+03  0.87520136083E+03  0.50400001928E-02 0. -1.
       -1    1    3    3    0  502  0.65391708237E+03  0.30675058145E+03 -0.16410658944E+04  0.17929865420E+04  0.50400001928E-02 0.  1.
</event>
<event>
 5   0  0.1908125E-04  0.1595535E+04  0.7818609E-02  0.8823296E-01
        4   -1    0    0  501    0  0.00000000000E+00  0.00000000000E+00  0.10318488932E+04  0.10318496748E+04  0.12699999809E+01 0. -1.
       -4   -1    0    0    0  501  0.00000000000E+00  0.00000000000E+00 -0.61678723943E+03  0.61678854693E+03  0.12699999809E+01 0.  1.
    10030    2    1    2    0    0  0.00000000000E+00  0.00000000000E+00  0.41506165377E+03  0.16486382217E+04  0.15955349603E+04 0.  0.
        1    1    3    3  502    0 -0.70653012835E+03 -0.30174091486E+03 -0.14566133254E+02  0.76840391347E+03  0.50400001928E-02 0.  1.
       -1    1    3    3    0  502  0.70653012835E+03  0.30174091486E+03  0.42962778702E+03  0.88023430823E+03  0.50400001928E-02 0. -1.
</event>
<event>
 5   0  0.5131239E-04  0.1599002E+04  0.7818609E-02  0.8821162E-01
        2   -1    0    0  501    0  0.00000000000E+00  0.00000000000E+00  0.42707504857E+03  0.42707504857E+03  0.25500000920E-02 0. -1.
       -2   -1    0    0    0  501  0.00000000000E+00  0.00000000000E+00 -0.14966961495E+04  0.14966961495E+04  0.25500000920E-02 0.  1.
    10030    2    1    2    0    0  0.00000000000E+00  0.00000000000E+00 -0.10696211010E+04  0.19237711981E+04  0.15990016645E+04 0.  0.
        1    1    3    3  502    0 -0.49719717633E+03 -0.36161448367E+03 -0.11497286639E+04  0.13037814493E+04  0.50400001928E-02 0.  1.
       -1    1    3    3    0  502  0.49719717633E+03  0.36161448367E+03  0.80107562933E+02  0.61998974880E+03  0.50400001928E-02 0. -1.
</event>
<event>
 5   0  0.2689675E-04  0.1598573E+04  0.7818609E-02  0.8821425E-01
       -1   -1    0    0    0  501  0.00000000000E+00  0.00000000000E+00  0.38337912804E+03  0.38337912807E+03  0.50400001928E-02 0. -1.
        1   -1    0    0  501    0  0.00000000000E+00  0.00000000000E+00 -0.16663894818E+04  0.16663894818E+04  0.50400001928E-02 0.  1.
    10030    2    1    2    0    0  0.00000000000E+00  0.00000000000E+00 -0.12830103537E+04  0.20497686098E+04  0.15985730468E+04 0.  0.
        1    1    3    3  502    0  0.69508365835E+03  0.19675644576E+03 -0.10801103375E+04  0.12994201524E+04  0.50400001928E-02 0.  1.
       -1    1    3    3    0  502 -0.69508365835E+03 -0.19675644576E+03 -0.20290001617E+03  0.75034845747E+03  0.50400001928E-02 0. -1.
</event>
<event>
 5   0  0.5381164E-04  0.1555015E+04  0.7818609E-02  0.8848671E-01
        2   -1    0    0  501    0  0.00000000000E+00  0.00000000000E+00  0.15856605512E+04  0.15856605512E+04  0.25500000920E-02 0. -1.
       -2   -1    0    0    0  501  0.00000000000E+00  0.00000000000E+00 -0.38124034656E+03  0.38124034657E+03  0.25500000920E-02 0.  1.
    10030    2    1    2    0    0  0.00000000000E+00  0.00000000000E+00  0.12044202047E+04  0.19669008978E+04  0.15550148270E+04 0.  0.
        5    1    3    3  502    0  0.24762814836E+03  0.39761618996E+03 -0.18270364126E+03  0.50281313120E+03  0.46999998093E+01 0.  1.
       -5    1    3    3    0  502 -0.24762814836E+03 -0.39761618996E+03  0.13871238459E+04  0.14640877666E+04  0.46999998093E+01 0. -1.
</event>
<event>
 5   0  0.1908125E-04  0.1645804E+04  0.7818609E-02  0.8792893E-01
       -3   -1    0    0    0  501  0.00000000000E+00  0.00000000000E+00  0.48757000966E+03  0.48757002012E+03  0.10100000352E+00 0. -1.
        3   -1    0    0  501    0  0.00000000000E+00  0.00000000000E+00 -0.13888616699E+04  0.13888616736E+04  0.10100000352E+00 0.  1.
    10030    2    1    2    0    0  0.00000000000E+00  0.00000000000E+00 -0.90129166028E+03  0.18764316937E+04  0.16458035254E+04 0.  0.
        5    1    3    3  502    0 -0.33190833047E+02  0.80485467979E+01 -0.13880379812E+04  0.13884660377E+04  0.46999998093E+01 0.  1.
       -5    1    3    3    0  502  0.33190833047E+02 -0.80485467979E+01  0.48674632096E+03  0.48796565603E+03  0.46999998093E+01 0. -1.
</event>
<event>
 5   0  0.5083831E-04  0.1618455E+04  0.7818609E-02  0.8809290E-01
        2   -1    0    0  501    0  0.00000000000E+00  0.00000000000E+00  0.16323612533E+04  0.16323612533E+04  0.25500000920E-02 0.  1.
       -2   -1    0    0    0  501  0.00000000000E+00  0.00000000000E+00 -0.40116670583E+03  0.40116670583E+03  0.25500000920E-02 0. -1.
    10030    2    1    2    0    0  0.00000000000E+00  0.00000000000E+00  0.12311945475E+04  0.20335279592E+04  0.16184548022E+04 0.  0.
        4    1    3    3  502    0 -0.15862821248E+03 -0.75321307719E+03  0.92934714608E+03  0.12067230752E+04  0.12699999809E+01 0.  1.
       -4    1    3    3    0  502  0.15862821248E+03  0.75321307719E+03  0.30184740141E+03  0.82680488393E+03  0.12699999809E+01 0. -1.
</event>
<event>
 5   0  0.5083831E-04  0.1557014E+04  0.7818609E-02  0.8847400E-01
       -2   -1    0    0    0  501  0.00000000000E+00  0.00000000000E+00  0.13488979930E+04  0.13488979930E+04  0.25500000920E-02 0.  1.
        2   -1    0    0  501    0  0.00000000000E+00  0.00000000000E+00 -0.44930987616E+03  0.44930987617E+03  0.25500000920E-02 0. -1.
    10030    2    1    2    0    0  0.00000000000E+00  0.00000000000E+00  0.89958811684E+03  0.17982078692E+04  0.15570140529E+04 0.  0.
        4    1    3    3  502    0 -0.38989079148E+03 -0.24724734106E+03  0.11737338843E+04  0.12612687743E+04  0.12699999809E+01 0.  1.
       -4    1    3    3    0  502  0.38989079148E+03  0.24724734106E+03 -0.27414576743E+03  0.53693909491E+03  0.12699999809E+01 0. -1.
</event>
<event>
 5   0  0.2649086E-04  0.1606297E+04  0.7818609E-02  0.8816689E-01
       -1   -1    0    0    0  501  0.00000000000E+00  0.00000000000E+00  0.86412985709E+03  0.86412985710E+03  0.50400001928E-02 0.  1.
        1   -1    0    0  501    0  0.00000000000E+00  0.00000000000E+00 -0.74647068241E+03  0.74647068242E+03  0.50400001928E-02 0. -1.
    10030    2    1    2    0    0  0.00000000000E+00  0.00000000000E+00  0.11765917468E+03  0.16106005395E+04  0.16062971134E+04 0.  0.
        2    1    3    3  502    0 -0.74228078299E+03 -0.18999733957E+03 -0.18258058931E+03  0.78766453610E+03  0.25500000920E-02 0. -1.
       -2    1    3    3    0  502  0.74228078299E+03  0.18999733957E+03  0.30023976399E+03  0.82293600342E+03  0.25500000920E-02 0.  1.
</event>
<event>
 5   0  0.2796994E-04  0.1626113E+04  0.7818609E-02  0.8804665E-01
       -1   -1    0    0    0  501  0.00000000000E+00  0.00000000000E+00  0.35976639556E+03  0.35976639560E+03  0.50400001928E-02 0. -1.
        1   -1    0    0  501    0  0.00000000000E+00  0.00000000000E+00 -0.18374721597E+04  0.18374721597E+04  0.50400001928E-02 0.  1.
    10030    2    1    2    0    0  0.00000000000E+00  0.00000000000E+00 -0.14777057641E+04  0.21972385553E+04  0.16261128324E+04 0.  0.
        3    1    3    3  502    0  0.28173228275E+03  0.43387729967E+03 -0.15864017743E+04  0.16686201455E+04  0.10100000352E+00 0.  1.
       -3    1    3    3    0  502 -0.28173228275E+03 -0.43387729967E+03  0.10869601018E+03  0.52861840977E+03  0.10100000352E+00 0. -1.
</event>
<event>
 5   0  0.2730707E-04  0.1698596E+04  0.7818609E-02  0.8762166E-01
       -1   -1    0    0    0  501  0.00000000000E+00  0.00000000000E+00  0.62832607450E+03  0.62832607452E+03  0.50400001928E-02 0. -1.
        1   -1    0    0  501    0  0.00000000000E+00  0.00000000000E+00 -0.11479821037E+04  0.11479821037E+04  0.50400001928E-02 0.  1.
    10030    2    1    2    0    0  0.00000000000E+00  0.00000000000E+00 -0.51965602923E+03  0.17763081783E+04  0.16985959954E+04 0.  0.
        5    1    3    3  502    0 -0.27707864297E+03 -0.72249257357E+03  0.10621003210E+03  0.78107026199E+03  0.46999998093E+01 0. -1.
       -5    1    3    3    0  502  0.27707864297E+03  0.72249257357E+03 -0.62586606133E+03  0.99523791627E+03  0.46999998093E+01 0.  1.
</event>
<event>
 5   0  0.5083831E-04  0.1604360E+04  0.7818609E-02  0.8817874E-01
       -2   -1    0    0    0  501  0.00000000000E+00  0.00000000000E+00  0.59969274225E+03  0.59969274226E+03  0.25500000920E-02 0. -1.
        2   -1    0    0  501    0  0.00000000000E+00  0.00000000000E+00 -0.10730377402E+04  0.10730377402E+04  0.25500000920E-02 0.  1.
    10030    2    1    2    0    0  0.00000000000E+00  0.00000000000E+00 -0.47334499796E+03  0.16727304825E+04  0.16043602401E+04 0.  0.
        4    1    3    3  502    0  0.48554203774E+03  0.51356158996E+03  0.15896497214E+03  0.72440876055E+03  0.12699999809E+01 0. -1.
       -4    1    3    3    0  502 -0.48554203774E+03 -0.51356158996E+03 -0.63230997010E+03  0.94832172193E+03  0.12699999809E+01 0.  1.
</event>
<event>
 5   0  0.5381164E-04  0.1595329E+04  0.7818609E-02  0.8823423E-01
        2   -1    0    0  501    0  0.00000000000E+00  0.00000000000E+00  0.93533511228E+03  0.93533511228E+03  0.25500000920E-02 0. -1.
       -2   -1    0    0    0  501  0.00000000000E+00  0.00000000000E+00 -0.68025721653E+03  0.68025721654E+03  0.25500000920E-02 0.  1.
    10030    2    1    2    0    0  0.00000000000E+00  0.00000000000E+00  0.25507789575E+03  0.16155923288E+04  0.15953287561E+04 0.  0.
        5    1    3    3  502    0 -0.74628565596E+03  0.24537256186E+03  0.26748391692E+03  0.82989138459E+03  0.46999998093E+01 0. -1.
       -5    1    3    3    0  502  0.74628565596E+03 -0.24537256186E+03 -0.12406021175E+02  0.78570094423E+03  0.46999998093E+01 0.  1.
</event>
<event>
 5   0  0.5131239E-04  0.1595913E+04  0.7818609E-02  0.8823063E-01
        2   -1    0    0  501    0  0.00000000000E+00  0.00000000000E+00  0.16574815778E+04  0.16574815778E+04  0.25500000920E-02 0.  1.
       -2   -1    0    0    0  501  0.00000000000E+00  0.00000000000E+00 -0.38415785371E+03  0.38415785372E+03  0.25500000920E-02 0. -1.
    10030    2    1    2    0    0  0.00000000000E+00  0.00000000000E+00  0.12733237241E+04  0.20416394315E+04  0.15959129870E+04 0.  0.
        1    1    3    3  502    0  0.30051461844E+03  0.32902968793E+03 -0.21015339677E+03  0.49268044576E+03  0.50400001928E-02 0. -1.
       -1    1    3    3    0  502 -0.30051461844E+03 -0.32902968793E+03  0.14834771209E+04  0.15489589858E+04  0.50400001928E-02 0.  1.
</event>
<event>
 5   0  0.5131239E-04  0.1597720E+04  0.7818609E-02  0.8821950E-01
        2   -1    0    0  501    0  0.00000000000E+00  0.00000000000E+00  0.72434280996E+03  0.72434280996E+03  0.25500000920E-02 0. -1.
       -2   -1    0    0    0  501  0.00000000000E+00  0.00000000000E+00 -0.88104341332E+03  0.88104341332E+03  0.25500000920E-02 0.  1.
    10030    2    1    2    0    0  0.00000000000E+00  0.00000000000E+00 -0.15670060336E+03  0.16053862233E+04  0.15977202029E+04 0.  0.
        1    1    3    3  502    0  0.30160524860E+03 -0.70911671271E+03 -0.28999146573E+03  0.82335125460E+03  0.50400001928E-02 0.  1.
       -1    1    3    3    0  502 -0.30160524860E+03  0.70911671271E+03  0.13329086237E+03  0.78203496868E+03  0.50400001928E-02 0. -1.
</event>
<event>
 5   0  0.1908125E-04  0.1629560E+04  0.7818609E-02  0.8802591E-01
       -3   -1    0    0    0  501  0.00000000000E+00  0.00000000000E+00  0.83147698861E+03  0.83147699474E+03  0.10100000352E+00 0. -1.
        3   -1    0    0  501    0  0.00000000000E+00  0.00000000000E+00 -0.79841854510E+03  0.79841855149E+03  0.10100000352E+00 0.  1.
    10030    2    1    2    0    0  0.00000000000E+00  0.00000000000E+00  0.33058443505E+02  0.16298955462E+04  0.16295602569E+04 0.  0.
        2    1    3    3  502    0 -0.41851998095E+03 -0.69504915387E+03 -0.58415208154E+02  0.81342770871E+03  0.25500000920E-02 0. -1.
       -2    1    3    3    0  502  0.41851998095E+03  0.69504915387E+03  0.91473651659E+02  0.81646783752E+03  0.25500000920E-02 0.  1.
</event>
<event>
 5   0  0.1908125E-04  0.1614778E+04  0.7818609E-02  0.8811520E-01
       -3   -1    0    0    0  501  0.00000000000E+00  0.00000000000E+00  0.82001177510E+03  0.82001178132E+03  0.10100000352E+00 0. -1.
        3   -1    0    0  501    0  0.00000000000E+00  0.00000000000E+00 -0.79496058680E+03  0.79496059322E+03  0.10100000352E+00 0.  1.
    10030    2    1    2    0    0  0.00000000000E+00  0.00000000000E+00  0.25051188305E+02  0.16149723745E+04  0.16147780679E+04 0.  0.
        4    1    3    3  502    0 -0.16099856124E+03  0.45630484232E+03  0.65893207087E+03  0.81751313920E+03  0.12699999809E+01 0. -1.
       -4    1    3    3    0  502  0.16099856124E+03 -0.45630484232E+03 -0.63388088256E+03  0.79745923534E+03  0.12699999809E+01 0.  1.
</event>
<event>
 5   0  0.5083831E-04  0.1530850E+04  0.7818609E-02  0.8864193E-01
        2   -1    0    0  501    0  0.00000000000E+00  0.00000000000E+00  0.22464344915E+04  0.22464344915E+04  0.25500000920E-02 0.  1.
       -2   -1    0    0    0  501  0.00000000000E+00  0.00000000000E+00 -0.26080227629E+03  0.26080227630E+03  0.25500000920E-02 0. -1.
    10030    2    1    2    0    0  0.00000000000E+00  0.00000000000E+00  0.19856322152E+04  0.25072367678E+04  0.15308497365E+04 0.  0.
        4    1    3    3  502    0 -0.14598744473E+03  0.80907617545E+02  0.22162649491E+04  0.22225414088E+04  0.12699999809E+01 0.  1.
       -4    1    3    3    0  502  0.14598744473E+03 -0.80907617545E+02 -0.23063273386E+03  0.28469535897E+03  0.12699999809E+01 0. -1.
</event>
<event>
 5   0  0.2763895E-04  0.1578293E+04  0.7818609E-02  0.8833996E-01
       -1   -1    0    0    0  501  0.00000000000E+00  0.00000000000E+00  0.55415657172E+03  0.55415657175E+03  0.50400001928E-02 0. -1.
        1   -1    0    0  501    0  0.00000000000E+00  0.00000000000E+00 -0.11237836802E+04  0.11237836802E+04  0.50400001928E-02 0.  1.
    10030    2    1    2    0    0  0.00000000000E+00  0.00000000000E+00 -0.56962710850E+03  0.16779402520E+04  0.15782928900E+04 0.  0.
        4    1    3    3  502    0  0.52349607325E+03 -0.31069371953E+03  0.24905842613E+03  0.65773128144E+03  0.12699999809E+01 0. -1.
       -4    1    3    3    0  502 -0.52349607325E+03  0.31069371953E+03 -0.81868553462E+03  0.10202089705E+04  0.12699999809E+01 0.  1.
</event>
<event>
 5   0  0.5083831E-04  0.1609995E+04  0.7818609E-02  0.8814431E-01
       -2   -1    0    0    0  501  0.00000000000E+00  0.00000000000E+00  0.53228801109E+03  0.53228801110E+03  0.25500000920E-02 0.  1.
        2   -1    0    0  501    0  0.00000000000E+00  0.00000000000E+00 -0.12174250321E+04  0.12174250321E+04  0.25500000920E-02 0. -1.
    10030    2    1    2    0    0  0.00000000000E+00  0.00000000000E+00 -0.68513702100E+03  0.17497130432E+04  0.16099947192E+04 0.  0.
        4    1    3    3  502    0  0.64285565936E+03 -0.21714619657E+03  0.12815140800E+03  0.69053621609E+03  0.12699999809E+01 0.  1.
       -4    1    3    3    0  502 -0.64285565936E+03  0.21714619657E+03 -0.81328842900E+03  0.10591768271E+04  0.12699999809E+01 0. -1.
</event>
<event>
 5   0  0.2796994E-04  0.1598849E+04  0.7818609E-02  0.8821255E-01
        1   -1    0    0  501    0  0.00000000000E+00  0.00000000000E+00  0.16822035900E+04  0.16822035901E+04  0.50400001928E-02 0. -1.
       -1   -1    0    0    0  501  0.00000000000E+00  0.00000000000E+00 -0.37990611556E+03  0.37990611559E+03  0.50400001928E-02 0.  1.
    10030    2    1    2    0    0  0.00000000000E+00  0.00000000000E+00  0.13022974745E+04  0.20621097056E+04  0.15988488753E+04 0.  0.
        3    1    3    3  502    0 -0.68519875543E+03  0.38300262213E+03  0.45601270231E+03  0.90781933107E+03  0.10100000352E+00 0.  1.
       -3    1    3    3    0  502  0.68519875543E+03 -0.38300262213E+03  0.84628477218E+03  0.11542903746E+04  0.10100000352E+00 0. -1.
</event>
<event>
 5   0  0.2763895E-04  0.1598878E+04  0.7818609E-02  0.8821237E-01
       -1   -1    0    0    0  501  0.00000000000E+00  0.00000000000E+00  0.98262665136E+03  0.98262665137E+03  0.50400001928E-02 0.  1.
        1   -1    0    0  501    0  0.00000000000E+00  0.00000000000E+00 -0.65040252692E+03  0.65040252694E+03  0.50400001928E-02 0. -1.
    10030    2    1    2    0    0  0.00000000000E+00  0.00000000000E+00  0.33222412444E+03  0.16330291783E+04  0.15988781781E+04 0.  0.
        4    1    3    3  502    0  0.32238077065E+02  0.55984461683E+03 -0.41582615466E+03  0.69812484012E+03  0.12699999809E+01 0. -1.
       -4    1    3    3    0  502 -0.32238077065E+02 -0.55984461683E+03  0.74805027910E+03  0.93490433819E+03  0.12699999809E+01 0.  1.
</event>
<event>
 5   0  0.2649086E-04  0.1612942E+04  0.7818609E-02  0.8812636E-01
        1   -1    0    0  501    0  0.00000000000E+00  0.00000000000E+00  0.53021173507E+03  0.53021173509E+03  0.50400001928E-02 0. -1.
       -1   -1    0    0    0  501  0.00000000000E+00  0.00000000000E+00 -0.12266713815E+04  0.12266713815E+04  0.50400001928E-02 0.  1.
    10030    2    1    2    0    0  0.00000000000E+00  0.00000000000E+00 -0.69645964644E+03  0.17568831166E+04  0.16129421088E+04 0.  0.
        2    1    3    3  502    0  0.57109529374E+03 -0.41381387911E+03  0.77834528149E+02  0.70954208815E+03  0.25500000920E-02 0. -1.
       -2    1    3    3    0  502 -0.57109529374E+03  0.41381387911E+03 -0.77429417459E+03  0.10473410285E+04  0.25500000920E-02 0.  1.
</event>
<event>
 5   0  0.5131239E-04  0.1589676E+04  0.7818609E-02  0.8826915E-01
        2   -1    0    0  501    0  0.00000000000E+00  0.00000000000E+00  0.11685649363E+04  0.11685649363E+04  0.25500000920E-02 0. -1.
       -2   -1    0    0    0  501  0.00000000000E+00  0.00000000000E+00 -0.54063559776E+03  0.54063559777E+03  0.25500000920E-02 0.  1.
    10030    2    1    2    0    0  0.00000000000E+00  0.00000000000E+00  0.62792933855E+03  0.17092005341E+04  0.15896764487E+04 0.  0.
        1    1    3    3  502    0 -0.10272445308E+02  0.13830648390E+03  0.11554552066E+04  0.11637486589E+04  0.50400001928E-02 0. -1.
       -1    1    3    3    0  502  0.10272445308E+02 -0.13830648390E+03 -0.52752586806E+03  0.54545187516E+03  0.50400001928E-02 0.  1.
</event>
<event>
 5   0  0.2689675E-04  0.1505906E+04  0.7818609E-02  0.8880535E-01
        1   -1    0    0  501    0  0.00000000000E+00  0.00000000000E+00  0.22422992896E+04  0.22422992896E+04  0.50400001928E-02 0.  1.
       -1   -1    0    0    0  501  0.00000000000E+00  0.00000000000E+00 -0.25283781195E+03  0.25283781200E+03  0.50400001928E-02 0. -1.
    10030    2    1    2    0    0  0.00000000000E+00  0.00000000000E+00  0.19894614777E+04  0.24951371016E+04  0.15059057689E+04 0.  0.
        1    1    3    3  502    0  0.67630459324E+02  0.53338238482E+03  0.18681352178E+04  0.19439649789E+04  0.50400001928E-02 0.  1.
       -1    1    3    3    0  502 -0.67630459324E+02 -0.53338238482E+03  0.12132625991E+03  0.55117212269E+03  0.50400001928E-02 0. -1.
</event>
<event>
 5   0  0.5131239E-04  0.1553322E+04  0.7818609E-02  0.8849749E-01
       -2   -1    0    0    0  501  0.00000000000E+00  0.00000000000E+00  0.14325760317E+04  0.14325760318E+04  0.25500000920E-02 0. -1.
        2   -1    0    0  501    0  0.00000000000E+00  0.00000000000E+00 -0.42106110580E+03  0.42106110581E+03  0.25500000920E-02 0.  1.
    10030    2    1    2    0    0  0.00000000000E+00  0.00000000000E+00  0.10115149259E+04  0.18536371376E+04  0.15533216642E+04 0.  0.
        1    1    3    3  502    0  0.23380661052E+02  0.13333383043E+02 -0.42050439268E+03  0.42136489970E+03  0.50400001928E-02 0.  1.
       -1    1    3    3    0  502 -0.23380661052E+02 -0.13333383043E+02  0.14320193186E+04  0.14322722379E+04  0.50400001928E-02 0. -1.
</event>
<event>
 5   0  0.5315984E-04  0.1598809E+04  0.7818609E-02  0.8821280E-01
        2   -1    0    0  501    0  0.00000000000E+00  0.00000000000E+00  0.72225790388E+03  0.72225790388E+03  0.25500000920E-02 0. -1.
       -2   -1    0    0    0  501  0.00000000000E+00  0.00000000000E+00 -0.88479169209E+03  0.88479169210E+03  0.25500000920E-02 0.  1.
    10030    2    1    2    0    0  0.00000000000E+00  0.00000000000E+00 -0.16253378822E+03  0.16070495960E+04  0.15988092981E+04 0.  0.
        2    1    3    3  502    0 -0.53665867653E+03 -0.25691669940E+03 -0.61790907866E+03  0.85779971731E+03  0.25500000920E-02 0.  1.
       -2    1    3    3    0  502  0.53665867653E+03  0.25691669940E+03  0.45537529044E+03  0.74924987866E+03  0.25500000920E-02 0. -1.
</event>
<event>
 5   0  0.5083831E-04  0.1591798E+04  0.7818609E-02  0.8825603E-01
        2   -1    0    0  501    0  0.00000000000E+00  0.00000000000E+00  0.11330292404E+04  0.11330292404E+04  0.25500000920E-02 0. -1.
       -2   -1    0    0    0  501  0.00000000000E+00  0.00000000000E+00 -0.55908092858E+03  0.55908092859E+03  0.25500000920E-02 0.  1.
    10030    2    1    2    0    0  0.00000000000E+00  0.00000000000E+00  0.57394831184E+03  0.16921101690E+04  0.15917977759E+04 0.  0.
        4    1    3    3  502    0 -0.36601716179E+03  0.15586998271E+03  0.10197550204E+04  0.10946076598E+04  0.12699999809E+01 0. -1.
       -4    1    3    3    0  502  0.36601716179E+03 -0.15586998271E+03 -0.44580670859E+03  0.59750250925E+03  0.12699999809E+01 0.  1.
</event>
<event>
 5   0  0.2763895E-04  0.1585950E+04  0.7818609E-02  0.8829226E-01
       -1   -1    0    0    0  501  0.00000000000E+00  0.00000000000E+00  0.82597145406E+03  0.82597145408E+03  0.50400001928E-02 0.  1.
        1   -1    0    0  501    0  0.00000000000E+00  0.00000000000E+00 -0.76129716807E+03  0.76129716809E+03  0.50400001928E-02 0. -1.
    10030    2    1    2    0    0  0.00000000000E+00  0.00000000000E+00  0.64674285993E+02  0.15872686222E+04  0.15859504770E+04 0.  0.
        4    1    3    3  502    0  0.60618868546E+03 -0.49760953749E+03 -0.84927392542E+02  0.78885629178E+03  0.12699999809E+01 0. -1.
       -4    1    3    3    0  502 -0.60618868546E+03  0.49760953749E+03  0.14960167854E+03  0.79841233038E+03  0.12699999809E+01 0.  1.
</event>
<event>
 5   0  0.2689675E-04  0.1567024E+04  0.7818609E-02  0.8841067E-01
       -1   -1    0    0    0  501  0.00000000000E+00  0.00000000000E+00  0.30682829146E+03  0.30682829150E+03  0.50400001928E-02 0.  1.
        1   -1    0    0  501    0  0.00000000000E+00  0.00000000000E+00 -0.20007638244E+04  0.20007638244E+04  0.50400001928E-02 0. -1.
    10030    2    1    2    0    0  0.00000000000E+00  0.00000000000E+00 -0.16939355329E+04  0.23075921159E+04  0.15670238619E+04 0.  0.
        1    1    3    3  502    0  0.76214024949E+02  0.66552006038E+03 -0.14454386091E+04  0.15931159095E+04  0.50400001928E-02 0. -1.
       -1    1    3    3    0  502 -0.76214024949E+02 -0.66552006038E+03 -0.24849692385E+03  0.71447620643E+03  0.50400001928E-02 0.  1.
</event>
<event>
 5   0  0.5083831E-04  0.1638707E+04  0.7818609E-02  0.8797115E-01
       -2   -1    0    0    0  501  0.00000000000E+00  0.00000000000E+00  0.47851916301E+03  0.47851916302E+03  0.25500000920E-02 0.  1.
        2   -1    0    0  501    0  0.00000000000E+00  0.00000000000E+00 -0.14029534535E+04  0.14029534535E+04  0.25500000920E-02 0. -1.
    10030    2    1    2    0    0  0.00000000000E+00  0.00000000000E+00 -0.92443429044E+03  0.18814726165E+04  0.16387069443E+04 0.  0.
        4    1    3    3  502    0  0.55868363521E+03 -0.54287259101E+03 -0.17062356148E+03  0.79746602871E+03  0.12699999809E+01 0.  1.
       -4    1    3    3    0  502 -0.55868363521E+03  0.54287259101E+03 -0.75381072896E+03  0.10840065878E+04  0.12699999809E+01 0. -1.
</event>
<event>
 5   0  0.5381164E-04  0.1650922E+04  0.7818609E-02  0.8789861E-01
        2   -1    0    0  501    0  0.00000000000E+00  0.00000000000E+00  0.58510286186E+03  0.58510286187E+03  0.25500000920E-02 0.  1.
       -2   -1    0    0    0  501  0.00000000000E+00  0.00000000000E+00 -0.11645569463E+04  0.11645569463E+04  0.25500000920E-02 0. -1.
    10030    2    1    2    0    0  0.00000000000E+00  0.00000000000E+00 -0.57945408446E+03  0.17496598082E+04  0.16509216845E+04 0.  0.
        5    1    3    3  502    0  0.56970569206E+03  0.17788477104E+03  0.31460134233E+03  0.67468782553E+03  0.46999998093E+01 0.  1.
       -5    1    3    3    0  502 -0.56970569206E+03 -0.17788477104E+03 -0.89405542679E+03  0.10749719827E+04  0.46999998093E+01 0. -1.
</event>
<event>
 5   0  0.2649086E-04  0.1574766E+04  0.7818609E-02  0.8836202E-01
       -1   -1    0    0    0  501  0.00000000000E+00  0.00000000000E+00  0.96132958154E+03  0.96132958155E+03  0.50400001928E-02 0. -1.
        1   -1    0    0  501    0  0.00000000000E+00  0.00000000000E+00 -0.64491095049E+03  0.64491095051E+03  0.50400001928E-02 0.  1.
    10030    2    1    2    0    0  0.00000000000E+00  0.00000000000E+00  0.31641863105E+03  0.16062405321E+04  0.15747659816E+04 0.  0.
        2    1    3    3  502    0  0.55471471556E+03 -0.55805165107E+03  0.12861364167E+03  0.79729011642E+03  0.25500000920E-02 0. -1.
       -2    1    3    3    0  502 -0.55471471556E+03  0.55805165107E+03  0.18780498938E+03  0.80895041564E+03  0.25500000920E-02 0.  1.
</event>
<event>
 5   0  0.2796994E-04  0.1573080E+04  0.7818609E-02  0.8837259E-01
        1   -1    0    0  501    0  0.00000000000E+00  0.00000000000E+00  0.49616733069E+03  0.49616733072E+03  0.50400001928E-02 0. -1.
       -1   -1    0    0    0  501  0.00000000000E+00  0.00000000000E+00 -0.12468482956E+04  0.12468482956E+04  0.50400001928E-02 0.  1.
    10030    2    1    2    0    0  0.00000000000E+00  0.00000000000E+00 -0.75068096487E+03  0.17430156263E+04  0.15730802785E+04 0.  0.
        3    1    3    3  502    0  0.61308031867E+02 -0.29854411472E+03  0.42808090282E+03  0.52549075421E+03  0.10100000352E+00 0. -1.
       -3    1    3    3    0  502 -0.61308031867E+02  0.29854411472E+03 -0.11787618677E+04  0.12175248721E+04  0.10100000352E+00 0.  1.
</event>
<event>
 5   0  0.5315984E-04  0.1667288E+04  0.7818609E-02  0.8780244E-01
       -2   -1    0    0    0  501  0.00000000000E+00  0.00000000000E+00  0.50380754534E+03  0.50380754535E+03  0.25500000920E-02 0. -1.
        2   -1    0    0  501    0  0.00000000000E+00  0.00000000000E+00 -0.13794209976E+04  0.13794209976E+04  0.25500000920E-02 0.  1.
    10030    2    1    2    0    0  0.00000000000E+00  0.00000000000E+00 -0.87561345227E+03  0.18832285430E+04  0.16672884655E+04 0.  0.
        2    1    3    3  502    0  0.30560892793E+03  0.76866764419E+03 -0.55473175194E+03  0.99597895594E+03  0.25500000920E-02 0.  1.
       -2    1    3    3    0  502 -0.30560892793E+03 -0.76866764419E+03 -0.32088170033E+03  0.88724958702E+03  0.25500000920E-02 0. -1.
</event>
<event>
 5   0  0.5083831E-04  0.1616402E+04  0.7818609E-02  0.8810534E-01
        2   -1    0    0  501    0  0.00000000000E+00  0.00000000000E+00  0.70741456534E+03  0.70741456534E+03  0.25500000920E-02 0.  1.
       -2   -1    0    0    0  501  0.00000000000E+00  0.00000000000E+00 -0.92334685153E+03  0.92334685153E+03  0.25500000920E-02 0. -1.
    10030    2    1    2    0    0  0.00000000000E+00  0.00000000000E+00 -0.21593228619E+03  0.16307614169E+04  0.16164021921E+04 0.  0.
        4    1    3    3  502    0  0.46695342391E+03  0.65309595642E+03 -0.20156731517E+03  0.82777462141E+03  0.12699999809E+01 0. -1.
       -4    1    3    3    0  502 -0.46695342391E+03 -0.65309595642E+03 -0.14364971025E+02  0.80298679547E+03  0.12699999809E+01 0.  1.
</event>
<event>
 5   0  0.2689675E-04  0.1595382E+04  0.7818609E-02  0.8823390E-01
       -1   -1    0    0    0  501  0.00000000000E+00  0.00000000000E+00  0.32307803973E+03  0.32307803977E+03  0.50400001928E-02 0. -1.
        1   -1    0    0  501    0  0.00000000000E+00  0.00000000000E+00 -0.19695260174E+04  0.19695260174E+04  0.50400001928E-02 0.  1.
    10030    2    1    2    0    0  0.00000000000E+00  0.00000000000E+00 -0.16464479776E+04  0.22926040571E+04  0.15953815906E+04 0.  0.
        1    1    3    3  502    0 -0.19590126290E+03 -0.12932414185E+03  0.27232167348E+03  0.35952904242E+03  0.50400001928E-02 0. -1.
       -1    1    3    3    0  502  0.19590126290E+03  0.12932414185E+03 -0.19187696511E+04  0.19330750147E+04  0.50400001928E-02 0.  1.
</event>
<event>
 5   0  0.2689675E-04  0.1574310E+04  0.7818609E-02  0.8836487E-01
        1   -1    0    0  501    0  0.00000000000E+00  0.00000000000E+00  0.15298767160E+04  0.15298767160E+04  0.50400001928E-02 0.  1.
       -1   -1    0    0    0  501  0.00000000000E+00  0.00000000000E+00 -0.40500863226E+03  0.40500863229E+03  0.50400001928E-02 0. -1.
    10030    2    1    2    0    0  0.00000000000E+00  0.00000000000E+00  0.11248680838E+04  0.19348853483E+04  0.15743103586E+04 0.  0.
        1    1    3    3  502    0  0.34762612033E+03  0.37978610384E+03  0.12942342437E+04  0.13928832262E+04  0.50400001928E-02 0.  1.
       -1    1    3    3    0  502 -0.34762612033E+03 -0.37978610384E+03 -0.16936615996E+03  0.54200212211E+03  0.50400001928E-02 0. -1.
</event>
<event>
 5   0  0.5264308E-04  0.1609355E+04  0.7818609E-02  0.8814822E-01
        2   -1    0    0  501    0  0.00000000000E+00  0.00000000000E+00  0.13666590054E+04  0.13666590054E+04  0.25500000920E-02 0. -1.
       -2   -1    0    0    0  501  0.00000000000E+00  0.00000000000E+00 -0.47378727064E+03  0.47378727064E+03  0.25500000920E-02 0.  1.
    10030    2    1    2    0    0  0.00000000000E+00  0.00000000000E+00  0.89287173472E+03  0.18404462760E+04  0.16093547030E+04 0.  0.
        3    1    3    3  502    0  0.59121488347E+03  0.51183307235E+03  0.22946195203E+03  0.81496069231E+03  0.10100000352E+00 0. -1.
       -3    1    3    3    0  502 -0.59121488347E+03 -0.51183307235E+03  0.66340978269E+03  0.10254855837E+04  0.10100000352E+00 0.  1.
</event>
<event>
 5   0  0.2763895E-04  0.1610056E+04  0.7818609E-02  0.8814394E-01
       -1   -1    0    0    0  501  0.00000000000E+00  0.00000000000E+00  0.78939314448E+03  0.78939314450E+03  0.50400001928E-02 0. -1.
        1   -1    0    0  501    0  0.00000000000E+00  0.00000000000E+00 -0.82097281987E+03  0.82097281989E+03  0.50400001928E-02 0.  1.
    10030    2    1    2    0    0  0.00000000000E+00  0.00000000000E+00 -0.31579675392E+02  0.16103659644E+04  0.16100562920E+04 0.  0.
        4    1    3    3  502    0 -0.29128102136E+03 -0.28207409698E+03 -0.71137904218E+03  0.81882365876E+03  0.12699999809E+01 0.  1.
       -4    1    3    3    0  502  0.29128102136E+03  0.28207409698E+03  0.67979936679E+03  0.79154230562E+03  0.12699999809E+01 0. -1.
</event>
<event>
 5   0  0.2689675E-04  0.1605867E+04  0.7818609E-02  0.8816952E-01
        1   -1    0    0  501    0  0.00000000000E+00  0.00000000000E+00  0.10359978746E+04  0.10359978746E+04  0.50400001928E-02 0. -1.
       -1   -1    0    0    0  501  0.00000000000E+00  0.00000000000E+00 -0.62230032541E+03  0.62230032543E+03  0.50400001928E-02 0.  1.
    10030    2    1    2    0    0  0.00000000000E+00  0.00000000000E+00  0.41369754919E+03  0.16582982000E+04  0.16058665132E+04 0.  0.
        1    1    3    3  502    0  0.48135958641E+03  0.62877645369E+03  0.69716363821E+02  0.79493852062E+03  0.50400001928E-02 0. -1.
       -1    1    3    3    0  502 -0.48135958641E+03 -0.62877645369E+03  0.34398118537E+03  0.86335967943E+03  0.50400001928E-02 0.  1.
</event>
<event>
 5   0  0.2689675E-04  0.1599410E+04  0.7818609E-02  0.8820911E-01
        1   -1    0    0  501    0  0.00000000000E+00  0.00000000000E+00  0.97475479283E+03  0.97475479284E+03  0.50400001928E-02 0. -1.
       -1   -1    0    0    0  501  0.00000000000E+00  0.00000000000E+00 -0.65609112062E+03  0.65609112064E+03  0.50400001928E-02 0.  1.
    10030    2    1    2    0    0  0.00000000000E+00  0.00000000000E+00  0.31866367221E+03  0.16308459135E+04  0.15994098466E+04 0.  0.
        1    1    3    3  502    0 -0.72980080306E+03  0.19417812596E+03 -0.10892383225E+03  0.76300639447E+03  0.50400001928E-02 0.  1.
       -1    1    3    3    0  502  0.72980080306E+03 -0.19417812596E+03  0.42758750447E+03  0.86783951901E+03  0.50400001928E-02 0. -1.
</event>
<event>
 5   0  0.2796994E-04  0.1580248E+04  0.7818609E-02  0.8832775E-01
        1   -1    0    0  501    0  0.00000000000E+00  0.00000000000E+00  0.42811665797E+03  0.42811665800E+03  0.50400001928E-02 0. -1.
       -1   -1    0    0    0  501  0.00000000000E+00  0.00000000000E+00 -0.14582371567E+04  0.14582371567E+04  0.50400001928E-02 0.  1.
    10030    2    1    2    0    0  0.00000000000E+00  0.00000000000E+00 -0.10301204987E+04  0.18863538147E+04  0.15802475984E+04 0.  0.
        3    1    3    3  502    0  0.49216128390E+03  0.61452166002E+03 -0.59456519951E+03  0.98659383065E+03  0.10100000352E+00 0. -1.
       -3    1    3    3    0  502 -0.49216128390E+03 -0.61452166002E+03 -0.43555529918E+03  0.89975998402E+03  0.10100000352E+00 0.  1.
</event>
<event>
 5   0  0.1908125E-04  0.1546732E+04  0.7818609E-02  0.8853958E-01
        4   -1    0    0  501    0  0.00000000000E+00  0.00000000000E+00  0.33716994099E+03  0.33717233280E+03  0.12699999809E+01 0.  1.
       -4   -1    0    0    0  501  0.00000000000E+00  0.00000000000E+00 -0.17738589696E+04  0.17738594242E+04  0.12699999809E+01 0. -1.
    10030    2    1    2    0    0  0.00000000000E+00  0.00000000000E+00 -0.14366890286E+04  0.21110317570E+04  0.15467319465E+04 0.  0.
        2    1    3    3  502    0  0.57693482097E+03  0.47692450391E+03 -0.98364288825E+03  0.12360680004E+04  0.25500000920E-02 0.  1.
       -2    1    3    3    0  502 -0.57693482097E+03 -0.47692450391E+03 -0.45304614038E+03  0.87496375662E+03  0.25500000920E-02 0. -1.
</event>
<event>
 5   0  0.2763895E-04  0.1584046E+04  0.7818609E-02  0.8830409E-01
       -1   -1    0    0    0  501  0.00000000000E+00  0.00000000000E+00  0.11144721514E+04  0.11144721514E+04  0.50400001928E-02 0. -1.
        1   -1    0    0  501    0  0.00000000000E+00  0.00000000000E+00 -0.56286800765E+03  0.56286800767E+03  0.50400001928E-02 0.  1.
    10030    2    1    2    0    0  0.00000000000E+00  0.00000000000E+00  0.55160414378E+03  0.16773401591E+04  0.15840463623E+04 0.  0.
        4    1    3    3  502    0 -0.49309157067E+03 -0.16852323255E+03  0.90738684309E+03  0.10463708104E+04  0.12699999809E+01 0. -1.
       -4    1    3    3    0  502  0.49309157067E+03  0.16852323255E+03 -0.35578269931E+03  0.63096934870E+03  0.12699999809E+01 0.  1.
</event>
<event>
 5   0  0.2689675E-04  0.1604269E+04  0.7818609E-02  0.8817930E-01
       -1   -1    0    0    0  501  0.00000000000E+00  0.00000000000E+00  0.54499255680E+03  0.54499255682E+03  0.50400001928E-02 0.  1.
        1   -1    0    0  501    0  0.00000000000E+00  0.00000000000E+00 -0.11806032133E+04  0.11806032133E+04  0.50400001928E-02 0. -1.
    10030    2    1    2    0    0  0.00000000000E+00  0.00000000000E+00 -0.63561065646E+03  0.17255957701E+04  0.16042692589E+04 0.  0.
        1    1    3    3  502    0 -0.45971611715E+03 -0.65044990367E+03 -0.21578516751E+03  0.82521950055E+03  0.50400001928E-02 0.  1.
       -1    1    3    3    0  502  0.45971611715E+03  0.65044990367E+03 -0.41982548895E+03  0.90037626954E+03  0.50400001928E-02 0. -1.
</event>
<event>
 5   0  0.2796994E-04  0.1604401E+04  0.7818609E-02  0.8817849E-01
        1   -1    0    0  501    0  0.00000000000E+00  0.00000000000E+00  0.22644834900E+04  0.22644834900E+04  0.50400001928E-02 0.  1.
       -1   -1    0    0    0  501  0.00000000000E+00  0.00000000000E+00 -0.28418210500E+03  0.28418210504E+03  0.50400001928E-02 0. -1.
    10030    2    1    2    0    0  0.00000000000E+00  0.00000000000E+00  0.19803013850E+04  0.25486655950E+04  0.16044010533E+04 0.  0.
        3    1    3    3  502    0  0.39063220838E+03 -0.22211233301E+03  0.20457852445E+04  0.20945559643E+04  0.10100000352E+00 0.  1.
       -3    1    3    3    0  502 -0.39063220838E+03  0.22211233301E+03 -0.65483859496E+02  0.45410963076E+03  0.10100000352E+00 0. -1.
</event>
<event>
 5   0  0.5381164E-04  0.1607458E+04  0.7818609E-02  0.8815979E-01
        2   -1    0    0  501    0  0.00000000000E+00  0.00000000000E+00  0.17864760825E+04  0.17864760825E+04  0.25500000920E-02 0.  1.
       -2   -1    0    0    0  501  0.00000000000E+00  0.00000000000E+00 -0.36159491967E+03  0.36159491968E+03  0.25500000920E-02 0. -1.
    10030    2    1    2    0    0  0.00000000000E+00  0.00000000000E+00  0.14248811629E+04  0.21480710022E+04  0.16074584605E+04 0.  0.
        5    1    3    3  502    0 -0.37318596968E+03 -0.48566024407E+03  0.14078702350E+04  0.15353352498E+04  0.46999998093E+01 0.  1.
       -5    1    3    3    0  502  0.37318596968E+03  0.48566024407E+03  0.17010927851E+02  0.61273575242E+03  0.46999998093E+01 0. -1.
</event>
<event>
 5   0  0.5083831E-04  0.1599256E+04  0.7818609E-02  0.8821005E-01
       -2   -1    0    0    0  501  0.00000000000E+00  0.00000000000E+00  0.12786432713E+04  0.12786432713E+04  0.25500000920E-02 0. -1.
        2   -1    0    0  501    0  0.00000000000E+00  0.00000000000E+00 -0.50006525100E+03  0.50006525101E+03  0.25500000920E-02 0.  1.
    10030    2    1    2    0    0  0.00000000000E+00  0.00000000000E+00  0.77857802026E+03  0.17787085223E+04  0.15992561626E+04 0.  0.
        4    1    3    3  502    0 -0.13524839891E+03  0.13249684250E+03  0.12533522067E+04  0.12675728419E+04  0.12699999809E+01 0. -1.
       -4    1    3    3    0  502  0.13524839891E+03 -0.13249684250E+03 -0.47477418645E+03  0.51113568033E+03  0.12699999809E+01 0.  1.
</event>
<event>
 5   0  0.2730707E-04  0.1601387E+04  0.7818609E-02  0.8819696E-01
        1   -1    0    0  501    0  0.00000000000E+00  0.00000000000E+00  0.49034346354E+03  0.49034346357E+03  0.50400001928E-02 0.  1.
       -1   -1    0    0    0  501  0.00000000000E+00  0.00000000000E+00 -0.13074715314E+04  0.13074715314E+04  0.50400001928E-02 0. -1.
    10030    2    1    2    0    0  0.00000000000E+00  0.00000000000E+00 -0.81712806783E+03  0.17978149949E+04  0.16013870478E+04 0.  0.
        5    1    3    3  502    0 -0.55409139620E+03 -0.53195235082E+03 -0.15478934627E+03  0.78356391609E+03  0.46999998093E+01 0.  1.
       -5    1    3    3    0  502  0.55409139620E+03  0.53195235082E+03 -0.66233872156E+03  0.10142510789E+04  0.46999998093E+01 0. -1.
</event>
<event>
 5   0  0.5083831E-04  0.1613943E+04  0.7818609E-02  0.8812028E-01
       -2   -1    0    0    0  501  0.00000000000E+00  0.00000000000E+00  0.49595083657E+03  0.49595083657E+03  0.25500000920E-02 0.  1.
        2   -1    0    0  501    0  0.00000000000E+00  0.00000000000E+00 -0.13130390828E+04  0.13130390828E+04  0.25500000920E-02 0. -1.
    10030    2    1    2    0    0  0.00000000000E+00  0.00000000000E+00 -0.81708824627E+03  0.18089899194E+04  0.16139427891E+04 0.  0.
        4    1    3    3  502    0 -0.28835111822E+03 -0.47164615773E+03  0.25038372792E+03  0.60686908768E+03  0.12699999809E+01 0.  1.
       -4    1    3    3    0  502  0.28835111822E+03  0.47164615773E+03 -0.10674719742E+04  0.12021208317E+04  0.12699999809E+01 0. -1.
</event>
<event>
 5   0  0.2796994E-04  0.1492675E+04  0.7818609E-02  0.8889339E-01
       -1   -1    0    0    0  501  0.00000000000E+00  0.00000000000E+00  0.33665380187E+03  0.33665380191E+03  0.50400001928E-02 0.  1.
        1   -1    0    0  501    0  0.00000000000E+00  0.00000000000E+00 -0.16545770192E+04  0.16545770192E+04  0.50400001928E-02 0. -1.
    10030    2    1    2    0    0  0.00000000000E+00  0.00000000000E+00 -0.13179232173E+04  0.19912308211E+04  0.14926749734E+04 0.  0.
        3    1    3    3  502    0 -0.29507756029E+03 -0.60281711534E+03 -0.22349560012E+03  0.70739630661E+03  0.10100000352E+00 0.  1.
       -3    1    3    3    0  502  0.29507756029E+03  0.60281711534E+03 -0.10944276172E+04  0.12838345145E+04  0.10100000352E+00 0. -1.
</event>
<event>
 5   0  0.5315984E-04  0.1600286E+04  0.7818609E-02  0.8820372E-01
        2   -1    0    0  501    0  0.00000000000E+00  0.00000000000E+00  0.11774095983E+04  0.11774095983E+04  0.25500000920E-02 0. -1.
       -2   -1    0    0    0  501  0.00000000000E+00  0.00000000000E+00 -0.54376029977E+03  0.54376029978E+03  0.25500000920E-02 0.  1.
    10030    2    1    2    0    0  0.00000000000E+00  0.00000000000E+00  0.63364929851E+03  0.17211698981E+04  0.16002857196E+04 0.  0.
        2    1    3    3  502    0  0.44303485152E+03 -0.30822610329E+03 -0.31851351248E+03  0.62668498311E+03  0.25500000920E-02 0.  1.
       -2    1    3    3    0  502 -0.44303485152E+03  0.30822610329E+03  0.95216281100E+03  0.10944849150E+04  0.25500000920E-02 0. -1.
</event>
<event>
 5   0  0.5131239E-04  0.1578282E+04  0.7818609E-02  0.8834003E-01
        2   -1    0    0  501    0  0.00000000000E+00  0.00000000000E+00  0.80076724706E+03  0.80076724706E+03  0.25500000920E-02 0.  1.
       -2   -1    0    0    0  501  0.00000000000E+00  0.00000000000E+00 -0.77768332142E+03  0.77768332143E+03  0.25500000920E-02 0. -1.
    10030    2    1    2    0    0  0.00000000000E+00  0.00000000000E+00  0.23083925636E+02  0.15784505685E+04  0.15782817649E+04 0.  0.
        1    1    3    3  502    0 -0.47254306008E+03  0.17871525082E+03 -0.59474663579E+03  0.78035866453E+03  0.50400001928E-02 0. -1.
       -1    1    3    3    0  502  0.47254306008E+03 -0.17871525082E+03  0.61783056143E+03  0.79809190396E+03  0.50400001928E-02 0.  1.
</event>
<event>
 5   0  0.2763895E-04  0.1599401E+04  0.7818609E-02  0.8820916E-01
       -1   -1    0    0    0  501  0.00000000000E+00  0.00000000000E+00  0.95802052731E+03  0.95802052733E+03  0.50400001928E-02 0. -1.
        1   -1    0    0  501    0  0.00000000000E+00  0.00000000000E+00 -0.66754406292E+03  0.66754406293E+03  0.50400001928E-02 0.  1.
    10030    2    1    2    0    0  0.00000000000E+00  0.00000000000E+00  0.29047646440E+03  0.16255645903E+04  0.15994010319E+04 0.  0.
        4    1    3    3  502    0 -0.32901435230E+03  0.72014591382E+03  0.30886756388E+02  0.79234852548E+03  0.12699999809E+01 0. -1.
       -4    1    3    3    0  502  0.32901435230E+03 -0.72014591382E+03  0.25958970801E+03  0.83321606478E+03  0.12699999809E+01 0.  1.
</event>
<event>
 5   0  0.5131239E-04  0.1594401E+04  0.7818609E-02  0.8823995E-01
       -2   -1    0    0    0  501  0.00000000000E+00  0.00000000000E+00  0.44202463902E+03  0.44202463902E+03  0.25500000920E-02 0.  1.
        2   -1    0    0  501    0  0.00000000000E+00  0.00000000000E+00 -0.14377669169E+04  0.14377669169E+04  0.25500000920E-02 0. -1.
    10030    2    1    2    0    0  0.00000000000E+00  0.00000000000E+00 -0.99574227784E+03  0.18797915559E+04  0.15944007055E+04 0.  0.
        1    1    3    3  502    0  0.94314889000E+02  0.79020429120E+03 -0.44244226095E+03  0.91053460913E+03  0.50400001928E-02 0.  1.
       -1    1    3    3    0  502 -0.94314889000E+02 -0.79020429120E+03 -0.55330001689E+03  0.96925694675E+03  0.50400001928E-02 0. -1.
</event>
<event>
 5   0  0.2649086E-04  0.1598629E+04  0.7818609E-02  0.8821391E-01
        1   -1    0    0  501    0  0.00000000000E+00  0.00000000000E+00  0.11892763671E+04  0.11892763671E+04  0.50400001928E-02 0. -1.
       -1   -1    0    0    0  501  0.00000000000E+00  0.00000000000E+00 -0.53722050910E+03  0.53722050913E+03  0.50400001928E-02 0.  1.
    10030    2    1    2    0    0  0.00000000000E+00  0.00000000000E+00  0.65205585798E+03  0.17264968762E+04  0.15986289819E+04 0.  0.
        2    1    3    3  502    0 -0.15297598172E+03  0.75726869867E+03  0.10457517265E+03  0.77961112082E+03  0.25500000920E-02 0. -1.
       -2    1    3    3    0  502  0.15297598172E+03 -0.75726869867E+03  0.54748068533E+03  0.94688575540E+03  0.25500000920E-02 0.  1.
</event>
<event>
 5   0  0.5083831E-04  0.1605953E+04  0.7818609E-02  0.8816899E-01
        2   -1    0    0  501    0  0.00000000000E+00  0.00000000000E+00  0.13028697024E+04  0.13028697024E+04  0.25500000920E-02 0.  1.
       -2   -1    0    0    0  501  0.00000000000E+00  0.00000000000E+00 -0.49488525054E+03  0.49488525055E+03  0.25500000920E-02 0. -1.
    10030    2    1    2    0    0  0.00000000000E+00  0.00000000000E+00  0.80798445185E+03  0.17977549529E+04  0.16059526756E+04 0.  0.
        4    1    3    3  502    0  0.29019989746E+03 -0.94741076804E+02  0.12353750254E+04  0.12725348397E+04  0.12699999809E+01 0.  1.
       -4    1    3    3    0  502 -0.29019989746E+03  0.94741076804E+02 -0.42739057351E+03  0.52522011323E+03  0.12699999809E+01 0. -1.
</event>
<event>
 5   0  0.5264308E-04  0.1354885E+04  0.7818609E-02  0.8987138E-01
       -2   -1    0    0    0  501  0.00000000000E+00  0.00000000000E+00  0.24955477593E+03  0.24955477595E+03  0.25500000920E-02 0.  1.
        2   -1    0    0  501    0  0.00000000000E+00  0.00000000000E+00 -0.18389893329E+04  0.18389893329E+04  0.25500000920E-02 0. -1.
    10030    2    1    2    0    0  0.00000000000E+00  0.00000000000E+00 -0.15894345569E+04  0.20885441088E+04  0.13548853397E+04 0.  0.
        3    1    3    3  502    0  0.23254394313E+03  0.82397259085E+02 -0.17672781162E+04  0.17844152947E+04  0.10100000352E+00 0. -1.
       -3    1    3    3    0  502 -0.23254394313E+03 -0.82397259085E+02  0.17784355927E+03  0.30412881410E+03  0.10100000352E+00 0.  1.
</event>
<event>
 5   0  0.2649086E-04  0.1479954E+04  0.7818609E-02  0.8897894E-01
        1   -1    0    0  501    0  0.00000000000E+00  0.00000000000E+00  0.97450758641E+03  0.97450758643E+03  0.50400001928E-02 0. -1.
       -1   -1    0    0    0  501  0.00000000000E+00  0.00000000000E+00 -0.56189014847E+03  0.56189014849E+03  0.50400001928E-02 0.  1.
    10030    2    1    2    0    0  0.00000000000E+00  0.00000000000E+00  0.41261743795E+03  0.15363977349E+04  0.14799543404E+04 0.  0.
        2    1    3    3  502    0  0.37803609508E+01  0.29573073785E+02  0.97388382908E+03  0.97434006916E+03  0.25500000920E-02 0. -1.
       -2    1    3    3    0  502 -0.37803609508E+01 -0.29573073785E+02 -0.56126639113E+03  0.56205766576E+03  0.25500000920E-02 0.  1.
</event>
<event>
 5   0  0.2763895E-04  0.1625961E+04  0.7818609E-02  0.8804756E-01
       -1   -1    0    0    0  501  0.00000000000E+00  0.00000000000E+00  0.15199573130E+04  0.15199573130E+04  0.50400001928E-02 0. -1.
        1   -1    0    0  501    0  0.00000000000E+00  0.00000000000E+00 -0.43483917447E+03  0.43483917450E+03  0.50400001928E-02 0.  1.
    10030    2    1    2    0    0  0.00000000000E+00  0.00000000000E+00  0.10851181386E+04  0.19547964875E+04  0.16259606185E+04 0.  0.
        4    1    3    3  502    0 -0.43207035871E+03  0.59424903071E+03  0.96096426122E+03  0.12096572364E+04  0.12699999809E+01 0. -1.
       -4    1    3    3    0  502  0.43207035871E+03 -0.59424903071E+03  0.12415387733E+03  0.74513925110E+03  0.12699999809E+01 0.  1.
</event>
<event>
 5   0  0.2796994E-04  0.1600747E+04  0.7818609E-02  0.8820089E-01
        1   -1    0    0  501    0  0.00000000000E+00  0.00000000000E+00  0.78807983420E+03  0.78807983421E+03  0.50400001928E-02 0.  1.
       -1   -1    0    0    0  501  0.00000000000E+00  0.00000000000E+00 -0.81285850278E+03  0.81285850279E+03  0.50400001928E-02 0. -1.
    10030    2    1    2    0    0  0.00000000000E+00  0.00000000000E+00 -0.24778668582E+02  0.16009383370E+04  0.16007465685E+04 0.  0.
        3    1    3    3  502    0  0.57332334257E+03  0.21772836553E+02 -0.57050965608E+03  0.80910752650E+03  0.10100000352E+00 0. -1.
       -3    1    3    3    0  502 -0.57332334257E+03 -0.21772836553E+02  0.54573098750E+03  0.79183081051E+03  0.10100000352E+00 0.  1.
</event>
<event>
 5   0  0.2796994E-04  0.1584682E+04  0.7818609E-02  0.8830014E-01
        1   -1    0    0  501    0  0.00000000000E+00  0.00000000000E+00  0.17874732871E+04  0.17874732871E+04  0.50400001928E-02 0. -1.
       -1   -1    0    0    0  501  0.00000000000E+00  0.00000000000E+00 -0.35122424671E+03  0.35122424674E+03  0.50400001928E-02 0.  1.
    10030    2    1    2    0    0  0.00000000000E+00  0.00000000000E+00  0.14362490403E+04  0.21386975338E+04  0.15846816195E+04 0.  0.
        3    1    3    3  502    0 -0.37383737009E+03  0.65173032852E+03  0.10576711466E+04  0.12973723694E+04  0.10100000352E+00 0. -1.
       -3    1    3    3    0  502  0.37383737009E+03 -0.65173032852E+03  0.37857789374E+03  0.84132516438E+03  0.10100000352E+00 0.  1.
</event>
<event>
 5   0  0.5264308E-04  0.1303232E+04  0.7818609E-02  0.9027006E-01
       -2   -1    0    0    0  501  0.00000000000E+00  0.00000000000E+00  0.32405104843E+03  0.32405104844E+03  0.25500000920E-02 0. -1.
        2   -1    0    0  501    0  0.00000000000E+00  0.00000000000E+00 -0.13102973773E+04  0.13102973773E+04  0.25500000920E-02 0.  1.
    10030    2    1    2    0    0  0.00000000000E+00  0.00000000000E+00 -0.98624632890E+03  0.16343484258E+04  0.13032317352E+04 0.  0.
        3    1    3    3  502    0  0.26004220394E+03 -0.51129945528E+03 -0.10546603634E+03  0.58324281035E+03  0.10100000352E+00 0. -1.
       -3    1    3    3    0  502 -0.26004220394E+03  0.51129945528E+03 -0.88078029256E+03  0.10511056154E+04  0.10100000352E+00 0.  1.
</event>
<event>
 5   0  0.5381164E-04  0.1575859E+04  0.7818609E-02  0.8835518E-01
        2   -1    0    0  501    0  0.00000000000E+00  0.00000000000E+00  0.14428677610E+04  0.14428677610E+04  0.25500000920E-02 0.  1.
       -2   -1    0    0    0  501  0.00000000000E+00  0.00000000000E+00 -0.43027707818E+03  0.43027707819E+03  0.25500000920E-02 0. -1.
    10030    2    1    2    0    0  0.00000000000E+00  0.00000000000E+00  0.10125906828E+04  0.18731448392E+04  0.15758590348E+04 0.  0.
        5    1    3    3  502    0  0.31126484106E+03  0.55066162451E+03  0.10647038415E+04  0.12384386888E+04  0.46999998093E+01 0.  1.
       -5    1    3    3    0  502 -0.31126484106E+03 -0.55066162451E+03 -0.52113158644E+02  0.63470615035E+03  0.46999998093E+01 0. -1.
</event>
<event>
 5   0  0.5315984E-04  0.1610975E+04  0.7818609E-02  0.8813834E-01
        2   -1    0    0  501    0  0.00000000000E+00  0.00000000000E+00  0.97828510563E+03  0.97828510564E+03  0.25500000920E-02 0.  1.
       -2   -1    0    0    0  501  0.00000000000E+00  0.00000000000E+00 -0.66321199607E+03  0.66321199608E+03  0.25500000920E-02 0. -1.
    10030    2    1    2    0    0  0.00000000000E+00  0.00000000000E+00  0.31507310956E+03  0.16414971017E+04  0.16109753786E+04 0.  0.
        2    1    3    3  502    0 -0.63351478544E+03  0.13286764500E+03  0.64601003683E+03  0.91450738769E+03  0.25500000920E-02 0.  1.
       -2    1    3    3    0  502  0.63351478544E+03 -0.13286764500E+03 -0.33093692727E+03  0.72698971402E+03  0.25500000920E-02 0. -1.
</event>
<event>
 5   0  0.2689675E-04  0.1566260E+04  0.7818609E-02  0.8841548E-01
        1   -1    0    0  501    0  0.00000000000E+00  0.00000000000E+00  0.47899180112E+03  0.47899180115E+03  0.50400001928E-02 0.  1.
       -1   -1    0    0    0  501  0.00000000000E+00  0.00000000000E+00 -0.12803818799E+04  0.12803818799E+04  0.50400001928E-02 0. -1.
    10030    2    1    2    0    0  0.00000000000E+00  0.00000000000E+00 -0.80139007875E+03  0.17593736810E+04  0.15662597777E+04 0.  0.
        1    1    3    3  502    0  0.27966137977E+03 -0.58083048951E+03 -0.90017407672E+03  0.11071982267E+04  0.50400001928E-02 0. -1.
       -1    1    3    3    0  502 -0.27966137977E+03  0.58083048951E+03  0.98783997978E+02  0.65217545428E+03  0.50400001928E-02 0.  1.
</event>
<event>
 5   0  0.5315984E-04  0.1607324E+04  0.7818609E-02  0.8816061E-01
        2   -1    0    0  501    0  0.00000000000E+00  0.00000000000E+00  0.17914055614E+04  0.17914055614E+04  0.25500000920E-02 0.  1.
       -2   -1    0    0    0  501  0.00000000000E+00  0.00000000000E+00 -0.36053967823E+03  0.36053967824E+03  0.25500000920E-02 0. -1.
    10030    2    1    2    0    0  0.00000000000E+00  0.00000000000E+00  0.14308658832E+04  0.21519452397E+04  0.16073242171E+04 0.  0.
        2    1    3    3  502    0 -0.64230401817E+03  0.40375847253E+03  0.36045820316E+03  0.83994373152E+03  0.25500000920E-02 0. -1.
       -2    1    3    3    0  502  0.64230401817E+03 -0.40375847253E+03  0.10704076801E+04  0.13120015082E+04  0.25500000920E-02 0.  1.
</event>
<event>
 5   0  0.2689675E-04  0.1614056E+04  0.7818609E-02  0.8811959E-01
       -1   -1    0    0    0  501  0.00000000000E+00  0.00000000000E+00  0.90301942672E+03  0.90301942674E+03  0.50400001928E-02 0.  1.
        1   -1    0    0  501    0  0.00000000000E+00  0.00000000000E+00 -0.72124088345E+03  0.72124088347E+03  0.50400001928E-02 0. -1.
    10030    2    1    2    0    0  0.00000000000E+00  0.00000000000E+00  0.18177854327E+03  0.16242603102E+04  0.16140564168E+04 0.  0.
        1    1    3    3  502    0  0.42380672545E+03 -0.30064792948E+03 -0.53050387318E+03  0.74258715146E+03  0.50400001928E-02 0. -1.
       -1    1    3    3    0  502 -0.42380672545E+03  0.30064792948E+03  0.71228241645E+03  0.88167315874E+03  0.50400001928E-02 0.  1.
</event>
<event>
 5   0  0.2730707E-04  0.1598282E+04  0.7818609E-02  0.8821604E-01
        1   -1    0    0  501    0  0.00000000000E+00  0.00000000000E+00  0.10059098520E+04  0.10059098520E+04  0.50400001928E-02 0. -1.
       -1   -1    0    0    0  501  0.00000000000E+00  0.00000000000E+00 -0.63487401274E+03  0.63487401276E+03  0.50400001928E-02 0.  1.
    10030    2    1    2    0    0  0.00000000000E+00  0.00000000000E+00  0.37103583927E+03  0.16407838648E+04  0.15982816075E+04 0.  0.
        5    1    3    3  502    0 -0.72386831498E+03  0.10145400926E+03 -0.14606617375E+03  0.74540973333E+03  0.46999998093E+01 0.  1.
       -5    1    3    3    0  502  0.72386831498E+03 -0.10145400926E+03  0.51710201302E+03  0.89537413147E+03  0.46999998093E+01 0. -1.
</event>
<event>
 5   0  0.5083831E-04  0.1548577E+04  0.7818609E-02  0.8852777E-01
        2   -1    0    0  501    0  0.00000000000E+00  0.00000000000E+00  0.26109263093E+04  0.26109263093E+04  0.25500000920E-02 0.  1.
       -2   -1    0    0    0  501  0.00000000000E+00  0.00000000000E+00 -0.22962075878E+03  0.22962075879E+03  0.25500000920E-02 0. -1.
    10030    2    1    2    0    0  0.00000000000E+00  0.00000000000E+00  0.23813055505E+04  0.28405470680E+04  0.15485772571E+04 0.  0.
        4    1    3    3  502    0 -0.23103115463E+03 -0.73869314241E+03  0.11505360196E+04  0.13866425993E+04  0.12699999809E+01 0.  1.
       -4    1    3    3    0  502  0.23103115463E+03  0.73869314241E+03  0.12307695309E+04  0.14539044687E+04  0.12699999809E+01 0. -1.
</event>
<event>
 5   0  0.2796994E-04  0.1601731E+04  0.7818609E-02  0.8819486E-01
        1   -1    0    0  501    0  0.00000000000E+00  0.00000000000E+00  0.85452010008E+03  0.85452010010E+03  0.50400001928E-02 0. -1.
       -1   -1    0    0    0  501  0.00000000000E+00  0.00000000000E+00 -0.75057947005E+03  0.75057947007E+03  0.50400001928E-02 0.  1.
    10030    2    1    2    0    0  0.00000000000E+00  0.00000000000E+00  0.10394063003E+03  0.16050995702E+04  0.16017306189E+04 0.  0.
        3    1    3    3  502    0 -0.48868903508E+03 -0.63443162353E+03  0.43905048043E+02  0.80202750663E+03  0.10100000352E+00 0. -1.
       -3    1    3    3    0  502  0.48868903508E+03  0.63443162353E+03  0.60035581988E+02  0.80307206354E+03  0.10100000352E+00 0.  1.
</event>
<event>
 5   0  0.1908125E-04  0.1485461E+04  0.7818609E-02  0.8894179E-01
       -3   -1    0    0    0  501  0.00000000000E+00  0.00000000000E+00  0.77394656708E+03  0.77394657367E+03  0.10100000352E+00 0. -1.
        3   -1    0    0  501    0  0.00000000000E+00  0.00000000000E+00 -0.71277339052E+03  0.71277339768E+03  0.10100000352E+00 0.  1.
    10030    2    1    2    0    0  0.00000000000E+00  0.00000000000E+00  0.61173176563E+02  0.14867199714E+04  0.14854609102E+04 0.  0.
        3    1    3    3  502    0 -0.18031188496E+03 -0.65998018283E+03  0.31990304864E+03  0.75526431686E+03  0.10100000352E+00 0. -1.
       -3    1    3    3    0  502  0.18031188496E+03  0.65998018283E+03 -0.25872987208E+03  0.73145565449E+03  0.10100000352E+00 0.  1.
</event>
<event>
 5   0  0.2689675E-04  0.1552784E+04  0.7818609E-02  0.8850091E-01
        1   -1    0    0  501    0  0.00000000000E+00  0.00000000000E+00  0.63092142102E+03  0.63092142104E+03  0.50400001928E-02 0.  1.
       -1   -1    0    0    0  501  0.00000000000E+00  0.00000000000E+00 -0.95540392210E+03  0.95540392211E+03  0.50400001928E-02 0. -1.
    10030    2    1    2    0    0  0.00000000000E+00  0.00000000000E+00 -0.32448250108E+03  0.15863253431E+04  0.15527843382E+04 0.  0.
        1    1    3    3  502    0  0.29683892662E+03 -0.47876326188E+03  0.38358147591E+03  0.68151475257E+03  0.50400001928E-02 0.  1.
       -1    1    3    3    0  502 -0.29683892662E+03  0.47876326188E+03 -0.70806397699E+03  0.90481059058E+03  0.50400001928E-02 0. -1.
</event>
<event>
 5   0  0.2649086E-04  0.1604657E+04  0.7818609E-02  0.8817692E-01
       -1   -1    0    0    0  501  0.00000000000E+00  0.00000000000E+00  0.54507653504E+03  0.54507653506E+03  0.50400001928E-02 0. -1.
        1   -1    0    0  501    0  0.00000000000E+00  0.00000000000E+00 -0.11809922718E+04  0.11809922718E+04  0.50400001928E-02 0.  1.
    10030    2    1    2    0    0  0.00000000000E+00  0.00000000000E+00 -0.63591573679E+03  0.17260688069E+04  0.16046571914E+04 0.  0.
        2    1    3    3  502    0  0.20412253590E+03 -0.57056228840E+03  0.24768475477E+03  0.65464117832E+03  0.25500000920E-02 0. -1.
       -2    1    3    3    0  502 -0.20412253590E+03  0.57056228840E+03 -0.88360049156E+03  0.10714276286E+04  0.25500000920E-02 0.  1.
</event>
<event>
 5   0  0.2763895E-04  0.1547614E+04  0.7818609E-02  0.8853393E-01
       -1   -1    0    0    0  501  0.00000000000E+00  0.00000000000E+00  0.53347012902E+03  0.53347012904E+03  0.50400001928E-02 0. -1.
        1   -1    0    0  501    0  0.00000000000E+00  0.00000000000E+00 -0.11224189222E+04  0.11224189222E+04  0.50400001928E-02 0.  1.
    10030    2    1    2    0    0  0.00000000000E+00  0.00000000000E+00 -0.58894879315E+03  0.16558890512E+04  0.15476136046E+04 0.  0.
        4    1    3    3  502    0 -0.40704092562E+03 -0.16393606736E+02  0.40944755358E+03  0.57758114365E+03  0.12699999809E+01 0. -1.
       -4    1    3    3    0  502  0.40704092562E+03  0.16393606736E+02 -0.99839634673E+03  0.10783079076E+04  0.12699999809E+01 0.  1.
</event>
<event>
 5   0  0.1908125E-04  0.1494497E+04  0.7818609E-02  0.8888120E-01
        3   -1    0    0  501    0  0.00000000000E+00  0.00000000000E+00  0.62679599088E+03  0.62679599901E+03  0.10100000352E+00 0. -1.
       -3   -1    0    0    0  501  0.00000000000E+00  0.00000000000E+00 -0.89084912468E+03  0.89084913041E+03  0.10100000352E+00 0.  1.
    10030    2    1    2    0    0  0.00000000000E+00  0.00000000000E+00 -0.26405313380E+03  0.15176451294E+04  0.14944974678E+04 0.  0.
        2    1    3    3  502    0  0.53425169379E+03  0.11813138038E+03  0.38477709315E+03  0.66890455730E+03  0.25500000920E-02 0. -1.
       -2    1    3    3    0  502 -0.53425169379E+03 -0.11813138038E+03 -0.64883022695E+03  0.84874057212E+03  0.25500000920E-02 0.  1.
</event>
<event>
 5   0  0.5131239E-04  0.1594718E+04  0.7818609E-02  0.8823799E-01
       -2   -1    0    0    0  501  0.00000000000E+00  0.00000000000E+00  0.97097296070E+03  0.97097296070E+03  0.25500000920E-02 0. -1.
        2   -1    0    0  501    0  0.00000000000E+00  0.00000000000E+00 -0.65478824253E+03  0.65478824254E+03  0.25500000920E-02 0.  1.
    10030    2    1    2    0    0  0.00000000000E+00  0.00000000000E+00  0.31618471816E+03  0.16257612032E+04  0.15947183808E+04 0.  0.
        1    1    3    3  502    0  0.65901766202E+03 -0.10397700232E+03 -0.28706093477E+03  0.72630536014E+03  0.50400001928E-02 0.  1.
       -1    1    3    3    0  502 -0.65901766202E+03  0.10397700232E+03  0.60324565294E+03  0.89945584310E+03  0.50400001928E-02 0. -1.
</event>
<event>
 5   0  0.2649086E-04  0.1599532E+04  0.7818609E-02  0.8820836E-01
        1   -1    0    0  501    0  0.00000000000E+00  0.00000000000E+00  0.15388658130E+04  0.15388658130E+04  0.50400001928E-02 0. -1.
       -1   -1    0    0    0  501  0.00000000000E+00  0.00000000000E+00 -0.41564746644E+03  0.41564746647E+03  0.50400001928E-02 0.  1.
    10030    2    1    2    0    0  0.00000000000E+00  0.00000000000E+00  0.11232183466E+04  0.19545132795E+04  0.15995320271E+04 0.  0.
        2    1    3    3  502    0 -0.26482671091E+03  0.61282191055E+03  0.23486375824E+02  0.66800860078E+03  0.25500000920E-02 0.  1.
       -2    1    3    3    0  502  0.26482671091E+03 -0.61282191055E+03  0.10997319708E+04  0.12865046787E+04  0.25500000920E-02 0. -1.
</event>
<event>
 5   0  0.5264308E-04  0.1518497E+04  0.7818609E-02  0.8872245E-01
        2   -1    0    0  501    0  0.00000000000E+00  0.00000000000E+00  0.27802621006E+03  0.27802621008E+03  0.25500000920E-02 0. -1.
       -2   -1    0    0    0  501  0.00000000000E+00  0.00000000000E+00 -0.20733952664E+04  0.20733952664E+04  0.25500000920E-02 0.  1.
    10030    2    1    2    0    0  0.00000000000E+00  0.00000000000E+00 -0.17953690564E+04  0.23514214765E+04  0.15184969251E+04 0.  0.
        3    1    3    3  502    0 -0.66670001874E+03 -0.22937043714E+03 -0.13339122924E+04  0.15087815370E+04  0.10100000352E+00 0. -1.
       -3    1    3    3    0  502  0.66670001874E+03  0.22937043714E+03 -0.46145676396E+03  0.84263993949E+03  0.10100000352E+00 0.  1.
</event>
<event>
 5   0  0.2763895E-04  0.1508549E+04  0.7818609E-02  0.8878788E-01
        1   -1    0    0  501    0  0.00000000000E+00  0.00000000000E+00  0.61026199654E+03  0.61026199656E+03  0.50400001928E-02 0. -1.
       -1   -1    0    0    0  501  0.00000000000E+00  0.00000000000E+00 -0.93227199416E+03  0.93227199418E+03  0.50400001928E-02 0.  1.
    10030    2    1    2    0    0  0.00000000000E+00  0.00000000000E+00 -0.32200999763E+03  0.15425339907E+04  0.15085491951E+04 0.  0.
        4    1    3    3  502    0 -0.34288217230E+03 -0.66232799283E+03 -0.45853614237E+02  0.74722869391E+03  0.12699999809E+01 0. -1.
       -4    1    3    3    0  502  0.34288217230E+03  0.66232799283E+03 -0.27615638339E+03  0.79530529682E+03  0.12699999809E+01 0.  1.
</event>
<event>
 5   0  0.5131239E-04  0.1571178E+04  0.7818609E-02  0.8838453E-01
       -2   -1    0    0    0  501  0.00000000000E+00  0.00000000000E+00  0.52427505895E+03  0.52427505895E+03  0.25500000920E-02 0. -1.
        2   -1    0    0  501    0  0.00000000000E+00  0.00000000000E+00 -0.11771495092E+04  0.11771495092E+04  0.25500000920E-02 0.  1.
    10030    2    1    2    0    0  0.00000000000E+00  0.00000000000E+00 -0.65287445021E+03  0.17014245681E+04  0.15711780654E+04 0.  0.
        1    1    3    3  502    0  0.18590570682E+02 -0.10643679584E+03  0.51619033758E+03  0.52737734637E+03  0.50400001928E-02 0. -1.
       -1    1    3    3    0  502 -0.18590570682E+02  0.10643679584E+03 -0.11690647878E+04  0.11740472217E+04  0.50400001928E-02 0.  1.
</event>
<event>
 5   0  0.2796994E-04  0.1656782E+04  0.7818609E-02  0.8786404E-01
       -1   -1    0    0    0  501  0.00000000000E+00  0.00000000000E+00  0.74069979046E+03  0.74069979048E+03  0.50400001928E-02 0.  1.
        1   -1    0    0  501    0  0.00000000000E+00  0.00000000000E+00 -0.92646441509E+03  0.92646441511E+03  0.50400001928E-02 0. -1.
    10030    2    1    2    0    0  0.00000000000E+00  0.00000000000E+00 -0.18576462463E+03  0.16671642056E+04  0.16567824216E+04 0.  0.
        3    1    3    3  502    0 -0.81992017078E+03  0.71540571948E+02 -0.18751868547E+03  0.84412700909E+03  0.10100000352E+00 0.  1.
       -3    1    3    3    0  502  0.81992017078E+03 -0.71540571948E+02  0.17540608398E+01  0.82303719649E+03  0.10100000352E+00 0. -1.
</event>
<event>
 5   0  0.5083831E-04  0.1620734E+04  0.7818609E-02  0.8807911E-01
       -2   -1    0    0    0  501  0.00000000000E+00  0.00000000000E+00  0.53243809465E+03  0.53243809465E+03  0.25500000920E-02 0. -1.
        2   -1    0    0  501    0  0.00000000000E+00  0.00000000000E+00 -0.12333722530E+04  0.12333722530E+04  0.25500000920E-02 0.  1.
    10030    2    1    2    0    0  0.00000000000E+00  0.00000000000E+00 -0.70093415838E+03  0.17658103477E+04  0.16207336270E+04 0.  0.
        4    1    3    3  502    0  0.45928285185E+02  0.22524582784E+03 -0.11971018713E+04  0.12189748125E+04  0.12699999809E+01 0.  1.
       -4    1    3    3    0  502 -0.45928285185E+02 -0.22524582784E+03  0.49616771290E+03  0.54683553521E+03  0.12699999809E+01 0. -1.
</event>
<event>
 5   0  0.5083831E-04  0.1592122E+04  0.7818609E-02  0.8825403E-01
       -2   -1    0    0    0  501  0.00000000000E+00  0.00000000000E+00  0.95602268524E+03  0.95602268525E+03  0.25500000920E-02 0. -1.
        2   -1    0    0  501    0  0.00000000000E+00  0.00000000000E+00 -0.66286374682E+03  0.66286374683E+03  0.25500000920E-02 0.  1.
    10030    2    1    2    0    0  0.00000000000E+00  0.00000000000E+00  0.29315893842E+03  0.16188864321E+04  0.15921215773E+04 0.  0.
        4    1    3    3  502    0  0.54699487297E+03  0.34097772270E+03  0.62159661911E+03  0.89546254428E+03  0.12699999809E+01 0. -1.
       -4    1    3    3    0  502 -0.54699487297E+03 -0.34097772270E+03 -0.32843768069E+03  0.72342388779E+03  0.12699999809E+01 0.  1.
</event>
<event>
 5   0  0.5381164E-04  0.1590273E+04  0.7818609E-02  0.8826546E-01
        2   -1    0    0  501    0  0.00000000000E+00  0.00000000000E+00  0.78196074163E+03  0.78196074164E+03  0.25500000920E-02 0.  1.
       -2   -1    0    0    0  501  0.00000000000E+00  0.00000000000E+00 -0.80853392420E+03  0.80853392420E+03  0.25500000920E-02 0. -1.
    10030    2    1    2    0    0  0.00000000000E+00  0.00000000000E+00 -0.26573182564E+02  0.15904946658E+04  0.15902726647E+04 0.  0.
        5    1    3    3  502    0 -0.55778426806E+03  0.16244631870E+03  0.52965897562E+03  0.78617607227E+03  0.46999998093E+01 0.  1.
       -5    1    3    3    0  502  0.55778426806E+03 -0.16244631870E+03 -0.55623215819E+03  0.80431859356E+03  0.46999998093E+01 0. -1.
</event>
<event>
 5   0  0.5315984E-04  0.1597350E+04  0.7818609E-02  0.8822178E-01
        2   -1    0    0  501    0  0.00000000000E+00  0.00000000000E+00  0.14596438692E+04  0.14596438692E+04  0.25500000920E-02 0. -1.
       -2   -1    0    0    0  501  0.00000000000E+00  0.00000000000E+00 -0.43701167732E+03  0.43701167733E+03  0.25500000920E-02 0.  1.
    10030    2    1    2    0    0  0.00000000000E+00  0.00000000000E+00  0.10226321918E+04  0.18966555465E+04  0.15973495742E+04 0.  0.
        2    1    3    3  502    0  0.78585667153E+03 -0.12580388019E+03  0.59082681992E+03  0.99119809100E+03  0.25500000920E-02 0. -1.
       -2    1    3    3    0  502 -0.78585667153E+03  0.12580388019E+03  0.43180537191E+03  0.90545745548E+03  0.25500000920E-02 0.  1.
</event>
<event>
 5   0  0.5264308E-04  0.1595649E+04  0.7818609E-02  0.8823225E-01
        2   -1    0    0  501    0  0.00000000000E+00  0.00000000000E+00  0.14773561353E+04  0.14773561353E+04  0.25500000920E-02 0.  1.
       -2   -1    0    0    0  501  0.00000000000E+00  0.00000000000E+00 -0.43085355510E+03  0.43085355511E+03  0.25500000920E-02 0. -1.
    10030    2    1    2    0    0  0.00000000000E+00  0.00000000000E+00  0.10465025802E+04  0.19082096904E+04  0.15956492635E+04 0.  0.
        3    1    3    3  502    0  0.28138403565E+03  0.35407221789E+03  0.13092475725E+04  0.13851618415E+04  0.10100000352E+00 0.  1.
       -3    1    3    3    0  502 -0.28138403565E+03 -0.35407221789E+03 -0.26274499231E+03  0.52304784885E+03  0.10100000352E+00 0. -1.
</event>
<event>
 5   0  0.5264308E-04  0.1586913E+04  0.7818609E-02  0.8828629E-01
        2   -1    0    0  501    0  0.00000000000E+00  0.00000000000E+00  0.79599450146E+03  0.79599450147E+03  0.25500000920E-02 0. -1.
       -2   -1    0    0    0  501  0.00000000000E+00  0.00000000000E+00 -0.79092644953E+03  0.79092644954E+03  0.25500000920E-02 0.  1.
    10030    2    1    2    0    0  0.00000000000E+00  0.00000000000E+00  0.50680519288E+01  0.15869209510E+04  0.15869128582E+04 0.  0.
        3    1    3    3  502    0 -0.22404127969E+03  0.19654216043E+03 -0.73282662991E+03  0.79111199936E+03  0.10100000352E+00 0.  1.
       -3    1    3    3    0  502  0.22404127969E+03 -0.19654216043E+03  0.73789468184E+03  0.79580895164E+03  0.10100000352E+00 0. -1.
</event>
<event>
 5   0  0.5315984E-04  0.1608180E+04  0.7818609E-02  0.8815538E-01
        2   -1    0    0  501    0  0.00000000000E+00  0.00000000000E+00  0.94553648049E+03  0.94553648049E+03  0.25500000920E-02 0. -1.
       -2   -1    0    0    0  501  0.00000000000E+00  0.00000000000E+00 -0.68380342451E+03  0.68380342452E+03  0.25500000920E-02 0.  1.
    10030    2    1    2    0    0  0.00000000000E+00  0.00000000000E+00  0.26173305598E+03  0.16293399050E+04  0.16081804418E+04 0.  0.
        2    1    3    3  502    0  0.38538647117E+03  0.50778523196E+03  0.62740928106E+03  0.89443332894E+03  0.25500000920E-02 0. -1.
       -2    1    3    3    0  502 -0.38538647117E+03 -0.50778523196E+03 -0.36567622509E+03  0.73490657607E+03  0.25500000920E-02 0.  1.
</event>
<event>
 5   0  0.1908125E-04  0.1607900E+04  0.7818609E-02  0.8815709E-01
        3   -1    0    0  501    0  0.00000000000E+00  0.00000000000E+00  0.14193807440E+04  0.14193807476E+04  0.10100000352E+00 0.  1.
       -3   -1    0    0    0  501  0.00000000000E+00  0.00000000000E+00 -0.45536465917E+03  0.45536467037E+03  0.10100000352E+00 0. -1.
    10030    2    1    2    0    0  0.00000000000E+00  0.00000000000E+00  0.96401608481E+03  0.18747454179E+04  0.16079002986E+04 0.  0.
        5    1    3    3  502    0 -0.13583501690E+03 -0.43426432468E+03 -0.29076589264E+03  0.54000328687E+03  0.46999998093E+01 0. -1.
       -5    1    3    3    0  502  0.13583501690E+03  0.43426432468E+03  0.12547819774E+04  0.13347421311E+04  0.46999998093E+01 0.  1.
</event>
<event>
 5   0  0.1908125E-04  0.1597281E+04  0.7818609E-02  0.8822220E-01
       -4   -1    0    0    0  501  0.00000000000E+00  0.00000000000E+00  0.78902391606E+03  0.78902493815E+03  0.12699999809E+01 0. -1.
        4   -1    0    0  501    0  0.00000000000E+00  0.00000000000E+00 -0.80837241518E+03  0.80837341280E+03  0.12699999809E+01 0.  1.
    10030    2    1    2    0    0  0.00000000000E+00  0.00000000000E+00 -0.19348499118E+02  0.15973983510E+04  0.15972811672E+04 0.  0.
        3    1    3    3  502    0 -0.73432271307E+03 -0.60600463287E+02 -0.31779506549E+03  0.80243129109E+03  0.10100000352E+00 0.  1.
       -3    1    3    3    0  502  0.73432271307E+03  0.60600463287E+02  0.29844656637E+03  0.79496705986E+03  0.10100000352E+00 0. -1.
</event>
<event>
 5   0  0.5264308E-04  0.1691077E+04  0.7818609E-02  0.8766470E-01
        2   -1    0    0  501    0  0.00000000000E+00  0.00000000000E+00  0.13411088878E+04  0.13411088878E+04  0.25500000920E-02 0. -1.
       -2   -1    0    0    0  501  0.00000000000E+00  0.00000000000E+00 -0.53309298965E+03  0.53309298966E+03  0.25500000920E-02 0.  1.
    10030    2    1    2    0    0  0.00000000000E+00  0.00000000000E+00  0.80801589815E+03  0.18742018775E+04  0.16910774630E+04 0.  0.
        3    1    3    3  502    0 -0.11700760127E+03 -0.50393364125E+03  0.11452333569E+04  0.12566619854E+04  0.10100000352E+00 0. -1.
       -3    1    3    3    0  502  0.11700760127E+03  0.50393364125E+03 -0.33721745880E+03  0.61753989204E+03  0.10100000352E+00 0.  1.
</event>
<event>
 5   0  0.2763895E-04  0.1600077E+04  0.7818609E-02  0.8820501E-01
        1   -1    0    0  501    0  0.00000000000E+00  0.00000000000E+00  0.10996537546E+04  0.10996537546E+04  0.50400001928E-02 0.  1.
       -1   -1    0    0    0  501  0.00000000000E+00  0.00000000000E+00 -0.58205732216E+03  0.58205732218E+03  0.50400001928E-02 0. -1.
    10030    2    1    2    0    0  0.00000000000E+00  0.00000000000E+00  0.51759643242E+03  0.16817110768E+04  0.16000768978E+04 0.  0.
        4    1    3    3  502    0  0.24571758924E+03  0.40809408226E+03 -0.41675598644E+03  0.63293370804E+03  0.12699999809E+01 0. -1.
       -4    1    3    3    0  502 -0.24571758924E+03 -0.40809408226E+03  0.93435241886E+03  0.10487773687E+04  0.12699999809E+01 0.  1.
</event>
<event>
 5   0  0.5131239E-04  0.1582145E+04  0.7818609E-02  0.8831593E-01
       -2   -1    0    0    0  501  0.00000000000E+00  0.00000000000E+00  0.58367215699E+03  0.58367215699E+03  0.25500000920E-02 0. -1.
        2   -1    0    0  501    0  0.00000000000E+00  0.00000000000E+00 -0.10721702328E+04  0.10721702328E+04  0.25500000920E-02 0.  1.
    10030    2    1    2    0    0  0.00000000000E+00  0.00000000000E+00 -0.48849807576E+03  0.16558423897E+04  0.15821452682E+04 0.  0.
        1    1    3    3  502    0 -0.88326851040E+02 -0.53763060662E+03  0.35600626815E+03  0.65083697250E+03  0.50400001928E-02 0. -1.
       -1    1    3    3    0  502  0.88326851040E+02  0.53763060662E+03 -0.84450434391E+03  0.10050054172E+04  0.50400001928E-02 0.  1.
</event>
<event>
 5   0  0.5315984E-04  0.1610621E+04  0.7818609E-02  0.8814049E-01
        2   -1    0    0  501    0  0.00000000000E+00  0.00000000000E+00  0.16665790550E+04  0.16665790550E+04  0.25500000920E-02 0. -1.
       -2   -1    0    0    0  501  0.00000000000E+00  0.00000000000E+00 -0.38913562212E+03  0.38913562213E+03  0.25500000920E-02 0.  1.
    10030    2    1    2    0    0  0.00000000000E+00  0.00000000000E+00  0.12774434329E+04  0.20557146772E+04  0.16106213427E+04 0.  0.
        2    1    3    3  502    0  0.46004243677E+02 -0.96760771711E+02  0.16574417933E+04  0.16609010613E+04  0.25500000920E-02 0. -1.
       -2    1    3    3    0  502 -0.46004243677E+02  0.96760771711E+02 -0.37999836036E+03  0.39481361585E+03  0.25500000920E-02 0.  1.
</event>
<event>
 5   0  0.2649086E-04  0.1601691E+04  0.7818609E-02  0.8819510E-01
        1   -1    0    0  501    0  0.00000000000E+00  0.00000000000E+00  0.12510588810E+04  0.12510588810E+04  0.50400001928E-02 0. -1.
       -1   -1    0    0    0  501  0.00000000000E+00  0.00000000000E+00 -0.51264842219E+03  0.51264842221E+03  0.50400001928E-02 0.  1.
    10030    2    1    2    0    0  0.00000000000E+00  0.00000000000E+00  0.73841045877E+03  0.17637073032E+04  0.16016908084E+04 0.  0.
        2    1    3    3  502    0 -0.49303837347E+02  0.77679374042E+03  0.57671927146E+03  0.96873345230E+03  0.25500000920E-02 0.  1.
       -2    1    3    3    0  502  0.49303837347E+02 -0.77679374042E+03  0.16169118732E+03  0.79497385088E+03  0.25500000920E-02 0. -1.
</event>
<event>
 5   0  0.5381164E-04  0.1515361E+04  0.7818609E-02  0.8874302E-01
        2   -1    0    0  501    0  0.00000000000E+00  0.00000000000E+00  0.43789100090E+03  0.43789100090E+03  0.25500000920E-02 0.  1.
       -2   -1    0    0    0  501  0.00000000000E+00  0.00000000000E+00 -0.13110101745E+04  0.13110101745E+04  0.25500000920E-02 0. -1.
    10030    2    1    2    0    0  0.00000000000E+00  0.00000000000E+00 -0.87311917357E+03  0.17489011754E+04  0.15153607590E+04 0.  0.
        5    1    3    3  502    0 -0.13277219959E+03  0.69277043103E+03 -0.11735092184E+03  0.71508926433E+03  0.46999998093E+01 0.  1.
       -5    1    3    3    0  502  0.13277219959E+03 -0.69277043103E+03 -0.75576825173E+03  0.10338119110E+04  0.46999998093E+01 0. -1.
</event>
<event>
 5   0  0.2796994E-04  0.1590472E+04  0.7818609E-02  0.8826423E-01
        1   -1    0    0  501    0  0.00000000000E+00  0.00000000000E+00  0.13205794085E+04  0.13205794085E+04  0.50400001928E-02 0. -1.
       -1   -1    0    0    0  501  0.00000000000E+00  0.00000000000E+00 -0.47888110499E+03  0.47888110502E+03  0.50400001928E-02 0.  1.
    10030    2    1    2    0    0  0.00000000000E+00  0.00000000000E+00  0.84169830347E+03  0.17994605135E+04  0.15904722901E+04 0.  0.
        3    1    3    3  502    0 -0.60939681026E+03 -0.47749168224E+03  0.21520263328E+03  0.80353902365E+03  0.10100000352E+00 0.  1.
       -3    1    3    3    0  502  0.60939681026E+03  0.47749168224E+03  0.62649567019E+03  0.99592148984E+03  0.10100000352E+00 0. -1.
</event>
<event>
 5   0  0.2796994E-04  0.1611751E+04  0.7818609E-02  0.8813361E-01
        1   -1    0    0  501    0  0.00000000000E+00  0.00000000000E+00  0.20678414664E+04  0.20678414664E+04  0.50400001928E-02 0. -1.
       -1   -1    0    0    0  501  0.00000000000E+00  0.00000000000E+00 -0.31406441200E+03  0.31406441204E+03  0.50400001928E-02 0.  1.
    10030    2    1    2    0    0  0.00000000000E+00  0.00000000000E+00  0.17537770544E+04  0.23819058784E+04  0.16117511151E+04 0.  0.
        3    1    3    3  502    0 -0.30652246890E+03 -0.65302683948E+03  0.14077496611E+04  0.15818214803E+04  0.10100000352E+00 0. -1.
       -3    1    3    3    0  502  0.30652246890E+03  0.65302683948E+03  0.34602739330E+03  0.80008439814E+03  0.10100000352E+00 0.  1.
</event>
<event>
 5   0  0.2763895E-04  0.1611314E+04  0.7818609E-02  0.8813627E-01
        1   -1    0    0  501    0  0.00000000000E+00  0.00000000000E+00  0.77280250793E+03  0.77280250795E+03  0.50400001928E-02 0.  1.
       -1   -1    0    0    0  501  0.00000000000E+00  0.00000000000E+00 -0.83990861032E+03  0.83990861034E+03  0.50400001928E-02 0. -1.
    10030    2    1    2    0    0  0.00000000000E+00  0.00000000000E+00 -0.67106102389E+02  0.16127111183E+04  0.16113143461E+04 0.  0.
        4    1    3    3  502    0 -0.78759016754E+03 -0.14684076639E+03 -0.11860544754E+03  0.80989465226E+03  0.12699999809E+01 0. -1.
       -4    1    3    3    0  502  0.78759016754E+03  0.14684076639E+03  0.51499345155E+02  0.80281646603E+03  0.12699999809E+01 0.  1.
</event>
<event>
 5   0  0.5083831E-04  0.1606837E+04  0.7818609E-02  0.8816359E-01
        2   -1    0    0  501    0  0.00000000000E+00  0.00000000000E+00  0.10025987673E+04  0.10025987673E+04  0.25500000920E-02 0.  1.
       -2   -1    0    0    0  501  0.00000000000E+00  0.00000000000E+00 -0.64380812460E+03  0.64380812460E+03  0.25500000920E-02 0. -1.
    10030    2    1    2    0    0  0.00000000000E+00  0.00000000000E+00  0.35879064266E+03  0.16464068919E+04  0.16068369327E+04 0.  0.
        4    1    3    3  502    0 -0.53494839690E+03 -0.57521738234E+02 -0.43195624425E+03  0.68997561374E+03  0.12699999809E+01 0. -1.
       -4    1    3    3    0  502  0.53494839690E+03  0.57521738234E+02  0.79074688691E+03  0.95643127812E+03  0.12699999809E+01 0.  1.
</event>
<event>
 5   0  0.5315984E-04  0.1574240E+04  0.7818609E-02  0.8836531E-01
        2   -1    0    0  501    0  0.00000000000E+00  0.00000000000E+00  0.11988306263E+04  0.11988306263E+04  0.25500000920E-02 0.  1.
       -2   -1    0    0    0  501  0.00000000000E+00  0.00000000000E+00 -0.51680218000E+03  0.51680218001E+03  0.25500000920E-02 0. -1.
    10030    2    1    2    0    0  0.00000000000E+00  0.00000000000E+00  0.68202844634E+03  0.17156328064E+04  0.15742404914E+04 0.  0.
        2    1    3    3  502    0 -0.13357686586E+03  0.31686144028E+03  0.11126428351E+04  0.11645677438E+04  0.25500000920E-02 0.  1.
       -2    1    3    3    0  502  0.13357686586E+03 -0.31686144028E+03 -0.43061438871E+03  0.55106506259E+03  0.25500000920E-02 0. -1.
</event>
<event>
 5   0  0.5083831E-04  0.1659729E+04  0.7818609E-02  0.8784672E-01
       -2   -1    0    0    0  501  0.00000000000E+00  0.00000000000E+00  0.66806268758E+03  0.66806268758E+03  0.25500000920E-02 0.  1.
        2   -1    0    0  501    0  0.00000000000E+00  0.00000000000E+00 -0.10308537482E+04  0.10308537482E+04  0.25500000920E-02 0. -1.
    10030    2    1    2    0    0  0.00000000000E+00  0.00000000000E+00 -0.36279106060E+03  0.16989164358E+04  0.16597288038E+04 0.  0.
        4    1    3    3  502    0  0.65839255398E+02 -0.52571952291E+03 -0.83519165414E+03  0.98907155270E+03  0.12699999809E+01 0. -1.
       -4    1    3    3    0  502 -0.65839255398E+02  0.52571952291E+03  0.47240059354E+03  0.70984488306E+03  0.12699999809E+01 0.  1.
</event>
<event>
 5   0  0.5131239E-04  0.1590582E+04  0.7818609E-02  0.8826355E-01
       -2   -1    0    0    0  501  0.00000000000E+00  0.00000000000E+00  0.35900571835E+03  0.35900571835E+03  0.25500000920E-02 0.  1.
        2   -1    0    0  501    0  0.00000000000E+00  0.00000000000E+00 -0.17617759617E+04  0.17617759617E+04  0.25500000920E-02 0. -1.
    10030    2    1    2    0    0  0.00000000000E+00  0.00000000000E+00 -0.14027702433E+04  0.21207816800E+04  0.15905818366E+04 0.  0.
        1    1    3    3  502    0 -0.27663945952E+03 -0.89749486093E+02 -0.16883277239E+04  0.17131943451E+04  0.50400001928E-02 0. -1.
       -1    1    3    3    0  502  0.27663945952E+03  0.89749486093E+02  0.28555748059E+03  0.40758733490E+03  0.50400001928E-02 0.  1.
</event>
<event>
 5   0  0.5264308E-04  0.1594357E+04  0.7818609E-02  0.8824022E-01
       -2   -1    0    0    0  501  0.00000000000E+00  0.00000000000E+00  0.43566806839E+03  0.43566806840E+03  0.25500000920E-02 0. -1.
        2   -1    0    0  501    0  0.00000000000E+00  0.00000000000E+00 -0.14586654485E+04  0.14586654485E+04  0.25500000920E-02 0.  1.
    10030    2    1    2    0    0  0.00000000000E+00  0.00000000000E+00 -0.10229973801E+04  0.18943335169E+04  0.15943574987E+04 0.  0.
        3    1    3    3  502    0 -0.62451205064E+03  0.45919909069E+03 -0.29044289180E+03  0.82778994309E+03  0.10100000352E+00 0. -1.
       -3    1    3    3    0  502  0.62451205064E+03 -0.45919909069E+03 -0.73255448830E+03  0.10665435738E+04  0.10100000352E+00 0.  1.
</event>
<event>
 5   0  0.2689675E-04  0.1559070E+04  0.7818609E-02  0.8846095E-01
        1   -1    0    0  501    0  0.00000000000E+00  0.00000000000E+00  0.24176400003E+04  0.24176400003E+04  0.50400001928E-02 0.  1.
       -1   -1    0    0    0  501  0.00000000000E+00  0.00000000000E+00 -0.25135038683E+03  0.25135038688E+03  0.50400001928E-02 0. -1.
    10030    2    1    2    0    0  0.00000000000E+00  0.00000000000E+00  0.21662896134E+04  0.26689903872E+04  0.15590699142E+04 0.  0.
        1    1    3    3  502    0  0.70225493331E+03 -0.24196023775E+03  0.14881413512E+04  0.16632111800E+04  0.50400001928E-02 0.  1.
       -1    1    3    3    0  502 -0.70225493331E+03  0.24196023775E+03  0.67814826225E+03  0.10057792072E+04  0.50400001928E-02 0. -1.
</event>
<event>
 5   0  0.5315984E-04  0.1562250E+04  0.7818609E-02  0.8844081E-01
        2   -1    0    0  501    0  0.00000000000E+00  0.00000000000E+00  0.45536531625E+03  0.45536531625E+03  0.25500000920E-02 0. -1.
       -2   -1    0    0    0  501  0.00000000000E+00  0.00000000000E+00 -0.13399265373E+04  0.13399265373E+04  0.25500000920E-02 0.  1.
    10030    2    1    2    0    0  0.00000000000E+00  0.00000000000E+00 -0.88456122110E+03  0.17952918536E+04  0.15622497514E+04 0.  0.
        2    1    3    3  502    0  0.48948161502E+03 -0.11484546118E+03  0.24470284655E+03  0.55916117043E+03  0.25500000920E-02 0. -1.
       -2    1    3    3    0  502 -0.48948161502E+03  0.11484546118E+03 -0.11292640676E+04  0.12361306832E+04  0.25500000920E-02 0.  1.
</event>
<event>
 5   0  0.2649086E-04  0.1605582E+04  0.7818609E-02  0.8817126E-01
        1   -1    0    0  501    0  0.00000000000E+00  0.00000000000E+00  0.42809046901E+03  0.42809046904E+03  0.50400001928E-02 0. -1.
       -1   -1    0    0    0  501  0.00000000000E+00  0.00000000000E+00 -0.15054597921E+04  0.15054597921E+04  0.50400001928E-02 0.  1.
    10030    2    1    2    0    0  0.00000000000E+00  0.00000000000E+00 -0.10773693231E+04  0.19335502611E+04  0.16055815003E+04 0.  0.
        2    1    3    3  502    0  0.46083938351E+03 -0.33193385911E+03 -0.12219620762E+04  0.13474955807E+04  0.25500000920E-02 0.  1.
       -2    1    3    3    0  502 -0.46083938351E+03  0.33193385911E+03  0.14459275314E+03  0.58605468045E+03  0.25500000920E-02 0. -1.
</event>
<event>
 5   0  0.5083831E-04  0.1566555E+04  0.7818609E-02  0.8841362E-01
       -2   -1    0    0    0  501  0.00000000000E+00  0.00000000000E+00  0.30013949563E+03  0.30013949564E+03  0.25500000920E-02 0. -1.
        2   -1    0    0  501    0  0.00000000000E+00  0.00000000000E+00 -0.20441287677E+04  0.20441287677E+04  0.25500000920E-02 0.  1.
    10030    2    1    2    0    0  0.00000000000E+00  0.00000000000E+00 -0.17439892720E+04  0.23442682633E+04  0.15665551728E+04 0.  0.
        4    1    3    3  502    0 -0.62673652595E+03  0.42172034981E+03 -0.11818549083E+04  0.14026508345E+04  0.12699999809E+01 0.  1.
       -4    1    3    3    0  502  0.62673652595E+03 -0.42172034981E+03 -0.56213436373E+03  0.94161742878E+03  0.12699999809E+01 0. -1.
</event>
<event>
 5   0  0.5083831E-04  0.1628565E+04  0.7818609E-02  0.8803189E-01
        2   -1    0    0  501    0  0.00000000000E+00  0.00000000000E+00  0.77907688390E+03  0.77907688391E+03  0.25500000920E-02 0. -1.
       -2   -1    0    0    0  501  0.00000000000E+00  0.00000000000E+00 -0.85107933541E+03  0.85107933541E+03  0.25500000920E-02 0.  1.
    10030    2    1    2    0    0  0.00000000000E+00  0.00000000000E+00 -0.72002451506E+02  0.16301562193E+04  0.16285653031E+04 0.  0.
        4    1    3    3  502    0  0.51726079915E+03  0.20689739333E+03 -0.63045792425E+03  0.84133469728E+03  0.12699999809E+01 0.  1.
       -4    1    3    3    0  502 -0.51726079915E+03 -0.20689739333E+03  0.55845547274E+03  0.78882152204E+03  0.12699999809E+01 0. -1.
</event>
<event>
 5   0  0.2689675E-04  0.1614745E+04  0.7818609E-02  0.8811540E-01
        1   -1    0    0  501    0  0.00000000000E+00  0.00000000000E+00  0.21092579649E+04  0.21092579649E+04  0.50400001928E-02 0. -1.
       -1   -1    0    0    0  501  0.00000000000E+00  0.00000000000E+00 -0.30904261538E+03  0.30904261543E+03  0.50400001928E-02 0.  1.
    10030    2    1    2    0    0  0.00000000000E+00  0.00000000000E+00  0.18002153495E+04  0.24183005803E+04  0.16147453026E+04 0.  0.
        1    1    3    3  502    0  0.37983151975E+03  0.22452135672E+03  0.19127230803E+04  0.19629547639E+04  0.50400001928E-02 0. -1.
       -1    1    3    3    0  502 -0.37983151975E+03 -0.22452135672E+03 -0.11250773083E+03  0.45534581643E+03  0.50400001928E-02 0.  1.
</event>
<event>
 5   0  0.2796994E-04  0.1613956E+04  0.7818609E-02  0.8812020E-01
       -1   -1    0    0    0  501  0.00000000000E+00  0.00000000000E+00  0.43481547563E+03  0.43481547566E+03  0.50400001928E-02 0.  1.
        1   -1    0    0  501    0  0.00000000000E+00  0.00000000000E+00 -0.14976770929E+04  0.14976770929E+04  0.50400001928E-02 0. -1.
    10030    2    1    2    0    0  0.00000000000E+00  0.00000000000E+00 -0.10628616172E+04  0.19324925685E+04  0.16139556097E+04 0.  0.
        3    1    3    3  502    0  0.30511237118E+03 -0.72317958916E+03 -0.30700602071E+03  0.84281373042E+03  0.10100000352E+00 0.  1.
       -3    1    3    3    0  502 -0.30511237118E+03  0.72317958916E+03 -0.75585559652E+03  0.10896788381E+04  0.10100000352E+00 0. -1.
</event>
<event>
 5   0  0.5264308E-04  0.1570993E+04  0.7818609E-02  0.8838569E-01
       -2   -1    0    0    0  501  0.00000000000E+00  0.00000000000E+00  0.43672429875E+03  0.43672429876E+03  0.25500000920E-02 0. -1.
        2   -1    0    0  501    0  0.00000000000E+00  0.00000000000E+00 -0.14128008961E+04  0.14128008961E+04  0.25500000920E-02 0.  1.
    10030    2    1    2    0    0  0.00000000000E+00  0.00000000000E+00 -0.97607659736E+03  0.18495251949E+04  0.15709926552E+04 0.  0.
        3    1    3    3  502    0 -0.74449839596E+03  0.22824282794E+03 -0.60943025544E+03  0.98882652500E+03  0.10100000352E+00 0.  1.
       -3    1    3    3    0  502  0.74449839596E+03 -0.22824282794E+03 -0.36664634192E+03  0.86069866988E+03  0.10100000352E+00 0. -1.
</event>
<event>
 5   0  0.2730707E-04  0.1586008E+04  0.7818609E-02  0.8829190E-01
       -1   -1    0    0    0  501  0.00000000000E+00  0.00000000000E+00  0.38008617160E+03  0.38008617164E+03  0.50400001928E-02 0.  1.
        1   -1    0    0  501    0  0.00000000000E+00  0.00000000000E+00 -0.16545063855E+04  0.16545063856E+04  0.50400001928E-02 0. -1.
    10030    2    1    2    0    0  0.00000000000E+00  0.00000000000E+00 -0.12744202139E+04  0.20345925572E+04  0.15860075637E+04 0.  0.
        5    1    3    3  502    0 -0.32022732366E+03 -0.65129290414E+03 -0.10471267361E+04  0.12740582707E+04  0.46999998093E+01 0. -1.
       -5    1    3    3    0  502  0.32022732366E+03  0.65129290414E+03 -0.22729347784E+03  0.76053428645E+03  0.46999998093E+01 0.  1.
</event>
<event>
 5   0  0.2763895E-04  0.1599953E+04  0.7818609E-02  0.8820577E-01
        1   -1    0    0  501    0  0.00000000000E+00  0.00000000000E+00  0.74107277306E+03  0.74107277307E+03  0.50400001928E-02 0. -1.
       -1   -1    0    0    0  501  0.00000000000E+00  0.00000000000E+00 -0.86356193020E+03  0.86356193022E+03  0.50400001928E-02 0.  1.
    10030    2    1    2    0    0  0.00000000000E+00  0.00000000000E+00 -0.12248915714E+03  0.16046347033E+04  0.15999527922E+04 0.  0.
        4    1    3    3  502    0  0.16681507572E+03  0.49053704481E+03 -0.67254172975E+03  0.84898047856E+03  0.12699999809E+01 0.  1.
       -4    1    3    3    0  502 -0.16681507572E+03 -0.49053704481E+03  0.55005257261E+03  0.75565422473E+03  0.12699999809E+01 0. -1.
</event>
<event>
 5   0  0.5083831E-04  0.1601363E+04  0.7818609E-02  0.8819711E-01
        2   -1    0    0  501    0  0.00000000000E+00  0.00000000000E+00  0.12357417301E+04  0.12357417301E+04  0.25500000920E-02 0. -1.
       -2   -1    0    0    0  501  0.00000000000E+00  0.00000000000E+00 -0.51879024977E+03  0.51879024978E+03  0.25500000920E-02 0.  1.
    10030    2    1    2    0    0  0.00000000000E+00  0.00000000000E+00  0.71695148033E+03  0.17545319799E+04  0.16013628706E+04 0.  0.
        4    1    3    3  502    0  0.40698840449E+03 -0.68946443196E+03  0.36877621748E+03  0.88147505683E+03  0.12699999809E+01 0. -1.
       -4    1    3    3    0  502 -0.40698840449E+03  0.68946443196E+03  0.34817526286E+03  0.87305692306E+03  0.12699999809E+01 0.  1.
</event>
<event>
 5   0  0.5131239E-04  0.1598400E+04  0.7818609E-02  0.8821531E-01
        2   -1    0    0  501    0  0.00000000000E+00  0.00000000000E+00  0.12130862893E+04  0.12130862893E+04  0.25500000920E-02 0.  1.
       -2   -1    0    0    0  501  0.00000000000E+00  0.00000000000E+00 -0.52652561145E+03  0.52652561146E+03  0.25500000920E-02 0. -1.
    10030    2    1    2    0    0  0.00000000000E+00  0.00000000000E+00  0.68656067787E+03  0.17396119008E+04  0.15984004507E+04 0.  0.
        1    1    3    3  502    0  0.44230903703E+03  0.47798686447E+03  0.84747013748E+03  0.10687910744E+04  0.50400001928E-02 0.  1.
       -1    1    3    3    0  502 -0.44230903703E+03 -0.47798686447E+03 -0.16090945961E+03  0.67082082635E+03  0.50400001928E-02 0. -1.
</event>
<event>
 5   0  0.2649086E-04  0.1585912E+04  0.7818609E-02  0.8829250E-01
       -1   -1    0    0    0  501  0.00000000000E+00  0.00000000000E+00  0.44323101928E+03  0.44323101931E+03  0.50400001928E-02 0. -1.
        1   -1    0    0  501    0  0.00000000000E+00  0.00000000000E+00 -0.14186264635E+04  0.14186264636E+04  0.50400001928E-02 0.  1.
    10030    2    1    2    0    0  0.00000000000E+00  0.00000000000E+00 -0.97539544426E+03  0.18618574829E+04  0.15859120448E+04 0.  0.
        2    1    3    3  502    0 -0.14730874641E+03  0.38131308739E+03 -0.12853943095E+04  0.13488284058E+04  0.25500000920E-02 0.  1.
       -2    1    3    3    0  502  0.14730874641E+03 -0.38131308739E+03  0.30999886528E+03  0.51302907702E+03  0.25500000920E-02 0. -1.
</event>
<event>
 5   0  0.5315984E-04  0.1619538E+04  0.7818609E-02  0.8808634E-01
        2   -1    0    0  501    0  0.00000000000E+00  0.00000000000E+00  0.10958856464E+04  0.10958856464E+04  0.25500000920E-02 0.  1.
       -2   -1    0    0    0  501  0.00000000000E+00  0.00000000000E+00 -0.59835262468E+03  0.59835262468E+03  0.25500000920E-02 0. -1.
    10030    2    1    2    0    0  0.00000000000E+00  0.00000000000E+00  0.49753302174E+03  0.16942382711E+04  0.16195382711E+04 0.  0.
        2    1    3    3  502    0 -0.20162476911E+03  0.61296394853E+01  0.10691813697E+04  0.10880436211E+04  0.25500000920E-02 0.  1.
       -2    1    3    3    0  502  0.20162476911E+03 -0.61296394853E+01 -0.57164834797E+03  0.60619465004E+03  0.25500000920E-02 0. -1.
</event>
<event>
 5   0  0.5131239E-04  0.1593907E+04  0.7818609E-02  0.8824300E-01
        2   -1    0    0  501    0  0.00000000000E+00  0.00000000000E+00  0.62712499017E+03  0.62712499017E+03  0.25500000920E-02 0. -1.
       -2   -1    0    0    0  501  0.00000000000E+00  0.00000000000E+00 -0.10127719901E+04  0.10127719901E+04  0.25500000920E-02 0.  1.
    10030    2    1    2    0    0  0.00000000000E+00  0.00000000000E+00 -0.38564699995E+03  0.16398969803E+04  0.15939066778E+04 0.  0.
        1    1    3    3  502    0  0.25571328407E+03 -0.31179797943E+03  0.51441705499E+03  0.65362999481E+03  0.50400001928E-02 0. -1.
       -1    1    3    3    0  502 -0.25571328407E+03  0.31179797943E+03 -0.90006405494E+03  0.98626698548E+03  0.50400001928E-02 0.  1.
</event>
<event>
 5   0  0.5264308E-04  0.1655450E+04  0.7818609E-02  0.8787189E-01
       -2   -1    0    0    0  501  0.00000000000E+00  0.00000000000E+00  0.65748877646E+03  0.65748877647E+03  0.25500000920E-02 0.  1.
        2   -1    0    0  501    0  0.00000000000E+00  0.00000000000E+00 -0.10420389923E+04  0.10420389923E+04  0.25500000920E-02 0. -1.
    10030    2    1    2    0    0  0.00000000000E+00  0.00000000000E+00 -0.38455021586E+03  0.16995277688E+04  0.16554503219E+04 0.  0.
        3    1    3    3  502    0 -0.79889259820E+03  0.42299618095E+02 -0.41032201235E+03  0.89910110953E+03  0.10100000352E+00 0. -1.
       -3    1    3    3    0  502  0.79889259820E+03 -0.42299618095E+02  0.25771796489E+02  0.80042665925E+03  0.10100000352E+00 0.  1.
</event>
<event>
 5   0  0.5315984E-04  0.1588781E+04  0.7818609E-02  0.8827470E-01
       -2   -1    0    0    0  501  0.00000000000E+00  0.00000000000E+00  0.67078165121E+03  0.67078165122E+03  0.25500000920E-02 0. -1.
        2   -1    0    0  501    0  0.00000000000E+00  0.00000000000E+00 -0.94077784829E+03  0.94077784829E+03  0.25500000920E-02 0.  1.
    10030    2    1    2    0    0  0.00000000000E+00  0.00000000000E+00 -0.26999619708E+03  0.16115594995E+04  0.15887813172E+04 0.  0.
        2    1    3    3  502    0 -0.44532198282E+03 -0.25428277355E+03  0.48040028562E+03  0.70267761579E+03  0.25500000920E-02 0. -1.
       -2    1    3    3    0  502  0.44532198282E+03  0.25428277355E+03 -0.75039648269E+03  0.90888188372E+03  0.25500000920E-02 0.  1.
</event>
<event>
 5   0  0.2730707E-04  0.1602599E+04  0.7818609E-02  0.8818953E-01
        1   -1    0    0  501    0  0.00000000000E+00  0.00000000000E+00  0.92413269966E+03  0.92413269967E+03  0.50400001928E-02 0. -1.
       -1   -1    0    0    0  501  0.00000000000E+00  0.00000000000E+00 -0.69479277091E+03  0.69479277093E+03  0.50400001928E-02 0.  1.
    10030    2    1    2    0    0  0.00000000000E+00  0.00000000000E+00  0.22933992874E+03  0.16189254706E+04  0.16025987884E+04 0.  0.
        5    1    3    3  502    0 -0.11760572817E+03 -0.22615849252E+02 -0.68568687547E+03  0.69608272865E+03  0.46999998093E+01 0.  1.
       -5    1    3    3    0  502  0.11760572817E+03  0.22615849252E+02  0.91502680421E+03  0.92284274195E+03  0.46999998093E+01 0. -1.
</event>
<event>
 5   0  0.5083831E-04  0.1300612E+04  0.7818609E-02  0.9029080E-01
       -2   -1    0    0    0  501  0.00000000000E+00  0.00000000000E+00  0.57670477368E+03  0.57670477369E+03  0.25500000920E-02 0. -1.
        2   -1    0    0  501    0  0.00000000000E+00  0.00000000000E+00 -0.73330088585E+03  0.73330088585E+03  0.25500000920E-02 0.  1.
    10030    2    1    2    0    0  0.00000000000E+00  0.00000000000E+00 -0.15659611216E+03  0.13100056595E+04  0.13006123503E+04 0.  0.
        4    1    3    3  502    0  0.27211025265E+03  0.51705375958E+03  0.20925979305E+03  0.62062859568E+03  0.12699999809E+01 0. -1.
       -4    1    3    3    0  502 -0.27211025265E+03 -0.51705375958E+03 -0.36585590522E+03  0.68937706386E+03  0.12699999809E+01 0.  1.
</event>
<event>
 5   0  0.2796994E-04  0.1596172E+04  0.7818609E-02  0.8822903E-01
       -1   -1    0    0    0  501  0.00000000000E+00  0.00000000000E+00  0.99900065450E+03  0.99900065452E+03  0.50400001928E-02 0.  1.
        1   -1    0    0  501    0  0.00000000000E+00  0.00000000000E+00 -0.63757834341E+03  0.63757834343E+03  0.50400001928E-02 0. -1.
    10030    2    1    2    0    0  0.00000000000E+00  0.00000000000E+00  0.36142231109E+03  0.16365789979E+04  0.15961718985E+04 0.  0.
        3    1    3    3  502    0  0.35758105743E+03  0.50548809865E+02  0.91043136505E+03  0.97944100153E+03  0.10100000352E+00 0.  1.
       -3    1    3    3    0  502 -0.35758105743E+03 -0.50548809865E+02 -0.54900905395E+03  0.65713799642E+03  0.10100000352E+00 0. -1.
</event>
<event>
 5   0  0.2796994E-04  0.1607925E+04  0.7818609E-02  0.8815694E-01
       -1   -1    0    0    0  501  0.00000000000E+00  0.00000000000E+00  0.58488278750E+03  0.58488278752E+03  0.50400001928E-02 0.  1.
        1   -1    0    0  501    0  0.00000000000E+00  0.00000000000E+00 -0.11051028869E+04  0.11051028869E+04  0.50400001928E-02 0. -1.
    10030    2    1    2    0    0  0.00000000000E+00  0.00000000000E+00 -0.52022009944E+03  0.16899856745E+04  0.16079249448E+04 0.  0.
        3    1    3    3  502    0 -0.60461024524E+02  0.87990569492E+02  0.57739931498E+03  0.58718638859E+03  0.10100000352E+00 0.  1.
       -3    1    3    3    0  502  0.60461024524E+02 -0.87990569492E+02 -0.10976194144E+04  0.11027992859E+04  0.10100000352E+00 0. -1.
</event>
<event>
 5   0  0.5264308E-04  0.1627708E+04  0.7818609E-02  0.8803704E-01
        2   -1    0    0  501    0  0.00000000000E+00  0.00000000000E+00  0.88299961018E+03  0.88299961019E+03  0.25500000920E-02 0. -1.
       -2   -1    0    0    0  501  0.00000000000E+00  0.00000000000E+00 -0.75012323316E+03  0.75012323317E+03  0.25500000920E-02 0.  1.
    10030    2    1    2    0    0  0.00000000000E+00  0.00000000000E+00  0.13287637702E+03  0.16331228434E+04  0.16277082324E+04 0.  0.
        3    1    3    3  502    0 -0.79630190757E+03 -0.72568022975E+02 -0.85709476842E+02  0.80418217499E+03  0.10100000352E+00 0.  1.
       -3    1    3    3    0  502  0.79630190757E+03  0.72568022975E+02  0.21858585386E+03  0.82894066836E+03  0.10100000352E+00 0. -1.
</event>
<event>
 5   0  0.1908125E-04  0.1609851E+04  0.7818609E-02  0.8814519E-01
        3   -1    0    0  501    0  0.00000000000E+00  0.00000000000E+00  0.15351878759E+04  0.15351878793E+04  0.10100000352E+00 0. -1.
       -3   -1    0    0    0  501  0.00000000000E+00  0.00000000000E+00 -0.42203631322E+03  0.42203632530E+03  0.10100000352E+00 0.  1.
    10030    2    1    2    0    0  0.00000000000E+00  0.00000000000E+00  0.11131515627E+04  0.19572242046E+04  0.16098509823E+04 0.  0.
        3    1    3    3  502    0 -0.60400586379E+02  0.51033535905E+03 -0.19663349755E+03  0.55023190756E+03  0.10100000352E+00 0.  1.
       -3    1    3    3    0  502  0.60400586379E+02 -0.51033535905E+03  0.13097850603E+04  0.14069922970E+04  0.10100000352E+00 0. -1.
</event>
<event>
 5   0  0.2796994E-04  0.1635894E+04  0.7818609E-02  0.8798796E-01
        1   -1    0    0  501    0  0.00000000000E+00  0.00000000000E+00  0.74866842382E+03  0.74866842384E+03  0.50400001928E-02 0. -1.
       -1   -1    0    0    0  501  0.00000000000E+00  0.00000000000E+00 -0.89363587244E+03  0.89363587245E+03  0.50400001928E-02 0.  1.
    10030    2    1    2    0    0  0.00000000000E+00  0.00000000000E+00 -0.14496744862E+03  0.16423042963E+04  0.16358935908E+04 0.  0.
        3    1    3    3  502    0  0.36267394261E+03  0.71093187860E+02  0.66006771207E+03  0.75648927602E+03  0.10100000352E+00 0. -1.
       -3    1    3    3    0  502 -0.36267394261E+03 -0.71093187860E+02 -0.80503516069E+03  0.88581502028E+03  0.10100000352E+00 0.  1.
</event>
<event>
 5   0  0.2763895E-04  0.1595827E+04  0.7818609E-02  0.8823116E-01
        1   -1    0    0  501    0  0.00000000000E+00  0.00000000000E+00  0.83336575551E+03  0.83336575552E+03  0.50400001928E-02 0. -1.
       -1   -1    0    0    0  501  0.00000000000E+00  0.00000000000E+00 -0.76396947373E+03  0.76396947375E+03  0.50400001928E-02 0.  1.
    10030    2    1    2    0    0  0.00000000000E+00  0.00000000000E+00  0.69396281777E+02  0.15973352293E+04  0.15958270554E+04 0.  0.
        4    1    3    3  502    0  0.48747075700E+03 -0.57061186186E+03  0.30595009865E+03  0.81045216490E+03  0.12699999809E+01 0. -1.
       -4    1    3    3    0  502 -0.48747075700E+03  0.57061186186E+03 -0.23655381687E+03  0.78688306438E+03  0.12699999809E+01 0.  1.
</event>
<event>
 5   0  0.2730707E-04  0.1595886E+04  0.7818609E-02  0.8823079E-01
        1   -1    0    0  501    0  0.00000000000E+00  0.00000000000E+00  0.15762843432E+04  0.15762843432E+04  0.50400001928E-02 0.  1.
       -1   -1    0    0    0  501  0.00000000000E+00  0.00000000000E+00 -0.40393306282E+03  0.40393306285E+03  0.50400001928E-02 0. -1.
    10030    2    1    2    0    0  0.00000000000E+00  0.00000000000E+00  0.11723512804E+04  0.19802174060E+04  0.15958864153E+04 0.  0.
        5    1    3    3  502    0  0.24502661491E+03 -0.95351218237E+02 -0.34862136449E+03  0.43667933614E+03  0.46999998093E+01 0. -1.
       -5    1    3    3    0  502 -0.24502661491E+03  0.95351218237E+02  0.15209726448E+04  0.15435380699E+04  0.46999998093E+01 0.  1.
</event>
<event>
 5   0  0.2763895E-04  0.1605204E+04  0.7818609E-02  0.8817357E-01
        1   -1    0    0  501    0  0.00000000000E+00  0.00000000000E+00  0.24631554814E+04  0.24631554814E+04  0.50400001928E-02 0.  1.
       -1   -1    0    0    0  501  0.00000000000E+00  0.00000000000E+00 -0.26152228142E+03  0.26152228147E+03  0.50400001928E-02 0. -1.
    10030    2    1    2    0    0  0.00000000000E+00  0.00000000000E+00  0.22016332000E+04  0.27246777629E+04  0.16052040880E+04 0.  0.
        4    1    3    3  502    0 -0.40337576518E+03 -0.24253308637E+02 -0.76241547863E+02  0.41123547687E+03  0.12699999809E+01 0. -1.
       -4    1    3    3    0  502  0.40337576518E+03  0.24253308637E+02  0.22778747478E+04  0.23134422860E+04  0.12699999809E+01 0.  1.
</event>
<event>
 5   0  0.5264308E-04  0.1609737E+04  0.7818609E-02  0.8814589E-01
       -2   -1    0    0    0  501  0.00000000000E+00  0.00000000000E+00  0.48048481201E+03  0.48048481201E+03  0.25500000920E-02 0. -1.
        2   -1    0    0  501    0  0.00000000000E+00  0.00000000000E+00 -0.13482486435E+04  0.13482486435E+04  0.25500000920E-02 0.  1.
    10030    2    1    2    0    0  0.00000000000E+00  0.00000000000E+00 -0.86776383145E+03  0.18287334555E+04  0.16097366194E+04 0.  0.
        3    1    3    3  502    0 -0.41324200029E+03 -0.32913320230E+03 -0.11237105334E+04  0.12417016505E+04  0.10100000352E+00 0.  1.
       -3    1    3    3    0  502  0.41324200029E+03  0.32913320230E+03  0.25594670195E+03  0.58703180502E+03  0.10100000352E+00 0. -1.
</event>
<event>
 5   0  0.2689675E-04  0.1606915E+04  0.7818609E-02  0.8816311E-01
       -1   -1    0    0    0  501  0.00000000000E+00  0.00000000000E+00  0.73551080106E+03  0.73551080108E+03  0.50400001928E-02 0. -1.
        1   -1    0    0  501    0  0.00000000000E+00  0.00000000000E+00 -0.87768132952E+03  0.87768132954E+03  0.50400001928E-02 0.  1.
    10030    2    1    2    0    0  0.00000000000E+00  0.00000000000E+00 -0.14217052846E+03  0.16131921306E+04  0.16069151786E+04 0.  0.
        1    1    3    3  502    0 -0.26047219972E+03  0.64001041116E+03 -0.48266845232E+03  0.84286886769E+03  0.50400001928E-02 0. -1.
       -1    1    3    3    0  502  0.26047219972E+03 -0.64001041116E+03  0.34049792387E+03  0.77032326293E+03  0.50400001928E-02 0.  1.
</event>
<event>
 5   0  0.5264308E-04  0.1626948E+04  0.7818609E-02  0.8804162E-01
       -2   -1    0    0    0  501  0.00000000000E+00  0.00000000000E+00  0.43306279821E+03  0.43306279822E+03  0.25500000920E-02 0.  1.
        2   -1    0    0  501    0  0.00000000000E+00  0.00000000000E+00 -0.15280466946E+04  0.15280466946E+04  0.25500000920E-02 0. -1.
    10030    2    1    2    0    0  0.00000000000E+00  0.00000000000E+00 -0.10949838964E+04  0.19611094928E+04  0.16269482811E+04 0.  0.
        3    1    3    3  502    0 -0.36489275348E+03  0.57777072231E+03 -0.15513455610E+02  0.68352498609E+03  0.10100000352E+00 0.  1.
       -3    1    3    3    0  502  0.36489275348E+03 -0.57777072231E+03 -0.10794704408E+04  0.12775845067E+04  0.10100000352E+00 0. -1.
</event>
<event>
 5   0  0.5083831E-04  0.1364547E+04  0.7818609E-02  0.8979889E-01
       -2   -1    0    0    0  501  0.00000000000E+00  0.00000000000E+00  0.81321356687E+03  0.81321356688E+03  0.25500000920E-02 0.  1.
        2   -1    0    0  501    0  0.00000000000E+00  0.00000000000E+00 -0.57241659297E+03  0.57241659297E+03  0.25500000920E-02 0. -1.
    10030    2    1    2    0    0  0.00000000000E+00  0.00000000000E+00  0.24079697391E+03  0.13856301599E+04  0.13645467223E+04 0.  0.
        4    1    3    3  502    0 -0.20016975460E+02 -0.53303521821E+03  0.55237480100E+03  0.76788459865E+03  0.12699999809E+01 0.  1.
       -4    1    3    3    0  502  0.20016975460E+02  0.53303521821E+03 -0.31157782710E+03  0.61774556121E+03  0.12699999809E+01 0. -1.
</event>
<event>
 5   0  0.2763895E-04  0.1603220E+04  0.7818609E-02  0.8818572E-01
        1   -1    0    0  501    0  0.00000000000E+00  0.00000000000E+00  0.10881079930E+04  0.10881079930E+04  0.50400001928E-02 0.  1.
       -1   -1    0    0    0  501  0.00000000000E+00  0.00000000000E+00 -0.59054666450E+03  0.59054666452E+03  0.50400001928E-02 0. -1.
    10030    2    1    2    0    0  0.00000000000E+00  0.00000000000E+00  0.49756132852E+03  0.16786546575E+04  0.16032199424E+04 0.  0.
        4    1    3    3  502    0 -0.65890505722E+03  0.45348093490E+03  0.19361284373E+03  0.82297532096E+03  0.12699999809E+01 0.  1.
       -4    1    3    3    0  502  0.65890505722E+03 -0.45348093490E+03  0.30394848479E+03  0.85567933658E+03  0.12699999809E+01 0. -1.
</event>
<event>
 5   0  0.2689675E-04  0.1609057E+04  0.7818609E-02  0.8815003E-01
       -1   -1    0    0    0  501  0.00000000000E+00  0.00000000000E+00  0.10976571290E+04  0.10976571290E+04  0.50400001928E-02 0. -1.
        1   -1    0    0  501    0  0.00000000000E+00  0.00000000000E+00 -0.58967958635E+03  0.58967958637E+03  0.50400001928E-02 0.  1.
    10030    2    1    2    0    0  0.00000000000E+00  0.00000000000E+00  0.50797754261E+03  0.16873367153E+04  0.16090568688E+04 0.  0.
        1    1    3    3  502    0 -0.33344524265E+03 -0.73149730665E+03  0.28701644156E+03  0.85361143224E+03  0.50400001928E-02 0. -1.
       -1    1    3    3    0  502  0.33344524265E+03  0.73149730665E+03  0.22096110105E+03  0.83372528311E+03  0.50400001928E-02 0.  1.
</event>
<event>
 5   0  0.5315984E-04  0.1504325E+04  0.7818609E-02  0.8881582E-01
       -2   -1    0    0    0  501  0.00000000000E+00  0.00000000000E+00  0.63454454528E+03  0.63454454528E+03  0.25500000920E-02 0.  1.
        2   -1    0    0  501    0  0.00000000000E+00  0.00000000000E+00 -0.89158171852E+03  0.89158171853E+03  0.25500000920E-02 0. -1.
    10030    2    1    2    0    0  0.00000000000E+00  0.00000000000E+00 -0.25703717324E+03  0.15261262638E+04  0.15043248534E+04 0.  0.
        2    1    3    3  502    0 -0.31895342559E+03  0.18360970467E+03  0.53696413189E+03  0.65097948531E+03  0.25500000920E-02 0.  1.
       -2    1    3    3    0  502  0.31895342559E+03 -0.18360970467E+03 -0.79400130514E+03  0.87514677850E+03  0.25500000920E-02 0. -1.
</event>
<event>
 5   0  0.5264308E-04  0.1302791E+04  0.7818609E-02  0.9027355E-01
        2   -1    0    0  501    0  0.00000000000E+00  0.00000000000E+00  0.10584578013E+04  0.10584578013E+04  0.25500000920E-02 0.  1.
       -2   -1    0    0    0  501  0.00000000000E+00  0.00000000000E+00 -0.40088133956E+03  0.40088133957E+03  0.25500000920E-02 0. -1.
    10030    2    1    2    0    0  0.00000000000E+00  0.00000000000E+00  0.65757646172E+03  0.14593391409E+04  0.13027908217E+04 0.  0.
        3    1    3    3  502    0 -0.36210627928E+03  0.80160908836E+02  0.92864536036E+03  0.99996447153E+03  0.10100000352E+00 0.  1.
       -3    1    3    3    0  502  0.36210627928E+03 -0.80160908836E+02 -0.27106889864E+03  0.45937466932E+03  0.10100000352E+00 0. -1.
</event>
<event>
 5   0  0.2763895E-04  0.1464012E+04  0.7818609E-02  0.8908743E-01
        1   -1    0    0  501    0  0.00000000000E+00  0.00000000000E+00  0.14870655603E+04  0.14870655603E+04  0.50400001928E-02 0.  1.
       -1   -1    0    0    0  501  0.00000000000E+00  0.00000000000E+00 -0.36032906741E+03  0.36032906745E+03  0.50400001928E-02 0. -1.
    10030    2    1    2    0    0  0.00000000000E+00  0.00000000000E+00  0.11267364929E+04  0.18473946277E+04  0.14640122220E+04 0.  0.
        4    1    3    3  502    0  0.13337926121E+03 -0.28608070774E+02 -0.34414681199E+03  0.37019871709E+03  0.12699999809E+01 0. -1.
       -4    1    3    3    0  502 -0.13337926121E+03  0.28608070774E+02  0.14708833048E+04  0.14771959106E+04  0.12699999809E+01 0.  1.
</event>
<event>
 5   0  0.2649086E-04  0.1629441E+04  0.7818609E-02  0.8802663E-01
        1   -1    0    0  501    0  0.00000000000E+00  0.00000000000E+00  0.55166467456E+03  0.55166467459E+03  0.50400001928E-02 0.  1.
       -1   -1    0    0    0  501  0.00000000000E+00  0.00000000000E+00 -0.12032113473E+04  0.12032113473E+04  0.50400001928E-02 0. -1.
    10030    2    1    2    0    0  0.00000000000E+00  0.00000000000E+00 -0.65154667273E+03  0.17548760219E+04  0.16294406358E+04 0.  0.
        2    1    3    3  502    0 -0.58642149361E+01 -0.56423448181E+03 -0.95869925254E+03  0.11124294118E+04  0.25500000920E-02 0. -1.
       -2    1    3    3    0  502  0.58642149361E+01  0.56423448181E+03  0.30715257981E+03  0.64244661006E+03  0.25500000920E-02 0.  1.
</event>
<event>
 5   0  0.2689675E-04  0.1512699E+04  0.7818609E-02  0.8876052E-01
       -1   -1    0    0    0  501  0.00000000000E+00  0.00000000000E+00  0.66259938066E+03  0.66259938068E+03  0.50400001928E-02 0.  1.
        1   -1    0    0  501    0  0.00000000000E+00  0.00000000000E+00 -0.86336395521E+03  0.86336395523E+03  0.50400001928E-02 0. -1.
    10030    2    1    2    0    0  0.00000000000E+00  0.00000000000E+00 -0.20076457456E+03  0.15259633359E+04  0.15126988095E+04 0.  0.
        1    1    3    3  502    0  0.46479909295E+03  0.38425242428E+03 -0.56086761256E+03  0.82356578439E+03  0.50400001928E-02 0. -1.
       -1    1    3    3    0  502 -0.46479909295E+03 -0.38425242428E+03  0.36010303800E+03  0.70239755152E+03  0.50400001928E-02 0.  1.
</event>
<event>
 5   0  0.5315984E-04  0.1531934E+04  0.7818609E-02  0.8863490E-01
        2   -1    0    0  501    0  0.00000000000E+00  0.00000000000E+00  0.13399649458E+04  0.13399649458E+04  0.25500000920E-02 0. -1.
       -2   -1    0    0    0  501  0.00000000000E+00  0.00000000000E+00 -0.43785146856E+03  0.43785146856E+03  0.25500000920E-02 0.  1.
    10030    2    1    2    0    0  0.00000000000E+00  0.00000000000E+00  0.90211347729E+03  0.17778164144E+04  0.15319342275E+04 0.  0.
        2    1    3    3  502    0 -0.35640139199E+03 -0.49232990384E+03  0.99202475825E+03  0.11634104209E+04  0.25500000920E-02 0. -1.
       -2    1    3    3    0  502  0.35640139199E+03  0.49232990384E+03 -0.89911280960E+02  0.61440599353E+03  0.25500000920E-02 0.  1.
</event>
<event>
 5   0  0.2730707E-04  0.1611840E+04  0.7818609E-02  0.8813307E-01
        1   -1    0    0  501    0  0.00000000000E+00  0.00000000000E+00  0.10512143573E+04  0.10512143574E+04  0.50400001928E-02 0.  1.
       -1   -1    0    0    0  501  0.00000000000E+00  0.00000000000E+00 -0.61786359998E+03  0.61786360000E+03  0.50400001928E-02 0. -1.
    10030    2    1    2    0    0  0.00000000000E+00  0.00000000000E+00  0.43335075737E+03  0.16690779574E+04  0.16118400506E+04 0.  0.
        5    1    3    3  502    0  0.57161335576E+03 -0.50905141331E+03 -0.44490711361E+02  0.76673116753E+03  0.46999998093E+01 0.  1.
       -5    1    3    3    0  502 -0.57161335576E+03  0.50905141331E+03  0.47784146873E+03  0.90234678983E+03  0.46999998093E+01 0. -1.
</event>
<event>
 5   0  0.2796994E-04  0.1683179E+04  0.7818609E-02  0.8771017E-01
        1   -1    0    0  501    0  0.00000000000E+00  0.00000000000E+00  0.13693854338E+04  0.13693854338E+04  0.50400001928E-02 0.  1.
       -1   -1    0    0    0  501  0.00000000000E+00  0.00000000000E+00 -0.51721935175E+03  0.51721935178E+03  0.50400001928E-02 0. -1.
    10030    2    1    2    0    0  0.00000000000E+00  0.00000000000E+00  0.85216608208E+03  0.18866047856E+04  0.16831787147E+04 0.  0.
        3    1    3    3  502    0 -0.33510700235E+02  0.54494511449E+03 -0.29177789245E+03  0.61904966970E+03  0.10100000352E+00 0. -1.
       -3    1    3    3    0  502  0.33510700235E+02 -0.54494511449E+03  0.11439439745E+04  0.12675551159E+04  0.10100000352E+00 0.  1.
</event>
<event>
 5   0  0.5264308E-04  0.1542219E+04  0.7818609E-02  0.8856853E-01
       -2   -1    0    0    0  501  0.00000000000E+00  0.00000000000E+00  0.23583136710E+03  0.23583136711E+03  0.25500000920E-02 0.  1.
        2   -1    0    0  501    0  0.00000000000E+00  0.00000000000E+00 -0.25213354094E+04  0.25213354094E+04  0.25500000920E-02 0. -1.
    10030    2    1    2    0    0  0.00000000000E+00  0.00000000000E+00 -0.22855040423E+04  0.27571667765E+04  0.15422191498E+04 0.  0.
        3    1    3    3  502    0 -0.18285474796E+03 -0.19578359966E+03  0.14996226479E+03  0.30701102229E+03  0.10100000352E+00 0.  1.
       -3    1    3    3    0  502  0.18285474796E+03  0.19578359966E+03 -0.24354663071E+04  0.24501557542E+04  0.10100000352E+00 0. -1.
</event>
<event>
 5   0  0.5264308E-04  0.1594638E+04  0.7818609E-02  0.8823849E-01
       -2   -1    0    0    0  501  0.00000000000E+00  0.00000000000E+00  0.65183924710E+03  0.65183924711E+03  0.25500000920E-02 0. -1.
        2   -1    0    0  501    0  0.00000000000E+00  0.00000000000E+00 -0.97526686333E+03  0.97526686333E+03  0.25500000920E-02 0.  1.
    10030    2    1    2    0    0  0.00000000000E+00  0.00000000000E+00 -0.32342761622E+03  0.16271061104E+04  0.15946375361E+04 0.  0.
        3    1    3    3  502    0 -0.45889488186E+03  0.62055620876E+03 -0.36589488918E+03  0.85413909930E+03  0.10100000352E+00 0.  1.
       -3    1    3    3    0  502  0.45889488186E+03 -0.62055620876E+03  0.42467272955E+02  0.77296701114E+03  0.10100000352E+00 0. -1.
</event>
<event>
 5   0  0.2689675E-04  0.1629914E+04  0.7818609E-02  0.8802378E-01
       -1   -1    0    0    0  501  0.00000000000E+00  0.00000000000E+00  0.50364080692E+03  0.50364080695E+03  0.50400001928E-02 0.  1.
        1   -1    0    0  501    0  0.00000000000E+00  0.00000000000E+00 -0.13187078827E+04  0.13187078828E+04  0.50400001928E-02 0. -1.
    10030    2    1    2    0    0  0.00000000000E+00  0.00000000000E+00 -0.81506707582E+03  0.18223486897E+04  0.16299142336E+04 0.  0.
        1    1    3    3  502    0 -0.25100726797E+03  0.52904678784E+03 -0.10412500455E+04  0.11946115727E+04  0.50400001928E-02 0. -1.
       -1    1    3    3    0  502  0.25100726797E+03 -0.52904678784E+03  0.22618296968E+03  0.62773711703E+03  0.50400001928E-02 0.  1.
</event>
<event>
 5   0  0.5131239E-04  0.1601763E+04  0.7818609E-02  0.8819466E-01
       -2   -1    0    0    0  501  0.00000000000E+00  0.00000000000E+00  0.29314038575E+03  0.29314038576E+03  0.25500000920E-02 0.  1.
        2   -1    0    0  501    0  0.00000000000E+00  0.00000000000E+00 -0.21880679229E+04  0.21880679229E+04  0.25500000920E-02 0. -1.
    10030    2    1    2    0    0  0.00000000000E+00  0.00000000000E+00 -0.18949275371E+04  0.24812083086E+04  0.16017628726E+04 0.  0.
        1    1    3    3  502    0 -0.83864878571E+02 -0.20658201140E+02  0.28590471911E+03  0.29866634823E+03  0.50400001928E-02 0.  1.
       -1    1    3    3    0  502  0.83864878571E+02  0.20658201140E+02 -0.21808322562E+04  0.21825419604E+04  0.50400001928E-02 0. -1.
</event>
<event>
 5   0  0.2649086E-04  0.1601220E+04  0.7818609E-02  0.8819799E-01
       -1   -1    0    0    0  501  0.00000000000E+00  0.00000000000E+00  0.40772516954E+03  0.40772516957E+03  0.50400001928E-02 0. -1.
        1   -1    0    0  501    0  0.00000000000E+00  0.00000000000E+00 -0.15720786909E+04  0.15720786909E+04  0.50400001928E-02 0.  1.
    10030    2    1    2    0    0  0.00000000000E+00  0.00000000000E+00 -0.11643535213E+04  0.19798038604E+04  0.16012195987E+04 0.  0.
        2    1    3    3  502    0  0.48952464142E+03  0.19332640613E+03  0.16376001968E+03  0.55120487835E+03  0.25500000920E-02 0. -1.
       -2    1    3    3    0  502 -0.48952464142E+03 -0.19332640613E+03 -0.13281135410E+04  0.14285989821E+04  0.25500000920E-02 0.  1.
</event>
<event>
 5   0  0.2689675E-04  0.1607458E+04  0.7818609E-02  0.8815980E-01
        1   -1    0    0  501    0  0.00000000000E+00  0.00000000000E+00  0.38910020419E+03  0.38910020422E+03  0.50400001928E-02 0. -1.
       -1   -1    0    0    0  501  0.00000000000E+00  0.00000000000E+00 -0.16601892395E+04  0.16601892395E+04  0.50400001928E-02 0.  1.
    10030    2    1    2    0    0  0.00000000000E+00  0.00000000000E+00 -0.12710890353E+04  0.20492894437E+04  0.16074575853E+04 0.  0.
        1    1    3    3  502    0  0.61574563404E+03  0.21938377241E+03 -0.12317502694E+04  0.13944463602E+04  0.50400001928E-02 0.  1.
       -1    1    3    3    0  502 -0.61574563404E+03 -0.21938377241E+03 -0.39338765902E+02  0.65484308346E+03  0.50400001928E-02 0. -1.
</event>
<event>
 5   0  0.1908125E-04  0.1554624E+04  0.7818609E-02  0.8848920E-01
        4   -1    0    0  501    0  0.00000000000E+00  0.00000000000E+00  0.83008840092E+03  0.83008937244E+03  0.12699999809E+01 0.  1.
       -4   -1    0    0    0  501  0.00000000000E+00  0.00000000000E+00 -0.72788912632E+03  0.72789023425E+03  0.12699999809E+01 0. -1.
    10030    2    1    2    0    0  0.00000000000E+00  0.00000000000E+00  0.10219927460E+03  0.15579796067E+04  0.15546239941E+04 0.  0.
        5    1    3    3  502    0  0.53950531254E+03  0.37411218125E+03  0.46812997058E+03  0.80634587230E+03  0.46999998093E+01 0.  1.
       -5    1    3    3    0  502 -0.53950531254E+03 -0.37411218125E+03 -0.36593069598E+03  0.75163373439E+03  0.46999998093E+01 0. -1.
</event>
<event>
 5   0  0.5131239E-04  0.1606750E+04  0.7818609E-02  0.8816412E-01
       -2   -1    0    0    0  501  0.00000000000E+00  0.00000000000E+00  0.52366836184E+03  0.52366836185E+03  0.25500000920E-02 0. -1.
        2   -1    0    0  501    0  0.00000000000E+00  0.00000000000E+00 -0.12324818683E+04  0.12324818683E+04  0.25500000920E-02 0.  1.
    10030    2    1    2    0    0  0.00000000000E+00  0.00000000000E+00 -0.70881350642E+03  0.17561502301E+04  0.16067504610E+04 0.  0.
        1    1    3    3  502    0  0.30918204940E+03 -0.30135375033E+03  0.38608722708E+03  0.57919855788E+03  0.50400001928E-02 0. -1.
       -1    1    3    3    0  502 -0.30918204940E+03  0.30135375033E+03 -0.10949007335E+04  0.11769516722E+04  0.50400001928E-02 0.  1.
</event>
<event>
 5   0  0.2763895E-04  0.1619200E+04  0.7818609E-02  0.8808839E-01
       -1   -1    0    0    0  501  0.00000000000E+00  0.00000000000E+00  0.10608195462E+04  0.10608195462E+04  0.50400001928E-02 0.  1.
        1   -1    0    0  501    0  0.00000000000E+00  0.00000000000E+00 -0.61787321221E+03  0.61787321223E+03  0.50400001928E-02 0. -1.
    10030    2    1    2    0    0  0.00000000000E+00  0.00000000000E+00  0.44294633398E+03  0.16786927584E+04  0.16191997784E+04 0.  0.
        4    1    3    3  502    0  0.38965370771E+03  0.70963147783E+03  0.21463369665E+03  0.83754169024E+03  0.12699999809E+01 0. -1.
       -4    1    3    3    0  502 -0.38965370771E+03 -0.70963147783E+03  0.22831263733E+03  0.84115106819E+03  0.12699999809E+01 0.  1.
</event>
<event>
 5   0  0.2649086E-04  0.1618546E+04  0.7818609E-02  0.8809235E-01
       -1   -1    0    0    0  501  0.00000000000E+00  0.00000000000E+00  0.73176769992E+03  0.73176769994E+03  0.50400001928E-02 0.  1.
        1   -1    0    0  501    0  0.00000000000E+00  0.00000000000E+00 -0.89498743970E+03  0.89498743971E+03  0.50400001928E-02 0. -1.
    10030    2    1    2    0    0  0.00000000000E+00  0.00000000000E+00 -0.16321973978E+03  0.16267551397E+04  0.16185461380E+04 0.  0.
        2    1    3    3  502    0  0.31394759940E+02  0.18830722523E+03  0.70881229765E+03  0.73407091982E+03  0.25500000920E-02 0.  1.
       -2    1    3    3    0  502 -0.31394759940E+02 -0.18830722523E+03 -0.87203203743E+03  0.89268421983E+03  0.25500000920E-02 0. -1.
</event>
<event>
 5   0  0.5315984E-04  0.1408662E+04  0.7818609E-02  0.8947572E-01
        2   -1    0    0  501    0  0.00000000000E+00  0.00000000000E+00  0.15176212348E+04  0.15176212348E+04  0.25500000920E-02 0.  1.
       -2   -1    0    0    0  501  0.00000000000E+00  0.00000000000E+00 -0.32688135921E+03  0.32688135922E+03  0.25500000920E-02 0. -1.
    10030    2    1    2    0    0  0.00000000000E+00  0.00000000000E+00  0.11907398756E+04  0.18445025940E+04  0.14086619069E+04 0.  0.
        2    1    3    3  502    0  0.51642738509E+03  0.28789380615E+03  0.10965505738E+04  0.12457942241E+04  0.25500000920E-02 0.  1.
       -2    1    3    3    0  502 -0.51642738509E+03 -0.28789380615E+03  0.94189301747E+02  0.59870836996E+03  0.25500000920E-02 0. -1.
</event>
<event>
 5   0  0.2796994E-04  0.1604637E+04  0.7818609E-02  0.8817704E-01
       -1   -1    0    0    0  501  0.00000000000E+00  0.00000000000E+00  0.15092910010E+04  0.15092910011E+04  0.50400001928E-02 0. -1.
        1   -1    0    0  501    0  0.00000000000E+00  0.00000000000E+00 -0.42650179134E+03  0.42650179137E+03  0.50400001928E-02 0.  1.
    10030    2    1    2    0    0  0.00000000000E+00  0.00000000000E+00  0.10827892097E+04  0.19357927924E+04  0.16046374240E+04 0.  0.
        3    1    3    3  502    0  0.73508454008E+03 -0.32128753724E+03  0.52710313129E+03  0.95990243455E+03  0.10100000352E+00 0. -1.
       -3    1    3    3    0  502 -0.73508454008E+03  0.32128753724E+03  0.55568607841E+03  0.97589035787E+03  0.10100000352E+00 0.  1.
</event>
<event>
 5   0  0.5381164E-04  0.1573664E+04  0.7818609E-02  0.8836893E-01
       -2   -1    0    0    0  501  0.00000000000E+00  0.00000000000E+00  0.34767545533E+03  0.34767545534E+03  0.25500000920E-02 0.  1.
        2   -1    0    0  501    0  0.00000000000E+00  0.00000000000E+00 -0.17806969592E+04  0.17806969592E+04  0.25500000920E-02 0. -1.
    10030    2    1    2    0    0  0.00000000000E+00  0.00000000000E+00 -0.14330215038E+04  0.21283724145E+04  0.15736640380E+04 0.  0.
        5    1    3    3  502    0 -0.32443782721E+03  0.71668752006E+03 -0.69828310826E+03  0.10519136345E+04  0.46999998093E+01 0. -1.
       -5    1    3    3    0  502  0.32443782721E+03 -0.71668752006E+03 -0.73473839558E+03  0.10764587800E+04  0.46999998093E+01 0.  1.
</event>
<event>
 5   0  0.2796994E-04  0.1445586E+04  0.7818609E-02  0.8921466E-01
        1   -1    0    0  501    0  0.00000000000E+00  0.00000000000E+00  0.93180789696E+03  0.93180789697E+03  0.50400001928E-02 0. -1.
       -1   -1    0    0    0  501  0.00000000000E+00  0.00000000000E+00 -0.56066252263E+03  0.56066252265E+03  0.50400001928E-02 0.  1.
    10030    2    1    2    0    0  0.00000000000E+00  0.00000000000E+00  0.37114537433E+03  0.14924704196E+04  0.14455860627E+04 0.  0.
        3    1    3    3  502    0 -0.26593640399E+03  0.31091928171E+03 -0.42960199864E+03  0.59325446323E+03  0.10100000352E+00 0.  1.
       -3    1    3    3    0  502  0.26593640399E+03 -0.31091928171E+03  0.80074737297E+03  0.89921595639E+03  0.10100000352E+00 0. -1.
</event>
<event>
 5   0  0.5315984E-04  0.1638948E+04  0.7818609E-02  0.8796972E-01
       -2   -1    0    0    0  501  0.00000000000E+00  0.00000000000E+00  0.51125022347E+03  0.51125022347E+03  0.25500000920E-02 0. -1.
        2   -1    0    0  501    0  0.00000000000E+00  0.00000000000E+00 -0.13135199476E+04  0.13135199476E+04  0.25500000920E-02 0.  1.
    10030    2    1    2    0    0  0.00000000000E+00  0.00000000000E+00 -0.80226972416E+03  0.18247701711E+04  0.16389476706E+04 0.  0.
        2    1    3    3  502    0  0.54294903239E+03  0.22287781867E+03  0.23560627016E+03  0.63243852537E+03  0.25500000920E-02 0. -1.
       -2    1    3    3    0  502 -0.54294903239E+03 -0.22287781867E+03 -0.10378759943E+04  0.11923316457E+04  0.25500000920E-02 0.  1.
</event>
<event>
 5   0  0.5315984E-04  0.1775659E+04  0.7818609E-02  0.8719352E-01
        2   -1    0    0  501    0  0.00000000000E+00  0.00000000000E+00  0.10706727630E+04  0.10706727630E+04  0.25500000920E-02 0.  1.
       -2   -1    0    0    0  501  0.00000000000E+00  0.00000000000E+00 -0.73621086237E+03  0.73621086238E+03  0.25500000920E-02 0. -1.
    10030    2    1    2    0    0  0.00000000000E+00  0.00000000000E+00  0.33446190062E+03  0.18068836254E+04  0.17756586588E+04 0.  0.
        2    1    3    3  502    0 -0.67365486850E+03 -0.47141524188E+03 -0.17361857024E+03  0.84034910607E+03  0.25500000920E-02 0. -1.
       -2    1    3    3    0  502  0.67365486850E+03  0.47141524188E+03  0.50808047086E+03  0.96653451930E+03  0.25500000920E-02 0.  1.
</event>
<event>
 5   0  0.2689675E-04  0.1472875E+04  0.7818609E-02  0.8902694E-01
       -1   -1    0    0    0  501  0.00000000000E+00  0.00000000000E+00  0.81735136442E+03  0.81735136444E+03  0.50400001928E-02 0. -1.
        1   -1    0    0  501    0  0.00000000000E+00  0.00000000000E+00 -0.66353341753E+03  0.66353341755E+03  0.50400001928E-02 0.  1.
    10030    2    1    2    0    0  0.00000000000E+00  0.00000000000E+00  0.15381794689E+03  0.14808847820E+04  0.14728746643E+04 0.  0.
        1    1    3    3  502    0  0.15775864148E+03 -0.21149955226E+03 -0.61437662678E+03  0.66863928177E+03  0.50400001928E-02 0.  1.
       -1    1    3    3    0  502 -0.15775864148E+03  0.21149955226E+03  0.76819457367E+03  0.81224550021E+03  0.50400001928E-02 0. -1.
</event>
<event>
 5   0  0.5264308E-04  0.1610332E+04  0.7818609E-02  0.8814226E-01
        2   -1    0    0  501    0  0.00000000000E+00  0.00000000000E+00  0.10316775301E+04  0.10316775301E+04  0.25500000920E-02 0. -1.
       -2   -1    0    0    0  501  0.00000000000E+00  0.00000000000E+00 -0.62838648507E+03  0.62838648507E+03  0.25500000920E-02 0.  1.
    10030    2    1    2    0    0  0.00000000000E+00  0.00000000000E+00  0.40329104507E+03  0.16600640152E+04  0.16103319122E+04 0.  0.
        3    1    3    3  502    0 -0.13038417996E+03 -0.73005455072E+03 -0.12158611459E+03  0.75150706908E+03  0.10100000352E+00 0.  1.
       -3    1    3    3    0  502  0.13038417996E+03  0.73005455072E+03  0.52487715966E+03  0.90855694612E+03  0.10100000352E+00 0. -1.
</event>
<event>
 5   0  0.5315984E-04  0.1398313E+04  0.7818609E-02  0.8955040E-01
        2   -1    0    0  501    0  0.00000000000E+00  0.00000000000E+00  0.98963169448E+03  0.98963169448E+03  0.25500000920E-02 0. -1.
       -2   -1    0    0    0  501  0.00000000000E+00  0.00000000000E+00 -0.49394136490E+03  0.49394136491E+03  0.25500000920E-02 0.  1.
    10030    2    1    2    0    0  0.00000000000E+00  0.00000000000E+00  0.49569032958E+03  0.14835730594E+04  0.13983133124E+04 0.  0.
        2    1    3    3  502    0  0.50111466711E+02  0.58805824342E+03  0.64552814308E+03  0.87466007126E+03  0.25500000920E-02 0.  1.
       -2    1    3    3    0  502 -0.50111466711E+02 -0.58805824342E+03 -0.14983781350E+03  0.60891298813E+03  0.25500000920E-02 0. -1.
</event>
<event>
 5   0  0.2796994E-04  0.1599130E+04  0.7818609E-02  0.8821083E-01
        1   -1    0    0  501    0  0.00000000000E+00  0.00000000000E+00  0.48297829560E+03  0.48297829562E+03  0.50400001928E-02 0. -1.
       -1   -1    0    0    0  501  0.00000000000E+00  0.00000000000E+00 -0.13236706338E+04  0.13236706339E+04  0.50400001928E-02 0.  1.
    10030    2    1    2    0    0  0.00000000000E+00  0.00000000000E+00 -0.84069233825E+03  0.18066489295E+04  0.15991299968E+04 0.  0.
        3    1    3    3  502    0  0.54488163138E+03 -0.38672815383E+03  0.75788160191E+02  0.67245707119E+03  0.10100000352E+00 0. -1.
       -3    1    3    3    0  502 -0.54488163138E+03  0.38672815383E+03 -0.91648049844E+03  0.11341918583E+04  0.10100000352E+00 0.  1.
</event>
<event>
 5   0  0.2796994E-04  0.1609100E+04  0.7818609E-02  0.8814977E-01
        1   -1    0    0  501    0  0.00000000000E+00  0.00000000000E+00  0.95440105501E+03  0.95440105503E+03  0.50400001928E-02 0. -1.
       -1   -1    0    0    0  501  0.00000000000E+00  0.00000000000E+00 -0.67822739344E+03  0.67822739346E+03  0.50400001928E-02 0.  1.
    10030    2    1    2    0    0  0.00000000000E+00  0.00000000000E+00  0.27617366158E+03  0.16326284485E+04  0.16091002950E+04 0.  0.
        3    1    3    3  502    0 -0.51147698284E+03  0.34786887112E+03 -0.38390580604E+03  0.72801451468E+03  0.10100000352E+00 0.  1.
       -3    1    3    3    0  502  0.51147698284E+03 -0.34786887112E+03  0.66007946761E+03  0.90461393381E+03  0.10100000352E+00 0. -1.
</event>
<event>
 5   0  0.2763895E-04  0.1697088E+04  0.7818609E-02  0.8763027E-01
        1   -1    0    0  501    0  0.00000000000E+00  0.00000000000E+00  0.23912895559E+04  0.23912895559E+04  0.50400001928E-02 0. -1.
       -1   -1    0    0    0  501  0.00000000000E+00  0.00000000000E+00 -0.30110415648E+03  0.30110415652E+03  0.50400001928E-02 0.  1.
    10030    2    1    2    0    0  0.00000000000E+00  0.00000000000E+00  0.20901853994E+04  0.26923937124E+04  0.16970883591E+04 0.  0.
        4    1    3    3  502    0  0.73251978937E+03 -0.38410047954E+03  0.74446788049E+03  0.11128128586E+04  0.12699999809E+01 0.  1.
       -4    1    3    3    0  502 -0.73251978937E+03  0.38410047954E+03  0.13457175189E+04  0.15795808538E+04  0.12699999809E+01 0. -1.
</event>
<event>
 5   0  0.5264308E-04  0.1617384E+04  0.7818609E-02  0.8809939E-01
        2   -1    0    0  501    0  0.00000000000E+00  0.00000000000E+00  0.15966473488E+04  0.15966473488E+04  0.25500000920E-02 0. -1.
       -2   -1    0    0    0  501  0.00000000000E+00  0.00000000000E+00 -0.40959770745E+03  0.40959770745E+03  0.25500000920E-02 0.  1.
    10030    2    1    2    0    0  0.00000000000E+00  0.00000000000E+00  0.11870496414E+04  0.20062450563E+04  0.16173844239E+04 0.  0.
        3    1    3    3  502    0 -0.65169360121E+03 -0.43729127870E+03  0.35154683818E+03  0.85994965080E+03  0.10100000352E+00 0.  1.
       -3    1    3    3    0  502  0.65169360121E+03  0.43729127870E+03  0.83550280322E+03  0.11462954055E+04  0.10100000352E+00 0. -1.
</event>
<event>
 5   0  0.5315984E-04  0.1596109E+04  0.7818609E-02  0.8822942E-01
        2   -1    0    0  501    0  0.00000000000E+00  0.00000000000E+00  0.13623499360E+04  0.13623499360E+04  0.25500000920E-02 0. -1.
       -2   -1    0    0    0  501  0.00000000000E+00  0.00000000000E+00 -0.46749431884E+03  0.46749431885E+03  0.25500000920E-02 0.  1.
    10030    2    1    2    0    0  0.00000000000E+00  0.00000000000E+00  0.89485561715E+03  0.18298442548E+04  0.15961088376E+04 0.  0.
        2    1    3    3  502    0 -0.32700767995E+03  0.70798638618E+03  0.64168816266E+03  0.10099219989E+04  0.25500000920E-02 0.  1.
       -2    1    3    3    0  502  0.32700767995E+03 -0.70798638618E+03  0.25316745449E+03  0.81992225593E+03  0.25500000920E-02 0. -1.
</event>
<event>
 5   0  0.5083831E-04  0.1591418E+04  0.7818609E-02  0.8825838E-01
        2   -1    0    0  501    0  0.00000000000E+00  0.00000000000E+00  0.14046655875E+04  0.14046655876E+04  0.25500000920E-02 0.  1.
       -2   -1    0    0    0  501  0.00000000000E+00  0.00000000000E+00 -0.45074984120E+03  0.45074984121E+03  0.25500000920E-02 0. -1.
    10030    2    1    2    0    0  0.00000000000E+00  0.00000000000E+00  0.95391574635E+03  0.18554154288E+04  0.15914179722E+04 0.  0.
        4    1    3    3  502    0 -0.78524781439E+03  0.23333636867E+02  0.32951754332E+03  0.85190493183E+03  0.12699999809E+01 0. -1.
       -4    1    3    3    0  502  0.78524781439E+03 -0.23333636867E+02  0.62439820302E+03  0.10035104969E+04  0.12699999809E+01 0.  1.
</event>
<event>
 5   0  0.2649086E-04  0.1580108E+04  0.7818609E-02  0.8832863E-01
       -1   -1    0    0    0  501  0.00000000000E+00  0.00000000000E+00  0.37316262456E+03  0.37316262459E+03  0.50400001928E-02 0. -1.
        1   -1    0    0  501    0  0.00000000000E+00  0.00000000000E+00 -0.16726891639E+04  0.16726891639E+04  0.50400001928E-02 0.  1.
    10030    2    1    2    0    0  0.00000000000E+00  0.00000000000E+00 -0.12995265393E+04  0.20458517885E+04  0.15801076906E+04 0.  0.
        2    1    3    3  502    0  0.44361528077E+02  0.59684184310E+03 -0.13175315838E+04  0.14470928115E+04  0.25500000920E-02 0.  1.
       -2    1    3    3    0  502 -0.44361528077E+02 -0.59684184310E+03  0.18005044490E+02  0.59875897695E+03  0.25500000920E-02 0. -1.
</event>
<event>
 5   0  0.1908125E-04  0.1593363E+04  0.7818609E-02  0.8824636E-01
        3   -1    0    0  501    0  0.00000000000E+00  0.00000000000E+00  0.78254738057E+03  0.78254738709E+03  0.10100000352E+00 0. -1.
       -3   -1    0    0    0  501  0.00000000000E+00  0.00000000000E+00 -0.81107046118E+03  0.81107046747E+03  0.10100000352E+00 0.  1.
    10030    2    1    2    0    0  0.00000000000E+00  0.00000000000E+00 -0.28523080607E+02  0.15936178546E+04  0.15933625765E+04 0.  0.
        5    1    3    3  502    0  0.27530171303E+03  0.25588798772E+03 -0.71680506482E+03  0.80938327534E+03  0.46999998093E+01 0.  1.
       -5    1    3    3    0  502 -0.27530171303E+03 -0.25588798772E+03  0.68828198421E+03  0.78423457922E+03  0.46999998093E+01 0. -1.
</event>
<event>
 5   0  0.5264308E-04  0.1338114E+04  0.7818609E-02  0.8999874E-01
        2   -1    0    0  501    0  0.00000000000E+00  0.00000000000E+00  0.92887468378E+03  0.92887468379E+03  0.25500000920E-02 0.  1.
       -2   -1    0    0    0  501  0.00000000000E+00  0.00000000000E+00 -0.48191376591E+03  0.48191376592E+03  0.25500000920E-02 0. -1.
    10030    2    1    2    0    0  0.00000000000E+00  0.00000000000E+00  0.44696091787E+03  0.14107884497E+04  0.13381143403E+04 0.  0.
        3    1    3    3  502    0  0.47126350438E+03  0.20850731153E+03  0.67335490186E+03  0.84792182633E+03  0.10100000352E+00 0.  1.
       -3    1    3    3    0  502 -0.47126350438E+03 -0.20850731153E+03 -0.22639398398E+03  0.56286662337E+03  0.10100000352E+00 0. -1.
</event>
<event>
 5   0  0.5315984E-04  0.1648844E+04  0.7818609E-02  0.8791091E-01
       -2   -1    0    0    0  501  0.00000000000E+00  0.00000000000E+00  0.57116765537E+03  0.57116765538E+03  0.25500000920E-02 0. -1.
        2   -1    0    0  501    0  0.00000000000E+00  0.00000000000E+00 -0.11899681632E+04  0.11899681632E+04  0.25500000920E-02 0.  1.
    10030    2    1    2    0    0  0.00000000000E+00  0.00000000000E+00 -0.61880050786E+03  0.17611358186E+04  0.16488436260E+04 0.  0.
        2    1    3    3  502    0  0.71770139612E+03  0.40567828285E+03 -0.31055192474E+03  0.88097256548E+03  0.25500000920E-02 0.  1.
       -2    1    3    3    0  502 -0.71770139612E+03 -0.40567828285E+03 -0.30824858312E+03  0.88016325313E+03  0.25500000920E-02 0. -1.
</event>
<event>
 5   0  0.2689675E-04  0.1598813E+04  0.7818609E-02  0.8821278E-01
        1   -1    0    0  501    0  0.00000000000E+00  0.00000000000E+00  0.87874357978E+03  0.87874357980E+03  0.50400001928E-02 0. -1.
       -1   -1    0    0    0  501  0.00000000000E+00  0.00000000000E+00 -0.72723209825E+03  0.72723209826E+03  0.50400001928E-02 0.  1.
    10030    2    1    2    0    0  0.00000000000E+00  0.00000000000E+00  0.15151148154E+03  0.16059756781E+04  0.15988127312E+04 0.  0.
        1    1    3    3  502    0  0.51332096627E+02  0.79735798818E+03  0.50427859764E+02  0.80059834782E+03  0.50400001928E-02 0.  1.
       -1    1    3    3    0  502 -0.51332096627E+02 -0.79735798818E+03  0.10108362177E+03  0.80537733025E+03  0.50400001928E-02 0. -1.
</event>
<event>
 5   0  0.2796994E-04  0.1605565E+04  0.7818609E-02  0.8817136E-01
        1   -1    0    0  501    0  0.00000000000E+00  0.00000000000E+00  0.50755513889E+03  0.50755513891E+03  0.50400001928E-02 0. -1.
       -1   -1    0    0    0  501  0.00000000000E+00  0.00000000000E+00 -0.12697337594E+04  0.12697337594E+04  0.50400001928E-02 0.  1.
    10030    2    1    2    0    0  0.00000000000E+00  0.00000000000E+00 -0.76217862051E+03  0.17772888983E+04  0.16055651898E+04 0.  0.
        3    1    3    3  502    0 -0.54838359523E+03 -0.30076735984E+02  0.26705235638E+03  0.61069317076E+03  0.10100000352E+00 0. -1.
       -3    1    3    3    0  502  0.54838359523E+03  0.30076735984E+02 -0.10292309769E+04  0.11665957276E+04  0.10100000352E+00 0.  1.
</event>
<event>
 5   0  0.2763895E-04  0.1613507E+04  0.7818609E-02  0.8812293E-01
        1   -1    0    0  501    0  0.00000000000E+00  0.00000000000E+00  0.10515263215E+04  0.10515263215E+04  0.50400001928E-02 0. -1.
       -1   -1    0    0    0  501  0.00000000000E+00  0.00000000000E+00 -0.61895867946E+03  0.61895867948E+03  0.50400001928E-02 0.  1.
    10030    2    1    2    0    0  0.00000000000E+00  0.00000000000E+00  0.43256764200E+03  0.16704850009E+04  0.16135071656E+04 0.  0.
        4    1    3    3  502    0  0.61013898084E+03 -0.12669550062E+03 -0.31418496216E+03  0.69787902187E+03  0.12699999809E+01 0.  1.
       -4    1    3    3    0  502 -0.61013898084E+03  0.12669550062E+03  0.74675260416E+03  0.97260597908E+03  0.12699999809E+01 0. -1.
</event>
<event>
 5   0  0.2796994E-04  0.1603801E+04  0.7818609E-02  0.8818216E-01
       -1   -1    0    0    0  501  0.00000000000E+00  0.00000000000E+00  0.54285253908E+03  0.54285253910E+03  0.50400001928E-02 0. -1.
        1   -1    0    0  501    0  0.00000000000E+00  0.00000000000E+00 -0.11845656316E+04  0.11845656317E+04  0.50400001928E-02 0.  1.
    10030    2    1    2    0    0  0.00000000000E+00  0.00000000000E+00 -0.64171309257E+03  0.17274181708E+04  0.16038010611E+04 0.  0.
        3    1    3    3  502    0 -0.55981175737E+03  0.46239333492E+03 -0.68745497814E+03  0.99989557306E+03  0.10100000352E+00 0.  1.
       -3    1    3    3    0  502  0.55981175737E+03 -0.46239333492E+03  0.45741885568E+02  0.72752259770E+03  0.10100000352E+00 0. -1.
</event>
<event>
 5   0  0.5264308E-04  0.1600983E+04  0.7818609E-02  0.8819944E-01
        2   -1    0    0  501    0  0.00000000000E+00  0.00000000000E+00  0.95849094602E+03  0.95849094602E+03  0.25500000920E-02 0. -1.
       -2   -1    0    0    0  501  0.00000000000E+00  0.00000000000E+00 -0.66853703035E+03  0.66853703036E+03  0.25500000920E-02 0.  1.
    10030    2    1    2    0    0  0.00000000000E+00  0.00000000000E+00  0.28995391567E+03  0.16270279764E+04  0.16009830613E+04 0.  0.
        3    1    3    3  502    0  0.56696992268E+01 -0.77264567635E+02  0.95467206741E+03  0.95781038071E+03  0.10100000352E+00 0. -1.
       -3    1    3    3    0  502 -0.56696992268E+01  0.77264567635E+02 -0.66471815174E+03  0.66921759567E+03  0.10100000352E+00 0.  1.
</event>
<event>
 5   0  0.2649086E-04  0.1600536E+04  0.7818609E-02  0.8820219E-01
       -1   -1    0    0    0  501  0.00000000000E+00  0.00000000000E+00  0.53481885843E+03  0.53481885845E+03  0.50400001928E-02 0. -1.
        1   -1    0    0  501    0  0.00000000000E+00  0.00000000000E+00 -0.11974683179E+04  0.11974683179E+04  0.50400001928E-02 0.  1.
    10030    2    1    2    0    0  0.00000000000E+00  0.00000000000E+00 -0.66264945947E+03  0.17322871764E+04  0.16005357088E+04 0.  0.
        2    1    3    3  502    0  0.17713001238E+03 -0.76484593686E+03 -0.16342845801E+03  0.80191845552E+03  0.25500000920E-02 0. -1.
       -2    1    3    3    0  502 -0.17713001238E+03  0.76484593686E+03 -0.49922100147E+03  0.93036872085E+03  0.25500000920E-02 0.  1.
</event>
<event>
 5   0  0.5131239E-04  0.1621088E+04  0.7818609E-02  0.8807697E-01
        2   -1    0    0  501    0  0.00000000000E+00  0.00000000000E+00  0.57193465946E+03  0.57193465947E+03  0.25500000920E-02 0.  1.
       -2   -1    0    0    0  501  0.00000000000E+00  0.00000000000E+00 -0.11487005498E+04  0.11487005498E+04  0.25500000920E-02 0. -1.
    10030    2    1    2    0    0  0.00000000000E+00  0.00000000000E+00 -0.57676589034E+03  0.17206352093E+04  0.16210881010E+04 0.  0.
        1    1    3    3  502    0 -0.54757911977E+03 -0.57266219881E+03 -0.46974632571E+03  0.92111155508E+03  0.50400001928E-02 0.  1.
       -1    1    3    3    0  502  0.54757911977E+03  0.57266219881E+03 -0.10701956463E+03  0.79952365418E+03  0.50400001928E-02 0. -1.
</event>
<event>
 5   0  0.2649086E-04  0.1623429E+04  0.7818609E-02  0.8806283E-01
        1   -1    0    0  501    0  0.00000000000E+00  0.00000000000E+00  0.53257511742E+03  0.53257511745E+03  0.50400001928E-02 0. -1.
       -1   -1    0    0    0  501  0.00000000000E+00  0.00000000000E+00 -0.12371591339E+04  0.12371591339E+04  0.50400001928E-02 0.  1.
    10030    2    1    2    0    0  0.00000000000E+00  0.00000000000E+00 -0.70458401650E+03  0.17697342514E+04  0.16234286816E+04 0.  0.
        2    1    3    3  502    0  0.60674908367E+03  0.22449638135E+02  0.23499080337E+03  0.65105231315E+03  0.25500000920E-02 0. -1.
       -2    1    3    3    0  502 -0.60674908367E+03 -0.22449638135E+02 -0.93957481987E+03  0.11186819382E+04  0.25500000920E-02 0.  1.
</event>
<event>
 5   0  0.2796994E-04  0.1622336E+04  0.7818609E-02  0.8806942E-01
        1   -1    0    0  501    0  0.00000000000E+00  0.00000000000E+00  0.11835891669E+04  0.11835891669E+04  0.50400001928E-02 0. -1.
       -1   -1    0    0    0  501  0.00000000000E+00  0.00000000000E+00 -0.55593066508E+03  0.55593066510E+03  0.50400001928E-02 0.  1.
    10030    2    1    2    0    0  0.00000000000E+00  0.00000000000E+00  0.62765850178E+03  0.17395198320E+04  0.16223359858E+04 0.  0.
        3    1    3    3  502    0 -0.49749614868E+03 -0.32863260139E+03  0.90354851191E+03  0.10825440999E+04  0.10100000352E+00 0. -1.
       -3    1    3    3    0  502  0.49749614868E+03  0.32863260139E+03 -0.27589001013E+03  0.65697573207E+03  0.10100000352E+00 0.  1.
</event>
<event>
 5   0  0.5131239E-04  0.1553608E+04  0.7818609E-02  0.8849567E-01
        2   -1    0    0  501    0  0.00000000000E+00  0.00000000000E+00  0.90719883094E+03  0.90719883095E+03  0.25500000920E-02 0. -1.
       -2   -1    0    0    0  501  0.00000000000E+00  0.00000000000E+00 -0.66515091934E+03  0.66515091935E+03  0.25500000920E-02 0.  1.
    10030    2    1    2    0    0  0.00000000000E+00  0.00000000000E+00  0.24204791160E+03  0.15723497503E+04  0.15536075907E+04 0.  0.
        1    1    3    3  502    0 -0.52291828992E+03  0.39741295595E+03 -0.29876113285E+03  0.72155305420E+03  0.50400001928E-02 0. -1.
       -1    1    3    3    0  502  0.52291828992E+03 -0.39741295595E+03  0.54080904445E+03  0.85079669609E+03  0.50400001928E-02 0.  1.
</event>
<event>
 5   0  0.2763895E-04  0.1601754E+04  0.7818609E-02  0.8819471E-01
       -1   -1    0    0    0  501  0.00000000000E+00  0.00000000000E+00  0.55351498719E+03  0.55351498721E+03  0.50400001928E-02 0.  1.
        1   -1    0    0  501    0  0.00000000000E+00  0.00000000000E+00 -0.11587830237E+04  0.11587830237E+04  0.50400001928E-02 0. -1.
    10030    2    1    2    0    0  0.00000000000E+00  0.00000000000E+00 -0.60526803649E+03  0.17122980109E+04  0.16017537520E+04 0.  0.
        4    1    3    3  502    0 -0.35175962267E+02 -0.79421544812E+03 -0.40620509263E+03  0.89275960736E+03  0.12699999809E+01 0. -1.
       -4    1    3    3    0  502  0.35175962267E+02  0.79421544812E+03 -0.19906294386E+03  0.81953840354E+03  0.12699999809E+01 0.  1.
</event>
<event>
 5   0  0.5315984E-04  0.1576738E+04  0.7818609E-02  0.8834967E-01
       -2   -1    0    0    0  501  0.00000000000E+00  0.00000000000E+00  0.75291920183E+03  0.75291920183E+03  0.25500000920E-02 0.  1.
        2   -1    0    0  501    0  0.00000000000E+00  0.00000000000E+00 -0.82548804836E+03  0.82548804836E+03  0.25500000920E-02 0. -1.
    10030    2    1    2    0    0  0.00000000000E+00  0.00000000000E+00 -0.72568846525E+02  0.15784072502E+04  0.15767381552E+04 0.  0.
        2    1    3    3  502    0 -0.40030364220E+03 -0.47709586686E+03  0.44761359309E+03  0.76695593149E+03  0.25500000920E-02 0.  1.
       -2    1    3    3    0  502  0.40030364220E+03  0.47709586686E+03 -0.52018243962E+03  0.81145131870E+03  0.25500000920E-02 0. -1.
</event>
<event>
 5   0  0.2730707E-04  0.1431404E+04  0.7818609E-02  0.8931395E-01
       -1   -1    0    0    0  501  0.00000000000E+00  0.00000000000E+00  0.52088797399E+03  0.52088797401E+03  0.50400001928E-02 0.  1.
        1   -1    0    0  501    0  0.00000000000E+00  0.00000000000E+00 -0.98337774030E+03  0.98337774032E+03  0.50400001928E-02 0. -1.
    10030    2    1    2    0    0  0.00000000000E+00  0.00000000000E+00 -0.46248976631E+03  0.15042657143E+04  0.14314043997E+04 0.  0.
        5    1    3    3  502    0 -0.12713522365E+03 -0.45900867222E+03 -0.79262253810E+03  0.92472963842E+03  0.46999998093E+01 0. -1.
       -5    1    3    3    0  502  0.12713522365E+03  0.45900867222E+03  0.33013277179E+03  0.57953607591E+03  0.46999998093E+01 0.  1.
</event>
<event>
 5   0  0.5264308E-04  0.1588143E+04  0.7818609E-02  0.8827865E-01
        2   -1    0    0  501    0  0.00000000000E+00  0.00000000000E+00  0.16450661647E+04  0.16450661647E+04  0.25500000920E-02 0.  1.
       -2   -1    0    0    0  501  0.00000000000E+00  0.00000000000E+00 -0.38329740287E+03  0.38329740287E+03  0.25500000920E-02 0. -1.
    10030    2    1    2    0    0  0.00000000000E+00  0.00000000000E+00  0.12617687619E+04  0.20283635676E+04  0.15881430521E+04 0.  0.
        3    1    3    3  502    0  0.74755561910E+03 -0.26112131597E+03  0.70672241222E+03  0.10613577735E+04  0.10100000352E+00 0.  1.
       -3    1    3    3    0  502 -0.74755561910E+03  0.26112131597E+03  0.55504634963E+03  0.96700579406E+03  0.10100000352E+00 0. -1.
</event>
<event>
 5   0  0.2649086E-04  0.1755408E+04  0.7818609E-02  0.8730379E-01
        1   -1    0    0  501    0  0.00000000000E+00  0.00000000000E+00  0.10815907532E+04  0.10815907532E+04  0.50400001928E-02 0.  1.
       -1   -1    0    0    0  501  0.00000000000E+00  0.00000000000E+00 -0.71225093617E+03  0.71225093619E+03  0.50400001928E-02 0. -1.
    10030    2    1    2    0    0  0.00000000000E+00  0.00000000000E+00  0.36933981705E+03  0.17938416894E+04  0.17554076752E+04 0.  0.
        2    1    3    3  502    0 -0.61088882191E+03  0.17006791499E+03  0.80479728583E+03  0.10246008587E+04  0.25500000920E-02 0.  1.
       -2    1    3    3    0  502  0.61088882191E+03 -0.17006791499E+03 -0.43545746878E+03  0.76924083067E+03  0.25500000920E-02 0. -1.
</event>
<event>
 5   0  0.5315984E-04  0.1604318E+04  0.7818609E-02  0.8817900E-01
       -2   -1    0    0    0  501  0.00000000000E+00  0.00000000000E+00  0.84868061418E+03  0.84868061418E+03  0.25500000920E-02 0.  1.
        2   -1    0    0  501    0  0.00000000000E+00  0.00000000000E+00 -0.75818756619E+03  0.75818756619E+03  0.25500000920E-02 0. -1.
    10030    2    1    2    0    0  0.00000000000E+00  0.00000000000E+00  0.90493047990E+02  0.16068681804E+04  0.16043180350E+04 0.  0.
        2    1    3    3  502    0  0.15785329071E+03 -0.66829037762E+02  0.83012171618E+03  0.84763544366E+03  0.25500000920E-02 0.  1.
       -2    1    3    3    0  502 -0.15785329071E+03  0.66829037762E+02 -0.73962866819E+03  0.75923273671E+03  0.25500000920E-02 0. -1.
</event>
<event>
 5   0  0.5131239E-04  0.1616163E+04  0.7818609E-02  0.8810680E-01
        2   -1    0    0  501    0  0.00000000000E+00  0.00000000000E+00  0.87000950352E+03  0.87000950353E+03  0.25500000920E-02 0.  1.
       -2   -1    0    0    0  501  0.00000000000E+00  0.00000000000E+00 -0.75056114887E+03  0.75056114887E+03  0.25500000920E-02 0. -1.
    10030    2    1    2    0    0  0.00000000000E+00  0.00000000000E+00  0.11944835465E+03  0.16205706524E+04  0.16161625320E+04 0.  0.
        1    1    3    3  502    0  0.69190210891E+03 -0.32241094030E+03  0.32562284358E+03  0.82988407565E+03  0.50400001928E-02 0.  1.
       -1    1    3    3    0  502 -0.69190210891E+03  0.32241094030E+03 -0.20617448893E+03  0.79068657675E+03  0.50400001928E-02 0. -1.
</event>
<event>
 5   0  0.2796994E-04  0.1594844E+04  0.7818609E-02  0.8823722E-01
       -1   -1    0    0    0  501  0.00000000000E+00  0.00000000000E+00  0.10727507640E+04  0.10727507640E+04  0.50400001928E-02 0.  1.
        1   -1    0    0  501    0  0.00000000000E+00  0.00000000000E+00 -0.59275834522E+03  0.59275834524E+03  0.50400001928E-02 0. -1.
    10030    2    1    2    0    0  0.00000000000E+00  0.00000000000E+00  0.47999241874E+03  0.16655091092E+04  0.15948441525E+04 0.  0.
        3    1    3    3  502    0  0.29767103674E+03  0.11391052390E+03  0.10033408481E+04  0.10527471307E+04  0.10100000352E+00 0.  1.
       -3    1    3    3    0  502 -0.29767103674E+03 -0.11391052390E+03 -0.52334842936E+03  0.61276197849E+03  0.10100000352E+00 0. -1.
</event>
<event>
 5   0  0.2763895E-04  0.1561785E+04  0.7818609E-02  0.8844375E-01
       -1   -1    0    0    0  501  0.00000000000E+00  0.00000000000E+00  0.77888378831E+03  0.77888378833E+03  0.50400001928E-02 0. -1.
        1   -1    0    0  501    0  0.00000000000E+00  0.00000000000E+00 -0.78290634783E+03  0.78290634785E+03  0.50400001928E-02 0.  1.
    10030    2    1    2    0    0  0.00000000000E+00  0.00000000000E+00 -0.40225595226E+01  0.15617901362E+04  0.15617849559E+04 0.  0.
        4    1    3    3  502    0  0.34192208577E+03  0.35421008577E+03  0.60413918752E+03  0.77933386196E+03  0.12699999809E+01 0. -1.
       -4    1    3    3    0  502 -0.34192208577E+03 -0.35421008577E+03 -0.60816174705E+03  0.78245627422E+03  0.12699999809E+01 0.  1.
</event>
<event>
 5   0  0.5315984E-04  0.1643609E+04  0.7818609E-02  0.8794196E-01
       -2   -1    0    0    0  501  0.00000000000E+00  0.00000000000E+00  0.37706280211E+03  0.37706280212E+03  0.25500000920E-02 0. -1.
        2   -1    0    0  501    0  0.00000000000E+00  0.00000000000E+00 -0.17911139889E+04  0.17911139889E+04  0.25500000920E-02 0.  1.
    10030    2    1    2    0    0  0.00000000000E+00  0.00000000000E+00 -0.14140511868E+04  0.21681767910E+04  0.16436087850E+04 0.  0.
        2    1    3    3  502    0 -0.74159907799E+03 -0.33594481785E+03 -0.85471423100E+03  0.11804086283E+04  0.25500000920E-02 0.  1.
       -2    1    3    3    0  502  0.74159907799E+03  0.33594481785E+03 -0.55933695579E+03  0.98776816270E+03  0.25500000920E-02 0. -1.
</event>
<event>
 5   0  0.5083831E-04  0.1585476E+04  0.7818609E-02  0.8829521E-01
        2   -1    0    0  501    0  0.00000000000E+00  0.00000000000E+00  0.12848171188E+04  0.12848171188E+04  0.25500000920E-02 0. -1.
       -2   -1    0    0    0  501  0.00000000000E+00  0.00000000000E+00 -0.48912281860E+03  0.48912281860E+03  0.25500000920E-02 0.  1.
    10030    2    1    2    0    0  0.00000000000E+00  0.00000000000E+00  0.79569430018E+03  0.17739399374E+04  0.15854757904E+04 0.  0.
        4    1    3    3  502    0  0.61300142293E+03 -0.38817100071E+03  0.40536526384E+02  0.72669958936E+03  0.12699999809E+01 0.  1.
       -4    1    3    3    0  502 -0.61300142293E+03  0.38817100071E+03  0.75515777380E+03  0.10472403480E+04  0.12699999809E+01 0. -1.
</event>
<event>
 5   0  0.5264308E-04  0.1567909E+04  0.7818609E-02  0.8840509E-01
       -2   -1    0    0    0  501  0.00000000000E+00  0.00000000000E+00  0.56163623769E+03  0.56163623770E+03  0.25500000920E-02 0. -1.
        2   -1    0    0  501    0  0.00000000000E+00  0.00000000000E+00 -0.10942750230E+04  0.10942750230E+04  0.25500000920E-02 0.  1.
    10030    2    1    2    0    0  0.00000000000E+00  0.00000000000E+00 -0.53263878531E+03  0.16559112607E+04  0.15679088072E+04 0.  0.
        3    1    3    3  502    0 -0.38721723517E+03 -0.61308100695E+03  0.48362211922E+02  0.72673545534E+03  0.10100000352E+00 0. -1.
       -3    1    3    3    0  502  0.38721723517E+03  0.61308100695E+03 -0.58100099724E+03  0.92917580537E+03  0.10100000352E+00 0.  1.
</event>
<event>
 5   0  0.5381164E-04  0.1598406E+04  0.7818609E-02  0.8821528E-01
        2   -1    0    0  501    0  0.00000000000E+00  0.00000000000E+00  0.22761188288E+04  0.22761188288E+04  0.25500000920E-02 0.  1.
       -2   -1    0    0    0  501  0.00000000000E+00  0.00000000000E+00 -0.28062026108E+03  0.28062026110E+03  0.25500000920E-02 0. -1.
    10030    2    1    2    0    0  0.00000000000E+00  0.00000000000E+00  0.19954985677E+04  0.25567390899E+04  0.15984055305E+04 0.  0.
        5    1    3    3  502    0  0.48229791594E+03 -0.48758469404E+03  0.34143828488E+03  0.76612812633E+03  0.46999998093E+01 0. -1.
       -5    1    3    3    0  502 -0.48229791594E+03  0.48758469404E+03  0.16540602828E+04  0.17906109636E+04  0.46999998093E+01 0.  1.
</event>
<event>
 5   0  0.2763895E-04  0.1622371E+04  0.7818609E-02  0.8806922E-01
        1   -1    0    0  501    0  0.00000000000E+00  0.00000000000E+00  0.84424517799E+03  0.84424517801E+03  0.50400001928E-02 0.  1.
       -1   -1    0    0    0  501  0.00000000000E+00  0.00000000000E+00 -0.77942009999E+03  0.77942010000E+03  0.50400001928E-02 0. -1.
    10030    2    1    2    0    0  0.00000000000E+00  0.00000000000E+00  0.64825078005E+02  0.16236652780E+04  0.16223706865E+04 0.  0.
        4    1    3    3  502    0 -0.24565619107E+03  0.65022379239E+03  0.45093531492E+03  0.82854222315E+03  0.12699999809E+01 0.  1.
       -4    1    3    3    0  502  0.24565619107E+03 -0.65022379239E+03 -0.38611023692E+03  0.79512305485E+03  0.12699999809E+01 0. -1.
</event>
<event>
 5   0  0.2730707E-04  0.1586333E+04  0.7818609E-02  0.8828988E-01
        1   -1    0    0  501    0  0.00000000000E+00  0.00000000000E+00  0.21576307362E+04  0.21576307363E+04  0.50400001928E-02 0.  1.
       -1   -1    0    0    0  501  0.00000000000E+00  0.00000000000E+00 -0.29157584275E+03  0.29157584279E+03  0.50400001928E-02 0. -1.
    10030    2    1    2    0    0  0.00000000000E+00  0.00000000000E+00  0.18660548935E+04  0.24492065790E+04  0.15863328785E+04 0.  0.
        5    1    3    3  502    0  0.60282828008E+03 -0.44833213492E+03  0.54034588503E+03  0.92541850205E+03  0.46999998093E+01 0. -1.
       -5    1    3    3    0  502 -0.60282828008E+03  0.44833213492E+03  0.13257090085E+04  0.15237880770E+04  0.46999998093E+01 0.  1.
</event>
<event>
 5   0  0.2689675E-04  0.1559259E+04  0.7818609E-02  0.8845976E-01
        1   -1    0    0  501    0  0.00000000000E+00  0.00000000000E+00  0.11564562934E+04  0.11564562935E+04  0.50400001928E-02 0. -1.
       -1   -1    0    0    0  501  0.00000000000E+00  0.00000000000E+00 -0.52558992581E+03  0.52558992584E+03  0.50400001928E-02 0.  1.
    10030    2    1    2    0    0  0.00000000000E+00  0.00000000000E+00  0.63086636763E+03  0.16820462193E+04  0.15592585129E+04 0.  0.
        1    1    3    3  502    0 -0.25898075311E+02 -0.39022572765E+02  0.11549374045E+04  0.11558866207E+04  0.50400001928E-02 0. -1.
       -1    1    3    3    0  502  0.25898075311E+02  0.39022572765E+02 -0.52407103688E+03  0.52615959861E+03  0.50400001928E-02 0.  1.
</event>
<event>
 5   0  0.5083831E-04  0.1579037E+04  0.7818609E-02  0.8833531E-01
        2   -1    0    0  501    0  0.00000000000E+00  0.00000000000E+00  0.47518796744E+03  0.47518796744E+03  0.25500000920E-02 0.  1.
       -2   -1    0    0    0  501  0.00000000000E+00  0.00000000000E+00 -0.13117750016E+04  0.13117750016E+04  0.25500000920E-02 0. -1.
    10030    2    1    2    0    0  0.00000000000E+00  0.00000000000E+00 -0.83658703417E+03  0.17869629691E+04  0.15790372975E+04 0.  0.
        4    1    3    3  502    0 -0.62050869314E+03 -0.23937299864E+03  0.63179091987E+02  0.66807460759E+03  0.12699999809E+01 0.  1.
       -4    1    3    3    0  502  0.62050869314E+03  0.23937299864E+03 -0.89976612616E+03  0.11188883615E+04  0.12699999809E+01 0. -1.
</event>
<event>
 5   0  0.5083831E-04  0.1605594E+04  0.7818609E-02  0.8817119E-01
       -2   -1    0    0    0  501  0.00000000000E+00  0.00000000000E+00  0.10621066350E+04  0.10621066350E+04  0.25500000920E-02 0. -1.
        2   -1    0    0  501    0  0.00000000000E+00  0.00000000000E+00 -0.60679682541E+03  0.60679682542E+03  0.25500000920E-02 0.  1.
    10030    2    1    2    0    0  0.00000000000E+00  0.00000000000E+00  0.45530980958E+03  0.16689034604E+04  0.16055938893E+04 0.  0.
        4    1    3    3  502    0 -0.48329979029E+02 -0.79430010863E+03  0.11749059600E+03  0.80439673203E+03  0.12699999809E+01 0. -1.
       -4    1    3    3    0  502  0.48329979029E+02  0.79430010863E+03  0.33781921358E+03  0.86450672838E+03  0.12699999809E+01 0.  1.
</event>
<event>
 5   0  0.1908125E-04  0.1601558E+04  0.7818609E-02  0.8819592E-01
        3   -1    0    0  501    0  0.00000000000E+00  0.00000000000E+00  0.69003703919E+03  0.69003704659E+03  0.10100000352E+00 0.  1.
       -3   -1    0    0    0  501  0.00000000000E+00  0.00000000000E+00 -0.92929346063E+03  0.92929346612E+03  0.10100000352E+00 0. -1.
    10030    2    1    2    0    0  0.00000000000E+00  0.00000000000E+00 -0.23925642144E+03  0.16193305127E+04  0.16015578897E+04 0.  0.
        4    1    3    3  502    0 -0.20948438935E+03 -0.20266211335E+03  0.63449681549E+03  0.69824312624E+03  0.12699999809E+01 0.  1.
       -4    1    3    3    0  502  0.20948438935E+03  0.20266211335E+03 -0.87375323693E+03  0.92108738647E+03  0.12699999809E+01 0. -1.
</event>
<event>
 5   0  0.5315984E-04  0.1602872E+04  0.7818609E-02  0.8818786E-01
       -2   -1    0    0    0  501  0.00000000000E+00  0.00000000000E+00  0.44780865593E+03  0.44780865593E+03  0.25500000920E-02 0. -1.
        2   -1    0    0  501    0  0.00000000000E+00  0.00000000000E+00 -0.14343163941E+04  0.14343163941E+04  0.25500000920E-02 0.  1.
    10030    2    1    2    0    0  0.00000000000E+00  0.00000000000E+00 -0.98650773814E+03  0.18821250500E+04  0.16028715440E+04 0.  0.
        2    1    3    3  502    0 -0.46193304371E+03 -0.61676049936E+03 -0.23459553884E+03  0.80548787533E+03  0.25500000920E-02 0.  1.
       -2    1    3    3    0  502  0.46193304371E+03  0.61676049936E+03 -0.75191219930E+03  0.10766371747E+04  0.25500000920E-02 0. -1.
</event>
<event>
 5   0  0.2649086E-04  0.1604366E+04  0.7818609E-02  0.8817871E-01
       -1   -1    0    0    0  501  0.00000000000E+00  0.00000000000E+00  0.17782516965E+04  0.17782516965E+04  0.50400001928E-02 0. -1.
        1   -1    0    0  501    0  0.00000000000E+00  0.00000000000E+00 -0.36187071250E+03  0.36187071253E+03  0.50400001928E-02 0.  1.
    10030    2    1    2    0    0  0.00000000000E+00  0.00000000000E+00  0.14163809840E+04  0.21401224091E+04  0.16043655549E+04 0.  0.
        2    1    3    3  502    0  0.21033034417E+03  0.29905791258E+03 -0.24426541136E+03  0.43970453710E+03  0.25500000920E-02 0.  1.
       -2    1    3    3    0  502 -0.21033034417E+03 -0.29905791258E+03  0.16606463954E+04  0.17004178720E+04  0.25500000920E-02 0. -1.
</event>
<event>
 5   0  0.2796994E-04  0.1593511E+04  0.7818609E-02  0.8824544E-01
       -1   -1    0    0    0  501  0.00000000000E+00  0.00000000000E+00  0.50533361873E+03  0.50533361876E+03  0.50400001928E-02 0. -1.
        1   -1    0    0  501    0  0.00000000000E+00  0.00000000000E+00 -0.12562382590E+04  0.12562382590E+04  0.50400001928E-02 0.  1.
    10030    2    1    2    0    0  0.00000000000E+00  0.00000000000E+00 -0.75090464026E+03  0.17615718778E+04  0.15935111238E+04 0.  0.
        3    1    3    3  502    0  0.21456061965E+03 -0.64517189956E+03  0.83730472035E+02  0.68505024753E+03  0.10100000352E+00 0. -1.
       -3    1    3    3    0  502 -0.21456061965E+03  0.64517189956E+03 -0.83463511230E+03  0.10765216302E+04  0.10100000352E+00 0.  1.
</event>
<event>
 5   0  0.5381164E-04  0.1602064E+04  0.7818609E-02  0.8819281E-01
        2   -1    0    0  501    0  0.00000000000E+00  0.00000000000E+00  0.15833344931E+04  0.15833344931E+04  0.25500000920E-02 0.  1.
       -2   -1    0    0    0  501  0.00000000000E+00  0.00000000000E+00 -0.40525361080E+03  0.40525361081E+03  0.25500000920E-02 0. -1.
    10030    2    1    2    0    0  0.00000000000E+00  0.00000000000E+00  0.11780808823E+04  0.19885881039E+04  0.16020636946E+04 0.  0.
        5    1    3    3  502    0 -0.13450112205E+03  0.42396003193E+03  0.14159487799E+04  0.14841717211E+04  0.46999998093E+01 0.  1.
       -5    1    3    3    0  502  0.13450112205E+03 -0.42396003193E+03 -0.23786789760E+03  0.50441638278E+03  0.46999998093E+01 0. -1.
</event>
<event>
 5   0  0.5131239E-04  0.1606302E+04  0.7818609E-02  0.8816686E-01
        2   -1    0    0  501    0  0.00000000000E+00  0.00000000000E+00  0.61349547714E+03  0.61349547715E+03  0.25500000920E-02 0.  1.
       -2   -1    0    0    0  501  0.00000000000E+00  0.00000000000E+00 -0.10514366910E+04  0.10514366910E+04  0.25500000920E-02 0. -1.
    10030    2    1    2    0    0  0.00000000000E+00  0.00000000000E+00 -0.43794121383E+03  0.16649321681E+04  0.16063021564E+04 0.  0.
        1    1    3    3  502    0  0.38217207432E+03 -0.38483062692E+03 -0.83296152096E+03  0.99396931604E+03  0.50400001928E-02 0. -1.
       -1    1    3    3    0  502 -0.38217207432E+03  0.38483062692E+03  0.39502030713E+03  0.67096285208E+03  0.50400001928E-02 0.  1.
</event>
<event>
 5   0  0.2763895E-04  0.1577948E+04  0.7818609E-02  0.8834211E-01
        1   -1    0    0  501    0  0.00000000000E+00  0.00000000000E+00  0.73819142621E+03  0.73819142623E+03  0.50400001928E-02 0. -1.
       -1   -1    0    0    0  501  0.00000000000E+00  0.00000000000E+00 -0.84324974717E+03  0.84324974719E+03  0.50400001928E-02 0.  1.
    10030    2    1    2    0    0  0.00000000000E+00  0.00000000000E+00 -0.10505832096E+03  0.15814411734E+04  0.15779476969E+04 0.  0.
        4    1    3    3  502    0 -0.69976422298E+03 -0.32746122804E+03 -0.21281227066E+03  0.80136851640E+03  0.12699999809E+01 0.  1.
       -4    1    3    3    0  502  0.69976422298E+03  0.32746122804E+03  0.10775394970E+03  0.78007265701E+03  0.12699999809E+01 0. -1.
</event>
<event>
 5   0  0.2763895E-04  0.1596328E+04  0.7818609E-02  0.8822807E-01
        1   -1    0    0  501    0  0.00000000000E+00  0.00000000000E+00  0.99148230417E+03  0.99148230418E+03  0.50400001928E-02 0.  1.
       -1   -1    0    0    0  501  0.00000000000E+00  0.00000000000E+00 -0.64253849054E+03  0.64253849056E+03  0.50400001928E-02 0. -1.
    10030    2    1    2    0    0  0.00000000000E+00  0.00000000000E+00  0.34894381363E+03  0.16340207947E+04  0.15963277147E+04 0.  0.
        4    1    3    3  502    0 -0.55691126660E+03 -0.57053117808E+03  0.13606329963E+03  0.80880827050E+03  0.12699999809E+01 0.  1.
       -4    1    3    3    0  502  0.55691126660E+03  0.57053117808E+03  0.21288051400E+03  0.82521252424E+03  0.12699999809E+01 0. -1.
</event>
<event>
 5   0  0.2730707E-04  0.1610420E+04  0.7818609E-02  0.8814172E-01
        1   -1    0    0  501    0  0.00000000000E+00  0.00000000000E+00  0.98563395141E+03  0.98563395142E+03  0.50400001928E-02 0. -1.
       -1   -1    0    0    0  501  0.00000000000E+00  0.00000000000E+00 -0.65781335234E+03  0.65781335236E+03  0.50400001928E-02 0.  1.
    10030    2    1    2    0    0  0.00000000000E+00  0.00000000000E+00  0.32782059907E+03  0.16434473038E+04  0.16104200369E+04 0.  0.
        5    1    3    3  502    0  0.73732649261E+03 -0.25990422090E+03  0.36058143518E+03  0.86095390245E+03  0.46999998093E+01 0. -1.
       -5    1    3    3    0  502 -0.73732649261E+03  0.25990422090E+03 -0.32760836110E+02  0.78249340133E+03  0.46999998093E+01 0.  1.
</event>
<event>
 5   0  0.5083831E-04  0.1598951E+04  0.7818609E-02  0.8821192E-01
       -2   -1    0    0    0  501  0.00000000000E+00  0.00000000000E+00  0.22261567076E+03  0.22261567078E+03  0.25500000920E-02 0. -1.
        2   -1    0    0  501    0  0.00000000000E+00  0.00000000000E+00 -0.28711427630E+04  0.28711427630E+04  0.25500000920E-02 0.  1.
    10030    2    1    2    0    0  0.00000000000E+00  0.00000000000E+00 -0.26485270922E+04  0.30937584337E+04  0.15989513714E+04 0.  0.
        4    1    3    3  502    0  0.73202797580E+03  0.22763094892E+03 -0.88526205369E+03  0.11710556446E+04  0.12699999809E+01 0.  1.
       -4    1    3    3    0  502 -0.73202797580E+03 -0.22763094892E+03 -0.17632650385E+04  0.19227027891E+04  0.12699999809E+01 0. -1.
</event>
<event>
 5   0  0.2730707E-04  0.1578294E+04  0.7818609E-02  0.8833995E-01
        1   -1    0    0  501    0  0.00000000000E+00  0.00000000000E+00  0.11604218516E+04  0.11604218516E+04  0.50400001928E-02 0. -1.
       -1   -1    0    0    0  501  0.00000000000E+00  0.00000000000E+00 -0.53666095377E+03  0.53666095380E+03  0.50400001928E-02 0.  1.
    10030    2    1    2    0    0  0.00000000000E+00  0.00000000000E+00  0.62376089779E+03  0.16970828054E+04  0.15782941395E+04 0.  0.
        5    1    3    3  502    0  0.35922409210E+03 -0.33522107499E+03  0.97586433705E+03  0.10925879424E+04  0.46999998093E+01 0. -1.
       -5    1    3    3    0  502 -0.35922409210E+03  0.33522107499E+03 -0.35210343926E+03  0.60449486301E+03  0.46999998093E+01 0.  1.
</event>
<event>
 5   0  0.5264308E-04  0.1617202E+04  0.7818609E-02  0.8810049E-01
       -2   -1    0    0    0  501  0.00000000000E+00  0.00000000000E+00  0.33148751572E+03  0.33148751573E+03  0.25500000920E-02 0. -1.
        2   -1    0    0  501    0  0.00000000000E+00  0.00000000000E+00 -0.19724295773E+04  0.19724295773E+04  0.25500000920E-02 0.  1.
    10030    2    1    2    0    0  0.00000000000E+00  0.00000000000E+00 -0.16409420616E+04  0.23039170930E+04  0.16172022515E+04 0.  0.
        3    1    3    3  502    0  0.35050523307E+03 -0.37100646515E+03  0.73008049018E+02  0.51558694807E+03  0.10100000352E+00 0. -1.
       -3    1    3    3    0  502 -0.35050523307E+03  0.37100646515E+03 -0.17139501106E+04  0.17883301449E+04  0.10100000352E+00 0.  1.
</event>
<event>
 5   0  0.5264308E-04  0.1573399E+04  0.7818609E-02  0.8837059E-01
       -2   -1    0    0    0  501  0.00000000000E+00  0.00000000000E+00  0.64197386681E+03  0.64197386682E+03  0.25500000920E-02 0.  1.
        2   -1    0    0  501    0  0.00000000000E+00  0.00000000000E+00 -0.96405137162E+03  0.96405137163E+03  0.25500000920E-02 0. -1.
    10030    2    1    2    0    0  0.00000000000E+00  0.00000000000E+00 -0.32207750481E+03  0.16060252384E+04  0.15733985978E+04 0.  0.
        3    1    3    3  502    0 -0.59201160629E+03 -0.51453067843E+03 -0.99149662608E+02  0.79060118064E+03  0.10100000352E+00 0. -1.
       -3    1    3    3    0  502  0.59201160629E+03  0.51453067843E+03 -0.22292784220E+03  0.81542405781E+03  0.10100000352E+00 0.  1.
</event>
<event>
 5   0  0.1908125E-04  0.1607498E+04  0.7818609E-02  0.8815955E-01
        3   -1    0    0  501    0  0.00000000000E+00  0.00000000000E+00  0.72113911586E+03  0.72113912293E+03  0.10100000352E+00 0.  1.
       -3   -1    0    0    0  501  0.00000000000E+00  0.00000000000E+00 -0.89582169358E+03  0.89582169928E+03  0.10100000352E+00 0. -1.
    10030    2    1    2    0    0  0.00000000000E+00  0.00000000000E+00 -0.17468257772E+03  0.16169608222E+04  0.16074975265E+04 0.  0.
        3    1    3    3  502    0 -0.46777192897E+03 -0.10671399209E+03  0.56129095580E+03  0.73840774705E+03  0.10100000352E+00 0.  1.
       -3    1    3    3    0  502  0.46777192897E+03  0.10671399209E+03 -0.73597353352E+03  0.87855307516E+03  0.10100000352E+00 0. -1.
</event>
<event>
 5   0  0.2730707E-04  0.1620621E+04  0.7818609E-02  0.8807979E-01
        1   -1    0    0  501    0  0.00000000000E+00  0.00000000000E+00  0.10344794929E+04  0.10344794929E+04  0.50400001928E-02 0. -1.
       -1   -1    0    0    0  501  0.00000000000E+00  0.00000000000E+00 -0.63471817671E+03  0.63471817673E+03  0.50400001928E-02 0.  1.
    10030    2    1    2    0    0  0.00000000000E+00  0.00000000000E+00  0.39976131621E+03  0.16691976697E+04  0.16206207917E+04 0.  0.
        5    1    3    3  502    0  0.30635351538E+03  0.21795857436E+03 -0.53942451422E+03  0.65754035090E+03  0.46999998093E+01 0.  1.
       -5    1    3    3    0  502 -0.30635351538E+03 -0.21795857436E+03  0.93918583043E+03  0.10116573188E+04  0.46999998093E+01 0. -1.
</event>
<event>
 5   0  0.5264308E-04  0.1605641E+04  0.7818609E-02  0.8817090E-01
       -2   -1    0    0    0  501  0.00000000000E+00  0.00000000000E+00  0.45869783590E+03  0.45869783591E+03  0.25500000920E-02 0. -1.
        2   -1    0    0  501    0  0.00000000000E+00  0.00000000000E+00 -0.14051100095E+04  0.14051100095E+04  0.25500000920E-02 0.  1.
    10030    2    1    2    0    0  0.00000000000E+00  0.00000000000E+00 -0.94641217357E+03  0.18638078454E+04  0.16056412059E+04 0.  0.
        3    1    3    3  502    0 -0.64409128139E+03 -0.46363566216E+03 -0.61398859472E+03  0.10033910557E+04  0.10100000352E+00 0. -1.
       -3    1    3    3    0  502  0.64409128139E+03  0.46363566216E+03 -0.33242357885E+03  0.86041678968E+03  0.10100000352E+00 0.  1.
</event>
<event>
 5   0  0.1908125E-04  0.1603832E+04  0.7818609E-02  0.8818197E-01
        3   -1    0    0  501    0  0.00000000000E+00  0.00000000000E+00  0.64970008653E+03  0.64970009438E+03  0.10100000352E+00 0.  1.
       -3   -1    0    0    0  501  0.00000000000E+00  0.00000000000E+00 -0.98979410376E+03  0.98979410892E+03  0.10100000352E+00 0. -1.
    10030    2    1    2    0    0  0.00000000000E+00  0.00000000000E+00 -0.34009401724E+03  0.16394942033E+04  0.16038320679E+04 0.  0.
        5    1    3    3  502    0  0.50206513461E+03  0.54367868994E+03  0.14567540770E+03  0.75425415591E+03  0.46999998093E+01 0. -1.
       -5    1    3    3    0  502 -0.50206513461E+03 -0.54367868994E+03 -0.48576942494E+03  0.88524004739E+03  0.46999998093E+01 0.  1.
</event>
<event>
 5   0  0.5315984E-04  0.1601151E+04  0.7818609E-02  0.8819841E-01
       -2   -1    0    0    0  501  0.00000000000E+00  0.00000000000E+00  0.15148423268E+04  0.15148423268E+04  0.25500000920E-02 0.  1.
        2   -1    0    0  501    0  0.00000000000E+00  0.00000000000E+00 -0.42309420209E+03  0.42309420210E+03  0.25500000920E-02 0. -1.
    10030    2    1    2    0    0  0.00000000000E+00  0.00000000000E+00  0.10917481247E+04  0.19379365289E+04  0.16011508431E+04 0.  0.
        2    1    3    3  502    0 -0.78577983667E+03  0.14928171383E+03  0.50419153976E+03  0.94548616625E+03  0.25500000920E-02 0. -1.
       -2    1    3    3    0  502  0.78577983667E+03 -0.14928171383E+03  0.58755658495E+03  0.99245036265E+03  0.25500000920E-02 0.  1.
</event>
<event>
 5   0  0.5131239E-04  0.1586109E+04  0.7818609E-02  0.8829127E-01
        2   -1    0    0  501    0  0.00000000000E+00  0.00000000000E+00  0.15738886840E+04  0.15738886840E+04  0.25500000920E-02 0.  1.
       -2   -1    0    0    0  501  0.00000000000E+00  0.00000000000E+00 -0.39960612325E+03  0.39960612326E+03  0.25500000920E-02 0. -1.
    10030    2    1    2    0    0  0.00000000000E+00  0.00000000000E+00  0.11742825608E+04  0.19734948073E+04  0.15861091456E+04 0.  0.
        1    1    3    3  502    0 -0.46038987751E+03  0.32180663511E+03 -0.10942802931E+03  0.57226990428E+03  0.50400001928E-02 0. -1.
       -1    1    3    3    0  502  0.46038987751E+03 -0.32180663511E+03  0.12837105901E+04  0.14012249030E+04  0.50400001928E-02 0.  1.
</event>
<event>
 5   0  0.2689675E-04  0.1316793E+04  0.7818609E-02  0.9016353E-01
        1   -1    0    0  501    0  0.00000000000E+00  0.00000000000E+00  0.90410820966E+03  0.90410820968E+03  0.50400001928E-02 0. -1.
       -1   -1    0    0    0  501  0.00000000000E+00  0.00000000000E+00 -0.47946226266E+03  0.47946226269E+03  0.50400001928E-02 0.  1.
    10030    2    1    2    0    0  0.00000000000E+00  0.00000000000E+00  0.42464594700E+03  0.13835704724E+04  0.13167927216E+04 0.  0.
        1    1    3    3  502    0  0.56634207092E+03 -0.30064850974E+03  0.55232153382E+02  0.64357086517E+03  0.50400001928E-02 0.  1.
       -1    1    3    3    0  502 -0.56634207092E+03  0.30064850974E+03  0.36941379362E+03  0.73999960719E+03  0.50400001928E-02 0. -1.
</event>
<event>
 5   0  0.5083831E-04  0.1591827E+04  0.7818609E-02  0.8825584E-01
        2   -1    0    0  501    0  0.00000000000E+00  0.00000000000E+00  0.14235543029E+04  0.14235543029E+04  0.25500000920E-02 0. -1.
       -2   -1    0    0    0  501  0.00000000000E+00  0.00000000000E+00 -0.44499791095E+03  0.44499791096E+03  0.25500000920E-02 0.  1.
    10030    2    1    2    0    0  0.00000000000E+00  0.00000000000E+00  0.97855639195E+03  0.18685522139E+04  0.15918274918E+04 0.  0.
        4    1    3    3  502    0  0.32106213076E+03 -0.54378558868E+03  0.10579473788E+04  0.12320868181E+04  0.12699999809E+01 0. -1.
       -4    1    3    3    0  502 -0.32106213076E+03  0.54378558868E+03 -0.79390986823E+02  0.63646539573E+03  0.12699999809E+01 0.  1.
</event>
<event>
 5   0  0.5083831E-04  0.1663029E+04  0.7818609E-02  0.8782736E-01
       -2   -1    0    0    0  501  0.00000000000E+00  0.00000000000E+00  0.30704389414E+03  0.30704389415E+03  0.25500000920E-02 0. -1.
        2   -1    0    0  501    0  0.00000000000E+00  0.00000000000E+00 -0.22518474463E+04  0.22518474463E+04  0.25500000920E-02 0.  1.
    10030    2    1    2    0    0  0.00000000000E+00  0.00000000000E+00 -0.19448035521E+04  0.25588913404E+04  0.16630285733E+04 0.  0.
        4    1    3    3  502    0  0.27094906061E+03 -0.52635920054E+03 -0.18708551972E+04  0.19622864682E+04  0.12699999809E+01 0.  1.
       -4    1    3    3    0  502 -0.27094906061E+03  0.52635920054E+03 -0.73948354910E+02  0.59660487221E+03  0.12699999809E+01 0. -1.
</event>
<event>
 5   0  0.5381164E-04  0.1600542E+04  0.7818609E-02  0.8820215E-01
       -2   -1    0    0    0  501  0.00000000000E+00  0.00000000000E+00  0.93633602407E+03  0.93633602407E+03  0.25500000920E-02 0.  1.
        2   -1    0    0  501    0  0.00000000000E+00  0.00000000000E+00 -0.68397854175E+03  0.68397854176E+03  0.25500000920E-02 0. -1.
    10030    2    1    2    0    0  0.00000000000E+00  0.00000000000E+00  0.25235748232E+03  0.16203145658E+04  0.16005420936E+04 0.  0.
        5    1    3    3  502    0 -0.42630870942E+02 -0.32830898715E+03 -0.61138702558E+03  0.69528437869E+03  0.46999998093E+01 0. -1.
       -5    1    3    3    0  502  0.42630870942E+02  0.32830898715E+03  0.86374450790E+03  0.92503018714E+03  0.46999998093E+01 0.  1.
</event>
<event>
 5   0  0.2763895E-04  0.1588718E+04  0.7818609E-02  0.8827509E-01
       -1   -1    0    0    0  501  0.00000000000E+00  0.00000000000E+00  0.57823887048E+03  0.57823887050E+03  0.50400001928E-02 0. -1.
        1   -1    0    0  501    0  0.00000000000E+00  0.00000000000E+00 -0.10912546108E+04  0.10912546108E+04  0.50400001928E-02 0.  1.
    10030    2    1    2    0    0  0.00000000000E+00  0.00000000000E+00 -0.51301574031E+03  0.16694934813E+04  0.15887175124E+04 0.  0.
        4    1    3    3  502    0  0.39928586200E+03  0.81320449933E+02 -0.97305832791E+03  0.10549342812E+04  0.12699999809E+01 0.  1.
       -4    1    3    3    0  502 -0.39928586200E+03 -0.81320449933E+02  0.46004258760E+03  0.61455920014E+03  0.12699999809E+01 0. -1.
</event>
<event>
 5   0  0.2649086E-04  0.1593900E+04  0.7818609E-02  0.8824304E-01
        1   -1    0    0  501    0  0.00000000000E+00  0.00000000000E+00  0.11994709436E+04  0.11994709436E+04  0.50400001928E-02 0.  1.
       -1   -1    0    0    0  501  0.00000000000E+00  0.00000000000E+00 -0.52950774382E+03  0.52950774384E+03  0.50400001928E-02 0. -1.
    10030    2    1    2    0    0  0.00000000000E+00  0.00000000000E+00  0.66996319980E+03  0.17289786875E+04  0.15938998126E+04 0.  0.
        2    1    3    3  502    0 -0.74171460601E+02  0.78226222960E+03  0.19069163414E+03  0.80857832074E+03  0.25500000920E-02 0. -1.
       -2    1    3    3    0  502  0.74171460601E+02 -0.78226222960E+03  0.47927156566E+03  0.92040036674E+03  0.25500000920E-02 0.  1.
</event>
<event>
 5   0  0.5264308E-04  0.1618198E+04  0.7818609E-02  0.8809445E-01
        2   -1    0    0  501    0  0.00000000000E+00  0.00000000000E+00  0.16284471354E+04  0.16284471354E+04  0.25500000920E-02 0.  1.
       -2   -1    0    0    0  501  0.00000000000E+00  0.00000000000E+00 -0.40200353840E+03  0.40200353841E+03  0.25500000920E-02 0. -1.
    10030    2    1    2    0    0  0.00000000000E+00  0.00000000000E+00  0.12264435970E+04  0.20304506738E+04  0.16181983939E+04 0.  0.
        3    1    3    3  502    0  0.43065533191E+03  0.97271357225E+02 -0.23753490152E+03  0.50134675773E+03  0.10100000352E+00 0. -1.
       -3    1    3    3    0  502 -0.43065533191E+03 -0.97271357225E+02  0.14639784985E+04  0.15291039160E+04  0.10100000352E+00 0.  1.
</event>
<event>
 5   0  0.5131239E-04  0.1614627E+04  0.7818609E-02  0.8811612E-01
       -2   -1    0    0    0  501  0.00000000000E+00  0.00000000000E+00  0.10506947661E+04  0.10506947661E+04  0.25500000920E-02 0.  1.
        2   -1    0    0  501    0  0.00000000000E+00  0.00000000000E+00 -0.62030874097E+03  0.62030874097E+03  0.25500000920E-02 0. -1.
    10030    2    1    2    0    0  0.00000000000E+00  0.00000000000E+00  0.43038602515E+03  0.16710035071E+04  0.16146270746E+04 0.  0.
        1    1    3    3  502    0  0.56547971494E+03  0.32136192334E+02 -0.38018072382E+03  0.68215645247E+03  0.50400001928E-02 0. -1.
       -1    1    3    3    0  502 -0.56547971494E+03 -0.32136192334E+02  0.81056674898E+03  0.98884705462E+03  0.50400001928E-02 0.  1.
</event>
<event>
 5   0  0.5083831E-04  0.1600853E+04  0.7818609E-02  0.8820024E-01
        2   -1    0    0  501    0  0.00000000000E+00  0.00000000000E+00  0.42244259540E+03  0.42244259541E+03  0.25500000920E-02 0.  1.
       -2   -1    0    0    0  501  0.00000000000E+00  0.00000000000E+00 -0.15166144898E+04  0.15166144898E+04  0.25500000920E-02 0. -1.
    10030    2    1    2    0    0  0.00000000000E+00  0.00000000000E+00 -0.10941718944E+04  0.19390570852E+04  0.16008529743E+04 0.  0.
        4    1    3    3  502    0 -0.99292489246E+02  0.32067606431E+03 -0.14272254375E+04  0.14661740002E+04  0.12699999809E+01 0. -1.
       -4    1    3    3    0  502  0.99292489246E+02 -0.32067606431E+03  0.33305354306E+03  0.47288308501E+03  0.12699999809E+01 0.  1.
</event>
<event>
 5   0  0.2796994E-04  0.1589045E+04  0.7818609E-02  0.8827307E-01
        1   -1    0    0  501    0  0.00000000000E+00  0.00000000000E+00  0.13204027553E+04  0.13204027553E+04  0.50400001928E-02 0.  1.
       -1   -1    0    0    0  501  0.00000000000E+00  0.00000000000E+00 -0.47808579369E+03  0.47808579371E+03  0.50400001928E-02 0. -1.
    10030    2    1    2    0    0  0.00000000000E+00  0.00000000000E+00  0.84231696159E+03  0.17984885490E+04  0.15890447436E+04 0.  0.
        3    1    3    3  502    0 -0.27190258496E+03  0.37056629562E+03  0.11546652987E+04  0.12427800921E+04  0.10100000352E+00 0.  1.
       -3    1    3    3    0  502  0.27190258496E+03 -0.37056629562E+03 -0.31234833711E+03  0.55570845688E+03  0.10100000352E+00 0. -1.
</event>
<event>
 5   0  0.2689675E-04  0.1604695E+04  0.7818609E-02  0.8817669E-01
        1   -1    0    0  501    0  0.00000000000E+00  0.00000000000E+00  0.11057229971E+04  0.11057229972E+04  0.50400001928E-02 0. -1.
       -1   -1    0    0    0  501  0.00000000000E+00  0.00000000000E+00 -0.58220897758E+03  0.58220897761E+03  0.50400001928E-02 0.  1.
    10030    2    1    2    0    0  0.00000000000E+00  0.00000000000E+00  0.52351401956E+03  0.16879319748E+04  0.16046954299E+04 0.  0.
        1    1    3    3  502    0  0.49955617668E+03  0.35222344384E+03 -0.28495685779E+03  0.67440206025E+03  0.50400001928E-02 0.  1.
       -1    1    3    3    0  502 -0.49955617668E+03 -0.35222344384E+03  0.80847087735E+03  0.10135299145E+04  0.50400001928E-02 0. -1.
</event>
<event>
 5   0  0.2649086E-04  0.1516996E+04  0.7818609E-02  0.8873229E-01
        1   -1    0    0  501    0  0.00000000000E+00  0.00000000000E+00  0.18609406873E+04  0.18609406873E+04  0.50400001928E-02 0.  1.
       -1   -1    0    0    0  501  0.00000000000E+00  0.00000000000E+00 -0.30915506427E+03  0.30915506431E+03  0.50400001928E-02 0. -1.
    10030    2    1    2    0    0  0.00000000000E+00  0.00000000000E+00  0.15517856231E+04  0.21700957517E+04  0.15169960288E+04 0.  0.
        2    1    3    3  502    0 -0.27619918547E+03 -0.34104347204E+03  0.16608790264E+04  0.17178811892E+04  0.25500000920E-02 0.  1.
       -2    1    3    3    0  502  0.27619918547E+03  0.34104347204E+03 -0.10909340329E+03  0.45221456248E+03  0.25500000920E-02 0. -1.
</event>
<event>
 5   0  0.5131239E-04  0.1590420E+04  0.7818609E-02  0.8826455E-01
       -2   -1    0    0    0  501  0.00000000000E+00  0.00000000000E+00  0.14910264843E+04  0.14910264843E+04  0.25500000920E-02 0. -1.
        2   -1    0    0  501    0  0.00000000000E+00  0.00000000000E+00 -0.42410960033E+03  0.42410960033E+03  0.25500000920E-02 0.  1.
    10030    2    1    2    0    0  0.00000000000E+00  0.00000000000E+00  0.10669168840E+04  0.19151360847E+04  0.15904196256E+04 0.  0.
        1    1    3    3  502    0  0.28387976342E+02  0.76118603942E+03  0.80844354501E+03  0.11107614637E+04  0.50400001928E-02 0. -1.
       -1    1    3    3    0  502 -0.28387976342E+02 -0.76118603942E+03  0.25847333900E+03  0.80437462094E+03  0.50400001928E-02 0.  1.
</event>
<event>
 5   0  0.5083831E-04  0.1599775E+04  0.7818609E-02  0.8820686E-01
        2   -1    0    0  501    0  0.00000000000E+00  0.00000000000E+00  0.17184595438E+04  0.17184595438E+04  0.25500000920E-02 0.  1.
       -2   -1    0    0    0  501  0.00000000000E+00  0.00000000000E+00 -0.37232198012E+03  0.37232198013E+03  0.25500000920E-02 0. -1.
    10030    2    1    2    0    0  0.00000000000E+00  0.00000000000E+00  0.13461375637E+04  0.20907815239E+04  0.15997753094E+04 0.  0.
        4    1    3    3  502    0  0.10420244899E+03 -0.70363051208E+03  0.11512390128E+04  0.13532578932E+04  0.12699999809E+01 0.  1.
       -4    1    3    3    0  502 -0.10420244899E+03  0.70363051208E+03  0.19489855088E+03  0.73752363077E+03  0.12699999809E+01 0. -1.
</event>
<event>
 5   0  0.2730707E-04  0.1601074E+04  0.7818609E-02  0.8819889E-01
       -1   -1    0    0    0  501  0.00000000000E+00  0.00000000000E+00  0.88507455430E+03  0.88507455431E+03  0.50400001928E-02 0.  1.
        1   -1    0    0  501    0  0.00000000000E+00  0.00000000000E+00 -0.72407387859E+03  0.72407387861E+03  0.50400001928E-02 0. -1.
    10030    2    1    2    0    0  0.00000000000E+00  0.00000000000E+00  0.16100067571E+03  0.16091484329E+04  0.16010738464E+04 0.  0.
        5    1    3    3  502    0  0.13806452608E+03 -0.47699425115E+03 -0.55056113443E+03  0.74143440825E+03  0.46999998093E+01 0. -1.
       -5    1    3    3    0  502 -0.13806452608E+03  0.47699425115E+03  0.71156181013E+03  0.86771402468E+03  0.46999998093E+01 0.  1.
</event>
<event>
 5   0  0.5131239E-04  0.1596003E+04  0.7818609E-02  0.8823007E-01
       -2   -1    0    0    0  501  0.00000000000E+00  0.00000000000E+00  0.60284625283E+03  0.60284625283E+03  0.25500000920E-02 0.  1.
        2   -1    0    0  501    0  0.00000000000E+00  0.00000000000E+00 -0.10563327038E+04  0.10563327038E+04  0.25500000920E-02 0. -1.
    10030    2    1    2    0    0  0.00000000000E+00  0.00000000000E+00 -0.45348645095E+03  0.16591789566E+04  0.15960027722E+04 0.  0.
        1    1    3    3  502    0  0.21601891094E+03  0.74189139051E+03 -0.43398112783E+03  0.88623169913E+03  0.50400001928E-02 0. -1.
       -1    1    3    3    0  502 -0.21601891094E+03 -0.74189139051E+03 -0.19505323127E+02  0.77294725749E+03  0.50400001928E-02 0.  1.
</event>
<event>
 5   0  0.2796994E-04  0.1607989E+04  0.7818609E-02  0.8815655E-01
        1   -1    0    0  501    0  0.00000000000E+00  0.00000000000E+00  0.67874830422E+03  0.67874830424E+03  0.50400001928E-02 0. -1.
       -1   -1    0    0    0  501  0.00000000000E+00  0.00000000000E+00 -0.95235223584E+03  0.95235223585E+03  0.50400001928E-02 0.  1.
    10030    2    1    2    0    0  0.00000000000E+00  0.00000000000E+00 -0.27360393162E+03  0.16311005401E+04  0.16079893844E+04 0.  0.
        3    1    3    3  502    0  0.60495837295E+03 -0.45283059782E+03  0.14169326409E+03  0.76883494627E+03  0.10100000352E+00 0. -1.
       -3    1    3    3    0  502 -0.60495837295E+03  0.45283059782E+03 -0.41529719570E+03  0.86226559382E+03  0.10100000352E+00 0.  1.
</event>
<event>
 5   0  0.1908125E-04  0.1595563E+04  0.7818609E-02  0.8823279E-01
       -3   -1    0    0    0  501  0.00000000000E+00  0.00000000000E+00  0.11059722084E+04  0.11059722130E+04  0.10100000352E+00 0.  1.
        3   -1    0    0  501    0  0.00000000000E+00  0.00000000000E+00 -0.57547104543E+03  0.57547105429E+03  0.10100000352E+00 0. -1.
    10030    2    1    2    0    0  0.00000000000E+00  0.00000000000E+00  0.53050116297E+03  0.16814432673E+04  0.15955625896E+04 0.  0.
        2    1    3    3  502    0 -0.55432804873E+03  0.35174452520E+03  0.74291480263E+03  0.99142634653E+03  0.25500000920E-02 0.  1.
       -2    1    3    3    0  502  0.55432804873E+03 -0.35174452520E+03 -0.21241363966E+03  0.69001692077E+03  0.25500000920E-02 0. -1.
</event>
<event>
 5   0  0.2730707E-04  0.1588729E+04  0.7818609E-02  0.8827502E-01
       -1   -1    0    0    0  501  0.00000000000E+00  0.00000000000E+00  0.98755386488E+03  0.98755386489E+03  0.50400001928E-02 0.  1.
        1   -1    0    0  501    0  0.00000000000E+00  0.00000000000E+00 -0.63896756831E+03  0.63896756833E+03  0.50400001928E-02 0. -1.
    10030    2    1    2    0    0  0.00000000000E+00  0.00000000000E+00  0.34858629657E+03  0.16265214332E+04  0.15887289154E+04 0.  0.
        5    1    3    3  502    0  0.57212327707E+03 -0.47781977445E+03  0.45533368665E+03  0.87349163546E+03  0.46999998093E+01 0. -1.
       -5    1    3    3    0  502 -0.57212327707E+03  0.47781977445E+03 -0.10674739008E+03  0.75302979776E+03  0.46999998093E+01 0.  1.
</event>
<event>
 5   0  0.1908125E-04  0.1571037E+04  0.7818609E-02  0.8838541E-01
       -4   -1    0    0    0  501  0.00000000000E+00  0.00000000000E+00  0.57553518592E+03  0.57553658714E+03  0.12699999809E+01 0. -1.
        4   -1    0    0  501    0  0.00000000000E+00  0.00000000000E+00 -0.10721115672E+04  0.10721123194E+04  0.12699999809E+01 0.  1.
    10030    2    1    2    0    0  0.00000000000E+00  0.00000000000E+00 -0.49657638128E+03  0.16476489065E+04  0.15710374969E+04 0.  0.
        1    1    3    3  502    0 -0.60307647974E+03 -0.37674817707E+03 -0.59832950477E+03  0.92932159431E+03  0.50400001928E-02 0.  1.
       -1    1    3    3    0  502  0.60307647974E+03  0.37674817707E+03  0.10175312349E+03  0.71832731224E+03  0.50400001928E-02 0. -1.
</event>
<event>
 5   0  0.5381164E-04  0.1604178E+04  0.7818609E-02  0.8817986E-01
       -2   -1    0    0    0  501  0.00000000000E+00  0.00000000000E+00  0.62813762220E+03  0.62813762220E+03  0.25500000920E-02 0. -1.
        2   -1    0    0  501    0  0.00000000000E+00  0.00000000000E+00 -0.10242124664E+04  0.10242124664E+04  0.25500000920E-02 0.  1.
    10030    2    1    2    0    0  0.00000000000E+00  0.00000000000E+00 -0.39607484418E+03  0.16523500886E+04  0.16041775254E+04 0.  0.
        5    1    3    3  502    0  0.41801264860E+03 -0.24577628427E+03  0.46004075505E+03  0.66843110536E+03  0.46999998093E+01 0. -1.
       -5    1    3    3    0  502 -0.41801264860E+03  0.24577628427E+03 -0.85611559923E+03  0.98391898322E+03  0.46999998093E+01 0.  1.
</event>
<event>
 5   0  0.5083831E-04  0.1593625E+04  0.7818609E-02  0.8824474E-01
       -2   -1    0    0    0  501  0.00000000000E+00  0.00000000000E+00  0.42085633294E+03  0.42085633295E+03  0.25500000920E-02 0. -1.
        2   -1    0    0  501    0  0.00000000000E+00  0.00000000000E+00 -0.15086149692E+04  0.15086149692E+04  0.25500000920E-02 0.  1.
    10030    2    1    2    0    0  0.00000000000E+00  0.00000000000E+00 -0.10877586363E+04  0.19294713022E+04  0.15936250045E+04 0.  0.
        4    1    3    3  502    0 -0.76230960062E+03  0.41900527713E+02 -0.26768916797E+03  0.80903070706E+03  0.12699999809E+01 0.  1.
       -4    1    3    3    0  502  0.76230960062E+03 -0.41900527713E+02 -0.82006946832E+03  0.11204405951E+04  0.12699999809E+01 0. -1.
</event>
<event>
 5   0  0.2689675E-04  0.1286467E+04  0.7818609E-02  0.9040366E-01
       -1   -1    0    0    0  501  0.00000000000E+00  0.00000000000E+00  0.70521908641E+03  0.70521908643E+03  0.50400001928E-02 0. -1.
        1   -1    0    0  501    0  0.00000000000E+00  0.00000000000E+00 -0.58669655922E+03  0.58669655924E+03  0.50400001928E-02 0.  1.
    10030    2    1    2    0    0  0.00000000000E+00  0.00000000000E+00  0.11852252719E+03  0.12919156457E+04  0.12864674291E+04 0.  0.
        1    1    3    3  502    0 -0.57195112028E+03 -0.74225962847E+02  0.34526914994E+03  0.67219667024E+03  0.50400001928E-02 0. -1.
       -1    1    3    3    0  502  0.57195112028E+03  0.74225962847E+02 -0.22674662275E+03  0.61971897543E+03  0.50400001928E-02 0.  1.
</event>
<event>
 5   0  0.5381164E-04  0.1532542E+04  0.7818609E-02  0.8863097E-01
        2   -1    0    0  501    0  0.00000000000E+00  0.00000000000E+00  0.19285352939E+04  0.19285352939E+04  0.25500000920E-02 0. -1.
       -2   -1    0    0    0  501  0.00000000000E+00  0.00000000000E+00 -0.30446488997E+03  0.30446488998E+03  0.25500000920E-02 0.  1.
    10030    2    1    2    0    0  0.00000000000E+00  0.00000000000E+00  0.16240704039E+04  0.22330001839E+04  0.15325420530E+04 0.  0.
        5    1    3    3  502    0 -0.43672708399E+03  0.56351275035E+02 -0.10167181535E+03  0.45195714413E+03  0.46999998093E+01 0.  1.
       -5    1    3    3    0  502  0.43672708399E+03 -0.56351275035E+02  0.17257422193E+04  0.17810430398E+04  0.46999998093E+01 0. -1.
</event>
<event>
 5   0  0.2730707E-04  0.1507993E+04  0.7818609E-02  0.8879155E-01
        1   -1    0    0  501    0  0.00000000000E+00  0.00000000000E+00  0.12329255922E+04  0.12329255922E+04  0.50400001928E-02 0.  1.
       -1   -1    0    0    0  501  0.00000000000E+00  0.00000000000E+00 -0.46110681193E+03  0.46110681195E+03  0.50400001928E-02 0. -1.
    10030    2    1    2    0    0  0.00000000000E+00  0.00000000000E+00  0.77181878030E+03  0.16940324042E+04  0.15079925586E+04 0.  0.
        5    1    3    3  502    0  0.22471877742E+03  0.24592659192E+03 -0.37393166333E+03  0.50082471622E+03  0.46999998093E+01 0. -1.
       -5    1    3    3    0  502 -0.22471877742E+03 -0.24592659192E+03  0.11457504436E+04  0.11932076880E+04  0.46999998093E+01 0.  1.
</event>
<event>
 5   0  0.5264308E-04  0.1594616E+04  0.7818609E-02  0.8823862E-01
       -2   -1    0    0    0  501  0.00000000000E+00  0.00000000000E+00  0.34238800935E+03  0.34238800936E+03  0.25500000920E-02 0.  1.
        2   -1    0    0  501    0  0.00000000000E+00  0.00000000000E+00 -0.18566654664E+04  0.18566654664E+04  0.25500000920E-02 0. -1.
    10030    2    1    2    0    0  0.00000000000E+00  0.00000000000E+00 -0.15142774571E+04  0.21990534758E+04  0.15946159326E+04 0.  0.
        3    1    3    3  502    0  0.68637217103E+03 -0.11571151666E+02 -0.13163925435E+04  0.14846312631E+04  0.10100000352E+00 0. -1.
       -3    1    3    3    0  502 -0.68637217103E+03  0.11571151666E+02 -0.19788491360E+03  0.71442221267E+03  0.10100000352E+00 0.  1.
</event>
<event>
 5   0  0.5381164E-04  0.1601290E+04  0.7818609E-02  0.8819756E-01
       -2   -1    0    0    0  501  0.00000000000E+00  0.00000000000E+00  0.30294338807E+03  0.30294338808E+03  0.25500000920E-02 0. -1.
        2   -1    0    0  501    0  0.00000000000E+00  0.00000000000E+00 -0.21160148376E+04  0.21160148376E+04  0.25500000920E-02 0.  1.
    10030    2    1    2    0    0  0.00000000000E+00  0.00000000000E+00 -0.18130714496E+04  0.24189582257E+04  0.16012903598E+04 0.  0.
        5    1    3    3  502    0  0.61468260627E+03 -0.20189618682E+03 -0.16189607737E+04  0.17434600235E+04  0.46999998093E+01 0.  1.
       -5    1    3    3    0  502 -0.61468260627E+03  0.20189618682E+03 -0.19411067581E+03  0.67549820219E+03  0.46999998093E+01 0. -1.
</event>
<event>
 5   0  0.2763895E-04  0.1595499E+04  0.7818609E-02  0.8823318E-01
       -1   -1    0    0    0  501  0.00000000000E+00  0.00000000000E+00  0.75587934839E+03  0.75587934840E+03  0.50400001928E-02 0.  1.
        1   -1    0    0  501    0  0.00000000000E+00  0.00000000000E+00 -0.84193906957E+03  0.84193906959E+03  0.50400001928E-02 0. -1.
    10030    2    1    2    0    0  0.00000000000E+00  0.00000000000E+00 -0.86059721187E+02  0.15978184180E+04  0.15954991135E+04 0.  0.
        4    1    3    3  502    0 -0.65034050355E+03  0.28745522325E+03  0.31919949303E+03  0.77939925916E+03  0.12699999809E+01 0.  1.
       -4    1    3    3    0  502  0.65034050355E+03 -0.28745522325E+03 -0.40525921422E+03  0.81841915883E+03  0.12699999809E+01 0. -1.
</event>
<event>
 5   0  0.5264308E-04  0.1597428E+04  0.7818609E-02  0.8822130E-01
        2   -1    0    0  501    0  0.00000000000E+00  0.00000000000E+00  0.92424384324E+03  0.92424384324E+03  0.25500000920E-02 0. -1.
       -2   -1    0    0    0  501  0.00000000000E+00  0.00000000000E+00 -0.69023338090E+03  0.69023338091E+03  0.25500000920E-02 0.  1.
    10030    2    1    2    0    0  0.00000000000E+00  0.00000000000E+00  0.23401046234E+03  0.16144772241E+04  0.15974278734E+04 0.  0.
        3    1    3    3  502    0  0.86406085454E+02  0.68987157049E+03 -0.28032572373E+03  0.74964746178E+03  0.10100000352E+00 0.  1.
       -3    1    3    3    0  502 -0.86406085454E+02 -0.68987157049E+03  0.51433618607E+03  0.86482976236E+03  0.10100000352E+00 0. -1.
</event>
<event>
 5   0  0.5315984E-04  0.1598580E+04  0.7818609E-02  0.8821421E-01
       -2   -1    0    0    0  501  0.00000000000E+00  0.00000000000E+00  0.46221945119E+03  0.46221945119E+03  0.25500000920E-02 0. -1.
        2   -1    0    0  501    0  0.00000000000E+00  0.00000000000E+00 -0.13821678535E+04  0.13821678535E+04  0.25500000920E-02 0.  1.
    10030    2    1    2    0    0  0.00000000000E+00  0.00000000000E+00 -0.91994840227E+03  0.18443873046E+04  0.15985804536E+04 0.  0.
        2    1    3    3  502    0 -0.43785060862E+03  0.23591116617E+03  0.26193436650E+03  0.56211817810E+03  0.25500000920E-02 0. -1.
       -2    1    3    3    0  502  0.43785060862E+03 -0.23591116617E+03 -0.11818827688E+04  0.12822691265E+04  0.25500000920E-02 0.  1.
</event>
<event>
 5   0  0.5083831E-04  0.1590491E+04  0.7818609E-02  0.8826411E-01
        2   -1    0    0  501    0  0.00000000000E+00  0.00000000000E+00  0.26011837019E+04  0.26011837019E+04  0.25500000920E-02 0.  1.
       -2   -1    0    0    0  501  0.00000000000E+00  0.00000000000E+00 -0.24312603490E+03  0.24312603492E+03  0.25500000920E-02 0. -1.
    10030    2    1    2    0    0  0.00000000000E+00  0.00000000000E+00  0.23580576670E+04  0.28443097368E+04  0.15904910934E+04 0.  0.
        4    1    3    3  502    0 -0.49731149421E+03 -0.27127686221E+03  0.18092099495E+03  0.59467964280E+03  0.12699999809E+01 0. -1.
       -4    1    3    3    0  502  0.49731149421E+03  0.27127686221E+03  0.21771366721E+04  0.22496300940E+04  0.12699999809E+01 0.  1.
</event>
<event>
 5   0  0.5381164E-04  0.1539433E+04  0.7818609E-02  0.8858646E-01
        2   -1    0    0  501    0  0.00000000000E+00  0.00000000000E+00  0.52729067243E+03  0.52729067244E+03  0.25500000920E-02 0.  1.
       -2   -1    0    0    0  501  0.00000000000E+00  0.00000000000E+00 -0.11235998832E+04  0.11235998832E+04  0.25500000920E-02 0. -1.
    10030    2    1    2    0    0  0.00000000000E+00  0.00000000000E+00 -0.59630921076E+03  0.16508905556E+04  0.15394333217E+04 0.  0.
        5    1    3    3  502    0 -0.13259745539E+03 -0.37999263001E+03 -0.10017555371E+04  0.10795891487E+04  0.46999998093E+01 0. -1.
       -5    1    3    3    0  502  0.13259745539E+03  0.37999263001E+03  0.40544632629E+03  0.57130140691E+03  0.46999998093E+01 0.  1.
</event>
<event>
 5   0  0.5131239E-04  0.1612587E+04  0.7818609E-02  0.8812853E-01
        2   -1    0    0  501    0  0.00000000000E+00  0.00000000000E+00  0.11095766534E+04  0.11095766534E+04  0.25500000920E-02 0. -1.
       -2   -1    0    0    0  501  0.00000000000E+00  0.00000000000E+00 -0.58590734219E+03  0.58590734220E+03  0.25500000920E-02 0.  1.
    10030    2    1    2    0    0  0.00000000000E+00  0.00000000000E+00  0.52366931119E+03  0.16954839956E+04  0.16125868757E+04 0.  0.
        1    1    3    3  502    0  0.44655936373E+02  0.64929359375E+03  0.76225632257E+03  0.10023028608E+04  0.50400001928E-02 0. -1.
       -1    1    3    3    0  502 -0.44655936373E+02 -0.64929359375E+03 -0.23858701138E+03  0.69318113474E+03  0.50400001928E-02 0.  1.
</event>
<event>
 5   0  0.5131239E-04  0.1583215E+04  0.7818609E-02  0.8830927E-01
       -2   -1    0    0    0  501  0.00000000000E+00  0.00000000000E+00  0.10418595752E+04  0.10418595752E+04  0.25500000920E-02 0.  1.
        2   -1    0    0  501    0  0.00000000000E+00  0.00000000000E+00 -0.60146500340E+03  0.60146500341E+03  0.25500000920E-02 0. -1.
    10030    2    1    2    0    0  0.00000000000E+00  0.00000000000E+00  0.44039457176E+03  0.16433245786E+04  0.15832145438E+04 0.  0.
        1    1    3    3  502    0 -0.99596510114E+02  0.75705280244E+03  0.34791490511E+01  0.76358399343E+03  0.50400001928E-02 0.  1.
       -1    1    3    3    0  502  0.99596510114E+02 -0.75705280244E+03  0.43691542271E+03  0.87974058514E+03  0.50400001928E-02 0. -1.
</event>
<event>
 5   0  0.2689675E-04  0.1594696E+04  0.7818609E-02  0.8823813E-01
        1   -1    0    0  501    0  0.00000000000E+00  0.00000000000E+00  0.13382927425E+04  0.13382927425E+04  0.50400001928E-02 0. -1.
       -1   -1    0    0    0  501  0.00000000000E+00  0.00000000000E+00 -0.47505615683E+03  0.47505615686E+03  0.50400001928E-02 0.  1.
    10030    2    1    2    0    0  0.00000000000E+00  0.00000000000E+00  0.86323658567E+03  0.18133488994E+04  0.15946964689E+04 0.  0.
        1    1    3    3  502    0 -0.38575725580E+03  0.50770410673E+03 -0.11276294615E+03  0.64752420993E+03  0.50400001928E-02 0.  1.
       -1    1    3    3    0  502  0.38575725580E+03 -0.50770410673E+03  0.97599953182E+03  0.11658246894E+04  0.50400001928E-02 0. -1.
</event>
<event>
 5   0  0.2649086E-04  0.1619067E+04  0.7818609E-02  0.8808920E-01
       -1   -1    0    0    0  501  0.00000000000E+00  0.00000000000E+00  0.59224171717E+03  0.59224171719E+03  0.50400001928E-02 0. -1.
        1   -1    0    0  501    0  0.00000000000E+00  0.00000000000E+00 -0.11065483436E+04  0.11065483436E+04  0.50400001928E-02 0.  1.
    10030    2    1    2    0    0  0.00000000000E+00  0.00000000000E+00 -0.51430662638E+03  0.16987900608E+04  0.16190665102E+04 0.  0.
        2    1    3    3  502    0 -0.93357872192E+02 -0.12208312841E+03  0.57679425639E+03  0.59691841717E+03  0.25500000920E-02 0. -1.
       -2    1    3    3    0  502  0.93357872192E+02  0.12208312841E+03 -0.10911008828E+04  0.11018716436E+04  0.25500000920E-02 0.  1.
</event>
<event>
 5   0  0.5131239E-04  0.1539268E+04  0.7818609E-02  0.8858752E-01
        2   -1    0    0  501    0  0.00000000000E+00  0.00000000000E+00  0.66930981421E+03  0.66930981422E+03  0.25500000920E-02 0. -1.
       -2   -1    0    0    0  501  0.00000000000E+00  0.00000000000E+00 -0.88499625162E+03  0.88499625162E+03  0.25500000920E-02 0.  1.
    10030    2    1    2    0    0  0.00000000000E+00  0.00000000000E+00 -0.21568643740E+03  0.15543060658E+04  0.15392682375E+04 0.  0.
        1    1    3    3  502    0  0.61618104560E+03 -0.21301118909E+02  0.35731304323E+03  0.71260467968E+03  0.50400001928E-02 0. -1.
       -1    1    3    3    0  502 -0.61618104560E+03  0.21301118909E+02 -0.57299948063E+03  0.84170138615E+03  0.50400001928E-02 0.  1.
</event>
<event>
 5   0  0.2730707E-04  0.1611898E+04  0.7818609E-02  0.8813272E-01
       -1   -1    0    0    0  501  0.00000000000E+00  0.00000000000E+00  0.69832255541E+03  0.69832255543E+03  0.50400001928E-02 0. -1.
        1   -1    0    0  501    0  0.00000000000E+00  0.00000000000E+00 -0.93016335631E+03  0.93016335632E+03  0.50400001928E-02 0.  1.
    10030    2    1    2    0    0  0.00000000000E+00  0.00000000000E+00 -0.23184080090E+03  0.16284859118E+04  0.16118983243E+04 0.  0.
        5    1    3    3  502    0  0.55553050633E+03 -0.35408446521E+03  0.35312224021E+03  0.74746729594E+03  0.46999998093E+01 0. -1.
       -5    1    3    3    0  502 -0.55553050633E+03  0.35408446521E+03 -0.58496304111E+03  0.88101861582E+03  0.46999998093E+01 0.  1.
</event>
<event>
 5   0  0.5381164E-04  0.1588628E+04  0.7818609E-02  0.8827565E-01
       -2   -1    0    0    0  501  0.00000000000E+00  0.00000000000E+00  0.49735373000E+03  0.49735373000E+03  0.25500000920E-02 0.  1.
        2   -1    0    0  501    0  0.00000000000E+00  0.00000000000E+00 -0.12685829084E+04  0.12685829084E+04  0.25500000920E-02 0. -1.
    10030    2    1    2    0    0  0.00000000000E+00  0.00000000000E+00 -0.77122917842E+03  0.17659366384E+04  0.15886276358E+04 0.  0.
        5    1    3    3  502    0  0.17552839966E+03  0.38131398570E+03 -0.11351917223E+04  0.12103276049E+04  0.46999998093E+01 0. -1.
       -5    1    3    3    0  502 -0.17552839966E+03 -0.38131398570E+03  0.36396254389E+03  0.55560903352E+03  0.46999998093E+01 0.  1.
</event>
<event>
 5   0  0.2796994E-04  0.1565889E+04  0.7818609E-02  0.8841782E-01
        1   -1    0    0  501    0  0.00000000000E+00  0.00000000000E+00  0.63446308036E+03  0.63446308038E+03  0.50400001928E-02 0.  1.
       -1   -1    0    0    0  501  0.00000000000E+00  0.00000000000E+00 -0.96617503383E+03  0.96617503384E+03  0.50400001928E-02 0. -1.
    10030    2    1    2    0    0  0.00000000000E+00  0.00000000000E+00 -0.33171195346E+03  0.16006381142E+04  0.15658893807E+04 0.  0.
        3    1    3    3  502    0 -0.16940956620E+03 -0.16828178629E+03  0.59633399213E+03  0.64236485045E+03  0.10100000352E+00 0.  1.
       -3    1    3    3    0  502  0.16940956620E+03  0.16828178629E+03 -0.92804594560E+03  0.95827326377E+03  0.10100000352E+00 0. -1.
</event>
<event>
 5   0  0.5315984E-04  0.1405709E+04  0.7818609E-02  0.8949697E-01
        2   -1    0    0  501    0  0.00000000000E+00  0.00000000000E+00  0.13913267715E+04  0.13913267715E+04  0.25500000920E-02 0.  1.
       -2   -1    0    0    0  501  0.00000000000E+00  0.00000000000E+00 -0.35505974927E+03  0.35505974928E+03  0.25500000920E-02 0. -1.
    10030    2    1    2    0    0  0.00000000000E+00  0.00000000000E+00  0.10362670222E+04  0.17463865208E+04  0.14057085539E+04 0.  0.
        2    1    3    3  502    0  0.33519582315E+03  0.33123566145E+03 -0.12971625799E+03  0.48877357833E+03  0.25500000920E-02 0. -1.
       -2    1    3    3    0  502 -0.33519582315E+03 -0.33123566145E+03  0.11659832802E+04  0.12576129425E+04  0.25500000920E-02 0.  1.
</event>
<event>
 5   0  0.2763895E-04  0.1575670E+04  0.7818609E-02  0.8835636E-01
        1   -1    0    0  501    0  0.00000000000E+00  0.00000000000E+00  0.40224618023E+03  0.40224618026E+03  0.50400001928E-02 0. -1.
       -1   -1    0    0    0  501  0.00000000000E+00  0.00000000000E+00 -0.15430450637E+04  0.15430450637E+04  0.50400001928E-02 0.  1.
    10030    2    1    2    0    0  0.00000000000E+00  0.00000000000E+00 -0.11407988835E+04  0.19452912440E+04  0.15756699944E+04 0.  0.
        4    1    3    3  502    0 -0.53289427498E+03 -0.91814552359E+02  0.13695817223E+03  0.55782199148E+03  0.12699999809E+01 0. -1.
       -4    1    3    3    0  502  0.53289427498E+03  0.91814552359E+02 -0.12777570557E+04  0.13874692525E+04  0.12699999809E+01 0.  1.
</event>
<event>
 5   0  0.2730707E-04  0.1606416E+04  0.7818609E-02  0.8816616E-01
       -1   -1    0    0    0  501  0.00000000000E+00  0.00000000000E+00  0.82333752529E+03  0.82333752530E+03  0.50400001928E-02 0.  1.
        1   -1    0    0  501    0  0.00000000000E+00  0.00000000000E+00 -0.78357040940E+03  0.78357040942E+03  0.50400001928E-02 0. -1.
    10030    2    1    2    0    0  0.00000000000E+00  0.00000000000E+00  0.39767115883E+02  0.16069079347E+04  0.16064157890E+04 0.  0.
        5    1    3    3  502    0  0.33805712835E+03  0.72561686957E+03 -0.45850867836E+02  0.80182719804E+03  0.46999998093E+01 0.  1.
       -5    1    3    3    0  502 -0.33805712835E+03 -0.72561686957E+03  0.85617983718E+02  0.80508073668E+03  0.46999998093E+01 0. -1.
</event>
<event>
 5   0  0.2689675E-04  0.1656448E+04  0.7818609E-02  0.8786601E-01
        1   -1    0    0  501    0  0.00000000000E+00  0.00000000000E+00  0.82008852463E+03  0.82008852464E+03  0.50400001928E-02 0. -1.
       -1   -1    0    0    0  501  0.00000000000E+00  0.00000000000E+00 -0.83644026263E+03  0.83644026265E+03  0.50400001928E-02 0.  1.
    10030    2    1    2    0    0  0.00000000000E+00  0.00000000000E+00 -0.16351738002E+02  0.16565287873E+04  0.16564480806E+04 0.  0.
        1    1    3    3  502    0  0.86423524843E+02  0.30974467307E+02  0.81498428622E+03  0.82013890902E+03  0.50400001928E-02 0. -1.
       -1    1    3    3    0  502 -0.86423524843E+02 -0.30974467307E+02 -0.83133602423E+03  0.83638987827E+03  0.50400001928E-02 0.  1.
</event>
<event>
 5   0  0.2649086E-04  0.1598163E+04  0.7818609E-02  0.8821677E-01
        1   -1    0    0  501    0  0.00000000000E+00  0.00000000000E+00  0.42263428090E+03  0.42263428093E+03  0.50400001928E-02 0. -1.
       -1   -1    0    0    0  501  0.00000000000E+00  0.00000000000E+00 -0.15108359172E+04  0.15108359172E+04  0.50400001928E-02 0.  1.
    10030    2    1    2    0    0  0.00000000000E+00  0.00000000000E+00 -0.10882016363E+04  0.19334701982E+04  0.15981627595E+04 0.  0.
        2    1    3    3  502    0  0.15423129894E+03  0.24307798389E+03 -0.14459207149E+04  0.14743001436E+04  0.25500000920E-02 0.  1.
       -2    1    3    3    0  502 -0.15423129894E+03 -0.24307798389E+03  0.35771907853E+03  0.45917005453E+03  0.25500000920E-02 0. -1.
</event>
<event>
 5   0  0.5264308E-04  0.1566848E+04  0.7818609E-02  0.8841177E-01
       -2   -1    0    0    0  501  0.00000000000E+00  0.00000000000E+00  0.41968308744E+03  0.41968308745E+03  0.25500000920E-02 0.  1.
        2   -1    0    0  501    0  0.00000000000E+00  0.00000000000E+00 -0.14624204725E+04  0.14624204725E+04  0.25500000920E-02 0. -1.
    10030    2    1    2    0    0  0.00000000000E+00  0.00000000000E+00 -0.10427373850E+04  0.18821035599E+04  0.15668479684E+04 0.  0.
        3    1    3    3  502    0 -0.50569008359E+03  0.49173223799E+03 -0.11184793955E+03  0.71416596552E+03  0.10100000352E+00 0.  1.
       -3    1    3    3    0  502  0.50569008359E+03 -0.49173223799E+03 -0.93088944547E+03  0.11679375944E+04  0.10100000352E+00 0. -1.
</event>
<event>
 5   0  0.5131239E-04  0.1608073E+04  0.7818609E-02  0.8815604E-01
        2   -1    0    0  501    0  0.00000000000E+00  0.00000000000E+00  0.16920894196E+04  0.16920894196E+04  0.25500000920E-02 0.  1.
       -2   -1    0    0    0  501  0.00000000000E+00  0.00000000000E+00 -0.38205696320E+03  0.38205696321E+03  0.25500000920E-02 0. -1.
    10030    2    1    2    0    0  0.00000000000E+00  0.00000000000E+00  0.13100324564E+04  0.20741463829E+04  0.16080728157E+04 0.  0.
        1    1    3    3  502    0 -0.40772427460E+03  0.25956600433E+03 -0.17375677769E+03  0.51361952116E+03  0.50400001928E-02 0. -1.
       -1    1    3    3    0  502  0.40772427460E+03 -0.25956600433E+03  0.14837892341E+04  0.15605268617E+04  0.50400001928E-02 0.  1.
</event>
<event>
 5   0  0.2649086E-04  0.1594611E+04  0.7818609E-02  0.8823866E-01
       -1   -1    0    0    0  501  0.00000000000E+00  0.00000000000E+00  0.10601483875E+04  0.10601483875E+04  0.50400001928E-02 0. -1.
        1   -1    0    0  501    0  0.00000000000E+00  0.00000000000E+00 -0.59962926162E+03  0.59962926164E+03  0.50400001928E-02 0.  1.
    10030    2    1    2    0    0  0.00000000000E+00  0.00000000000E+00  0.46051912586E+03  0.16597776491E+04  0.15946109178E+04 0.  0.
        2    1    3    3  502    0  0.78386726750E+03 -0.38451098298E+01  0.78588021901E+02  0.78780629289E+03  0.25500000920E-02 0. -1.
       -2    1    3    3    0  502 -0.78386726750E+03  0.38451098298E+01  0.38193110396E+03  0.87197135624E+03  0.25500000920E-02 0.  1.
</event>
<event>
 5   0  0.2763895E-04  0.1611354E+04  0.7818609E-02  0.8813603E-01
       -1   -1    0    0    0  501  0.00000000000E+00  0.00000000000E+00  0.75349589531E+03  0.75349589533E+03  0.50400001928E-02 0. -1.
        1   -1    0    0  501    0  0.00000000000E+00  0.00000000000E+00 -0.86147135071E+03  0.86147135073E+03  0.50400001928E-02 0.  1.
    10030    2    1    2    0    0  0.00000000000E+00  0.00000000000E+00 -0.10797545540E+03  0.16149672461E+04  0.16113536256E+04 0.  0.
        4    1    3    3  502    0 -0.34252334214E+02 -0.67639393208E+03 -0.49135098752E+03  0.83672539079E+03  0.12699999809E+01 0.  1.
       -4    1    3    3    0  502  0.34252334214E+02  0.67639393208E+03  0.38337553212E+03  0.77824185526E+03  0.12699999809E+01 0. -1.
</event>
<event>
 5   0  0.2796994E-04  0.1590629E+04  0.7818609E-02  0.8826326E-01
       -1   -1    0    0    0  501  0.00000000000E+00  0.00000000000E+00  0.59171596730E+03  0.59171596733E+03  0.50400001928E-02 0.  1.
        1   -1    0    0  501    0  0.00000000000E+00  0.00000000000E+00 -0.10689674032E+04  0.10689674033E+04  0.50400001928E-02 0. -1.
    10030    2    1    2    0    0  0.00000000000E+00  0.00000000000E+00 -0.47725143594E+03  0.16606833706E+04  0.15906289084E+04 0.  0.
        3    1    3    3  502    0 -0.12619484132E+03  0.75292825282E+03 -0.47137679485E+03  0.89723028526E+03  0.10100000352E+00 0.  1.
       -3    1    3    3    0  502  0.12619484132E+03 -0.75292825282E+03 -0.58746410894E+01  0.76345308532E+03  0.10100000352E+00 0. -1.
</event>
<event>
 5   0  0.2763895E-04  0.1592316E+04  0.7818609E-02  0.8825282E-01
        1   -1    0    0  501    0  0.00000000000E+00  0.00000000000E+00  0.52620758871E+03  0.52620758874E+03  0.50400001928E-02 0. -1.
       -1   -1    0    0    0  501  0.00000000000E+00  0.00000000000E+00 -0.12045963130E+04  0.12045963130E+04  0.50400001928E-02 0.  1.
    10030    2    1    2    0    0  0.00000000000E+00  0.00000000000E+00 -0.67838872426E+03  0.17308039017E+04  0.15923162013E+04 0.  0.
        4    1    3    3  502    0 -0.15192395922E+03  0.46381290960E+03  0.34453017162E+03  0.59741606653E+03  0.12699999809E+01 0. -1.
       -4    1    3    3    0  502  0.15192395922E+03 -0.46381290960E+03 -0.10229188959E+04  0.11333878352E+04  0.12699999809E+01 0.  1.
</event>
<event>
 5   0  0.5315984E-04  0.1616379E+04  0.7818609E-02  0.8810549E-01
        2   -1    0    0  501    0  0.00000000000E+00  0.00000000000E+00  0.12015545176E+04  0.12015545176E+04  0.25500000920E-02 0. -1.
       -2   -1    0    0    0  501  0.00000000000E+00  0.00000000000E+00 -0.54360414315E+03  0.54360414316E+03  0.25500000920E-02 0.  1.
    10030    2    1    2    0    0  0.00000000000E+00  0.00000000000E+00  0.65795037444E+03  0.17451586608E+04  0.16163786858E+04 0.  0.
        2    1    3    3  502    0  0.53597871259E+02  0.76414751898E+03  0.60713658136E+03  0.97745024988E+03  0.25500000920E-02 0. -1.
       -2    1    3    3    0  502 -0.53597871259E+02 -0.76414751898E+03  0.50813793088E+02  0.76770841088E+03  0.25500000920E-02 0.  1.
</event>
<event>
 5   0  0.5131239E-04  0.1607187E+04  0.7818609E-02  0.8816145E-01
       -2   -1    0    0    0  501  0.00000000000E+00  0.00000000000E+00  0.41993902107E+03  0.41993902108E+03  0.25500000920E-02 0. -1.
        2   -1    0    0  501    0  0.00000000000E+00  0.00000000000E+00 -0.15377535092E+04  0.15377535092E+04  0.25500000920E-02 0.  1.
    10030    2    1    2    0    0  0.00000000000E+00  0.00000000000E+00 -0.11178144882E+04  0.19576925303E+04  0.16071872365E+04 0.  0.
        1    1    3    3  502    0  0.67293666192E+03 -0.13337475013E+03 -0.49155826777E+02  0.68778548273E+03  0.50400001928E-02 0. -1.
       -1    1    3    3    0  502 -0.67293666192E+03  0.13337475013E+03 -0.10686586614E+04  0.12699070476E+04  0.50400001928E-02 0.  1.
</event>
<event>
 5   0  0.2689675E-04  0.1527577E+04  0.7818609E-02  0.8866319E-01
        1   -1    0    0  501    0  0.00000000000E+00  0.00000000000E+00  0.46100120373E+03  0.46100120375E+03  0.50400001928E-02 0.  1.
       -1   -1    0    0    0  501  0.00000000000E+00  0.00000000000E+00 -0.12654479452E+04  0.12654479452E+04  0.50400001928E-02 0. -1.
    10030    2    1    2    0    0  0.00000000000E+00  0.00000000000E+00 -0.80444674146E+03  0.17264491490E+04  0.15275772007E+04 0.  0.
        1    1    3    3  502    0  0.67018306714E+03  0.35608394027E+03 -0.49965519723E+03  0.90862337200E+03  0.50400001928E-02 0.  1.
       -1    1    3    3    0  502 -0.67018306714E+03 -0.35608394027E+03 -0.30479154423E+03  0.81782577696E+03  0.50400001928E-02 0. -1.
</event>
<event>
 5   0  0.5315984E-04  0.1603042E+04  0.7818609E-02  0.8818681E-01
        2   -1    0    0  501    0  0.00000000000E+00  0.00000000000E+00  0.10902755763E+04  0.10902755763E+04  0.25500000920E-02 0.  1.
       -2   -1    0    0    0  501  0.00000000000E+00  0.00000000000E+00 -0.58924189208E+03  0.58924189209E+03  0.25500000920E-02 0. -1.
    10030    2    1    2    0    0  0.00000000000E+00  0.00000000000E+00  0.50103368420E+03  0.16795174684E+04  0.16030421622E+04 0.  0.
        2    1    3    3  502    0  0.34733192573E+03  0.43211791728E+03 -0.35595102493E+03  0.65883722817E+03  0.25500000920E-02 0. -1.
       -2    1    3    3    0  502 -0.34733192573E+03 -0.43211791728E+03  0.85698470913E+03  0.10206802402E+04  0.25500000920E-02 0.  1.
</event>
<event>
 5   0  0.2796994E-04  0.1580943E+04  0.7818609E-02  0.8832342E-01
       -1   -1    0    0    0  501  0.00000000000E+00  0.00000000000E+00  0.65190815129E+03  0.65190815131E+03  0.50400001928E-02 0. -1.
        1   -1    0    0  501    0  0.00000000000E+00  0.00000000000E+00 -0.95848632726E+03  0.95848632727E+03  0.50400001928E-02 0.  1.
    10030    2    1    2    0    0  0.00000000000E+00  0.00000000000E+00 -0.30657817597E+03  0.16103944786E+04  0.15809428195E+04 0.  0.
        3    1    3    3  502    0 -0.38975882437E+03  0.47424445090E+03 -0.66058819921E+03  0.90177409562E+03  0.10100000352E+00 0.  1.
       -3    1    3    3    0  502  0.38975882437E+03 -0.47424445090E+03  0.35401002324E+03  0.70862038296E+03  0.10100000352E+00 0. -1.
</event>
<event>
 5   0  0.5131239E-04  0.1584243E+04  0.7818609E-02  0.8830287E-01
        2   -1    0    0  501    0  0.00000000000E+00  0.00000000000E+00  0.12343328263E+04  0.12343328263E+04  0.25500000920E-02 0.  1.
       -2   -1    0    0    0  501  0.00000000000E+00  0.00000000000E+00 -0.50833672394E+03  0.50833672395E+03  0.25500000920E-02 0. -1.
    10030    2    1    2    0    0  0.00000000000E+00  0.00000000000E+00  0.72599610232E+03  0.17426695502E+04  0.15842432959E+04 0.  0.
        1    1    3    3  502    0  0.33011662070E+03  0.11217659107E+03 -0.41939294741E+03  0.54539069960E+03  0.50400001928E-02 0. -1.
       -1    1    3    3    0  502 -0.33011662070E+03 -0.11217659107E+03  0.11453890497E+04  0.11972788506E+04  0.50400001928E-02 0.  1.
</event>
<event>
 5   0  0.2796994E-04  0.1610131E+04  0.7818609E-02  0.8814348E-01
        1   -1    0    0  501    0  0.00000000000E+00  0.00000000000E+00  0.10032450427E+04  0.10032450427E+04  0.50400001928E-02 0. -1.
       -1   -1    0    0    0  501  0.00000000000E+00  0.00000000000E+00 -0.64603382409E+03  0.64603382411E+03  0.50400001928E-02 0.  1.
    10030    2    1    2    0    0  0.00000000000E+00  0.00000000000E+00  0.35721121859E+03  0.16492788668E+04  0.16101307170E+04 0.  0.
        3    1    3    3  502    0  0.16895240516E+03  0.53524517892E+03 -0.41257326901E+03  0.69659818351E+03  0.10100000352E+00 0.  1.
       -3    1    3    3    0  502 -0.16895240516E+03 -0.53524517892E+03  0.76978448760E+03  0.95268068329E+03  0.10100000352E+00 0. -1.
</event>
<event>
 5   0  0.5381164E-04  0.1602899E+04  0.7818609E-02  0.8818769E-01
        2   -1    0    0  501    0  0.00000000000E+00  0.00000000000E+00  0.97637288275E+03  0.97637288275E+03  0.25500000920E-02 0.  1.
       -2   -1    0    0    0  501  0.00000000000E+00  0.00000000000E+00 -0.65786449663E+03  0.65786449664E+03  0.25500000920E-02 0. -1.
    10030    2    1    2    0    0  0.00000000000E+00  0.00000000000E+00  0.31850838611E+03  0.16342373794E+04  0.16028986930E+04 0.  0.
        5    1    3    3  502    0  0.22305396106E+02  0.46240325231E+03  0.82625010157E+03  0.94711436416E+03  0.46999998093E+01 0.  1.
       -5    1    3    3    0  502 -0.22305396106E+02 -0.46240325231E+03 -0.50774171546E+03  0.68712301523E+03  0.46999998093E+01 0. -1.
</event>
<event>
 5   0  0.5131239E-04  0.1566310E+04  0.7818609E-02  0.8841516E-01
        2   -1    0    0  501    0  0.00000000000E+00  0.00000000000E+00  0.13396123250E+04  0.13396123250E+04  0.25500000920E-02 0. -1.
       -2   -1    0    0    0  501  0.00000000000E+00  0.00000000000E+00 -0.45784290791E+03  0.45784290792E+03  0.25500000920E-02 0.  1.
    10030    2    1    2    0    0  0.00000000000E+00  0.00000000000E+00  0.88176941711E+03  0.17974552329E+04  0.15663103171E+04 0.  0.
        1    1    3    3  502    0 -0.55605956981E+03  0.47273912679E+03  0.11499123600E+03  0.73885554174E+03  0.50400001928E-02 0.  1.
       -1    1    3    3    0  502  0.55605956981E+03 -0.47273912679E+03  0.76677818110E+03  0.10585996912E+04  0.50400001928E-02 0. -1.
</event>
<event>
 5   0  0.2649086E-04  0.1613714E+04  0.7818609E-02  0.8812167E-01
        1   -1    0    0  501    0  0.00000000000E+00  0.00000000000E+00  0.20646159023E+04  0.20646159024E+04  0.50400001928E-02 0. -1.
       -1   -1    0    0    0  501  0.00000000000E+00  0.00000000000E+00 -0.31532174794E+03  0.31532174798E+03  0.50400001928E-02 0.  1.
    10030    2    1    2    0    0  0.00000000000E+00  0.00000000000E+00  0.17492941544E+04  0.23799376503E+04  0.16137140951E+04 0.  0.
        2    1    3    3  502    0 -0.32173972101E+03 -0.17105115756E+03 -0.18706279489E+03  0.40959423314E+03  0.25500000920E-02 0.  1.
       -2    1    3    3    0  502  0.32173972101E+03  0.17105115756E+03  0.19363569493E+04  0.19703434172E+04  0.25500000920E-02 0. -1.
</event>
<event>
 5   0  0.5315984E-04  0.1621657E+04  0.7818609E-02  0.8807353E-01
       -2   -1    0    0    0  501  0.00000000000E+00  0.00000000000E+00  0.47527417120E+03  0.47527417120E+03  0.25500000920E-02 0.  1.
        2   -1    0    0  501    0  0.00000000000E+00  0.00000000000E+00 -0.13832915656E+04  0.13832915656E+04  0.25500000920E-02 0. -1.
    10030    2    1    2    0    0  0.00000000000E+00  0.00000000000E+00 -0.90801739445E+03  0.18585657368E+04  0.16216568717E+04 0.  0.
        2    1    3    3  502    0  0.68103046010E+03  0.43458517934E+03 -0.37480407735E+03  0.89058680772E+03  0.25500000920E-02 0. -1.
       -2    1    3    3    0  502 -0.68103046010E+03 -0.43458517934E+03 -0.53321331710E+03  0.96797892912E+03  0.25500000920E-02 0.  1.
</event>
<event>
 5   0  0.5131239E-04  0.1592530E+04  0.7818609E-02  0.8825150E-01
        2   -1    0    0  501    0  0.00000000000E+00  0.00000000000E+00  0.84010383363E+03  0.84010383363E+03  0.25500000920E-02 0.  1.
       -2   -1    0    0    0  501  0.00000000000E+00  0.00000000000E+00 -0.75471396369E+03  0.75471396370E+03  0.25500000920E-02 0. -1.
    10030    2    1    2    0    0  0.00000000000E+00  0.00000000000E+00  0.85389869937E+02  0.15948177973E+04  0.15925301808E+04 0.  0.
        1    1    3    3  502    0 -0.29781481704E+03  0.35630939357E+02 -0.69597892985E+03  0.75785875987E+03  0.50400001928E-02 0. -1.
       -1    1    3    3    0  502  0.29781481704E+03 -0.35630939357E+02  0.78136879979E+03  0.83695903746E+03  0.50400001928E-02 0.  1.
</event>
<event>
 5   0  0.2649086E-04  0.1414136E+04  0.7818609E-02  0.8943649E-01
        1   -1    0    0  501    0  0.00000000000E+00  0.00000000000E+00  0.14433156894E+04  0.14433156895E+04  0.50400001928E-02 0. -1.
       -1   -1    0    0    0  501  0.00000000000E+00  0.00000000000E+00 -0.34638670540E+03  0.34638670544E+03  0.50400001928E-02 0.  1.
    10030    2    1    2    0    0  0.00000000000E+00  0.00000000000E+00  0.10969289840E+04  0.17897023949E+04  0.14141362969E+04 0.  0.
        2    1    3    3  502    0 -0.20924959064E+03 -0.67532972928E+03  0.53647602856E+03  0.88750333164E+03  0.25500000920E-02 0.  1.
       -2    1    3    3    0  502  0.20924959064E+03  0.67532972928E+03  0.56045295548E+03  0.90219906326E+03  0.25500000920E-02 0. -1.
</event>
<event>
 5   0  0.2763895E-04  0.1309371E+04  0.7818609E-02  0.9022166E-01
       -1   -1    0    0    0  501  0.00000000000E+00  0.00000000000E+00  0.25407643676E+03  0.25407643681E+03  0.50400001928E-02 0. -1.
        1   -1    0    0  501    0  0.00000000000E+00  0.00000000000E+00 -0.16869464166E+04  0.16869464166E+04  0.50400001928E-02 0.  1.
    10030    2    1    2    0    0  0.00000000000E+00  0.00000000000E+00 -0.14328699798E+04  0.19410228534E+04  0.13093713523E+04 0.  0.
        4    1    3    3  502    0 -0.27043498935E+03  0.39459915104E+02  0.16546653297E+03  0.31948858321E+03  0.12699999809E+01 0. -1.
       -4    1    3    3    0  502  0.27043498935E+03 -0.39459915104E+02 -0.15983365128E+04  0.16215342702E+04  0.12699999809E+01 0.  1.
</event>
<event>
 5   0  0.5381164E-04  0.1590486E+04  0.7818609E-02  0.8826414E-01
        2   -1    0    0  501    0  0.00000000000E+00  0.00000000000E+00  0.17271648232E+04  0.17271648232E+04  0.25500000920E-02 0. -1.
       -2   -1    0    0    0  501  0.00000000000E+00  0.00000000000E+00 -0.36615601055E+03  0.36615601056E+03  0.25500000920E-02 0.  1.
    10030    2    1    2    0    0  0.00000000000E+00  0.00000000000E+00  0.13610088127E+04  0.20933208338E+04  0.15904864429E+04 0.  0.
        5    1    3    3  502    0 -0.62241275605E+03 -0.20176637646E+03  0.85635484355E+02  0.65989607951E+03  0.46999998093E+01 0.  1.
       -5    1    3    3    0  502  0.62241275605E+03  0.20176637646E+03  0.12753733283E+04  0.14334247543E+04  0.46999998093E+01 0. -1.
</event>
<event>
 5   0  0.2730707E-04  0.1591041E+04  0.7818609E-02  0.8826071E-01
       -1   -1    0    0    0  501  0.00000000000E+00  0.00000000000E+00  0.57277492477E+03  0.57277492479E+03  0.50400001928E-02 0. -1.
        1   -1    0    0  501    0  0.00000000000E+00  0.00000000000E+00 -0.11048894321E+04  0.11048894321E+04  0.50400001928E-02 0.  1.
    10030    2    1    2    0    0  0.00000000000E+00  0.00000000000E+00 -0.53211450732E+03  0.16776643569E+04  0.15910411200E+04 0.  0.
        5    1    3    3  502    0  0.36622468950E+03  0.43492703678E+03  0.32060514117E+03  0.65275707355E+03  0.46999998093E+01 0. -1.
       -5    1    3    3    0  502 -0.36622468950E+03 -0.43492703678E+03 -0.85271964849E+03  0.10249072833E+04  0.46999998093E+01 0.  1.
</event>
<event>
 5   0  0.2796994E-04  0.1566410E+04  0.7818609E-02  0.8841454E-01
       -1   -1    0    0    0  501  0.00000000000E+00  0.00000000000E+00  0.66417396986E+03  0.66417396988E+03  0.50400001928E-02 0.  1.
        1   -1    0    0  501    0  0.00000000000E+00  0.00000000000E+00 -0.92356778730E+03  0.92356778731E+03  0.50400001928E-02 0. -1.
    10030    2    1    2    0    0  0.00000000000E+00  0.00000000000E+00 -0.25939381744E+03  0.15877417572E+04  0.15664095042E+04 0.  0.
        3    1    3    3  502    0  0.59389186954E+03  0.21658424063E+03 -0.59837180458E+03  0.87043960888E+03  0.10100000352E+00 0. -1.
       -3    1    3    3    0  502 -0.59389186954E+03 -0.21658424063E+03  0.33897798714E+03  0.71730214831E+03  0.10100000352E+00 0.  1.
</event>
<event>
 5   0  0.5264308E-04  0.1579629E+04  0.7818609E-02  0.8833162E-01
       -2   -1    0    0    0  501  0.00000000000E+00  0.00000000000E+00  0.55228518172E+03  0.55228518172E+03  0.25500000920E-02 0.  1.
        2   -1    0    0  501    0  0.00000000000E+00  0.00000000000E+00 -0.11295009061E+04  0.11295009061E+04  0.25500000920E-02 0. -1.
    10030    2    1    2    0    0  0.00000000000E+00  0.00000000000E+00 -0.57721572440E+03  0.16817860879E+04  0.15796285806E+04 0.  0.
        3    1    3    3  502    0  0.36327197296E+03 -0.17792402961E+03  0.43363143206E+03  0.59300903511E+03  0.10100000352E+00 0.  1.
       -3    1    3    3    0  502 -0.36327197296E+03  0.17792402961E+03 -0.10108471565E+04  0.10887770527E+04  0.10100000352E+00 0. -1.
</event>
<event>
 5   0  0.5381164E-04  0.1595705E+04  0.7818609E-02  0.8823191E-01
        2   -1    0    0  501    0  0.00000000000E+00  0.00000000000E+00  0.51177993434E+03  0.51177993435E+03  0.25500000920E-02 0.  1.
       -2   -1    0    0    0  501  0.00000000000E+00  0.00000000000E+00 -0.12438324224E+04  0.12438324224E+04  0.25500000920E-02 0. -1.
    10030    2    1    2    0    0  0.00000000000E+00  0.00000000000E+00 -0.73205248808E+03  0.17556123568E+04  0.15957048292E+04 0.  0.
        5    1    3    3  502    0 -0.28877306394E+03  0.51317739845E+03 -0.95830935906E+03  0.11247754631E+04  0.46999998093E+01 0. -1.
       -5    1    3    3    0  502  0.28877306394E+03 -0.51317739845E+03  0.22625687098E+03  0.63083689366E+03  0.46999998093E+01 0.  1.
</event>
<event>
 5   0  0.2730707E-04  0.1598759E+04  0.7818609E-02  0.8821311E-01
        1   -1    0    0  501    0  0.00000000000E+00  0.00000000000E+00  0.11316234903E+04  0.11316234903E+04  0.50400001928E-02 0.  1.
       -1   -1    0    0    0  501  0.00000000000E+00  0.00000000000E+00 -0.56468211155E+03  0.56468211157E+03  0.50400001928E-02 0. -1.
    10030    2    1    2    0    0  0.00000000000E+00  0.00000000000E+00  0.56694137876E+03  0.16963056019E+04  0.15987589462E+04 0.  0.
        5    1    3    3  502    0 -0.72881710008E+03  0.19709635215E+03  0.48375994795E+01  0.75502770133E+03  0.46999998093E+01 0.  1.
       -5    1    3    3    0  502  0.72881710008E+03 -0.19709635215E+03  0.56210377928E+03  0.94127790056E+03  0.46999998093E+01 0. -1.
</event>
<event>
 5   0  0.2649086E-04  0.1606630E+04  0.7818609E-02  0.8816485E-01
        1   -1    0    0  501    0  0.00000000000E+00  0.00000000000E+00  0.18158715236E+04  0.18158715236E+04  0.50400001928E-02 0.  1.
       -1   -1    0    0    0  501  0.00000000000E+00  0.00000000000E+00 -0.35537498204E+03  0.35537498208E+03  0.50400001928E-02 0. -1.
    10030    2    1    2    0    0  0.00000000000E+00  0.00000000000E+00  0.14604965416E+04  0.21712465057E+04  0.16066303995E+04 0.  0.
        2    1    3    3  502    0  0.13551498203E+03 -0.51146843066E+03  0.15471095852E+04  0.16350878676E+04  0.25500000920E-02 0.  1.
       -2    1    3    3    0  502 -0.13551498203E+03  0.51146843066E+03 -0.86613043652E+02  0.53615863815E+03  0.25500000920E-02 0. -1.
</event>
<event>
 5   0  0.5083831E-04  0.1584654E+04  0.7818609E-02  0.8830031E-01
       -2   -1    0    0    0  501  0.00000000000E+00  0.00000000000E+00  0.13768795665E+04  0.13768795665E+04  0.25500000920E-02 0. -1.
        2   -1    0    0  501    0  0.00000000000E+00  0.00000000000E+00 -0.45594573986E+03  0.45594573987E+03  0.25500000920E-02 0.  1.
    10030    2    1    2    0    0  0.00000000000E+00  0.00000000000E+00  0.92093382667E+03  0.18328253064E+04  0.15846543758E+04 0.  0.
        4    1    3    3  502    0  0.47087273974E+02 -0.10385220300E+03  0.13673384519E+04  0.13720854734E+04  0.12699999809E+01 0. -1.
       -4    1    3    3    0  502 -0.47087273974E+02  0.10385220300E+03 -0.44640462519E+03  0.46073983302E+03  0.12699999809E+01 0.  1.
</event>
<event>
 5   0  0.5381164E-04  0.1605744E+04  0.7818609E-02  0.8817027E-01
       -2   -1    0    0    0  501  0.00000000000E+00  0.00000000000E+00  0.39906664309E+03  0.39906664310E+03  0.25500000920E-02 0.  1.
        2   -1    0    0  501    0  0.00000000000E+00  0.00000000000E+00 -0.16152772973E+04  0.16152772973E+04  0.25500000920E-02 0. -1.
    10030    2    1    2    0    0  0.00000000000E+00  0.00000000000E+00 -0.12162106542E+04  0.20143439404E+04  0.16057438011E+04 0.  0.
        5    1    3    3  502    0  0.38808128549E+03 -0.57829311485E+03 -0.11091857015E+04  0.13097118085E+04  0.46999998093E+01 0. -1.
       -5    1    3    3    0  502 -0.38808128549E+03  0.57829311485E+03 -0.10702495270E+03  0.70463213192E+03  0.46999998093E+01 0.  1.
</event>
<event>
 5   0  0.2689675E-04  0.1601252E+04  0.7818609E-02  0.8819779E-01
        1   -1    0    0  501    0  0.00000000000E+00  0.00000000000E+00  0.19961735417E+04  0.19961735417E+04  0.50400001928E-02 0. -1.
       -1   -1    0    0    0  501  0.00000000000E+00  0.00000000000E+00 -0.32111549341E+03  0.32111549345E+03  0.50400001928E-02 0.  1.
    10030    2    1    2    0    0  0.00000000000E+00  0.00000000000E+00  0.16750580482E+04  0.23172890351E+04  0.16012523247E+04 0.  0.
        1    1    3    3  502    0  0.15692692873E+03 -0.27399611132E+03 -0.22720315138E+03  0.38900025964E+03  0.50400001928E-02 0.  1.
       -1    1    3    3    0  502 -0.15692692873E+03  0.27399611132E+03  0.19022611996E+04  0.19282887755E+04  0.50400001928E-02 0. -1.
</event>
<event>
 5   0  0.5315984E-04  0.1588216E+04  0.7818609E-02  0.8827820E-01
       -2   -1    0    0    0  501  0.00000000000E+00  0.00000000000E+00  0.88159605104E+03  0.88159605105E+03  0.25500000920E-02 0.  1.
        2   -1    0    0  501    0  0.00000000000E+00  0.00000000000E+00 -0.71530234320E+03  0.71530234320E+03  0.25500000920E-02 0. -1.
    10030    2    1    2    0    0  0.00000000000E+00  0.00000000000E+00  0.16629370784E+03  0.15968983942E+04  0.15882162587E+04 0.  0.
        2    1    3    3  502    0 -0.22540943442E+03  0.36259002140E+03 -0.59008551620E+03  0.72834185187E+03  0.25500000920E-02 0. -1.
       -2    1    3    3    0  502  0.22540943442E+03 -0.36259002140E+03  0.75637922405E+03  0.86855654238E+03  0.25500000920E-02 0.  1.
</event>
<event>
 5   0  0.2649086E-04  0.1602344E+04  0.7818609E-02  0.8819110E-01
       -1   -1    0    0    0  501  0.00000000000E+00  0.00000000000E+00  0.35995228552E+03  0.35995228556E+03  0.50400001928E-02 0. -1.
        1   -1    0    0  501    0  0.00000000000E+00  0.00000000000E+00 -0.17832259586E+04  0.17832259586E+04  0.50400001928E-02 0.  1.
    10030    2    1    2    0    0  0.00000000000E+00  0.00000000000E+00 -0.14232736731E+04  0.21431782442E+04  0.16023436079E+04 0.  0.
        2    1    3    3  502    0  0.13965751036E+03 -0.47701597026E+03 -0.15520764292E+04  0.16297207424E+04  0.25500000920E-02 0.  1.
       -2    1    3    3    0  502 -0.13965751036E+03  0.47701597026E+03  0.12880275617E+03  0.51345750173E+03  0.25500000920E-02 0. -1.
</event>
<event>
 5   0  0.5131239E-04  0.1628829E+04  0.7818609E-02  0.8803030E-01
        2   -1    0    0  501    0  0.00000000000E+00  0.00000000000E+00  0.24748218488E+04  0.24748218488E+04  0.25500000920E-02 0. -1.
       -2   -1    0    0    0  501  0.00000000000E+00  0.00000000000E+00 -0.26800770364E+03  0.26800770365E+03  0.25500000920E-02 0.  1.
    10030    2    1    2    0    0  0.00000000000E+00  0.00000000000E+00  0.22068141452E+04  0.27428295525E+04  0.16288294209E+04 0.  0.
        1    1    3    3  502    0  0.43896484287E+02 -0.30001485136E+03 -0.16941829690E+03  0.34733034955E+03  0.50400001928E-02 0.  1.
       -1    1    3    3    0  502 -0.43896484287E+02  0.30001485136E+03  0.23762324421E+04  0.23954992029E+04  0.50400001928E-02 0. -1.
</event>
<event>
 5   0  0.2796994E-04  0.1611073E+04  0.7818609E-02  0.8813774E-01
        1   -1    0    0  501    0  0.00000000000E+00  0.00000000000E+00  0.77047847672E+03  0.77047847673E+03  0.50400001928E-02 0.  1.
       -1   -1    0    0    0  501  0.00000000000E+00  0.00000000000E+00 -0.84218990337E+03  0.84218990338E+03  0.50400001928E-02 0. -1.
    10030    2    1    2    0    0  0.00000000000E+00  0.00000000000E+00 -0.71711426652E+02  0.16126683801E+04  0.16110731751E+04 0.  0.
        3    1    3    3  502    0 -0.53123874644E+03  0.40825109946E+03  0.41180697798E+03  0.78642772284E+03  0.10100000352E+00 0.  1.
       -3    1    3    3    0  502  0.53123874644E+03 -0.40825109946E+03 -0.48351840463E+03  0.82624065728E+03  0.10100000352E+00 0. -1.
</event>
<event>
 5   0  0.2796994E-04  0.1602299E+04  0.7818609E-02  0.8819137E-01
       -1   -1    0    0    0  501  0.00000000000E+00  0.00000000000E+00  0.81037997991E+03  0.81037997992E+03  0.50400001928E-02 0.  1.
        1   -1    0    0  501    0  0.00000000000E+00  0.00000000000E+00 -0.79202427547E+03  0.79202427549E+03  0.50400001928E-02 0. -1.
    10030    2    1    2    0    0  0.00000000000E+00  0.00000000000E+00  0.18355704434E+02  0.16024042554E+04  0.16022991187E+04 0.  0.
        3    1    3    3  502    0 -0.56952439279E+03  0.29281626094E+03 -0.47224880112E+03  0.79568733621E+03  0.10100000352E+00 0. -1.
       -3    1    3    3    0  502  0.56952439279E+03 -0.29281626094E+03  0.49060450555E+03  0.80671691920E+03  0.10100000352E+00 0.  1.
</event>
<event>
 5   0  0.5083831E-04  0.1560196E+04  0.7818609E-02  0.8845382E-01
        2   -1    0    0  501    0  0.00000000000E+00  0.00000000000E+00  0.17353828844E+04  0.17353828844E+04  0.25500000920E-02 0.  1.
       -2   -1    0    0    0  501  0.00000000000E+00  0.00000000000E+00 -0.35067334307E+03  0.35067334308E+03  0.25500000920E-02 0. -1.
    10030    2    1    2    0    0  0.00000000000E+00  0.00000000000E+00  0.13847095413E+04  0.20860562275E+04  0.15601955231E+04 0.  0.
        4    1    3    3  502    0  0.39921391947E+03 -0.66787534510E+03  0.61765129688E+03  0.99344047005E+03  0.12699999809E+01 0.  1.
       -4    1    3    3    0  502 -0.39921391947E+03  0.66787534510E+03  0.76705824443E+03  0.10926157574E+04  0.12699999809E+01 0. -1.
</event>
<event>
 5   0  0.5131239E-04  0.1623034E+04  0.7818609E-02  0.8806521E-01
        2   -1    0    0  501    0  0.00000000000E+00  0.00000000000E+00  0.36501603279E+03  0.36501603280E+03  0.25500000920E-02 0.  1.
       -2   -1    0    0    0  501  0.00000000000E+00  0.00000000000E+00 -0.18041943137E+04  0.18041943137E+04  0.25500000920E-02 0. -1.
    10030    2    1    2    0    0  0.00000000000E+00  0.00000000000E+00 -0.14391782809E+04  0.21692103465E+04  0.16230340117E+04 0.  0.
        1    1    3    3  502    0  0.36640913659E+03  0.50565482425E+03 -0.26895640758E+02  0.62503266489E+03  0.50400001928E-02 0.  1.
       -1    1    3    3    0  502 -0.36640913659E+03 -0.50565482425E+03 -0.14122826401E+04  0.15441776816E+04  0.50400001928E-02 0. -1.
</event>
<event>
 5   0  0.1908125E-04  0.1619389E+04  0.7818609E-02  0.8808724E-01
       -4   -1    0    0    0  501  0.00000000000E+00  0.00000000000E+00  0.50231026940E+03  0.50231187488E+03  0.12699999809E+01 0.  1.
        4   -1    0    0  501    0  0.00000000000E+00  0.00000000000E+00 -0.13051754437E+04  0.13051760615E+04  0.12699999809E+01 0. -1.
    10030    2    1    2    0    0  0.00000000000E+00  0.00000000000E+00 -0.80286517425E+03  0.18074879364E+04  0.16193888206E+04 0.  0.
        5    1    3    3  502    0 -0.56425167180E+03 -0.36612301308E+03  0.10165094345E+03  0.68028009977E+03  0.46999998093E+01 0.  1.
       -5    1    3    3    0  502  0.56425167180E+03  0.36612301308E+03 -0.90451611770E+03  0.11272078367E+04  0.46999998093E+01 0. -1.
</event>
<event>
 5   0  0.2763895E-04  0.1589413E+04  0.7818609E-02  0.8827079E-01
       -1   -1    0    0    0  501  0.00000000000E+00  0.00000000000E+00  0.56005191273E+03  0.56005191276E+03  0.50400001928E-02 0. -1.
        1   -1    0    0  501    0  0.00000000000E+00  0.00000000000E+00 -0.11276779441E+04  0.11276779441E+04  0.50400001928E-02 0.  1.
    10030    2    1    2    0    0  0.00000000000E+00  0.00000000000E+00 -0.56762603133E+03  0.16877298568E+04  0.15894127086E+04 0.  0.
        4    1    3    3  502    0 -0.85572069821E+02  0.77619421486E+03 -0.44043803959E+03  0.89654186624E+03  0.12699999809E+01 0.  1.
       -4    1    3    3    0  502  0.85572069821E+02 -0.77619421486E+03 -0.12718799174E+03  0.79118799059E+03  0.12699999809E+01 0. -1.
</event>
<event>
 5   0  0.2730707E-04  0.1597140E+04  0.7818609E-02  0.8822307E-01
       -1   -1    0    0    0  501  0.00000000000E+00  0.00000000000E+00  0.78294942163E+03  0.78294942165E+03  0.50400001928E-02 0. -1.
        1   -1    0    0  501    0  0.00000000000E+00  0.00000000000E+00 -0.81450249288E+03  0.81450249290E+03  0.50400001928E-02 0.  1.
    10030    2    1    2    0    0  0.00000000000E+00  0.00000000000E+00 -0.31553071249E+02  0.15974519145E+04  0.15971402640E+04 0.  0.
        5    1    3    3  502    0  0.46364283787E+03 -0.36606477001E+03  0.52165881624E+03  0.78811046657E+03  0.46999998093E+01 0. -1.
       -5    1    3    3    0  502 -0.46364283787E+03  0.36606477001E+03 -0.55321188749E+03  0.80934144798E+03  0.46999998093E+01 0.  1.
</event>
<event>
 5   0  0.5315984E-04  0.1548602E+04  0.7818609E-02  0.8852761E-01
       -2   -1    0    0    0  501  0.00000000000E+00  0.00000000000E+00  0.62905557974E+03  0.62905557974E+03  0.25500000920E-02 0.  1.
        2   -1    0    0  501    0  0.00000000000E+00  0.00000000000E+00 -0.95308220310E+03  0.95308220310E+03  0.25500000920E-02 0. -1.
    10030    2    1    2    0    0  0.00000000000E+00  0.00000000000E+00 -0.32402662337E+03  0.15821377828E+04  0.15486015340E+04 0.  0.
        2    1    3    3  502    0  0.31568722816E+02  0.69799162183E+02 -0.94920106356E+03  0.95228733394E+03  0.25500000920E-02 0. -1.
       -2    1    3    3    0  502 -0.31568722816E+02 -0.69799162183E+02  0.62517444020E+03  0.62985044891E+03  0.25500000920E-02 0.  1.
</event>
<event>
 5   0  0.2763895E-04  0.1592480E+04  0.7818609E-02  0.8825181E-01
        1   -1    0    0  501    0  0.00000000000E+00  0.00000000000E+00  0.15341734463E+04  0.15341734463E+04  0.50400001928E-02 0. -1.
       -1   -1    0    0    0  501  0.00000000000E+00  0.00000000000E+00 -0.41325066906E+03  0.41325066909E+03  0.50400001928E-02 0.  1.
    10030    2    1    2    0    0  0.00000000000E+00  0.00000000000E+00  0.11209227773E+04  0.19474241154E+04  0.15924800824E+04 0.  0.
        4    1    3    3  502    0  0.36094434108E+03  0.71511527603E+02 -0.30304088989E+03  0.47668659492E+03  0.12699999809E+01 0.  1.
       -4    1    3    3    0  502 -0.36094434108E+03 -0.71511527603E+02  0.14239636671E+04  0.14707375205E+04  0.12699999809E+01 0. -1.
</event>
<event>
 5   0  0.5381164E-04  0.1596654E+04  0.7818609E-02  0.8822606E-01
        2   -1    0    0  501    0  0.00000000000E+00  0.00000000000E+00  0.13849335604E+04  0.13849335604E+04  0.25500000920E-02 0. -1.
       -2   -1    0    0    0  501  0.00000000000E+00  0.00000000000E+00 -0.46018511460E+03  0.46018511460E+03  0.25500000920E-02 0.  1.
    10030    2    1    2    0    0  0.00000000000E+00  0.00000000000E+00  0.92474844577E+03  0.18451186750E+04  0.15966537623E+04 0.  0.
        5    1    3    3  502    0  0.37631836354E+03 -0.55644398647E+03  0.96084313525E+03  0.11723851933E+04  0.46999998093E+01 0. -1.
       -5    1    3    3    0  502 -0.37631836354E+03  0.55644398647E+03 -0.36094689479E+02  0.67273348172E+03  0.46999998093E+01 0.  1.
</event>
<event>
 5   0  0.2730707E-04  0.1594385E+04  0.7818609E-02  0.8824005E-01
       -1   -1    0    0    0  501  0.00000000000E+00  0.00000000000E+00  0.40113604480E+03  0.40113604483E+03  0.50400001928E-02 0. -1.
        1   -1    0    0  501    0  0.00000000000E+00  0.00000000000E+00 -0.15842910310E+04  0.15842910310E+04  0.50400001928E-02 0.  1.
    10030    2    1    2    0    0  0.00000000000E+00  0.00000000000E+00 -0.11831549862E+04  0.19854270758E+04  0.15943854465E+04 0.  0.
        5    1    3    3  502    0 -0.33941102659E+03 -0.37617252997E+03 -0.13579837277E+04  0.14494300645E+04  0.46999998093E+01 0.  1.
       -5    1    3    3    0  502  0.33941102659E+03  0.37617252997E+03  0.17482874150E+03  0.53599701131E+03  0.46999998093E+01 0. -1.
</event>
<event>
 5   0  0.2689675E-04  0.1584492E+04  0.7818609E-02  0.8830132E-01
        1   -1    0    0  501    0  0.00000000000E+00  0.00000000000E+00  0.14493297547E+04  0.14493297547E+04  0.50400001928E-02 0.  1.
       -1   -1    0    0    0  501  0.00000000000E+00  0.00000000000E+00 -0.43306478943E+03  0.43306478946E+03  0.50400001928E-02 0. -1.
    10030    2    1    2    0    0  0.00000000000E+00  0.00000000000E+00  0.10162649653E+04  0.18823945442E+04  0.15844919502E+04 0.  0.
        1    1    3    3  502    0  0.69737916894E+03  0.26355291599E+03  0.18967485584E+03  0.76926874093E+03  0.50400001928E-02 0. -1.
       -1    1    3    3    0  502 -0.69737916894E+03 -0.26355291599E+03  0.82659010942E+03  0.11131258032E+04  0.50400001928E-02 0.  1.
</event>
<event>
 5   0  0.5315984E-04  0.1593285E+04  0.7818609E-02  0.8824684E-01
       -2   -1    0    0    0  501  0.00000000000E+00  0.00000000000E+00  0.61134008770E+03  0.61134008771E+03  0.25500000920E-02 0.  1.
        2   -1    0    0  501    0  0.00000000000E+00  0.00000000000E+00 -0.10381116018E+04  0.10381116018E+04  0.25500000920E-02 0. -1.
    10030    2    1    2    0    0  0.00000000000E+00  0.00000000000E+00 -0.42677151406E+03  0.16494516895E+04  0.15932849559E+04 0.  0.
        2    1    3    3  502    0  0.30923646879E+03  0.71904895711E+03 -0.36687089336E+03  0.86443788021E+03  0.25500000920E-02 0. -1.
       -2    1    3    3    0  502 -0.30923646879E+03 -0.71904895711E+03 -0.59900620699E+02  0.78501380925E+03  0.25500000920E-02 0.  1.
</event>
<event>
 5   0  0.2730707E-04  0.1602588E+04  0.7818609E-02  0.8818960E-01
       -1   -1    0    0    0  501  0.00000000000E+00  0.00000000000E+00  0.81656628529E+03  0.81656628531E+03  0.50400001928E-02 0.  1.
        1   -1    0    0  501    0  0.00000000000E+00  0.00000000000E+00 -0.78630729218E+03  0.78630729219E+03  0.50400001928E-02 0. -1.
    10030    2    1    2    0    0  0.00000000000E+00  0.00000000000E+00  0.30258993117E+02  0.16028735775E+04  0.16025879379E+04 0.  0.
        5    1    3    3  502    0  0.72706761392E+03 -0.56171998129E+02  0.34725392644E+03  0.80770662249E+03  0.46999998093E+01 0. -1.
       -5    1    3    3    0  502 -0.72706761392E+03  0.56171998129E+02 -0.31699493332E+03  0.79516695501E+03  0.46999998093E+01 0.  1.
</event>
<event>
 5   0  0.5131239E-04  0.1551414E+04  0.7818609E-02  0.8850965E-01
        2   -1    0    0  501    0  0.00000000000E+00  0.00000000000E+00  0.17370256181E+04  0.17370256181E+04  0.25500000920E-02 0. -1.
       -2   -1    0    0    0  501  0.00000000000E+00  0.00000000000E+00 -0.34640906811E+03  0.34640906812E+03  0.25500000920E-02 0.  1.
    10030    2    1    2    0    0  0.00000000000E+00  0.00000000000E+00  0.13906165500E+04  0.20834346863E+04  0.15514140977E+04 0.  0.
        1    1    3    3  502    0 -0.46405747051E+03  0.41134978210E+03  0.13211226280E+04  0.14594255642E+04  0.50400001928E-02 0. -1.
       -1    1    3    3    0  502  0.46405747051E+03 -0.41134978210E+03  0.69493922008E+02  0.62400912204E+03  0.50400001928E-02 0.  1.
</event>
<event>
 5   0  0.2689675E-04  0.1557009E+04  0.7818609E-02  0.8847403E-01
        1   -1    0    0  501    0  0.00000000000E+00  0.00000000000E+00  0.12472182593E+04  0.12472182593E+04  0.50400001928E-02 0. -1.
       -1   -1    0    0    0  501  0.00000000000E+00  0.00000000000E+00 -0.48593695458E+03  0.48593695461E+03  0.50400001928E-02 0.  1.
    10030    2    1    2    0    0  0.00000000000E+00  0.00000000000E+00  0.76128130469E+03  0.17331552139E+04  0.15570092391E+04 0.  0.
        1    1    3    3  502    0 -0.13716416246E+03  0.85959478325E+02  0.12282783084E+04  0.12388989637E+04  0.50400001928E-02 0. -1.
       -1    1    3    3    0  502  0.13716416246E+03 -0.85959478325E+02 -0.46699700369E+03  0.49425625020E+03  0.50400001928E-02 0.  1.
</event>
<event>
 5   0  0.2649086E-04  0.1567995E+04  0.7818609E-02  0.8840455E-01
       -1   -1    0    0    0  501  0.00000000000E+00  0.00000000000E+00  0.52986074369E+03  0.52986074371E+03  0.50400001928E-02 0. -1.
        1   -1    0    0  501    0  0.00000000000E+00  0.00000000000E+00 -0.11600261579E+04  0.11600261579E+04  0.50400001928E-02 0.  1.
    10030    2    1    2    0    0  0.00000000000E+00  0.00000000000E+00 -0.63016541417E+03  0.16898869016E+04  0.15679953096E+04 0.  0.
        2    1    3    3  502    0  0.77964707876E+03  0.77021851992E+02 -0.28328690902E+03  0.83308667372E+03  0.25500000920E-02 0.  1.
       -2    1    3    3    0  502 -0.77964707876E+03 -0.77021851992E+02 -0.34687850514E+03  0.85680022785E+03  0.25500000920E-02 0. -1.
</event>
<event>
 5   0  0.5083831E-04  0.1559970E+04  0.7818609E-02  0.8845524E-01
        2   -1    0    0  501    0  0.00000000000E+00  0.00000000000E+00  0.48092808534E+03  0.48092808535E+03  0.25500000920E-02 0. -1.
       -2   -1    0    0    0  501  0.00000000000E+00  0.00000000000E+00 -0.12650058306E+04  0.12650058306E+04  0.25500000920E-02 0.  1.
    10030    2    1    2    0    0  0.00000000000E+00  0.00000000000E+00 -0.78407774521E+03  0.17459339159E+04  0.15599702972E+04 0.  0.
        4    1    3    3  502    0 -0.57372427878E+03  0.49874953680E+03 -0.58738688784E+03  0.96069538222E+03  0.12699999809E+01 0.  1.
       -4    1    3    3    0  502  0.57372427878E+03 -0.49874953680E+03 -0.19669085737E+03  0.78523853369E+03  0.12699999809E+01 0. -1.
</event>
<event>
 5   0  0.5315984E-04  0.1600615E+04  0.7818609E-02  0.8820170E-01
       -2   -1    0    0    0  501  0.00000000000E+00  0.00000000000E+00  0.35684926984E+03  0.35684926985E+03  0.25500000920E-02 0. -1.
        2   -1    0    0  501    0  0.00000000000E+00  0.00000000000E+00 -0.17948541911E+04  0.17948541911E+04  0.25500000920E-02 0.  1.
    10030    2    1    2    0    0  0.00000000000E+00  0.00000000000E+00 -0.14380049213E+04  0.21517034610E+04  0.16006153911E+04 0.  0.
        2    1    3    3  502    0  0.67978428360E+03  0.34912203617E+02 -0.12848333992E+04  0.14540022001E+04  0.25500000920E-02 0.  1.
       -2    1    3    3    0  502 -0.67978428360E+03 -0.34912203617E+02 -0.15317152202E+03  0.69770126082E+03  0.25500000920E-02 0. -1.
</event>
<event>
 5   0  0.5083831E-04  0.1621641E+04  0.7818609E-02  0.8807362E-01
        2   -1    0    0  501    0  0.00000000000E+00  0.00000000000E+00  0.14415049033E+04  0.14415049033E+04  0.25500000920E-02 0. -1.
       -2   -1    0    0    0  501  0.00000000000E+00  0.00000000000E+00 -0.45607197026E+03  0.45607197027E+03  0.25500000920E-02 0.  1.
    10030    2    1    2    0    0  0.00000000000E+00  0.00000000000E+00  0.98543293302E+03  0.18975768735E+04  0.16216411211E+04 0.  0.
        4    1    3    3  502    0  0.11501226676E+03  0.68451442364E+03  0.23090544930E+01  0.69411437264E+03  0.12699999809E+01 0.  1.
       -4    1    3    3    0  502 -0.11501226676E+03 -0.68451442364E+03  0.98312387853E+03  0.12034625009E+04  0.12699999809E+01 0. -1.
</event>
<event>
 5   0  0.2649086E-04  0.1597318E+04  0.7818609E-02  0.8822197E-01
        1   -1    0    0  501    0  0.00000000000E+00  0.00000000000E+00  0.11922546209E+04  0.11922546209E+04  0.50400001928E-02 0.  1.
       -1   -1    0    0    0  501  0.00000000000E+00  0.00000000000E+00 -0.53500008485E+03  0.53500008487E+03  0.50400001928E-02 0. -1.
    10030    2    1    2    0    0  0.00000000000E+00  0.00000000000E+00  0.65725453604E+03  0.17272547058E+04  0.15973181566E+04 0.  0.
        2    1    3    3  502    0 -0.31004272177E+03 -0.26720381275E+03 -0.41296842710E+03  0.58143554128E+03  0.25500000920E-02 0. -1.
       -2    1    3    3    0  502  0.31004272177E+03  0.26720381275E+03  0.10702229631E+04  0.11458191645E+04  0.25500000920E-02 0.  1.
</event>
<event>
 5   0  0.5131239E-04  0.1845306E+04  0.7818609E-02  0.8682571E-01
        2   -1    0    0  501    0  0.00000000000E+00  0.00000000000E+00  0.17964379277E+04  0.17964379277E+04  0.25500000920E-02 0. -1.
       -2   -1    0    0    0  501  0.00000000000E+00  0.00000000000E+00 -0.47387564043E+03  0.47387564044E+03  0.25500000920E-02 0.  1.
    10030    2    1    2    0    0  0.00000000000E+00  0.00000000000E+00  0.13225622873E+04  0.22703135682E+04  0.18453055828E+04 0.  0.
        1    1    3    3  502    0 -0.68997805918E+03 -0.19239040061E+02  0.14145418756E+04  0.15739658766E+04  0.50400001928E-02 0. -1.
       -1    1    3    3    0  502  0.68997805918E+03  0.19239040061E+02 -0.91979588353E+02  0.69634769154E+03  0.50400001928E-02 0.  1.
</event>
<event>
 5   0  0.2763895E-04  0.1596942E+04  0.7818609E-02  0.8822429E-01
       -1   -1    0    0    0  501  0.00000000000E+00  0.00000000000E+00  0.49292131054E+03  0.49292131057E+03  0.50400001928E-02 0.  1.
        1   -1    0    0  501    0  0.00000000000E+00  0.00000000000E+00 -0.12934229037E+04  0.12934229037E+04  0.50400001928E-02 0. -1.
    10030    2    1    2    0    0  0.00000000000E+00  0.00000000000E+00 -0.80050159314E+03  0.17863442143E+04  0.15969417182E+04 0.  0.
        4    1    3    3  502    0  0.77673687155E+03  0.30600696615E+02 -0.19613242809E+03  0.80170200979E+03  0.12699999809E+01 0.  1.
       -4    1    3    3    0  502 -0.77673687155E+03 -0.30600696615E+02 -0.60436916505E+03  0.98464220447E+03  0.12699999809E+01 0. -1.
</event>
<event>
 5   0  0.2649086E-04  0.1645648E+04  0.7818609E-02  0.8792985E-01
       -1   -1    0    0    0  501  0.00000000000E+00  0.00000000000E+00  0.59465534352E+03  0.59465534354E+03  0.50400001928E-02 0.  1.
        1   -1    0    0  501    0  0.00000000000E+00  0.00000000000E+00 -0.11385410001E+04  0.11385410001E+04  0.50400001928E-02 0. -1.
    10030    2    1    2    0    0  0.00000000000E+00  0.00000000000E+00 -0.54388565655E+03  0.17331963436E+04  0.16456481878E+04 0.  0.
        2    1    3    3  502    0  0.13112512533E+03  0.76270228353E+03  0.22446614203E+02  0.77421729656E+03  0.25500000920E-02 0.  1.
       -2    1    3    3    0  502 -0.13112512533E+03 -0.76270228353E+03 -0.56633227075E+03  0.95897904706E+03  0.25500000920E-02 0. -1.
</event>
<event>
 5   0  0.2689675E-04  0.1609024E+04  0.7818609E-02  0.8815023E-01
       -1   -1    0    0    0  501  0.00000000000E+00  0.00000000000E+00  0.40644384366E+03  0.40644384369E+03  0.50400001928E-02 0. -1.
        1   -1    0    0  501    0  0.00000000000E+00  0.00000000000E+00 -0.15924456545E+04  0.15924456545E+04  0.50400001928E-02 0.  1.
    10030    2    1    2    0    0  0.00000000000E+00  0.00000000000E+00 -0.11860018108E+04  0.19988894982E+04  0.16090242169E+04 0.  0.
        1    1    3    3  502    0 -0.27004130248E+03  0.40840723124E+03 -0.13860520233E+04  0.14699860485E+04  0.50400001928E-02 0.  1.
       -1    1    3    3    0  502  0.27004130248E+03 -0.40840723124E+03  0.20005021244E+03  0.52890344969E+03  0.50400001928E-02 0. -1.
</event>
<event>
 5   0  0.5131239E-04  0.1560114E+04  0.7818609E-02  0.8845433E-01
       -2   -1    0    0    0  501  0.00000000000E+00  0.00000000000E+00  0.41017488823E+03  0.41017488824E+03  0.25500000920E-02 0. -1.
        2   -1    0    0  501    0  0.00000000000E+00  0.00000000000E+00 -0.14834864315E+04  0.14834864315E+04  0.25500000920E-02 0.  1.
    10030    2    1    2    0    0  0.00000000000E+00  0.00000000000E+00 -0.10733115432E+04  0.18936613197E+04  0.15601139461E+04 0.  0.
        1    1    3    3  502    0  0.71091377754E+01 -0.35083270025E+03  0.30896498534E+03  0.46753982247E+03  0.50400001928E-02 0. -1.
       -1    1    3    3    0  502 -0.71091377754E+01  0.35083270025E+03 -0.13822765286E+04  0.14261214972E+04  0.50400001928E-02 0.  1.
</event>
<event>
 5   0  0.2796994E-04  0.1582058E+04  0.7818609E-02  0.8831647E-01
       -1   -1    0    0    0  501  0.00000000000E+00  0.00000000000E+00  0.81179200529E+03  0.81179200531E+03  0.50400001928E-02 0. -1.
        1   -1    0    0  501    0  0.00000000000E+00  0.00000000000E+00 -0.77079748806E+03  0.77079748808E+03  0.50400001928E-02 0.  1.
    10030    2    1    2    0    0  0.00000000000E+00  0.00000000000E+00  0.40994517230E+02  0.15825894934E+04  0.15820584547E+04 0.  0.
        3    1    3    3  502    0  0.43808050260E+03 -0.19071254609E+03  0.65113842757E+03  0.80763052447E+03  0.10100000352E+00 0. -1.
       -3    1    3    3    0  502 -0.43808050260E+03  0.19071254609E+03 -0.61014391034E+03  0.77495896893E+03  0.10100000352E+00 0.  1.
</event>
<event>
 5   0  0.2730707E-04  0.1600874E+04  0.7818609E-02  0.8820011E-01
       -1   -1    0    0    0  501  0.00000000000E+00  0.00000000000E+00  0.55748325400E+03  0.55748325403E+03  0.50400001928E-02 0. -1.
        1   -1    0    0  501    0  0.00000000000E+00  0.00000000000E+00 -0.11492714444E+04  0.11492714444E+04  0.50400001928E-02 0.  1.
    10030    2    1    2    0    0  0.00000000000E+00  0.00000000000E+00 -0.59178819035E+03  0.17067546984E+04  0.16008742419E+04 0.  0.
        5    1    3    3  502    0 -0.22903543213E+03  0.74448987905E+03 -0.49235055044E+03  0.92149528685E+03  0.46999998093E+01 0. -1.
       -5    1    3    3    0  502  0.22903543213E+03 -0.74448987905E+03 -0.99437639913E+02  0.78525941154E+03  0.46999998093E+01 0.  1.
</event>
<event>
 5   0  0.2796994E-04  0.1589183E+04  0.7818609E-02  0.8827221E-01
       -1   -1    0    0    0  501  0.00000000000E+00  0.00000000000E+00  0.48269112480E+03  0.48269112483E+03  0.50400001928E-02 0.  1.
        1   -1    0    0  501    0  0.00000000000E+00  0.00000000000E+00 -0.13080324747E+04  0.13080324747E+04  0.50400001928E-02 0. -1.
    10030    2    1    2    0    0  0.00000000000E+00  0.00000000000E+00 -0.82534134990E+03  0.17907235995E+04  0.15891830184E+04 0.  0.
        3    1    3    3  502    0  0.28432032736E+03 -0.28189561402E+03  0.36071923881E+03  0.53890775204E+03  0.10100000352E+00 0.  1.
       -3    1    3    3    0  502 -0.28432032736E+03  0.28189561402E+03 -0.11860605887E+04  0.12518158475E+04  0.10100000352E+00 0. -1.
</event>
<event>
 5   0  0.5315984E-04  0.1603238E+04  0.7818609E-02  0.8818561E-01
        2   -1    0    0  501    0  0.00000000000E+00  0.00000000000E+00  0.58124933186E+03  0.58124933186E+03  0.25500000920E-02 0.  1.
       -2   -1    0    0    0  501  0.00000000000E+00  0.00000000000E+00 -0.11055376102E+04  0.11055376102E+04  0.25500000920E-02 0. -1.
    10030    2    1    2    0    0  0.00000000000E+00  0.00000000000E+00 -0.52428827838E+03  0.16867869421E+04  0.16032379702E+04 0.  0.
        2    1    3    3  502    0  0.62055840688E+03 -0.36392066527E+03 -0.63421438674E+03  0.95904060149E+03  0.25500000920E-02 0. -1.
       -2    1    3    3    0  502 -0.62055840688E+03  0.36392066527E+03  0.10992610836E+03  0.72774634061E+03  0.25500000920E-02 0.  1.
</event>
<event>
 5   0  0.5083831E-04  0.1596361E+04  0.7818609E-02  0.8822787E-01
       -2   -1    0    0    0  501  0.00000000000E+00  0.00000000000E+00  0.10393734654E+04  0.10393734654E+04  0.25500000920E-02 0. -1.
        2   -1    0    0  501    0  0.00000000000E+00  0.00000000000E+00 -0.61295750898E+03  0.61295750898E+03  0.25500000920E-02 0.  1.
    10030    2    1    2    0    0  0.00000000000E+00  0.00000000000E+00  0.42641595639E+03  0.16523309744E+04  0.15963605736E+04 0.  0.
        4    1    3    3  502    0 -0.41326865986E+03 -0.49497536699E+03  0.70012543296E+03  0.95182395112E+03  0.12699999809E+01 0. -1.
       -4    1    3    3    0  502  0.41326865986E+03  0.49497536699E+03 -0.27370947656E+03  0.70050702324E+03  0.12699999809E+01 0.  1.
</event>
<event>
 5   0  0.5083831E-04  0.1603584E+04  0.7818609E-02  0.8818349E-01
       -2   -1    0    0    0  501  0.00000000000E+00  0.00000000000E+00  0.80276018514E+03  0.80276018514E+03  0.25500000920E-02 0. -1.
        2   -1    0    0  501    0  0.00000000000E+00  0.00000000000E+00 -0.80082543235E+03  0.80082543235E+03  0.25500000920E-02 0.  1.
    10030    2    1    2    0    0  0.00000000000E+00  0.00000000000E+00  0.19347527857E+01  0.16035856175E+04  0.16035844503E+04 0.  0.
        4    1    3    3  502    0 -0.46573590741E+03 -0.63292377728E+03 -0.15830205905E+03  0.80160064752E+03  0.12699999809E+01 0. -1.
       -4    1    3    3    0  502  0.46573590741E+03  0.63292377728E+03  0.16023681183E+03  0.80198496998E+03  0.12699999809E+01 0.  1.
</event>
<event>
 5   0  0.1908125E-04  0.1597269E+04  0.7818609E-02  0.8822228E-01
       -3   -1    0    0    0  501  0.00000000000E+00  0.00000000000E+00  0.73974350186E+03  0.73974350876E+03  0.10100000352E+00 0.  1.
        3   -1    0    0  501    0  0.00000000000E+00  0.00000000000E+00 -0.86221329441E+03  0.86221330032E+03  0.10100000352E+00 0. -1.
    10030    2    1    2    0    0  0.00000000000E+00  0.00000000000E+00 -0.12246979254E+03  0.16019568091E+04  0.15972685335E+04 0.  0.
        3    1    3    3  502    0 -0.55620635137E+03  0.47568387959E+03 -0.38182297179E+03  0.82548740183E+03  0.10100000352E+00 0. -1.
       -3    1    3    3    0  502  0.55620635137E+03 -0.47568387959E+03  0.25935317925E+03  0.77646940725E+03  0.10100000352E+00 0.  1.
</event>
<event>
 5   0  0.2796994E-04  0.1582927E+04  0.7818609E-02  0.8831106E-01
        1   -1    0    0  501    0  0.00000000000E+00  0.00000000000E+00  0.37101194952E+03  0.37101194956E+03  0.50400001928E-02 0. -1.
       -1   -1    0    0    0  501  0.00000000000E+00  0.00000000000E+00 -0.16883950887E+04  0.16883950887E+04  0.50400001928E-02 0.  1.
    10030    2    1    2    0    0  0.00000000000E+00  0.00000000000E+00 -0.13173831392E+04  0.20594070383E+04  0.15829273559E+04 0.  0.
        3    1    3    3  502    0  0.51586733981E+03 -0.35969920738E+03 -0.12838708325E+04  0.14296247608E+04  0.10100000352E+00 0.  1.
       -3    1    3    3    0  502 -0.51586733981E+03  0.35969920738E+03 -0.33512306697E+02  0.62978227744E+03  0.10100000352E+00 0. -1.
</event>
<event>
 5   0  0.2763895E-04  0.1595635E+04  0.7818609E-02  0.8823234E-01
       -1   -1    0    0    0  501  0.00000000000E+00  0.00000000000E+00  0.19694302161E+03  0.19694302168E+03  0.50400001928E-02 0.  1.
        1   -1    0    0  501    0  0.00000000000E+00  0.00000000000E+00 -0.32319625209E+04  0.32319625209E+04  0.50400001928E-02 0. -1.
    10030    2    1    2    0    0  0.00000000000E+00  0.00000000000E+00 -0.30350194993E+04  0.34289055426E+04  0.15956346257E+04 0.  0.
        4    1    3    3  502    0 -0.52081369707E+03  0.32028497411E+03 -0.26188887633E+04  0.26893139160E+04  0.12699999809E+01 0. -1.
       -4    1    3    3    0  502  0.52081369707E+03 -0.32028497411E+03 -0.41613073600E+03  0.73959162653E+03  0.12699999809E+01 0.  1.
</event>
<event>
 5   0  0.5381164E-04  0.1514156E+04  0.7818609E-02  0.8875094E-01
        2   -1    0    0  501    0  0.00000000000E+00  0.00000000000E+00  0.16777785514E+04  0.16777785514E+04  0.25500000920E-02 0. -1.
       -2   -1    0    0    0  501  0.00000000000E+00  0.00000000000E+00 -0.34162264142E+03  0.34162264143E+03  0.25500000920E-02 0.  1.
    10030    2    1    2    0    0  0.00000000000E+00  0.00000000000E+00  0.13361559099E+04  0.20194011928E+04  0.15141560560E+04 0.  0.
        5    1    3    3  502    0 -0.67447435164E+03  0.25979929619E+03  0.96847824416E+03  0.12084632906E+04  0.46999998093E+01 0.  1.
       -5    1    3    3    0  502  0.67447435164E+03 -0.25979929619E+03  0.36767766578E+03  0.81093790220E+03  0.46999998093E+01 0. -1.
</event>
<event>
 5   0  0.2730707E-04  0.1591548E+04  0.7818609E-02  0.8825757E-01
        1   -1    0    0  501    0  0.00000000000E+00  0.00000000000E+00  0.69381421328E+03  0.69381421330E+03  0.50400001928E-02 0. -1.
       -1   -1    0    0    0  501  0.00000000000E+00  0.00000000000E+00 -0.91271708762E+03  0.91271708763E+03  0.50400001928E-02 0.  1.
    10030    2    1    2    0    0  0.00000000000E+00  0.00000000000E+00 -0.21890287434E+03  0.16065313009E+04  0.15915477852E+04 0.  0.
        5    1    3    3  502    0  0.31640713927E+03  0.57697885632E+03  0.34221603211E+03  0.74172230723E+03  0.46999998093E+01 0. -1.
       -5    1    3    3    0  502 -0.31640713927E+03 -0.57697885632E+03 -0.56111890644E+03  0.86480899370E+03  0.46999998093E+01 0.  1.
</event>
<event>
 5   0  0.2649086E-04  0.1580192E+04  0.7818609E-02  0.8832810E-01
        1   -1    0    0  501    0  0.00000000000E+00  0.00000000000E+00  0.85861059499E+03  0.85861059500E+03  0.50400001928E-02 0. -1.
       -1   -1    0    0    0  501  0.00000000000E+00  0.00000000000E+00 -0.72704840177E+03  0.72704840179E+03  0.50400001928E-02 0.  1.
    10030    2    1    2    0    0  0.00000000000E+00  0.00000000000E+00  0.13156219322E+03  0.15856589968E+04  0.15801917110E+04 0.  0.
        2    1    3    3  502    0  0.72467946663E+02  0.93908860815E+02 -0.71806238465E+03  0.72779397200E+03  0.25500000920E-02 0.  1.
       -2    1    3    3    0  502 -0.72467946663E+02 -0.93908860815E+02  0.84962457787E+03  0.85786502479E+03  0.25500000920E-02 0. -1.
</event>
<event>
 5   0  0.5264308E-04  0.1619637E+04  0.7818609E-02  0.8808575E-01
        2   -1    0    0  501    0  0.00000000000E+00  0.00000000000E+00  0.14644320057E+04  0.14644320057E+04  0.25500000920E-02 0. -1.
       -2   -1    0    0    0  501  0.00000000000E+00  0.00000000000E+00 -0.44782254102E+03  0.44782254102E+03  0.25500000920E-02 0.  1.
    10030    2    1    2    0    0  0.00000000000E+00  0.00000000000E+00  0.10166094647E+04  0.19122545468E+04  0.16196365790E+04 0.  0.
        3    1    3    3  502    0 -0.61419687795E+03  0.32347980423E+03  0.10006998126E+04  0.12178986468E+04  0.10100000352E+00 0. -1.
       -3    1    3    3    0  502  0.61419687795E+03 -0.32347980423E+03  0.15909652098E+02  0.69435589999E+03  0.10100000352E+00 0.  1.
</event>
<event>
 5   0  0.2796994E-04  0.1593570E+04  0.7818609E-02  0.8824508E-01
        1   -1    0    0  501    0  0.00000000000E+00  0.00000000000E+00  0.16254223449E+04  0.16254223449E+04  0.50400001928E-02 0. -1.
       -1   -1    0    0    0  501  0.00000000000E+00  0.00000000000E+00 -0.39058534695E+03  0.39058534698E+03  0.50400001928E-02 0.  1.
    10030    2    1    2    0    0  0.00000000000E+00  0.00000000000E+00  0.12348369980E+04  0.20160076919E+04  0.15935697670E+04 0.  0.
        3    1    3    3  502    0 -0.74485194876E+03 -0.84070096465E+02  0.95921254040E+03  0.12173581702E+04  0.10100000352E+00 0.  1.
       -3    1    3    3    0  502  0.74485194876E+03  0.84070096465E+02  0.27562445756E+03  0.79864952169E+03  0.10100000352E+00 0. -1.
</event>
<event>
 5   0  0.2796994E-04  0.1597634E+04  0.7818609E-02  0.8822003E-01
        1   -1    0    0  501    0  0.00000000000E+00  0.00000000000E+00  0.15115498089E+04  0.15115498089E+04  0.50400001928E-02 0.  1.
       -1   -1    0    0    0  501  0.00000000000E+00  0.00000000000E+00 -0.42215530723E+03  0.42215530726E+03  0.50400001928E-02 0. -1.
    10030    2    1    2    0    0  0.00000000000E+00  0.00000000000E+00  0.10893945017E+04  0.19337051162E+04  0.15976342185E+04 0.  0.
        3    1    3    3  502    0  0.24475080469E+03  0.51559555738E+03 -0.13176798965E+03  0.58575126845E+03  0.10100000352E+00 0. -1.
       -3    1    3    3    0  502 -0.24475080469E+03 -0.51559555738E+03  0.12211624913E+04  0.13479538477E+04  0.10100000352E+00 0.  1.
</event>
<event>
 5   0  0.2796994E-04  0.1580925E+04  0.7818609E-02  0.8832353E-01
       -1   -1    0    0    0  501  0.00000000000E+00  0.00000000000E+00  0.36397830749E+03  0.36397830753E+03  0.50400001928E-02 0. -1.
        1   -1    0    0  501    0  0.00000000000E+00  0.00000000000E+00 -0.17166718698E+04  0.17166718698E+04  0.50400001928E-02 0.  1.
    10030    2    1    2    0    0  0.00000000000E+00  0.00000000000E+00 -0.13526935623E+04  0.20806501773E+04  0.15809254527E+04 0.  0.
        3    1    3    3  502    0 -0.20215201333E+03  0.34904365152E+03 -0.15710352231E+04  0.16219890843E+04  0.10100000352E+00 0.  1.
       -3    1    3    3    0  502  0.20215201333E+03 -0.34904365152E+03  0.21834166085E+03  0.45866109299E+03  0.10100000352E+00 0. -1.
</event>
<event>
 5   0  0.1908125E-04  0.1802197E+04  0.7818609E-02  0.8705132E-01
        4   -1    0    0  501    0  0.00000000000E+00  0.00000000000E+00  0.58730417294E+03  0.58730554607E+03  0.12699999809E+01 0. -1.
       -4   -1    0    0    0  501  0.00000000000E+00  0.00000000000E+00 -0.13825490595E+04  0.13825496428E+04  0.12699999809E+01 0.  1.
    10030    2    1    2    0    0  0.00000000000E+00  0.00000000000E+00 -0.79524488654E+03  0.19698551889E+04  0.18021972799E+04 0.  0.
        5    1    3    3  502    0  0.71619630633E+03 -0.33378296920E+03  0.75810165465E+02  0.79379940219E+03  0.46999998093E+01 0.  1.
       -5    1    3    3    0  502 -0.71619630633E+03  0.33378296920E+03 -0.87105505200E+03  0.11760557867E+04  0.46999998093E+01 0. -1.
</event>
<event>
 5   0  0.2763895E-04  0.1591056E+04  0.7818609E-02  0.8826061E-01
       -1   -1    0    0    0  501  0.00000000000E+00  0.00000000000E+00  0.90497415794E+03  0.90497415796E+03  0.50400001928E-02 0.  1.
        1   -1    0    0  501    0  0.00000000000E+00  0.00000000000E+00 -0.69931830425E+03  0.69931830427E+03  0.50400001928E-02 0. -1.
    10030    2    1    2    0    0  0.00000000000E+00  0.00000000000E+00  0.20565585369E+03  0.16042924622E+04  0.15910562448E+04 0.  0.
        4    1    3    3  502    0  0.30632870807E+02  0.78577799602E+03 -0.18497416611E+02  0.78659341411E+03  0.12699999809E+01 0. -1.
       -4    1    3    3    0  502 -0.30632870807E+02 -0.78577799602E+03  0.22415327030E+03  0.81769904811E+03  0.12699999809E+01 0.  1.
</event>
<event>
 5   0  0.2763895E-04  0.1605644E+04  0.7818609E-02  0.8817088E-01
       -1   -1    0    0    0  501  0.00000000000E+00  0.00000000000E+00  0.30333431566E+03  0.30333431570E+03  0.50400001928E-02 0.  1.
        1   -1    0    0  501    0  0.00000000000E+00  0.00000000000E+00 -0.21247939983E+04  0.21247939983E+04  0.50400001928E-02 0. -1.
    10030    2    1    2    0    0  0.00000000000E+00  0.00000000000E+00 -0.18214596827E+04  0.24281283140E+04  0.16056437132E+04 0.  0.
        4    1    3    3  502    0  0.44863539512E+03  0.19349037085E+03 -0.18740781288E+04  0.19367195685E+04  0.12699999809E+01 0. -1.
       -4    1    3    3    0  502 -0.44863539512E+03 -0.19349037085E+03  0.52618446143E+02  0.49140874549E+03  0.12699999809E+01 0.  1.
</event>
<event>
 5   0  0.5264308E-04  0.1601864E+04  0.7818609E-02  0.8819404E-01
        2   -1    0    0  501    0  0.00000000000E+00  0.00000000000E+00  0.75279017513E+03  0.75279017513E+03  0.25500000920E-02 0.  1.
       -2   -1    0    0    0  501  0.00000000000E+00  0.00000000000E+00 -0.85215225185E+03  0.85215225185E+03  0.25500000920E-02 0. -1.
    10030    2    1    2    0    0  0.00000000000E+00  0.00000000000E+00 -0.99362076724E+02  0.16049424270E+04  0.16018637182E+04 0.  0.
        3    1    3    3  502    0  0.10278782431E+03  0.69224150359E+03  0.34059064440E+03  0.77830947147E+03  0.10100000352E+00 0.  1.
       -3    1    3    3    0  502 -0.10278782431E+03 -0.69224150359E+03 -0.43995272113E+03  0.82663295552E+03  0.10100000352E+00 0. -1.
</event>
<event>
 5   0  0.5083831E-04  0.1576251E+04  0.7818609E-02  0.8835272E-01
        2   -1    0    0  501    0  0.00000000000E+00  0.00000000000E+00  0.30669184873E+04  0.30669184873E+04  0.25500000920E-02 0.  1.
       -2   -1    0    0    0  501  0.00000000000E+00  0.00000000000E+00 -0.20252962816E+03  0.20252962817E+03  0.25500000920E-02 0. -1.
    10030    2    1    2    0    0  0.00000000000E+00  0.00000000000E+00  0.28643888591E+04  0.32694481155E+04  0.15762510724E+04 0.  0.
        4    1    3    3  502    0  0.72638422399E+03  0.18244189556E+03  0.92318758814E+03  0.11887792150E+04  0.12699999809E+01 0. -1.
       -4    1    3    3    0  502 -0.72638422399E+03 -0.18244189556E+03  0.19412012710E+04  0.20806689005E+04  0.12699999809E+01 0.  1.
</event>
<event>
 5   0  0.5083831E-04  0.1473186E+04  0.7818609E-02  0.8902482E-01
       -2   -1    0    0    0  501  0.00000000000E+00  0.00000000000E+00  0.37225059764E+03  0.37225059765E+03  0.25500000920E-02 0. -1.
        2   -1    0    0  501    0  0.00000000000E+00  0.00000000000E+00 -0.14575380493E+04  0.14575380493E+04  0.25500000920E-02 0.  1.
    10030    2    1    2    0    0  0.00000000000E+00  0.00000000000E+00 -0.10852874517E+04  0.18297886470E+04  0.14731862204E+04 0.  0.
        4    1    3    3  502    0  0.40934020664E+03 -0.35076864845E+02 -0.13020079843E+04  0.13652897844E+04  0.12699999809E+01 0.  1.
       -4    1    3    3    0  502 -0.40934020664E+03  0.35076864845E+02  0.21672053260E+03  0.46449886262E+03  0.12699999809E+01 0. -1.
</event>
<event>
 5   0  0.2730707E-04  0.1602224E+04  0.7818609E-02  0.8819183E-01
       -1   -1    0    0    0  501  0.00000000000E+00  0.00000000000E+00  0.55442965463E+03  0.55442965466E+03  0.50400001928E-02 0. -1.
        1   -1    0    0  501    0  0.00000000000E+00  0.00000000000E+00 -0.11575503592E+04  0.11575503592E+04  0.50400001928E-02 0.  1.
    10030    2    1    2    0    0  0.00000000000E+00  0.00000000000E+00 -0.60312070457E+03  0.17119800139E+04  0.16022237620E+04 0.  0.
        5    1    3    3  502    0 -0.49305918435E+03  0.53633822743E+03  0.54416338082E+02  0.73058146795E+03  0.46999998093E+01 0. -1.
       -5    1    3    3    0  502  0.49305918435E+03 -0.53633822743E+03 -0.65753704265E+03  0.98139854592E+03  0.46999998093E+01 0.  1.
</event>
<event>
 5   0  0.2796994E-04  0.1609300E+04  0.7818609E-02  0.8814855E-01
       -1   -1    0    0    0  501  0.00000000000E+00  0.00000000000E+00  0.11151505254E+04  0.11151505254E+04  0.50400001928E-02 0.  1.
        1   -1    0    0  501    0  0.00000000000E+00  0.00000000000E+00 -0.58060492941E+03  0.58060492944E+03  0.50400001928E-02 0. -1.
    10030    2    1    2    0    0  0.00000000000E+00  0.00000000000E+00  0.53454559601E+03  0.16957554549E+04  0.16093003351E+04 0.  0.
        3    1    3    3  502    0  0.80287701305E+03 -0.18390357030E+02  0.21445851621E+03  0.83122931174E+03  0.10100000352E+00 0.  1.
       -3    1    3    3    0  502 -0.80287701305E+03  0.18390357030E+02  0.32008707980E+03  0.86452614314E+03  0.10100000352E+00 0. -1.
</event>
<event>
 5   0  0.5083831E-04  0.1614694E+04  0.7818609E-02  0.8811572E-01
       -2   -1    0    0    0  501  0.00000000000E+00  0.00000000000E+00  0.68955503131E+03  0.68955503132E+03  0.25500000920E-02 0.  1.
        2   -1    0    0  501    0  0.00000000000E+00  0.00000000000E+00 -0.94526002853E+03  0.94526002853E+03  0.25500000920E-02 0. -1.
    10030    2    1    2    0    0  0.00000000000E+00  0.00000000000E+00 -0.25570499722E+03  0.16348150598E+04  0.16146935419E+04 0.  0.
        4    1    3    3  502    0  0.24791335891E+03  0.63288796340E+03 -0.56894072699E+03  0.88639910394E+03  0.12699999809E+01 0. -1.
       -4    1    3    3    0  502 -0.24791335891E+03 -0.63288796340E+03  0.31323572978E+03  0.74841595590E+03  0.12699999809E+01 0.  1.
</event>
<event>
 5   0  0.5381164E-04  0.1629280E+04  0.7818609E-02  0.8802760E-01
        2   -1    0    0  501    0  0.00000000000E+00  0.00000000000E+00  0.27997666522E+04  0.27997666522E+04  0.25500000920E-02 0.  1.
       -2   -1    0    0    0  501  0.00000000000E+00  0.00000000000E+00 -0.23703331135E+03  0.23703331136E+03  0.25500000920E-02 0. -1.
    10030    2    1    2    0    0  0.00000000000E+00  0.00000000000E+00  0.25627333408E+04  0.30367999635E+04  0.16292795470E+04 0.  0.
        5    1    3    3  502    0  0.59422191470E+03  0.43853646036E+03  0.64055130285E+03  0.97762056676E+03  0.46999998093E+01 0. -1.
       -5    1    3    3    0  502 -0.59422191470E+03 -0.43853646036E+03  0.19221820380E+04  0.20591793968E+04  0.46999998093E+01 0.  1.
</event>
<event>
 5   0  0.2730707E-04  0.1588617E+04  0.7818609E-02  0.8827571E-01
       -1   -1    0    0    0  501  0.00000000000E+00  0.00000000000E+00  0.13056666302E+04  0.13056666302E+04  0.50400001928E-02 0.  1.
        1   -1    0    0  501    0  0.00000000000E+00  0.00000000000E+00 -0.48322164761E+03  0.48322164764E+03  0.50400001928E-02 0. -1.
    10030    2    1    2    0    0  0.00000000000E+00  0.00000000000E+00  0.82244498261E+03  0.17888882779E+04  0.15886174874E+04 0.  0.
        5    1    3    3  502    0  0.62112796096E+03 -0.20581652603E+03 -0.95812325012E+02  0.66133386266E+03  0.46999998093E+01 0. -1.
       -5    1    3    3    0  502 -0.62112796096E+03  0.20581652603E+03  0.91825730763E+03  0.11275544152E+04  0.46999998093E+01 0.  1.
</event>
<event>
 5   0  0.2796994E-04  0.1659425E+04  0.7818609E-02  0.8784850E-01
       -1   -1    0    0    0  501  0.00000000000E+00  0.00000000000E+00  0.58622968981E+03  0.58622968983E+03  0.50400001928E-02 0.  1.
        1   -1    0    0  501    0  0.00000000000E+00  0.00000000000E+00 -0.11743229657E+04  0.11743229658E+04  0.50400001928E-02 0. -1.
    10030    2    1    2    0    0  0.00000000000E+00  0.00000000000E+00 -0.58809327593E+03  0.17605526556E+04  0.16594251872E+04 0.  0.
        3    1    3    3  502    0 -0.45571516108E+03 -0.37014507849E+03  0.32797562548E+03  0.67249662325E+03  0.10100000352E+00 0.  1.
       -3    1    3    3    0  502  0.45571516108E+03  0.37014507849E+03 -0.91606890141E+03  0.10880560323E+04  0.10100000352E+00 0. -1.
</event>
<event>
 5   0  0.5315984E-04  0.1547793E+04  0.7818609E-02  0.8853279E-01
       -2   -1    0    0    0  501  0.00000000000E+00  0.00000000000E+00  0.34057887658E+03  0.34057887658E+03  0.25500000920E-02 0. -1.
        2   -1    0    0  501    0  0.00000000000E+00  0.00000000000E+00 -0.17585220480E+04  0.17585220480E+04  0.25500000920E-02 0.  1.
    10030    2    1    2    0    0  0.00000000000E+00  0.00000000000E+00 -0.14179431714E+04  0.20991009246E+04  0.15477925747E+04 0.  0.
        2    1    3    3  502    0 -0.12358071268E+03 -0.50512307219E+03 -0.14862636802E+04  0.15746114561E+04  0.25500000920E-02 0.  1.
       -2    1    3    3    0  502  0.12358071268E+03  0.50512307219E+03  0.68320508789E+02  0.52448946847E+03  0.25500000920E-02 0. -1.
</event>
<event>
 5   0  0.5381164E-04  0.1594664E+04  0.7818609E-02  0.8823833E-01
       -2   -1    0    0    0  501  0.00000000000E+00  0.00000000000E+00  0.53415323722E+03  0.53415323722E+03  0.25500000920E-02 0.  1.
        2   -1    0    0  501    0  0.00000000000E+00  0.00000000000E+00 -0.11901793779E+04  0.11901793779E+04  0.25500000920E-02 0. -1.
    10030    2    1    2    0    0  0.00000000000E+00  0.00000000000E+00 -0.65602614065E+03  0.17243326151E+04  0.15946638110E+04 0.  0.
        5    1    3    3  502    0 -0.67646567372E+03 -0.42172023494E+03 -0.34552613102E+03  0.86882919005E+03  0.46999998093E+01 0.  1.
       -5    1    3    3    0  502  0.67646567372E+03  0.42172023494E+03 -0.31050000962E+03  0.85550342503E+03  0.46999998093E+01 0. -1.
</event>
<event>
 5   0  0.5131239E-04  0.1566273E+04  0.7818609E-02  0.8841540E-01
        2   -1    0    0  501    0  0.00000000000E+00  0.00000000000E+00  0.13091937266E+04  0.13091937266E+04  0.25500000920E-02 0.  1.
       -2   -1    0    0    0  501  0.00000000000E+00  0.00000000000E+00 -0.46845852036E+03  0.46845852037E+03  0.25500000920E-02 0. -1.
    10030    2    1    2    0    0  0.00000000000E+00  0.00000000000E+00  0.84073520627E+03  0.17776522470E+04  0.15662732278E+04 0.  0.
        1    1    3    3  502    0 -0.36800177155E+03  0.46882680893E+03  0.99694243173E+03  0.11615154294E+04  0.50400001928E-02 0.  1.
       -1    1    3    3    0  502  0.36800177155E+03 -0.46882680893E+03 -0.15620722546E+03  0.61613681755E+03  0.50400001928E-02 0. -1.
</event>
<event>
 5   0  0.5083831E-04  0.1624866E+04  0.7818609E-02  0.8805416E-01
       -2   -1    0    0    0  501  0.00000000000E+00  0.00000000000E+00  0.11351259341E+04  0.11351259341E+04  0.25500000920E-02 0. -1.
        2   -1    0    0  501    0  0.00000000000E+00  0.00000000000E+00 -0.58147478756E+03  0.58147478757E+03  0.25500000920E-02 0.  1.
    10030    2    1    2    0    0  0.00000000000E+00  0.00000000000E+00  0.55365114651E+03  0.17166007216E+04  0.16248656700E+04 0.  0.
        4    1    3    3  502    0 -0.70359098911E+03 -0.15626562837E+01  0.70596404866E+03  0.99670937226E+03  0.12699999809E+01 0. -1.
       -4    1    3    3    0  502  0.70359098911E+03  0.15626562837E+01 -0.15231290215E+03  0.71989134938E+03  0.12699999809E+01 0.  1.
</event>
<event>
 5   0  0.5381164E-04  0.1581668E+04  0.7818609E-02  0.8831890E-01
       -2   -1    0    0    0  501  0.00000000000E+00  0.00000000000E+00  0.52328570132E+03  0.52328570132E+03  0.25500000920E-02 0. -1.
        2   -1    0    0  501    0  0.00000000000E+00  0.00000000000E+00 -0.11951764531E+04  0.11951764531E+04  0.25500000920E-02 0.  1.
    10030    2    1    2    0    0  0.00000000000E+00  0.00000000000E+00 -0.67189075183E+03  0.17184621545E+04  0.15816684210E+04 0.  0.
        5    1    3    3  502    0 -0.73753742141E+02  0.35093104798E+03  0.42985797832E+03  0.55981442143E+03  0.46999998093E+01 0. -1.
       -5    1    3    3    0  502  0.73753742141E+02 -0.35093104798E+03 -0.11017487301E+04  0.11586477330E+04  0.46999998093E+01 0.  1.
</event>
<event>
 5   0  0.5264308E-04  0.1605936E+04  0.7818609E-02  0.8816909E-01
        2   -1    0    0  501    0  0.00000000000E+00  0.00000000000E+00  0.17806819200E+04  0.17806819200E+04  0.25500000920E-02 0. -1.
       -2   -1    0    0    0  501  0.00000000000E+00  0.00000000000E+00 -0.36208475680E+03  0.36208475681E+03  0.25500000920E-02 0.  1.
    10030    2    1    2    0    0  0.00000000000E+00  0.00000000000E+00  0.14185971632E+04  0.21427666768E+04  0.16059362129E+04 0.  0.
        3    1    3    3  502    0 -0.11469872032E+03  0.44701916358E+03 -0.16745139259E+03  0.49093982130E+03  0.10100000352E+00 0.  1.
       -3    1    3    3    0  502  0.11469872032E+03 -0.44701916358E+03  0.15860485558E+04  0.16518268555E+04  0.10100000352E+00 0. -1.
</event>
<event>
 5   0  0.2763895E-04  0.1620688E+04  0.7818609E-02  0.8807938E-01
       -1   -1    0    0    0  501  0.00000000000E+00  0.00000000000E+00  0.26407475659E+03  0.26407475664E+03  0.50400001928E-02 0. -1.
        1   -1    0    0  501    0  0.00000000000E+00  0.00000000000E+00 -0.24866354514E+04  0.24866354514E+04  0.50400001928E-02 0.  1.
    10030    2    1    2    0    0  0.00000000000E+00  0.00000000000E+00 -0.22225606948E+04  0.27507102080E+04  0.16206883126E+04 0.  0.
        4    1    3    3  502    0 -0.40991250950E+03  0.45373715408E+03 -0.20137797613E+04  0.21045703149E+04  0.12699999809E+01 0.  1.
       -4    1    3    3    0  502  0.40991250950E+03 -0.45373715408E+03 -0.20878093354E+03  0.64613989317E+03  0.12699999809E+01 0. -1.
</event>
<event>
 5   0  0.5381164E-04  0.1312563E+04  0.7818609E-02  0.9019661E-01
       -2   -1    0    0    0  501  0.00000000000E+00  0.00000000000E+00  0.13460388465E+04  0.13460388465E+04  0.25500000920E-02 0. -1.
        2   -1    0    0  501    0  0.00000000000E+00  0.00000000000E+00 -0.31998013510E+03  0.31998013511E+03  0.25500000920E-02 0.  1.
    10030    2    1    2    0    0  0.00000000000E+00  0.00000000000E+00  0.10260587114E+04  0.16660189816E+04  0.13125634338E+04 0.  0.
        5    1    3    3  502    0  0.22340047117E+03  0.59341019966E+03  0.29822285899E+03  0.70071563362E+03  0.46999998093E+01 0. -1.
       -5    1    3    3    0  502 -0.22340047117E+03 -0.59341019966E+03  0.72783585236E+03  0.96530334795E+03  0.46999998093E+01 0.  1.
</event>
<event>
 5   0  0.2730707E-04  0.1626026E+04  0.7818609E-02  0.8804717E-01
       -1   -1    0    0    0  501  0.00000000000E+00  0.00000000000E+00  0.44231610411E+03  0.44231610414E+03  0.50400001928E-02 0. -1.
        1   -1    0    0  501    0  0.00000000000E+00  0.00000000000E+00 -0.14943842783E+04  0.14943842783E+04  0.50400001928E-02 0.  1.
    10030    2    1    2    0    0  0.00000000000E+00  0.00000000000E+00 -0.10520681741E+04  0.19367003824E+04  0.16260261155E+04 0.  0.
        5    1    3    3  502    0 -0.60602249861E+02 -0.84762863919E+02  0.43431383490E+03  0.44666315381E+03  0.46999998093E+01 0. -1.
       -5    1    3    3    0  502  0.60602249861E+02  0.84762863919E+02 -0.14863820090E+04  0.14900372286E+04  0.46999998093E+01 0.  1.
</event>
<event>
 5   0  0.2730707E-04  0.1583034E+04  0.7818609E-02  0.8831039E-01
        1   -1    0    0  501    0  0.00000000000E+00  0.00000000000E+00  0.11993954465E+04  0.11993954465E+04  0.50400001928E-02 0.  1.
       -1   -1    0    0    0  501  0.00000000000E+00  0.00000000000E+00 -0.52234555181E+03  0.52234555183E+03  0.50400001928E-02 0. -1.
    10030    2    1    2    0    0  0.00000000000E+00  0.00000000000E+00  0.67704989470E+03  0.17217409983E+04  0.15830336400E+04 0.  0.
        5    1    3    3  502    0 -0.55780497542E+03  0.20053640026E+03  0.90899814463E+03  0.10852008825E+04  0.46999998093E+01 0.  1.
       -5    1    3    3    0  502  0.55780497542E+03 -0.20053640026E+03 -0.23194824994E+03  0.63654011584E+03  0.46999998093E+01 0. -1.
</event>
<event>
 5   0  0.2730707E-04  0.1609610E+04  0.7818609E-02  0.8814666E-01
       -1   -1    0    0    0  501  0.00000000000E+00  0.00000000000E+00  0.60489951579E+03  0.60489951581E+03  0.50400001928E-02 0.  1.
        1   -1    0    0  501    0  0.00000000000E+00  0.00000000000E+00 -0.10707751562E+04  0.10707751562E+04  0.50400001928E-02 0. -1.
    10030    2    1    2    0    0  0.00000000000E+00  0.00000000000E+00 -0.46587564038E+03  0.16756746720E+04  0.16096103547E+04 0.  0.
        5    1    3    3  502    0  0.52016421581E+03 -0.57890836919E+03 -0.19629084269E+02  0.77853265973E+03  0.46999998093E+01 0. -1.
       -5    1    3    3    0  502 -0.52016421581E+03  0.57890836919E+03 -0.44624655611E+03  0.89714201226E+03  0.46999998093E+01 0.  1.
</event>
<event>
 5   0  0.2689675E-04  0.1591911E+04  0.7818609E-02  0.8825533E-01
       -1   -1    0    0    0  501  0.00000000000E+00  0.00000000000E+00  0.78506886680E+03  0.78506886681E+03  0.50400001928E-02 0.  1.
        1   -1    0    0  501    0  0.00000000000E+00  0.00000000000E+00 -0.80699352944E+03  0.80699352945E+03  0.50400001928E-02 0. -1.
    10030    2    1    2    0    0  0.00000000000E+00  0.00000000000E+00 -0.21924662640E+02  0.15920623963E+04  0.15919114243E+04 0.  0.
        1    1    3    3  502    0  0.19159832635E+03  0.21847005512E+03  0.73012509138E+03  0.78582551036E+03  0.50400001928E-02 0.  1.
       -1    1    3    3    0  502 -0.19159832635E+03 -0.21847005512E+03 -0.75204975402E+03  0.80623688590E+03  0.50400001928E-02 0. -1.
</event>
<event>
 5   0  0.5264308E-04  0.1598037E+04  0.7818609E-02  0.8821755E-01
       -2   -1    0    0    0  501  0.00000000000E+00  0.00000000000E+00  0.78978206334E+03  0.78978206334E+03  0.25500000920E-02 0.  1.
        2   -1    0    0  501    0  0.00000000000E+00  0.00000000000E+00 -0.80836264197E+03  0.80836264197E+03  0.25500000920E-02 0. -1.
    10030    2    1    2    0    0  0.00000000000E+00  0.00000000000E+00 -0.18580578632E+02  0.15981447053E+04  0.15980366896E+04 0.  0.
        3    1    3    3  502    0 -0.14539778849E+03  0.67040571354E+03 -0.41900806849E+03  0.80383587212E+03  0.10100000352E+00 0. -1.
       -3    1    3    3    0  502  0.14539778849E+03 -0.67040571354E+03  0.40042748986E+03  0.79430883319E+03  0.10100000352E+00 0.  1.
</event>
<event>
 5   0  0.1908125E-04  0.1588965E+04  0.7818609E-02  0.8827356E-01
       -4   -1    0    0    0  501  0.00000000000E+00  0.00000000000E+00  0.10397408665E+04  0.10397416422E+04  0.12699999809E+01 0. -1.
        4   -1    0    0  501    0  0.00000000000E+00  0.00000000000E+00 -0.60707511769E+03  0.60707644611E+03  0.12699999809E+01 0.  1.
    10030    2    1    2    0    0  0.00000000000E+00  0.00000000000E+00  0.43266574884E+03  0.16468180883E+04  0.15889651241E+04 0.  0.
        3    1    3    3  502    0 -0.50016451093E+03 -0.53459655304E+02  0.85368666901E+03  0.99085993551E+03  0.10100000352E+00 0. -1.
       -3    1    3    3    0  502  0.50016451093E+03  0.53459655304E+02 -0.42102092018E+03  0.65595815276E+03  0.10100000352E+00 0.  1.
</event>
<event>
 5   0  0.2763895E-04  0.1592539E+04  0.7818609E-02  0.8825145E-01
        1   -1    0    0  501    0  0.00000000000E+00  0.00000000000E+00  0.99382519815E+03  0.99382519816E+03  0.50400001928E-02 0. -1.
       -1   -1    0    0    0  501  0.00000000000E+00  0.00000000000E+00 -0.63798458336E+03  0.63798458338E+03  0.50400001928E-02 0.  1.
    10030    2    1    2    0    0  0.00000000000E+00  0.00000000000E+00  0.35584061479E+03  0.16318097815E+04  0.15925390482E+04 0.  0.
        4    1    3    3  502    0 -0.33804978857E+03  0.67116610375E+03 -0.91823914182E+02  0.75708311465E+03  0.12699999809E+01 0.  1.
       -4    1    3    3    0  502  0.33804978857E+03 -0.67116610375E+03  0.44766452897E+03  0.87472666689E+03  0.12699999809E+01 0. -1.
</event>
<event>
 5   0  0.5083831E-04  0.1609244E+04  0.7818609E-02  0.8814889E-01
       -2   -1    0    0    0  501  0.00000000000E+00  0.00000000000E+00  0.50904697288E+03  0.50904697289E+03  0.25500000920E-02 0. -1.
        2   -1    0    0  501    0  0.00000000000E+00  0.00000000000E+00 -0.12718208845E+04  0.12718208845E+04  0.25500000920E-02 0.  1.
    10030    2    1    2    0    0  0.00000000000E+00  0.00000000000E+00 -0.76277391164E+03  0.17808678574E+04  0.16092440105E+04 0.  0.
        4    1    3    3  502    0  0.55984304039E+03 -0.41351687263E+03  0.65395696404E+02  0.69906984188E+03  0.12699999809E+01 0. -1.
       -4    1    3    3    0  502 -0.55984304039E+03  0.41351687263E+03 -0.82816960805E+03  0.10817980155E+04  0.12699999809E+01 0.  1.
</event>
<event>
 5   0  0.5315984E-04  0.1613502E+04  0.7818609E-02  0.8812296E-01
        2   -1    0    0  501    0  0.00000000000E+00  0.00000000000E+00  0.64128328813E+03  0.64128328813E+03  0.25500000920E-02 0. -1.
       -2   -1    0    0    0  501  0.00000000000E+00  0.00000000000E+00 -0.10149131116E+04  0.10149131116E+04  0.25500000920E-02 0.  1.
    10030    2    1    2    0    0  0.00000000000E+00  0.00000000000E+00 -0.37362982349E+03  0.16561963998E+04  0.16135015555E+04 0.  0.
        2    1    3    3  502    0 -0.43699821988E+03 -0.34836144252E+03 -0.78403852894E+03  0.96282893272E+03  0.25500000920E-02 0.  1.
       -2    1    3    3    0  502  0.43699821988E+03  0.34836144252E+03  0.41040870545E+03  0.69336746703E+03  0.25500000920E-02 0. -1.
</event>
<event>
 5   0  0.2689675E-04  0.1624952E+04  0.7818609E-02  0.8805364E-01
       -1   -1    0    0    0  501  0.00000000000E+00  0.00000000000E+00  0.64126294756E+03  0.64126294758E+03  0.50400001928E-02 0. -1.
        1   -1    0    0  501    0  0.00000000000E+00  0.00000000000E+00 -0.10294015713E+04  0.10294015713E+04  0.50400001928E-02 0.  1.
    10030    2    1    2    0    0  0.00000000000E+00  0.00000000000E+00 -0.38813862371E+03  0.16706645189E+04  0.16249517972E+04 0.  0.
        1    1    3    3  502    0 -0.23430709476E+03 -0.77422152534E+03 -0.27235802238E+03  0.85352075389E+03  0.50400001928E-02 0.  1.
       -1    1    3    3    0  502  0.23430709476E+03  0.77422152534E+03 -0.11578060133E+03  0.81714376496E+03  0.50400001928E-02 0. -1.
</event>
<event>
 5   0  0.5381164E-04  0.1603346E+04  0.7818609E-02  0.8818495E-01
       -2   -1    0    0    0  501  0.00000000000E+00  0.00000000000E+00  0.59774993853E+03  0.59774993853E+03  0.25500000920E-02 0.  1.
        2   -1    0    0  501    0  0.00000000000E+00  0.00000000000E+00 -0.10751651937E+04  0.10751651938E+04  0.25500000920E-02 0. -1.
    10030    2    1    2    0    0  0.00000000000E+00  0.00000000000E+00 -0.47741525522E+03  0.16729151323E+04  0.16033464111E+04 0.  0.
        5    1    3    3  502    0 -0.59911532475E+03  0.52433996278E+03 -0.14090538636E+03  0.80854683650E+03  0.46999998093E+01 0.  1.
       -5    1    3    3    0  502  0.59911532475E+03 -0.52433996278E+03 -0.33650986887E+03  0.86436829578E+03  0.46999998093E+01 0. -1.
</event>
<event>
 5   0  0.2796994E-04  0.1690201E+04  0.7818609E-02  0.8766973E-01
       -1   -1    0    0    0  501  0.00000000000E+00  0.00000000000E+00  0.92686024134E+03  0.92686024135E+03  0.50400001928E-02 0.  1.
        1   -1    0    0  501    0  0.00000000000E+00  0.00000000000E+00 -0.77055336356E+03  0.77055336357E+03  0.50400001928E-02 0. -1.
    10030    2    1    2    0    0  0.00000000000E+00  0.00000000000E+00  0.15630687779E+03  0.16974136049E+04  0.16902014987E+04 0.  0.
        3    1    3    3  502    0  0.61643363708E+03  0.53965703022E+03  0.28634244002E+03  0.86787795360E+03  0.10100000352E+00 0.  1.
       -3    1    3    3    0  502 -0.61643363708E+03 -0.53965703022E+03 -0.13003556223E+03  0.82953565133E+03  0.10100000352E+00 0. -1.
</event>
<event>
 5   0  0.5083831E-04  0.1595889E+04  0.7818609E-02  0.8823077E-01
       -2   -1    0    0    0  501  0.00000000000E+00  0.00000000000E+00  0.30281966782E+03  0.30281966783E+03  0.25500000920E-02 0. -1.
        2   -1    0    0  501    0  0.00000000000E+00  0.00000000000E+00 -0.21026232439E+04  0.21026232439E+04  0.25500000920E-02 0.  1.
    10030    2    1    2    0    0  0.00000000000E+00  0.00000000000E+00 -0.17998035761E+04  0.24054429118E+04  0.15958893098E+04 0.  0.
        4    1    3    3  502    0 -0.50711598490E+03  0.39145957465E+03 -0.16169380637E+04  0.17392232563E+04  0.12699999809E+01 0.  1.
       -4    1    3    3    0  502  0.50711598490E+03 -0.39145957465E+03 -0.18286551242E+03  0.66621965541E+03  0.12699999809E+01 0. -1.
</event>
<event>
 5   0  0.1908125E-04  0.1620787E+04  0.7818609E-02  0.8807879E-01
        4   -1    0    0  501    0  0.00000000000E+00  0.00000000000E+00  0.54324831980E+03  0.54324980429E+03  0.12699999809E+01 0. -1.
       -4   -1    0    0    0  501  0.00000000000E+00  0.00000000000E+00 -0.12089049779E+04  0.12089056450E+04  0.12699999809E+01 0.  1.
    10030    2    1    2    0    0  0.00000000000E+00  0.00000000000E+00 -0.66565665808E+03  0.17521554493E+04  0.16207868250E+04 0.  0.
        3    1    3    3  502    0 -0.35686560136E+03 -0.49008866441E+03  0.24853015589E+03  0.65521538825E+03  0.10100000352E+00 0. -1.
       -3    1    3    3    0  502  0.35686560136E+03  0.49008866441E+03 -0.91418681397E+03  0.10969400610E+04  0.10100000352E+00 0.  1.
</event>
<event>
 5   0  0.2689675E-04  0.1603027E+04  0.7818609E-02  0.8818691E-01
       -1   -1    0    0    0  501  0.00000000000E+00  0.00000000000E+00  0.36621029566E+03  0.36621029570E+03  0.50400001928E-02 0. -1.
        1   -1    0    0  501    0  0.00000000000E+00  0.00000000000E+00 -0.17542486482E+04  0.17542486482E+04  0.50400001928E-02 0.  1.
    10030    2    1    2    0    0  0.00000000000E+00  0.00000000000E+00 -0.13880383525E+04  0.21204589439E+04  0.16030270318E+04 0.  0.
        1    1    3    3  502    0 -0.31658807216E+03 -0.52295066606E+03 -0.83133915842E+01  0.61137101589E+03  0.50400001928E-02 0. -1.
       -1    1    3    3    0  502  0.31658807216E+03  0.52295066606E+03 -0.13797249609E+04  0.15090879280E+04  0.50400001928E-02 0.  1.
</event>
<event>
 5   0  0.2689675E-04  0.1603585E+04  0.7818609E-02  0.8818349E-01
       -1   -1    0    0    0  501  0.00000000000E+00  0.00000000000E+00  0.52013280448E+03  0.52013280450E+03  0.50400001928E-02 0.  1.
        1   -1    0    0  501    0  0.00000000000E+00  0.00000000000E+00 -0.12359743812E+04  0.12359743812E+04  0.50400001928E-02 0. -1.
    10030    2    1    2    0    0  0.00000000000E+00  0.00000000000E+00 -0.71584157668E+03  0.17561071857E+04  0.16035845112E+04 0.  0.
        1    1    3    3  502    0 -0.53318033349E+03 -0.35043481934E+02  0.29673506137E+03  0.61119637623E+03  0.50400001928E-02 0.  1.
       -1    1    3    3    0  502  0.53318033349E+03  0.35043481934E+02 -0.10125766380E+04  0.11449108094E+04  0.50400001928E-02 0. -1.
</event>
<event>
 5   0  0.2796994E-04  0.1512919E+04  0.7818609E-02  0.8875907E-01
        1   -1    0    0  501    0  0.00000000000E+00  0.00000000000E+00  0.10007721448E+04  0.10007721448E+04  0.50400001928E-02 0.  1.
       -1   -1    0    0    0  501  0.00000000000E+00  0.00000000000E+00 -0.57178961943E+03  0.57178961945E+03  0.50400001928E-02 0. -1.
    10030    2    1    2    0    0  0.00000000000E+00  0.00000000000E+00  0.42898252535E+03  0.15725617642E+04  0.15129191965E+04 0.  0.
        3    1    3    3  502    0 -0.65866987803E+03  0.71439874810E+02  0.59396072539E+03  0.88979717770E+03  0.10100000352E+00 0.  1.
       -3    1    3    3    0  502  0.65866987803E+03 -0.71439874810E+02 -0.16497820004E+03  0.68276458654E+03  0.10100000352E+00 0. -1.
</event>
<event>
 5   0  0.5083831E-04  0.1482989E+04  0.7818609E-02  0.8895844E-01
       -2   -1    0    0    0  501  0.00000000000E+00  0.00000000000E+00  0.35269368680E+03  0.35269368681E+03  0.25500000920E-02 0. -1.
        2   -1    0    0  501    0  0.00000000000E+00  0.00000000000E+00 -0.15588997107E+04  0.15588997107E+04  0.25500000920E-02 0.  1.
    10030    2    1    2    0    0  0.00000000000E+00  0.00000000000E+00 -0.12062060239E+04  0.19115933975E+04  0.14829889903E+04 0.  0.
        4    1    3    3  502    0  0.71730976596E+03  0.18548851088E+03 -0.64119299972E+03  0.97983129354E+03  0.12699999809E+01 0.  1.
       -4    1    3    3    0  502 -0.71730976596E+03 -0.18548851088E+03 -0.56501302420E+03  0.93176210399E+03  0.12699999809E+01 0. -1.
</event>
<event>
 5   0  0.5131239E-04  0.1599090E+04  0.7818609E-02  0.8821107E-01
        2   -1    0    0  501    0  0.00000000000E+00  0.00000000000E+00  0.12822155105E+04  0.12822155105E+04  0.25500000920E-02 0.  1.
       -2   -1    0    0    0  501  0.00000000000E+00  0.00000000000E+00 -0.49856839284E+03  0.49856839284E+03  0.25500000920E-02 0. -1.
    10030    2    1    2    0    0  0.00000000000E+00  0.00000000000E+00  0.78364711764E+03  0.17807839033E+04  0.15990898991E+04 0.  0.
        1    1    3    3  502    0 -0.41231720786E+03  0.51349586061E+03  0.89676138518E+03  0.11125935739E+04  0.50400001928E-02 0.  1.
       -1    1    3    3    0  502  0.41231720786E+03 -0.51349586061E+03 -0.11311426754E+03  0.66819032940E+03  0.50400001928E-02 0. -1.
</event>
<event>
 5   0  0.1908125E-04  0.1599652E+04  0.7818609E-02  0.8820762E-01
       -4   -1    0    0    0  501  0.00000000000E+00  0.00000000000E+00  0.18499912316E+04  0.18499916675E+04  0.12699999809E+01 0.  1.
        4   -1    0    0  501    0  0.00000000000E+00  0.00000000000E+00 -0.34579545259E+03  0.34579778475E+03  0.12699999809E+01 0. -1.
    10030    2    1    2    0    0  0.00000000000E+00  0.00000000000E+00  0.15041957790E+04  0.21957894523E+04  0.15996519550E+04 0.  0.
        5    1    3    3  502    0  0.65596918196E+03  0.37980763960E+03  0.40173127628E+03  0.85788083037E+03  0.46999998093E+01 0. -1.
       -5    1    3    3    0  502 -0.65596918196E+03 -0.37980763960E+03  0.11024645027E+04  0.13379086219E+04  0.46999998093E+01 0.  1.
</event>
<event>
 5   0  0.2649086E-04  0.1534256E+04  0.7818609E-02  0.8861988E-01
        1   -1    0    0  501    0  0.00000000000E+00  0.00000000000E+00  0.94499497268E+03  0.94499497269E+03  0.50400001928E-02 0.  1.
       -1   -1    0    0    0  501  0.00000000000E+00  0.00000000000E+00 -0.62273885417E+03  0.62273885419E+03  0.50400001928E-02 0. -1.
    10030    2    1    2    0    0  0.00000000000E+00  0.00000000000E+00  0.32225611852E+03  0.15677338269E+04  0.15342556326E+04 0.  0.
        2    1    3    3  502    0 -0.61217034834E+03  0.28921452896E+03 -0.20741853217E+03  0.70811017973E+03  0.25500000920E-02 0. -1.
       -2    1    3    3    0  502  0.61217034834E+03 -0.28921452896E+03  0.52967465069E+03  0.85962364715E+03  0.25500000920E-02 0.  1.
</event>
<event>
 5   0  0.1908125E-04  0.1744782E+04  0.7818609E-02  0.8736228E-01
       -3   -1    0    0    0  501  0.00000000000E+00  0.00000000000E+00  0.51037120937E+03  0.51037121937E+03  0.10100000352E+00 0.  1.
        3   -1    0    0  501    0  0.00000000000E+00  0.00000000000E+00 -0.14912006966E+04  0.14912007001E+04  0.10100000352E+00 0. -1.
    10030    2    1    2    0    0  0.00000000000E+00  0.00000000000E+00 -0.98082948726E+03  0.20015719194E+04  0.17447818390E+04 0.  0.
        4    1    3    3  502    0  0.31747693638E+03 -0.38637767189E+03  0.32962356321E+03  0.59894291614E+03  0.12699999809E+01 0.  1.
       -4    1    3    3    0  502 -0.31747693638E+03  0.38637767189E+03 -0.13104530505E+04  0.14026290033E+04  0.12699999809E+01 0. -1.
</event>
<event>
 5   0  0.5083831E-04  0.1519576E+04  0.7818609E-02  0.8871539E-01
        2   -1    0    0  501    0  0.00000000000E+00  0.00000000000E+00  0.17018521793E+04  0.17018521793E+04  0.25500000920E-02 0. -1.
       -2   -1    0    0    0  501  0.00000000000E+00  0.00000000000E+00 -0.33920554586E+03  0.33920554587E+03  0.25500000920E-02 0.  1.
    10030    2    1    2    0    0  0.00000000000E+00  0.00000000000E+00  0.13626466334E+04  0.20410577252E+04  0.15195758585E+04 0.  0.
        4    1    3    3  502    0 -0.75642915020E+03 -0.50528468590E+02  0.74898925101E+03  0.10657038502E+04  0.12699999809E+01 0.  1.
       -4    1    3    3    0  502  0.75642915020E+03  0.50528468590E+02  0.61365738243E+03  0.97535387492E+03  0.12699999809E+01 0. -1.
</event>
<event>
 5   0  0.2796994E-04  0.1595764E+04  0.7818609E-02  0.8823155E-01
       -1   -1    0    0    0  501  0.00000000000E+00  0.00000000000E+00  0.54287079184E+03  0.54287079186E+03  0.50400001928E-02 0. -1.
        1   -1    0    0  501    0  0.00000000000E+00  0.00000000000E+00 -0.11726829298E+04  0.11726829298E+04  0.50400001928E-02 0.  1.
    10030    2    1    2    0    0  0.00000000000E+00  0.00000000000E+00 -0.62981213792E+03  0.17155537216E+04  0.15957635297E+04 0.  0.
        3    1    3    3  502    0 -0.10230037670E+03  0.78904488912E+03 -0.25077852015E+03  0.83423442777E+03  0.10100000352E+00 0.  1.
       -3    1    3    3    0  502  0.10230037670E+03 -0.78904488912E+03 -0.37903361777E+03  0.88131929385E+03  0.10100000352E+00 0. -1.
</event>
<event>
 5   0  0.5083831E-04  0.1587261E+04  0.7818609E-02  0.8828413E-01
       -2   -1    0    0    0  501  0.00000000000E+00  0.00000000000E+00  0.30303511408E+03  0.30303511410E+03  0.25500000920E-02 0. -1.
        2   -1    0    0  501    0  0.00000000000E+00  0.00000000000E+00 -0.20784689797E+04  0.20784689797E+04  0.25500000920E-02 0.  1.
    10030    2    1    2    0    0  0.00000000000E+00  0.00000000000E+00 -0.17754338656E+04  0.23815040938E+04  0.15872606395E+04 0.  0.
        4    1    3    3  502    0 -0.21306827928E+03  0.36567601879E+03  0.11958930847E+03  0.43979570025E+03  0.12699999809E+01 0. -1.
       -4    1    3    3    0  502  0.21306827928E+03 -0.36567601879E+03 -0.18950231741E+04  0.19417083935E+04  0.12699999809E+01 0.  1.
</event>
<event>
 5   0  0.2796994E-04  0.1600072E+04  0.7818609E-02  0.8820504E-01
        1   -1    0    0  501    0  0.00000000000E+00  0.00000000000E+00  0.80035649052E+03  0.80035649053E+03  0.50400001928E-02 0.  1.
       -1   -1    0    0    0  501  0.00000000000E+00  0.00000000000E+00 -0.79971524465E+03  0.79971524467E+03  0.50400001928E-02 0. -1.
    10030    2    1    2    0    0  0.00000000000E+00  0.00000000000E+00  0.64124586665E+00  0.16000717352E+04  0.16000716067E+04 0.  0.
        3    1    3    3  502    0 -0.58693841235E+03  0.38665425819E+03 -0.38185614852E+03  0.79988270617E+03  0.10100000352E+00 0. -1.
       -3    1    3    3    0  502  0.58693841235E+03 -0.38665425819E+03  0.38249739439E+03  0.80018902903E+03  0.10100000352E+00 0.  1.
</event>
<event>
 5   0  0.2796994E-04  0.1606064E+04  0.7818609E-02  0.8816831E-01
       -1   -1    0    0    0  501  0.00000000000E+00  0.00000000000E+00  0.51123272939E+03  0.51123272941E+03  0.50400001928E-02 0.  1.
        1   -1    0    0  501    0  0.00000000000E+00  0.00000000000E+00 -0.12613836234E+04  0.12613836234E+04  0.50400001928E-02 0. -1.
    10030    2    1    2    0    0  0.00000000000E+00  0.00000000000E+00 -0.75015089403E+03  0.17726163528E+04  0.16060642486E+04 0.  0.
        3    1    3    3  502    0 -0.49736180466E+03 -0.42864344396E+03 -0.88535905688E+03  0.11022543430E+04  0.10100000352E+00 0. -1.
       -3    1    3    3    0  502  0.49736180466E+03  0.42864344396E+03  0.13520816285E+03  0.67036200988E+03  0.10100000352E+00 0.  1.
</event>
<event>
 5   0  0.5083831E-04  0.1579622E+04  0.7818609E-02  0.8833166E-01
       -2   -1    0    0    0  501  0.00000000000E+00  0.00000000000E+00  0.29901935374E+03  0.29901935375E+03  0.25500000920E-02 0. -1.
        2   -1    0    0  501    0  0.00000000000E+00  0.00000000000E+00 -0.20861573846E+04  0.20861573846E+04  0.25500000920E-02 0.  1.
    10030    2    1    2    0    0  0.00000000000E+00  0.00000000000E+00 -0.17871380309E+04  0.23851767384E+04  0.15796220218E+04 0.  0.
        4    1    3    3  502    0  0.24588272253E+02  0.62567921629E+03 -0.16671054952E+03  0.64797614544E+03  0.12699999809E+01 0. -1.
       -4    1    3    3    0  502 -0.24588272253E+02 -0.62567921629E+03 -0.16204274814E+04  0.17372005929E+04  0.12699999809E+01 0.  1.
</event>
<event>
 5   0  0.5131239E-04  0.1582039E+04  0.7818609E-02  0.8831658E-01
        2   -1    0    0  501    0  0.00000000000E+00  0.00000000000E+00  0.17109036052E+04  0.17109036052E+04  0.25500000920E-02 0.  1.
       -2   -1    0    0    0  501  0.00000000000E+00  0.00000000000E+00 -0.36572029916E+03  0.36572029917E+03  0.25500000920E-02 0. -1.
    10030    2    1    2    0    0  0.00000000000E+00  0.00000000000E+00  0.13451833060E+04  0.20766239043E+04  0.15820394158E+04 0.  0.
        1    1    3    3  502    0 -0.39284157643E+03 -0.32274521054E+03  0.14680283200E+04  0.15535752712E+04  0.50400001928E-02 0.  1.
       -1    1    3    3    0  502  0.39284157643E+03  0.32274521054E+03 -0.12284501398E+03  0.52304863309E+03  0.50400001928E-02 0. -1.
</event>
<event>
 5   0  0.5083831E-04  0.1595683E+04  0.7818609E-02  0.8823205E-01
       -2   -1    0    0    0  501  0.00000000000E+00  0.00000000000E+00  0.14304150055E+04  0.14304150055E+04  0.25500000920E-02 0. -1.
        2   -1    0    0  501    0  0.00000000000E+00  0.00000000000E+00 -0.44501126087E+03  0.44501126088E+03  0.25500000920E-02 0.  1.
    10030    2    1    2    0    0  0.00000000000E+00  0.00000000000E+00  0.98540374465E+03  0.18754262664E+04  0.15956826567E+04 0.  0.
        4    1    3    3  502    0 -0.65519357809E+03 -0.39751837165E+03  0.75353048272E+03  0.10747601043E+04  0.12699999809E+01 0.  1.
       -4    1    3    3    0  502  0.65519357809E+03  0.39751837165E+03  0.23187326193E+03  0.80066616207E+03  0.12699999809E+01 0. -1.
</event>
<event>
 5   0  0.5083831E-04  0.1592827E+04  0.7818609E-02  0.8824967E-01
        2   -1    0    0  501    0  0.00000000000E+00  0.00000000000E+00  0.15592378891E+04  0.15592378891E+04  0.25500000920E-02 0. -1.
       -2   -1    0    0    0  501  0.00000000000E+00  0.00000000000E+00 -0.40678504769E+03  0.40678504770E+03  0.25500000920E-02 0.  1.
    10030    2    1    2    0    0  0.00000000000E+00  0.00000000000E+00  0.11524528414E+04  0.19660229368E+04  0.15928272462E+04 0.  0.
        4    1    3    3  502    0 -0.61170769355E+03  0.41173669968E+03  0.20478764978E+03  0.76527969176E+03  0.12699999809E+01 0.  1.
       -4    1    3    3    0  502  0.61170769355E+03 -0.41173669968E+03  0.94766519165E+03  0.12007432451E+04  0.12699999809E+01 0. -1.
</event>
<event>
 5   0  0.2689675E-04  0.1517085E+04  0.7818609E-02  0.8873170E-01
        1   -1    0    0  501    0  0.00000000000E+00  0.00000000000E+00  0.47714552442E+03  0.47714552445E+03  0.50400001928E-02 0.  1.
       -1   -1    0    0    0  501  0.00000000000E+00  0.00000000000E+00 -0.12058934624E+04  0.12058934624E+04  0.50400001928E-02 0. -1.
    10030    2    1    2    0    0  0.00000000000E+00  0.00000000000E+00 -0.72874793800E+03  0.16830389869E+04  0.15170849265E+04 0.  0.
        1    1    3    3  502    0  0.26847275048E+03 -0.53770909016E+03  0.14904474833E+03  0.61921161198E+03  0.50400001928E-02 0.  1.
       -1    1    3    3    0  502 -0.26847275048E+03  0.53770909016E+03 -0.87779268633E+03  0.10638273749E+04  0.50400001928E-02 0. -1.
</event>
<event>
 5   0  0.2796994E-04  0.1711609E+04  0.7818609E-02  0.8754771E-01
        1   -1    0    0  501    0  0.00000000000E+00  0.00000000000E+00  0.69833857239E+03  0.69833857241E+03  0.50400001928E-02 0. -1.
       -1   -1    0    0    0  501  0.00000000000E+00  0.00000000000E+00 -0.10487765076E+04  0.10487765076E+04  0.50400001928E-02 0.  1.
    10030    2    1    2    0    0  0.00000000000E+00  0.00000000000E+00 -0.35043793516E+03  0.17471150800E+04  0.17116087042E+04 0.  0.
        3    1    3    3  502    0  0.16252152276E+03  0.12109919398E+03  0.67348742219E+03  0.70332323877E+03  0.10100000352E+00 0. -1.
       -3    1    3    3    0  502 -0.16252152276E+03 -0.12109919398E+03 -0.10239253574E+04  0.10437918412E+04  0.10100000352E+00 0.  1.
</event>
<event>
 5   0  0.5315984E-04  0.1597245E+04  0.7818609E-02  0.8822242E-01
        2   -1    0    0  501    0  0.00000000000E+00  0.00000000000E+00  0.99466941518E+03  0.99466941518E+03  0.25500000920E-02 0.  1.
       -2   -1    0    0    0  501  0.00000000000E+00  0.00000000000E+00 -0.64121572515E+03  0.64121572515E+03  0.25500000920E-02 0. -1.
    10030    2    1    2    0    0  0.00000000000E+00  0.00000000000E+00  0.35345369003E+03  0.16358851403E+04  0.15972447156E+04 0.  0.
        2    1    3    3  502    0  0.89503561123E+02  0.74729108140E+03  0.45028929920E+03  0.87704920088E+03  0.25500000920E-02 0. -1.
       -2    1    3    3    0  502 -0.89503561123E+02 -0.74729108140E+03 -0.96835609164E+02  0.75883593945E+03  0.25500000920E-02 0.  1.
</event>
<event>
 5   0  0.2649086E-04  0.1605504E+04  0.7818609E-02  0.8817174E-01
        1   -1    0    0  501    0  0.00000000000E+00  0.00000000000E+00  0.78374491294E+03  0.78374491295E+03  0.50400001928E-02 0.  1.
       -1   -1    0    0    0  501  0.00000000000E+00  0.00000000000E+00 -0.82221975231E+03  0.82221975233E+03  0.50400001928E-02 0. -1.
    10030    2    1    2    0    0  0.00000000000E+00  0.00000000000E+00 -0.38474839375E+02  0.16059646653E+04  0.16055037194E+04 0.  0.
        2    1    3    3  502    0  0.65446795745E+03  0.46480531225E+03 -0.25424871474E+02  0.80313056829E+03  0.25500000920E-02 0.  1.
       -2    1    3    3    0  502 -0.65446795745E+03 -0.46480531225E+03 -0.13049967901E+02  0.80283409699E+03  0.25500000920E-02 0. -1.
</event>
<event>
 5   0  0.2763895E-04  0.1597683E+04  0.7818609E-02  0.8821972E-01
       -1   -1    0    0    0  501  0.00000000000E+00  0.00000000000E+00  0.31085645068E+03  0.31085645072E+03  0.50400001928E-02 0.  1.
        1   -1    0    0  501    0  0.00000000000E+00  0.00000000000E+00 -0.20528707410E+04  0.20528707410E+04  0.50400001928E-02 0. -1.
    10030    2    1    2    0    0  0.00000000000E+00  0.00000000000E+00 -0.17420142903E+04  0.23637271917E+04  0.15976834634E+04 0.  0.
        4    1    3    3  502    0  0.25435452481E+03  0.73794640663E+03 -0.11224536621E+04  0.13671740781E+04  0.12699999809E+01 0.  1.
       -4    1    3    3    0  502 -0.25435452481E+03 -0.73794640663E+03 -0.61956062820E+03  0.99655311362E+03  0.12699999809E+01 0. -1.
</event>
<event>
 5   0  0.2763895E-04  0.1608298E+04  0.7818609E-02  0.8815466E-01
        1   -1    0    0  501    0  0.00000000000E+00  0.00000000000E+00  0.10942853570E+04  0.10942853570E+04  0.50400001928E-02 0.  1.
       -1   -1    0    0    0  501  0.00000000000E+00  0.00000000000E+00 -0.59093882933E+03  0.59093882935E+03  0.50400001928E-02 0. -1.
    10030    2    1    2    0    0  0.00000000000E+00  0.00000000000E+00  0.50334652763E+03  0.16852241863E+04  0.16082981164E+04 0.  0.
        4    1    3    3  502    0  0.30963335976E+03  0.43759416338E+03 -0.37640719547E+03  0.65501561737E+03  0.12699999809E+01 0. -1.
       -4    1    3    3    0  502 -0.30963335976E+03 -0.43759416338E+03  0.87975372310E+03  0.10302085689E+04  0.12699999809E+01 0.  1.
</event>
<event>
 5   0  0.5315984E-04  0.1546095E+04  0.7818609E-02  0.8854366E-01
       -2   -1    0    0    0  501  0.00000000000E+00  0.00000000000E+00  0.24156010314E+03  0.24156010316E+03  0.25500000920E-02 0.  1.
        2   -1    0    0  501    0  0.00000000000E+00  0.00000000000E+00 -0.24739292519E+04  0.24739292519E+04  0.25500000920E-02 0. -1.
    10030    2    1    2    0    0  0.00000000000E+00  0.00000000000E+00 -0.22323691488E+04  0.27154893551E+04  0.15460952173E+04 0.  0.
        2    1    3    3  502    0 -0.50282883035E+03 -0.56271959590E+03 -0.14106681339E+04  0.15998358542E+04  0.25500000920E-02 0.  1.
       -2    1    3    3    0  502  0.50282883035E+03  0.56271959590E+03 -0.82170101483E+03  0.11156535009E+04  0.25500000920E-02 0. -1.
</event>
<event>
 5   0  0.2689675E-04  0.1604502E+04  0.7818609E-02  0.8817787E-01
       -1   -1    0    0    0  501  0.00000000000E+00  0.00000000000E+00  0.94153662032E+03  0.94153662033E+03  0.50400001928E-02 0.  1.
        1   -1    0    0  501    0  0.00000000000E+00  0.00000000000E+00 -0.68357050157E+03  0.68357050159E+03  0.50400001928E-02 0. -1.
    10030    2    1    2    0    0  0.00000000000E+00  0.00000000000E+00  0.25796611875E+03  0.16251071219E+04  0.16045019911E+04 0.  0.
        1    1    3    3  502    0 -0.48083983134E+03  0.37855755627E+03  0.65438739719E+03  0.89595515091E+03  0.50400001928E-02 0.  1.
       -1    1    3    3    0  502  0.48083983134E+03 -0.37855755627E+03 -0.39642127844E+03  0.72915197102E+03  0.50400001928E-02 0. -1.
</event>
<event>
 5   0  0.5315984E-04  0.1596078E+04  0.7818609E-02  0.8822961E-01
       -2   -1    0    0    0  501  0.00000000000E+00  0.00000000000E+00  0.33512503701E+03  0.33512503702E+03  0.25500000920E-02 0. -1.
        2   -1    0    0  501    0  0.00000000000E+00  0.00000000000E+00 -0.19003844101E+04  0.19003844101E+04  0.25500000920E-02 0.  1.
    10030    2    1    2    0    0  0.00000000000E+00  0.00000000000E+00 -0.15652593731E+04  0.22355094471E+04  0.15960781883E+04 0.  0.
        2    1    3    3  502    0  0.60364312340E+03  0.35997821984E+03 -0.25316867083E+03  0.74703662232E+03  0.25500000920E-02 0. -1.
       -2    1    3    3    0  502 -0.60364312340E+03 -0.35997821984E+03 -0.13120907023E+04  0.14884728248E+04  0.25500000920E-02 0.  1.
</event>
<event>
 5   0  0.5315984E-04  0.1575116E+04  0.7818609E-02  0.8835983E-01
       -2   -1    0    0    0  501  0.00000000000E+00  0.00000000000E+00  0.60667833487E+03  0.60667833487E+03  0.25500000920E-02 0.  1.
        2   -1    0    0  501    0  0.00000000000E+00  0.00000000000E+00 -0.10223667507E+04  0.10223667507E+04  0.25500000920E-02 0. -1.
    10030    2    1    2    0    0  0.00000000000E+00  0.00000000000E+00 -0.41568841579E+03  0.16290450855E+04  0.15751161962E+04 0.  0.
        2    1    3    3  502    0  0.38224481584E+03 -0.20905676901E+03  0.47069155891E+03  0.64137849631E+03  0.25500000920E-02 0.  1.
       -2    1    3    3    0  502 -0.38224481584E+03  0.20905676901E+03 -0.88637997470E+03  0.98766658922E+03  0.25500000920E-02 0. -1.
</event>
<event>
 5   0  0.5315984E-04  0.1627433E+04  0.7818609E-02  0.8803870E-01
        2   -1    0    0  501    0  0.00000000000E+00  0.00000000000E+00  0.15996586978E+04  0.15996586978E+04  0.25500000920E-02 0. -1.
       -2   -1    0    0    0  501  0.00000000000E+00  0.00000000000E+00 -0.41392263379E+03  0.41392263380E+03  0.25500000920E-02 0.  1.
    10030    2    1    2    0    0  0.00000000000E+00  0.00000000000E+00  0.11857360640E+04  0.20135813316E+04  0.16274334903E+04 0.  0.
        2    1    3    3  502    0 -0.68018957758E+03 -0.29703676343E+03  0.18019261394E+03  0.76377881510E+03  0.25500000920E-02 0.  1.
       -2    1    3    3    0  502  0.68018957758E+03  0.29703676343E+03  0.10055434501E+04  0.12498025165E+04  0.25500000920E-02 0. -1.
</event>
<event>
 5   0  0.5131239E-04  0.1534922E+04  0.7818609E-02  0.8861557E-01
        2   -1    0    0  501    0  0.00000000000E+00  0.00000000000E+00  0.89600597716E+03  0.89600597716E+03  0.25500000920E-02 0.  1.
       -2   -1    0    0    0  501  0.00000000000E+00  0.00000000000E+00 -0.65735775843E+03  0.65735775844E+03  0.25500000920E-02 0. -1.
    10030    2    1    2    0    0  0.00000000000E+00  0.00000000000E+00  0.23864821873E+03  0.15533637356E+04  0.15349221227E+04 0.  0.
        1    1    3    3  502    0  0.43998108859E+03 -0.35864984829E+03  0.64204062842E+03  0.85698847167E+03  0.50400001928E-02 0.  1.
       -1    1    3    3    0  502 -0.43998108859E+03  0.35864984829E+03 -0.40339240970E+03  0.69637526394E+03  0.50400001928E-02 0. -1.
</event>
<event>
 5   0  0.2649086E-04  0.1602048E+04  0.7818609E-02  0.8819291E-01
       -1   -1    0    0    0  501  0.00000000000E+00  0.00000000000E+00  0.10022870309E+04  0.10022870309E+04  0.50400001928E-02 0. -1.
        1   -1    0    0  501    0  0.00000000000E+00  0.00000000000E+00 -0.64017510702E+03  0.64017510704E+03  0.50400001928E-02 0.  1.
    10030    2    1    2    0    0  0.00000000000E+00  0.00000000000E+00  0.36211192389E+03  0.16424621380E+04  0.16020476988E+04 0.  0.
        2    1    3    3  502    0  0.51478735422E+03  0.26456501448E+03  0.74877478530E+03  0.94639544909E+03  0.25500000920E-02 0. -1.
       -2    1    3    3    0  502 -0.51478735422E+03 -0.26456501448E+03 -0.38666286141E+03  0.69606668887E+03  0.25500000920E-02 0.  1.
</event>
<event>
 5   0  0.5083831E-04  0.1609400E+04  0.7818609E-02  0.8814794E-01
        2   -1    0    0  501    0  0.00000000000E+00  0.00000000000E+00  0.21989135803E+04  0.21989135803E+04  0.25500000920E-02 0. -1.
       -2   -1    0    0    0  501  0.00000000000E+00  0.00000000000E+00 -0.29448291934E+03  0.29448291935E+03  0.25500000920E-02 0.  1.
    10030    2    1    2    0    0  0.00000000000E+00  0.00000000000E+00  0.19044306610E+04  0.24933964997E+04  0.16094004977E+04 0.  0.
        4    1    3    3  502    0  0.57803319620E+03 -0.32421564335E+02  0.86330708859E+02  0.58534446093E+03  0.12699999809E+01 0.  1.
       -4    1    3    3    0  502 -0.57803319620E+03  0.32421564335E+02  0.18180999521E+04  0.19080520387E+04  0.12699999809E+01 0. -1.
</event>
<event>
 5   0  0.5381164E-04  0.1571937E+04  0.7818609E-02  0.8837976E-01
        2   -1    0    0  501    0  0.00000000000E+00  0.00000000000E+00  0.14799537979E+04  0.14799537979E+04  0.25500000920E-02 0.  1.
       -2   -1    0    0    0  501  0.00000000000E+00  0.00000000000E+00 -0.41740925205E+03  0.41740925206E+03  0.25500000920E-02 0. -1.
    10030    2    1    2    0    0  0.00000000000E+00  0.00000000000E+00  0.10625445458E+04  0.18973630500E+04  0.15719369044E+04 0.  0.
        5    1    3    3  502    0  0.36535199528E+03 -0.15360305076E+03  0.13504914007E+04  0.14074534064E+04  0.46999998093E+01 0.  1.
       -5    1    3    3    0  502 -0.36535199528E+03  0.15360305076E+03 -0.28794685487E+03  0.48990964360E+03  0.46999998093E+01 0. -1.
</event>
<event>
 5   0  0.2796994E-04  0.1607993E+04  0.7818609E-02  0.8815653E-01
        1   -1    0    0  501    0  0.00000000000E+00  0.00000000000E+00  0.86602223699E+03  0.86602223701E+03  0.50400001928E-02 0.  1.
       -1   -1    0    0    0  501  0.00000000000E+00  0.00000000000E+00 -0.74641309541E+03  0.74641309543E+03  0.50400001928E-02 0. -1.
    10030    2    1    2    0    0  0.00000000000E+00  0.00000000000E+00  0.11960914159E+03  0.16124353324E+04  0.16079929585E+04 0.  0.
        3    1    3    3  502    0 -0.55498777547E+03 -0.67500914526E+02  0.63919189707E+03  0.84919614687E+03  0.10100000352E+00 0.  1.
       -3    1    3    3    0  502  0.55498777547E+03  0.67500914526E+02 -0.51958275548E+03  0.76323918556E+03  0.10100000352E+00 0. -1.
</event>
<event>
 5   0  0.5381164E-04  0.1594328E+04  0.7818609E-02  0.8824040E-01
       -2   -1    0    0    0  501  0.00000000000E+00  0.00000000000E+00  0.57072476703E+03  0.57072476704E+03  0.25500000920E-02 0. -1.
        2   -1    0    0  501    0  0.00000000000E+00  0.00000000000E+00 -0.11134450529E+04  0.11134450529E+04  0.25500000920E-02 0.  1.
    10030    2    1    2    0    0  0.00000000000E+00  0.00000000000E+00 -0.54272028591E+03  0.16841698200E+04  0.15943282829E+04 0.  0.
        5    1    3    3  502    0 -0.31899092034E+03  0.50904103604E+03  0.28216218289E+03  0.66371347062E+03  0.46999998093E+01 0. -1.
       -5    1    3    3    0  502  0.31899092034E+03 -0.50904103604E+03 -0.82488246880E+03  0.10204563494E+04  0.46999998093E+01 0.  1.
</event>
<event>
 5   0  0.2730707E-04  0.1609240E+04  0.7818609E-02  0.8814892E-01
       -1   -1    0    0    0  501  0.00000000000E+00  0.00000000000E+00  0.38084546152E+03  0.38084546155E+03  0.50400001928E-02 0. -1.
        1   -1    0    0  501    0  0.00000000000E+00  0.00000000000E+00 -0.16999367565E+04  0.16999367565E+04  0.50400001928E-02 0.  1.
    10030    2    1    2    0    0  0.00000000000E+00  0.00000000000E+00 -0.13190912950E+04  0.20807822180E+04  0.16092398188E+04 0.  0.
        5    1    3    3  502    0 -0.61856128216E+03 -0.13438341128E+03 -0.13017938314E+04  0.14475379893E+04  0.46999998093E+01 0.  1.
       -5    1    3    3    0  502  0.61856128216E+03  0.13438341128E+03 -0.17297463598E+02  0.63324422876E+03  0.46999998093E+01 0. -1.
</event>
<event>
 5   0  0.5381164E-04  0.1603007E+04  0.7818609E-02  0.8818703E-01
       -2   -1    0    0    0  501  0.00000000000E+00  0.00000000000E+00  0.47130139647E+03  0.47130139648E+03  0.25500000920E-02 0. -1.
        2   -1    0    0  501    0  0.00000000000E+00  0.00000000000E+00 -0.13630503955E+04  0.13630503955E+04  0.25500000920E-02 0.  1.
    10030    2    1    2    0    0  0.00000000000E+00  0.00000000000E+00 -0.89174899904E+03  0.18343517920E+04  0.16030066187E+04 0.  0.
        5    1    3    3  502    0  0.55256093706E+03  0.57044872306E+03 -0.56938750787E+03  0.97722032261E+03  0.46999998093E+01 0. -1.
       -5    1    3    3    0  502 -0.55256093706E+03 -0.57044872306E+03 -0.32236149117E+03  0.85713146938E+03  0.46999998093E+01 0.  1.
</event>
<event>
 5   0  0.5315984E-04  0.1571291E+04  0.7818609E-02  0.8838382E-01
       -2   -1    0    0    0  501  0.00000000000E+00  0.00000000000E+00  0.35961845532E+03  0.35961845533E+03  0.25500000920E-02 0. -1.
        2   -1    0    0  501    0  0.00000000000E+00  0.00000000000E+00 -0.17163709879E+04  0.17163709879E+04  0.25500000920E-02 0.  1.
    10030    2    1    2    0    0  0.00000000000E+00  0.00000000000E+00 -0.13567525326E+04  0.20759894433E+04  0.15712907859E+04 0.  0.
        2    1    3    3  502    0  0.23794006145E+03 -0.26451053432E+03 -0.16038364701E+04  0.16428246158E+04  0.25500000920E-02 0.  1.
       -2    1    3    3    0  502 -0.23794006145E+03  0.26451053432E+03  0.24708393744E+03  0.43316482747E+03  0.25500000920E-02 0. -1.
</event>
<event>
 5   0  0.2689675E-04  0.1616304E+04  0.7818609E-02  0.8810594E-01
        1   -1    0    0  501    0  0.00000000000E+00  0.00000000000E+00  0.15443797836E+04  0.15443797836E+04  0.50400001928E-02 0.  1.
       -1   -1    0    0    0  501  0.00000000000E+00  0.00000000000E+00 -0.42289453736E+03  0.42289453739E+03  0.50400001928E-02 0. -1.
    10030    2    1    2    0    0  0.00000000000E+00  0.00000000000E+00  0.11214852463E+04  0.19672743210E+04  0.16163041473E+04 0.  0.
        1    1    3    3  502    0  0.53059503202E+03  0.53107513097E+03  0.19653815705E+03  0.77601490317E+03  0.50400001928E-02 0. -1.
       -1    1    3    3    0  502 -0.53059503202E+03 -0.53107513097E+03  0.92494708922E+03  0.11912594179E+04  0.50400001928E-02 0.  1.
</event>
<event>
 5   0  0.2796994E-04  0.1600157E+04  0.7818609E-02  0.8820451E-01
       -1   -1    0    0    0  501  0.00000000000E+00  0.00000000000E+00  0.41832701618E+03  0.41832701621E+03  0.50400001928E-02 0. -1.
        1   -1    0    0  501    0  0.00000000000E+00  0.00000000000E+00 -0.15302041378E+04  0.15302041378E+04  0.50400001928E-02 0.  1.
    10030    2    1    2    0    0  0.00000000000E+00  0.00000000000E+00 -0.11118771216E+04  0.19485311540E+04  0.16001571562E+04 0.  0.
        3    1    3    3  502    0  0.11682892841E+03 -0.10482221398E+03 -0.15112717652E+04  0.15194008864E+04  0.10100000352E+00 0.  1.
       -3    1    3    3    0  502 -0.11682892841E+03  0.10482221398E+03  0.39939464359E+03  0.42913026762E+03  0.10100000352E+00 0. -1.
</event>
<event>
 5   0  0.5083831E-04  0.1600873E+04  0.7818609E-02  0.8820012E-01
        2   -1    0    0  501    0  0.00000000000E+00  0.00000000000E+00  0.22120420021E+04  0.22120420021E+04  0.25500000920E-02 0. -1.
       -2   -1    0    0    0  501  0.00000000000E+00  0.00000000000E+00 -0.28964110855E+03  0.28964110856E+03  0.25500000920E-02 0.  1.
    10030    2    1    2    0    0  0.00000000000E+00  0.00000000000E+00  0.19224008936E+04  0.25016831107E+04  0.16008726341E+04 0.  0.
        4    1    3    3  502    0 -0.80025928266E+03 -0.51513846021E+01  0.93623495543E+03  0.12316569981E+04  0.12699999809E+01 0. -1.
       -4    1    3    3    0  502  0.80025928266E+03  0.51513846021E+01  0.98616593812E+03  0.12700261126E+04  0.12699999809E+01 0.  1.
</event>
<event>
 5   0  0.5083831E-04  0.1576486E+04  0.7818609E-02  0.8835125E-01
       -2   -1    0    0    0  501  0.00000000000E+00  0.00000000000E+00  0.63147278196E+03  0.63147278197E+03  0.25500000920E-02 0. -1.
        2   -1    0    0  501    0  0.00000000000E+00  0.00000000000E+00 -0.98393306989E+03  0.98393306989E+03  0.25500000920E-02 0.  1.
    10030    2    1    2    0    0  0.00000000000E+00  0.00000000000E+00 -0.35246028792E+03  0.16154058519E+04  0.15764859060E+04 0.  0.
        4    1    3    3  502    0 -0.59856026434E-02 -0.32418620045E+02 -0.98324862171E+03  0.98378373231E+03  0.12699999809E+01 0.  1.
       -4    1    3    3    0  502  0.59856026434E-02  0.32418620045E+02  0.63078833379E+03  0.63162211955E+03  0.12699999809E+01 0. -1.
</event>
<event>
 5   0  0.5131239E-04  0.1600731E+04  0.7818609E-02  0.8820099E-01
        2   -1    0    0  501    0  0.00000000000E+00  0.00000000000E+00  0.13459739340E+04  0.13459739340E+04  0.25500000920E-02 0.  1.
       -2   -1    0    0    0  501  0.00000000000E+00  0.00000000000E+00 -0.47592649146E+03  0.47592649147E+03  0.25500000920E-02 0. -1.
    10030    2    1    2    0    0  0.00000000000E+00  0.00000000000E+00  0.87004744252E+03  0.18219004254E+04  0.16007306482E+04 0.  0.
        1    1    3    3  502    0  0.44180394745E+03  0.16318363907E+03 -0.30150820660E+03  0.55921983755E+03  0.50400001928E-02 0. -1.
       -1    1    3    3    0  502 -0.44180394745E+03 -0.16318363907E+03  0.11715556491E+04  0.12626805879E+04  0.50400001928E-02 0.  1.
</event>
<event>
 5   0  0.1908125E-04  0.1590620E+04  0.7818609E-02  0.8826331E-01
       -4   -1    0    0    0  501  0.00000000000E+00  0.00000000000E+00  0.48773413947E+03  0.48773579293E+03  0.12699999809E+01 0. -1.
        4   -1    0    0  501    0  0.00000000000E+00  0.00000000000E+00 -0.12968465776E+04  0.12968471994E+04  0.12699999809E+01 0.  1.
    10030    2    1    2    0    0  0.00000000000E+00  0.00000000000E+00 -0.80911243809E+03  0.17845829923E+04  0.15906204824E+04 0.  0.
        4    1    3    3  502    0  0.51591238143E+03 -0.29383023307E+03 -0.99824768822E+03  0.11614653895E+04  0.12699999809E+01 0.  1.
       -4    1    3    3    0  502 -0.51591238143E+03  0.29383023307E+03  0.18913525012E+03  0.62311760280E+03  0.12699999809E+01 0. -1.
</event>
<event>
 5   0  0.2796994E-04  0.1607335E+04  0.7818609E-02  0.8816055E-01
        1   -1    0    0  501    0  0.00000000000E+00  0.00000000000E+00  0.34021950316E+03  0.34021950320E+03  0.50400001928E-02 0. -1.
       -1   -1    0    0    0  501  0.00000000000E+00  0.00000000000E+00 -0.18984250700E+04  0.18984250700E+04  0.50400001928E-02 0.  1.
    10030    2    1    2    0    0  0.00000000000E+00  0.00000000000E+00 -0.15582055668E+04  0.22386445732E+04  0.16073347307E+04 0.  0.
        3    1    3    3  502    0 -0.32866004312E+03 -0.20342148000E+02 -0.18001547595E+04  0.18300241516E+04  0.10100000352E+00 0.  1.
       -3    1    3    3    0  502  0.32866004312E+03  0.20342148000E+02  0.24194919268E+03  0.40862042163E+03  0.10100000352E+00 0. -1.
</event>
<event>
 5   0  0.2689675E-04  0.1621304E+04  0.7818609E-02  0.8807566E-01
       -1   -1    0    0    0  501  0.00000000000E+00  0.00000000000E+00  0.77613608391E+03  0.77613608393E+03  0.50400001928E-02 0. -1.
        1   -1    0    0  501    0  0.00000000000E+00  0.00000000000E+00 -0.84670261353E+03  0.84670261355E+03  0.50400001928E-02 0.  1.
    10030    2    1    2    0    0  0.00000000000E+00  0.00000000000E+00 -0.70566529618E+02  0.16228386975E+04  0.16213037356E+04 0.  0.
        1    1    3    3  502    0  0.40132873099E+03  0.35524730367E+03 -0.64404575586E+03  0.83789040616E+03  0.50400001928E-02 0.  1.
       -1    1    3    3    0  502 -0.40132873099E+03 -0.35524730367E+03  0.57347922624E+03  0.78494829131E+03  0.50400001928E-02 0. -1.
</event>
<event>
 5   0  0.5315984E-04  0.1622712E+04  0.7818609E-02  0.8806715E-01
        2   -1    0    0  501    0  0.00000000000E+00  0.00000000000E+00  0.16696801853E+04  0.16696801853E+04  0.25500000920E-02 0. -1.
       -2   -1    0    0    0  501  0.00000000000E+00  0.00000000000E+00 -0.39426645694E+03  0.39426645695E+03  0.25500000920E-02 0.  1.
    10030    2    1    2    0    0  0.00000000000E+00  0.00000000000E+00  0.12754137284E+04  0.20639466423E+04  0.16227124094E+04 0.  0.
        2    1    3    3  502    0  0.34527503495E+03 -0.10475674810E+03  0.15620200116E+04  0.16031516905E+04  0.25500000920E-02 0. -1.
       -2    1    3    3    0  502 -0.34527503495E+03  0.10475674810E+03 -0.28660628320E+03  0.46079495181E+03  0.25500000920E-02 0.  1.
</event>
<event>
 5   0  0.2730707E-04  0.1600122E+04  0.7818609E-02  0.8820473E-01
       -1   -1    0    0    0  501  0.00000000000E+00  0.00000000000E+00  0.75050347798E+03  0.75050347800E+03  0.50400001928E-02 0.  1.
        1   -1    0    0  501    0  0.00000000000E+00  0.00000000000E+00 -0.85289118790E+03  0.85289118791E+03  0.50400001928E-02 0. -1.
    10030    2    1    2    0    0  0.00000000000E+00  0.00000000000E+00 -0.10238770992E+03  0.16033946659E+04  0.16001222489E+04 0.  0.
        5    1    3    3  502    0  0.66190196277E+03  0.44581817471E+03  0.55581764529E+01  0.79807332780E+03  0.46999998093E+01 0. -1.
       -5    1    3    3    0  502 -0.66190196277E+03 -0.44581817471E+03 -0.10794588637E+03  0.80532133810E+03  0.46999998093E+01 0.  1.
</event>
<event>
 5   0  0.2796994E-04  0.1591916E+04  0.7818609E-02  0.8825530E-01
       -1   -1    0    0    0  501  0.00000000000E+00  0.00000000000E+00  0.98702193868E+03  0.98702193869E+03  0.50400001928E-02 0. -1.
        1   -1    0    0  501    0  0.00000000000E+00  0.00000000000E+00 -0.64187939033E+03  0.64187939035E+03  0.50400001928E-02 0.  1.
    10030    2    1    2    0    0  0.00000000000E+00  0.00000000000E+00  0.34514254834E+03  0.16289013290E+04  0.15919158775E+04 0.  0.
        3    1    3    3  502    0 -0.61559579027E+03  0.47896295484E+03  0.10185275464E+02  0.78004322903E+03  0.10100000352E+00 0.  1.
       -3    1    3    3    0  502  0.61559579027E+03 -0.47896295484E+03  0.33495727288E+03  0.84885810002E+03  0.10100000352E+00 0. -1.
</event>
<event>
 5   0  0.2649086E-04  0.1612715E+04  0.7818609E-02  0.8812775E-01
        1   -1    0    0  501    0  0.00000000000E+00  0.00000000000E+00  0.80815308479E+03  0.80815308480E+03  0.50400001928E-02 0. -1.
       -1   -1    0    0    0  501  0.00000000000E+00  0.00000000000E+00 -0.80456590136E+03  0.80456590138E+03  0.50400001928E-02 0.  1.
    10030    2    1    2    0    0  0.00000000000E+00  0.00000000000E+00  0.35871834282E+01  0.16127189862E+04  0.16127149967E+04 0.  0.
        2    1    3    3  502    0  0.28964542957E+03  0.46367046322E+02 -0.74931946803E+03  0.80468878645E+03  0.25500000920E-02 0.  1.
       -2    1    3    3    0  502 -0.28964542957E+03 -0.46367046322E+02  0.75290665146E+03  0.80803019973E+03  0.25500000920E-02 0. -1.
</event>
<event>
 5   0  0.5315984E-04  0.1585254E+04  0.7818609E-02  0.8829658E-01
       -2   -1    0    0    0  501  0.00000000000E+00  0.00000000000E+00  0.78479115749E+03  0.78479115750E+03  0.25500000920E-02 0. -1.
        2   -1    0    0  501    0  0.00000000000E+00  0.00000000000E+00 -0.80054154562E+03  0.80054154562E+03  0.25500000920E-02 0.  1.
    10030    2    1    2    0    0  0.00000000000E+00  0.00000000000E+00 -0.15750388123E+02  0.15853327031E+04  0.15852544606E+04 0.  0.
        2    1    3    3  502    0 -0.69555292399E+03 -0.33888109560E+03  0.16424855062E+03  0.79095629046E+03  0.25500000920E-02 0. -1.
       -2    1    3    3    0  502  0.69555292399E+03  0.33888109560E+03 -0.17999893874E+03  0.79437641266E+03  0.25500000920E-02 0.  1.
</event>
<event>
 5   0  0.5264308E-04  0.1584681E+04  0.7818609E-02  0.8830015E-01
       -2   -1    0    0    0  501  0.00000000000E+00  0.00000000000E+00  0.13495258975E+04  0.13495258975E+04  0.25500000920E-02 0.  1.
        2   -1    0    0  501    0  0.00000000000E+00  0.00000000000E+00 -0.46520316301E+03  0.46520316302E+03  0.25500000920E-02 0. -1.
    10030    2    1    2    0    0  0.00000000000E+00  0.00000000000E+00  0.88432273444E+03  0.18147290605E+04  0.15846813132E+04 0.  0.
        3    1    3    3  502    0 -0.68347857037E+03 -0.21540037612E+03  0.55061091002E+02  0.71872944292E+03  0.10100000352E+00 0. -1.
       -3    1    3    3    0  502  0.68347857037E+03  0.21540037612E+03  0.82926164344E+03  0.10959996175E+04  0.10100000352E+00 0.  1.
</event>
<event>
 5   0  0.2730707E-04  0.1605093E+04  0.7818609E-02  0.8817425E-01
       -1   -1    0    0    0  501  0.00000000000E+00  0.00000000000E+00  0.92868728689E+03  0.92868728690E+03  0.50400001928E-02 0. -1.
        1   -1    0    0  501    0  0.00000000000E+00  0.00000000000E+00 -0.69353882678E+03  0.69353882680E+03  0.50400001928E-02 0.  1.
    10030    2    1    2    0    0  0.00000000000E+00  0.00000000000E+00  0.23514846011E+03  0.16222261137E+04  0.16050927592E+04 0.  0.
        5    1    3    3  502    0  0.16683657260E+03  0.77755467113E+03  0.85670469893E+01  0.79531200974E+03  0.46999998093E+01 0. -1.
       -5    1    3    3    0  502 -0.16683657260E+03 -0.77755467113E+03  0.22658141312E+03  0.82691410396E+03  0.46999998093E+01 0.  1.
</event>
<event>
 5   0  0.2689675E-04  0.1601834E+04  0.7818609E-02  0.8819422E-01
        1   -1    0    0  501    0  0.00000000000E+00  0.00000000000E+00  0.17685075436E+04  0.17685075436E+04  0.50400001928E-02 0.  1.
       -1   -1    0    0    0  501  0.00000000000E+00  0.00000000000E+00 -0.36271721032E+03  0.36271721036E+03  0.50400001928E-02 0. -1.
    10030    2    1    2    0    0  0.00000000000E+00  0.00000000000E+00  0.14057903332E+04  0.21312247539E+04  0.16018341021E+04 0.  0.
        1    1    3    3  502    0  0.19626634456E+03  0.74913153939E+03  0.43103988251E+03  0.88629223265E+03  0.50400001928E-02 0. -1.
       -1    1    3    3    0  502 -0.19626634456E+03 -0.74913153939E+03  0.97475045072E+03  0.12449325213E+04  0.50400001928E-02 0.  1.
</event>
<event>
 5   0  0.2730707E-04  0.1599286E+04  0.7818609E-02  0.8820987E-01
       -1   -1    0    0    0  501  0.00000000000E+00  0.00000000000E+00  0.68433940727E+03  0.68433940729E+03  0.50400001928E-02 0. -1.
        1   -1    0    0  501    0  0.00000000000E+00  0.00000000000E+00 -0.93437373284E+03  0.93437373286E+03  0.50400001928E-02 0.  1.
    10030    2    1    2    0    0  0.00000000000E+00  0.00000000000E+00 -0.25003432557E+03  0.16187131401E+04  0.15992857988E+04 0.  0.
        5    1    3    3  502    0 -0.35990111337E+03  0.25779334647E+03 -0.79900440090E+03  0.91346392569E+03  0.46999998093E+01 0.  1.
       -5    1    3    3    0  502  0.35990111337E+03 -0.25779334647E+03  0.54897007532E+03  0.70524921445E+03  0.46999998093E+01 0. -1.
</event>
<event>
 5   0  0.5381164E-04  0.1598867E+04  0.7818609E-02  0.8821244E-01
        2   -1    0    0  501    0  0.00000000000E+00  0.00000000000E+00  0.21540164308E+04  0.21540164308E+04  0.25500000920E-02 0. -1.
       -2   -1    0    0    0  501  0.00000000000E+00  0.00000000000E+00 -0.29669878873E+03  0.29669878874E+03  0.25500000920E-02 0.  1.
    10030    2    1    2    0    0  0.00000000000E+00  0.00000000000E+00  0.18573176420E+04  0.24507152195E+04  0.15988671814E+04 0.  0.
        5    1    3    3  502    0  0.44276488167E+02  0.79013657521E+03  0.11020446185E+04  0.13567610866E+04  0.46999998093E+01 0. -1.
       -5    1    3    3    0  502 -0.44276488167E+02 -0.79013657521E+03  0.75527302355E+03  0.10939541329E+04  0.46999998093E+01 0.  1.
</event>
<event>
 5   0  0.1908125E-04  0.1598972E+04  0.7818609E-02  0.8821179E-01
        3   -1    0    0  501    0  0.00000000000E+00  0.00000000000E+00  0.11235093786E+04  0.11235093831E+04  0.10100000352E+00 0.  1.
       -3   -1    0    0    0  501  0.00000000000E+00  0.00000000000E+00 -0.56891225056E+03  0.56891225953E+03  0.10100000352E+00 0. -1.
    10030    2    1    2    0    0  0.00000000000E+00  0.00000000000E+00  0.55459712801E+03  0.16924216426E+04  0.15989724957E+04 0.  0.
        3    1    3    3  502    0 -0.56778257008E+03 -0.24701768158E+03  0.81260666169E+03  0.10216282977E+04  0.10100000352E+00 0.  1.
       -3    1    3    3    0  502  0.56778257008E+03  0.24701768158E+03 -0.25800953368E+03  0.67079334491E+03  0.10100000352E+00 0. -1.
</event>
<event>
 5   0  0.5315984E-04  0.1589275E+04  0.7818609E-02  0.8827164E-01
       -2   -1    0    0    0  501  0.00000000000E+00  0.00000000000E+00  0.67318613637E+03  0.67318613637E+03  0.25500000920E-02 0. -1.
        2   -1    0    0  501    0  0.00000000000E+00  0.00000000000E+00 -0.93800063768E+03  0.93800063768E+03  0.25500000920E-02 0.  1.
    10030    2    1    2    0    0  0.00000000000E+00  0.00000000000E+00 -0.26481450131E+03  0.16111867741E+04  0.15892753383E+04 0.  0.
        2    1    3    3  502    0 -0.34459368973E+02  0.23434222503E+02  0.67207760234E+03  0.67336833492E+03  0.25500000920E-02 0. -1.
       -2    1    3    3    0  502  0.34459368973E+02 -0.23434222503E+02 -0.93689210365E+03  0.93781843914E+03  0.25500000920E-02 0.  1.
</event>
<event>
 5   0  0.5315984E-04  0.1599013E+04  0.7818609E-02  0.8821155E-01
       -2   -1    0    0    0  501  0.00000000000E+00  0.00000000000E+00  0.18128979497E+04  0.18128979497E+04  0.25500000920E-02 0. -1.
        2   -1    0    0  501    0  0.00000000000E+00  0.00000000000E+00 -0.35259041031E+03  0.35259041032E+03  0.25500000920E-02 0.  1.
    10030    2    1    2    0    0  0.00000000000E+00  0.00000000000E+00  0.14603075394E+04  0.21654883600E+04  0.15990127353E+04 0.  0.
        2    1    3    3  502    0 -0.25165106986E+03 -0.31052329228E+03 -0.20757873285E+03  0.45037973572E+03  0.25500000920E-02 0.  1.
       -2    1    3    3    0  502  0.25165106986E+03  0.31052329228E+03  0.16678862722E+04  0.17151086243E+04  0.25500000920E-02 0. -1.
</event>
<event>
 5   0  0.5381164E-04  0.1601459E+04  0.7818609E-02  0.8819652E-01
        2   -1    0    0  501    0  0.00000000000E+00  0.00000000000E+00  0.91662736948E+03  0.91662736949E+03  0.25500000920E-02 0.  1.
       -2   -1    0    0    0  501  0.00000000000E+00  0.00000000000E+00 -0.69948551835E+03  0.69948551835E+03  0.25500000920E-02 0. -1.
    10030    2    1    2    0    0  0.00000000000E+00  0.00000000000E+00  0.21714185114E+03  0.16161128878E+04  0.16014587983E+04 0.  0.
        5    1    3    3  502    0 -0.49890538649E+03  0.59628568230E+02  0.73772046230E+03  0.89258933520E+03  0.46999998093E+01 0.  1.
       -5    1    3    3    0  502  0.49890538649E+03 -0.59628568230E+02 -0.52057861116E+03  0.72352355264E+03  0.46999998093E+01 0. -1.
</event>
<event>
 5   0  0.5131239E-04  0.1591818E+04  0.7818609E-02  0.8825590E-01
       -2   -1    0    0    0  501  0.00000000000E+00  0.00000000000E+00  0.58714330209E+03  0.58714330209E+03  0.25500000920E-02 0.  1.
        2   -1    0    0  501    0  0.00000000000E+00  0.00000000000E+00 -0.10789038242E+04  0.10789038242E+04  0.25500000920E-02 0. -1.
    10030    2    1    2    0    0  0.00000000000E+00  0.00000000000E+00 -0.49176052213E+03  0.16660471263E+04  0.15918180223E+04 0.  0.
        1    1    3    3  502    0  0.16671038289E+03 -0.64767724645E+03  0.20574219015E+03  0.69971995553E+03  0.50400001928E-02 0.  1.
       -1    1    3    3    0  502 -0.16671038289E+03  0.64767724645E+03 -0.69750271228E+03  0.96632717078E+03  0.50400001928E-02 0. -1.
</event>
<event>
 5   0  0.5315984E-04  0.1609852E+04  0.7818609E-02  0.8814518E-01
        2   -1    0    0  501    0  0.00000000000E+00  0.00000000000E+00  0.69810810578E+03  0.69810810578E+03  0.25500000920E-02 0. -1.
       -2   -1    0    0    0  501  0.00000000000E+00  0.00000000000E+00 -0.92808814009E+03  0.92808814009E+03  0.25500000920E-02 0.  1.
    10030    2    1    2    0    0  0.00000000000E+00  0.00000000000E+00 -0.22998003431E+03  0.16261962459E+04  0.16098519851E+04 0.  0.
        2    1    3    3  502    0 -0.61411326323E+03  0.35279510700E+03 -0.50137355809E+03  0.86774128192E+03  0.25500000920E-02 0.  1.
       -2    1    3    3    0  502  0.61411326323E+03 -0.35279510700E+03  0.27139352378E+03  0.75845496396E+03  0.25500000920E-02 0. -1.
</event>
<event>
 5   0  0.5131239E-04  0.1606242E+04  0.7818609E-02  0.8816722E-01
        2   -1    0    0  501    0  0.00000000000E+00  0.00000000000E+00  0.99959177628E+03  0.99959177628E+03  0.25500000920E-02 0. -1.
       -2   -1    0    0    0  501  0.00000000000E+00  0.00000000000E+00 -0.64526700788E+03  0.64526700789E+03  0.25500000920E-02 0.  1.
    10030    2    1    2    0    0  0.00000000000E+00  0.00000000000E+00  0.35432476840E+03  0.16448587842E+04  0.16062423162E+04 0.  0.
        1    1    3    3  502    0  0.33633811635E+03 -0.18637001157E+03 -0.54487509584E+03  0.66689277985E+03  0.50400001928E-02 0.  1.
       -1    1    3    3    0  502 -0.33633811635E+03  0.18637001157E+03  0.89919986424E+03  0.97796600431E+03  0.50400001928E-02 0. -1.
</event>
<event>
 5   0  0.2763895E-04  0.1600145E+04  0.7818609E-02  0.8820459E-01
        1   -1    0    0  501    0  0.00000000000E+00  0.00000000000E+00  0.47713831804E+03  0.47713831807E+03  0.50400001928E-02 0.  1.
       -1   -1    0    0    0  501  0.00000000000E+00  0.00000000000E+00 -0.13415732052E+04  0.13415732052E+04  0.50400001928E-02 0. -1.
    10030    2    1    2    0    0  0.00000000000E+00  0.00000000000E+00 -0.86443488718E+03  0.18187115233E+04  0.16001449718E+04 0.  0.
        4    1    3    3  502    0 -0.47517705256E+03  0.48489555154E+03 -0.91335625503E+03  0.11380413827E+04  0.12699999809E+01 0. -1.
       -4    1    3    3    0  502  0.47517705256E+03 -0.48489555154E+03  0.48921367858E+02  0.68067014061E+03  0.12699999809E+01 0.  1.
</event>
<event>
 5   0  0.2763895E-04  0.1605837E+04  0.7818609E-02  0.8816970E-01
        1   -1    0    0  501    0  0.00000000000E+00  0.00000000000E+00  0.52378657369E+03  0.52378657372E+03  0.50400001928E-02 0.  1.
       -1   -1    0    0    0  501  0.00000000000E+00  0.00000000000E+00 -0.12308028297E+04  0.12308028297E+04  0.50400001928E-02 0. -1.
    10030    2    1    2    0    0  0.00000000000E+00  0.00000000000E+00 -0.70701625604E+03  0.17545894035E+04  0.16058368499E+04 0.  0.
        4    1    3    3  502    0  0.16564024897E+03 -0.11236585675E+03 -0.12031052660E+04  0.12196420261E+04  0.12699999809E+01 0. -1.
       -4    1    3    3    0  502 -0.16564024897E+03  0.11236585675E+03  0.49608900996E+03  0.53494737736E+03  0.12699999809E+01 0.  1.
</event>
<event>
 5   0  0.2763895E-04  0.1593975E+04  0.7818609E-02  0.8824258E-01
       -1   -1    0    0    0  501  0.00000000000E+00  0.00000000000E+00  0.31403167354E+03  0.31403167358E+03  0.50400001928E-02 0.  1.
        1   -1    0    0  501    0  0.00000000000E+00  0.00000000000E+00 -0.20226902514E+04  0.20226902514E+04  0.50400001928E-02 0. -1.
    10030    2    1    2    0    0  0.00000000000E+00  0.00000000000E+00 -0.17086585778E+04  0.23367219249E+04  0.15939746607E+04 0.  0.
        4    1    3    3  502    0 -0.29153062991E+03  0.29864223025E+01 -0.19417090423E+04  0.19634751449E+04  0.12699999809E+01 0. -1.
       -4    1    3    3    0  502  0.29153062991E+03 -0.29864223025E+01  0.23305046448E+03  0.37324678001E+03  0.12699999809E+01 0.  1.
</event>
<event>
 5   0  0.5083831E-04  0.1589541E+04  0.7818609E-02  0.8826999E-01
        2   -1    0    0  501    0  0.00000000000E+00  0.00000000000E+00  0.12465319011E+04  0.12465319011E+04  0.25500000920E-02 0. -1.
       -2   -1    0    0    0  501  0.00000000000E+00  0.00000000000E+00 -0.50673423474E+03  0.50673423475E+03  0.25500000920E-02 0.  1.
    10030    2    1    2    0    0  0.00000000000E+00  0.00000000000E+00  0.73979766633E+03  0.17532661358E+04  0.15895413036E+04 0.  0.
        4    1    3    3  502    0 -0.43753658680E+03 -0.36396995388E+03 -0.24198997039E+03  0.61844413716E+03  0.12699999809E+01 0.  1.
       -4    1    3    3    0  502  0.43753658680E+03  0.36396995388E+03  0.98178763672E+03  0.11348219987E+04  0.12699999809E+01 0. -1.
</event>
<event>
 5   0  0.2730707E-04  0.1640341E+04  0.7818609E-02  0.8796141E-01
       -1   -1    0    0    0  501  0.00000000000E+00  0.00000000000E+00  0.39073701814E+03  0.39073701817E+03  0.50400001928E-02 0.  1.
        1   -1    0    0  501    0  0.00000000000E+00  0.00000000000E+00 -0.17215656362E+04  0.17215656362E+04  0.50400001928E-02 0. -1.
    10030    2    1    2    0    0  0.00000000000E+00  0.00000000000E+00 -0.13308286180E+04  0.21123026543E+04  0.16403407247E+04 0.  0.
        5    1    3    3  502    0 -0.11679691047E+03 -0.75145427594E+03 -0.10609195632E+04  0.13053342318E+04  0.46999998093E+01 0.  1.
       -5    1    3    3    0  502  0.11679691047E+03  0.75145427594E+03 -0.26990905486E+03  0.80696842257E+03  0.46999998093E+01 0. -1.
</event>
<event>
 5   0  0.2649086E-04  0.1607145E+04  0.7818609E-02  0.8816171E-01
        1   -1    0    0  501    0  0.00000000000E+00  0.00000000000E+00  0.73043852747E+03  0.73043852749E+03  0.50400001928E-02 0.  1.
       -1   -1    0    0    0  501  0.00000000000E+00  0.00000000000E+00 -0.88402839265E+03  0.88402839266E+03  0.50400001928E-02 0. -1.
    10030    2    1    2    0    0  0.00000000000E+00  0.00000000000E+00 -0.15358986518E+03  0.16144669202E+04  0.16071445453E+04 0.  0.
        2    1    3    3  502    0  0.75946938720E+03  0.18746744308E+03  0.10786479757E+03  0.78966613633E+03  0.25500000920E-02 0.  1.
       -2    1    3    3    0  502 -0.75946938720E+03 -0.18746744308E+03 -0.26145466275E+03  0.82480078382E+03  0.25500000920E-02 0. -1.
</event>
<event>
 5   0  0.2763895E-04  0.1588207E+04  0.7818609E-02  0.8827826E-01
        1   -1    0    0  501    0  0.00000000000E+00  0.00000000000E+00  0.36842565722E+03  0.36842565725E+03  0.50400001928E-02 0.  1.
       -1   -1    0    0    0  501  0.00000000000E+00  0.00000000000E+00 -0.17116084083E+04  0.17116084083E+04  0.50400001928E-02 0. -1.
    10030    2    1    2    0    0  0.00000000000E+00  0.00000000000E+00 -0.13431827510E+04  0.20800340655E+04  0.15882071058E+04 0.  0.
        4    1    3    3  502    0  0.18469611770E+03  0.36337141772E+02 -0.16819656853E+04  0.16924666092E+04  0.12699999809E+01 0. -1.
       -4    1    3    3    0  502 -0.18469611770E+03 -0.36337141772E+02  0.33878293426E+03  0.38756745634E+03  0.12699999809E+01 0.  1.
</event>
<event>
 5   0  0.2763895E-04  0.1598645E+04  0.7818609E-02  0.8821381E-01
        1   -1    0    0  501    0  0.00000000000E+00  0.00000000000E+00  0.27463072700E+04  0.27463072700E+04  0.50400001928E-02 0.  1.
       -1   -1    0    0    0  501  0.00000000000E+00  0.00000000000E+00 -0.23264565201E+03  0.23264565207E+03  0.50400001928E-02 0. -1.
    10030    2    1    2    0    0  0.00000000000E+00  0.00000000000E+00  0.25136616180E+04  0.29789529220E+04  0.15986449831E+04 0.  0.
        4    1    3    3  502    0  0.37065575167E+03  0.39767550201E+03  0.16488465744E+03  0.56808454855E+03  0.12699999809E+01 0. -1.
       -4    1    3    3    0  502 -0.37065575167E+03 -0.39767550201E+03  0.23487769605E+04  0.24108683735E+04  0.12699999809E+01 0.  1.
</event>
<event>
 5   0  0.5264308E-04  0.1600540E+04  0.7818609E-02  0.8820217E-01
       -2   -1    0    0    0  501  0.00000000000E+00  0.00000000000E+00  0.10112406415E+04  0.10112406415E+04  0.25500000920E-02 0. -1.
        2   -1    0    0  501    0  0.00000000000E+00  0.00000000000E+00 -0.63331288820E+03  0.63331288821E+03  0.25500000920E-02 0.  1.
    10030    2    1    2    0    0  0.00000000000E+00  0.00000000000E+00  0.37792775325E+03  0.16445535297E+04  0.16005395732E+04 0.  0.
        3    1    3    3  502    0  0.23985702864E+03  0.49443241174E+02  0.97179148754E+03  0.10021750016E+04  0.10100000352E+00 0. -1.
       -3    1    3    3    0  502 -0.23985702864E+03 -0.49443241174E+02 -0.59386373429E+03  0.64237852812E+03  0.10100000352E+00 0.  1.
</event>
<event>
 5   0  0.2649086E-04  0.1602914E+04  0.7818609E-02  0.8818760E-01
        1   -1    0    0  501    0  0.00000000000E+00  0.00000000000E+00  0.89165593951E+03  0.89165593953E+03  0.50400001928E-02 0.  1.
       -1   -1    0    0    0  501  0.00000000000E+00  0.00000000000E+00 -0.72038249631E+03  0.72038249633E+03  0.50400001928E-02 0. -1.
    10030    2    1    2    0    0  0.00000000000E+00  0.00000000000E+00  0.17127344320E+03  0.16120384359E+04  0.16029140109E+04 0.  0.
        2    1    3    3  502    0  0.12403475362E+03  0.54259571321E+03  0.66558091134E+03  0.86763625883E+03  0.25500000920E-02 0.  1.
       -2    1    3    3    0  502 -0.12403475362E+03 -0.54259571321E+03 -0.49430746814E+03  0.74440217702E+03  0.25500000920E-02 0. -1.
</event>
<event>
 5   0  0.5264308E-04  0.1635082E+04  0.7818609E-02  0.8799281E-01
        2   -1    0    0  501    0  0.00000000000E+00  0.00000000000E+00  0.74580643607E+03  0.74580643607E+03  0.25500000920E-02 0. -1.
       -2   -1    0    0    0  501  0.00000000000E+00  0.00000000000E+00 -0.89617526109E+03  0.89617526110E+03  0.25500000920E-02 0.  1.
    10030    2    1    2    0    0  0.00000000000E+00  0.00000000000E+00 -0.15036882502E+03  0.16419816972E+04  0.16350819889E+04 0.  0.
        3    1    3    3  502    0  0.45345181224E+03 -0.62612774416E+03  0.19186776556E+03  0.79653483771E+03  0.10100000352E+00 0. -1.
       -3    1    3    3    0  502 -0.45345181224E+03  0.62612774416E+03 -0.34223659058E+03  0.84544685946E+03  0.10100000352E+00 0.  1.
</event>
<event>
 5   0  0.2730707E-04  0.1390792E+04  0.7818609E-02  0.8960511E-01
       -1   -1    0    0    0  501  0.00000000000E+00  0.00000000000E+00  0.52123701721E+03  0.52123701723E+03  0.50400001928E-02 0. -1.
        1   -1    0    0  501    0  0.00000000000E+00  0.00000000000E+00 -0.92774554717E+03  0.92774554718E+03  0.50400001928E-02 0.  1.
    10030    2    1    2    0    0  0.00000000000E+00  0.00000000000E+00 -0.40650852996E+03  0.14489825644E+04  0.13907916045E+04 0.  0.
        5    1    3    3  502    0 -0.24168204612E+03  0.63923417951E+03 -0.69335511248E+02  0.68692070196E+03  0.46999998093E+01 0. -1.
       -5    1    3    3    0  502  0.24168204612E+03 -0.63923417951E+03 -0.33717301871E+03  0.76206186245E+03  0.46999998093E+01 0.  1.
</event>
<event>
 5   0  0.5264308E-04  0.1606232E+04  0.7818609E-02  0.8816729E-01
        2   -1    0    0  501    0  0.00000000000E+00  0.00000000000E+00  0.83702430017E+03  0.83702430018E+03  0.25500000920E-02 0.  1.
       -2   -1    0    0    0  501  0.00000000000E+00  0.00000000000E+00 -0.77058101327E+03  0.77058101328E+03  0.25500000920E-02 0. -1.
    10030    2    1    2    0    0  0.00000000000E+00  0.00000000000E+00  0.66443286900E+02  0.16076053135E+04  0.16062316562E+04 0.  0.
        3    1    3    3  502    0  0.79628303079E+03  0.10418242989E+03  0.24589921862E+02  0.80344590252E+03  0.10100000352E+00 0. -1.
       -3    1    3    3    0  502 -0.79628303079E+03 -0.10418242989E+03  0.41853365038E+02  0.80415941093E+03  0.10100000352E+00 0.  1.
</event>
<event>
 5   0  0.2796994E-04  0.1422414E+04  0.7818609E-02  0.8937752E-01
       -1   -1    0    0    0  501  0.00000000000E+00  0.00000000000E+00  0.11305615637E+04  0.11305615637E+04  0.50400001928E-02 0.  1.
        1   -1    0    0  501    0  0.00000000000E+00  0.00000000000E+00 -0.44740211951E+03  0.44740211954E+03  0.50400001928E-02 0. -1.
    10030    2    1    2    0    0  0.00000000000E+00  0.00000000000E+00  0.68315944415E+03  0.15779636832E+04  0.14224143417E+04 0.  0.
        3    1    3    3  502    0 -0.56694043380E+03  0.34668008756E+03  0.60478729948E+02  0.66728271787E+03  0.10100000352E+00 0.  1.
       -3    1    3    3    0  502  0.56694043380E+03 -0.34668008756E+03  0.62268071420E+03  0.91068096534E+03  0.10100000352E+00 0. -1.
</event>
<event>
 5   0  0.2730707E-04  0.1551101E+04  0.7818609E-02  0.8851165E-01
        1   -1    0    0  501    0  0.00000000000E+00  0.00000000000E+00  0.11006091896E+04  0.11006091896E+04  0.50400001928E-02 0. -1.
       -1   -1    0    0    0  501  0.00000000000E+00  0.00000000000E+00 -0.54649597249E+03  0.54649597251E+03  0.50400001928E-02 0.  1.
    10030    2    1    2    0    0  0.00000000000E+00  0.00000000000E+00  0.55411321713E+03  0.16471051621E+04  0.15511008858E+04 0.  0.
        5    1    3    3  502    0 -0.72343308532E+03  0.62278186845E+02 -0.12243617548E+02  0.72622723556E+03  0.46999998093E+01 0.  1.
       -5    1    3    3    0  502  0.72343308532E+03 -0.62278186845E+02  0.56635683468E+03  0.92087792659E+03  0.46999998093E+01 0. -1.
</event>
<event>
 5   0  0.5381164E-04  0.1599206E+04  0.7818609E-02  0.8821036E-01
       -2   -1    0    0    0  501  0.00000000000E+00  0.00000000000E+00  0.12064403505E+04  0.12064403505E+04  0.25500000920E-02 0. -1.
        2   -1    0    0  501    0  0.00000000000E+00  0.00000000000E+00 -0.52995967254E+03  0.52995967254E+03  0.25500000920E-02 0.  1.
    10030    2    1    2    0    0  0.00000000000E+00  0.00000000000E+00  0.67648067800E+03  0.17364000231E+04  0.15992057192E+04 0.  0.
        5    1    3    3  502    0  0.94310954341E+02  0.61262707249E+03 -0.21020260513E+03  0.65453320104E+03  0.46999998093E+01 0.  1.
       -5    1    3    3    0  502 -0.94310954341E+02 -0.61262707249E+03  0.88668328313E+03  0.10818668220E+04  0.46999998093E+01 0. -1.
</event>
<event>
 5   0  0.2796994E-04  0.1595615E+04  0.7818609E-02  0.8823247E-01
       -1   -1    0    0    0  501  0.00000000000E+00  0.00000000000E+00  0.39011838977E+03  0.39011838980E+03  0.50400001928E-02 0. -1.
        1   -1    0    0  501    0  0.00000000000E+00  0.00000000000E+00 -0.16315473463E+04  0.16315473463E+04  0.50400001928E-02 0.  1.
    10030    2    1    2    0    0  0.00000000000E+00  0.00000000000E+00 -0.12414289565E+04  0.20216657361E+04  0.15956147701E+04 0.  0.
        3    1    3    3  502    0  0.12040083881E+03 -0.11517416024E+03 -0.16092573249E+04  0.16178598818E+04  0.10100000352E+00 0.  1.
       -3    1    3    3    0  502 -0.12040083881E+03  0.11517416024E+03  0.36782836839E+03  0.40380585430E+03  0.10100000352E+00 0. -1.
</event>
<event>
 5   0  0.2649086E-04  0.1590323E+04  0.7818609E-02  0.8826515E-01
       -1   -1    0    0    0  501  0.00000000000E+00  0.00000000000E+00  0.69532344101E+03  0.69532344103E+03  0.50400001928E-02 0. -1.
        1   -1    0    0  501    0  0.00000000000E+00  0.00000000000E+00 -0.90933524794E+03  0.90933524796E+03  0.50400001928E-02 0.  1.
    10030    2    1    2    0    0  0.00000000000E+00  0.00000000000E+00 -0.21401180693E+03  0.16046586890E+04  0.15903233805E+04 0.  0.
        2    1    3    3  502    0 -0.37958172369E+03 -0.61694734681E+03 -0.43794991003E+03  0.84646703267E+03  0.25500000920E-02 0.  1.
       -2    1    3    3    0  502  0.37958172369E+03  0.61694734681E+03  0.22393810310E+03  0.75819165632E+03  0.25500000920E-02 0. -1.
</event>
<event>
 5   0  0.5315984E-04  0.1617165E+04  0.7818609E-02  0.8810072E-01
        2   -1    0    0  501    0  0.00000000000E+00  0.00000000000E+00  0.14719400772E+04  0.14719400772E+04  0.25500000920E-02 0.  1.
       -2   -1    0    0    0  501  0.00000000000E+00  0.00000000000E+00 -0.44417950825E+03  0.44417950826E+03  0.25500000920E-02 0. -1.
    10030    2    1    2    0    0  0.00000000000E+00  0.00000000000E+00  0.10277605690E+04  0.19161195855E+04  0.16171649510E+04 0.  0.
        2    1    3    3  502    0  0.52393371352E+03  0.27943725832E+03 -0.13640779944E+03  0.60926086798E+03  0.25500000920E-02 0. -1.
       -2    1    3    3    0  502 -0.52393371352E+03 -0.27943725832E+03  0.11641683684E+04  0.13068587175E+04  0.25500000920E-02 0.  1.
</event>
<event>
 5   0  0.5315984E-04  0.1603600E+04  0.7818609E-02  0.8818340E-01
       -2   -1    0    0    0  501  0.00000000000E+00  0.00000000000E+00  0.50881688092E+03  0.50881688092E+03  0.25500000920E-02 0. -1.
        2   -1    0    0  501    0  0.00000000000E+00  0.00000000000E+00 -0.12634860228E+04  0.12634860228E+04  0.25500000920E-02 0.  1.
    10030    2    1    2    0    0  0.00000000000E+00  0.00000000000E+00 -0.75466914186E+03  0.17723029037E+04  0.16035997221E+04 0.  0.
        2    1    3    3  502    0 -0.52595727410E+03  0.91031757948E+02 -0.10385795234E+04  0.11677179718E+04  0.25500000920E-02 0.  1.
       -2    1    3    3    0  502  0.52595727410E+03 -0.91031757948E+02  0.28391038156E+03  0.60458493192E+03  0.25500000920E-02 0. -1.
</event>
<event>
 5   0  0.5083831E-04  0.1594792E+04  0.7818609E-02  0.8823754E-01
       -2   -1    0    0    0  501  0.00000000000E+00  0.00000000000E+00  0.41530211752E+03  0.41530211752E+03  0.25500000920E-02 0.  1.
        2   -1    0    0  501    0  0.00000000000E+00  0.00000000000E+00 -0.15310312751E+04  0.15310312751E+04  0.25500000920E-02 0. -1.
    10030    2    1    2    0    0  0.00000000000E+00  0.00000000000E+00 -0.11157291576E+04  0.19463333926E+04  0.15947921878E+04 0.  0.
        4    1    3    3  502    0 -0.11214382756E+03 -0.19608509395E+03 -0.14911656417E+04  0.15081784330E+04  0.12699999809E+01 0. -1.
       -4    1    3    3    0  502  0.11214382756E+03  0.19608509395E+03  0.37543648408E+03  0.43815495958E+03  0.12699999809E+01 0.  1.
</event>
<event>
 5   0  0.5131239E-04  0.1604378E+04  0.7818609E-02  0.8817863E-01
       -2   -1    0    0    0  501  0.00000000000E+00  0.00000000000E+00  0.69617286629E+03  0.69617286630E+03  0.25500000920E-02 0.  1.
        2   -1    0    0  501    0  0.00000000000E+00  0.00000000000E+00 -0.92435003915E+03  0.92435003916E+03  0.25500000920E-02 0. -1.
    10030    2    1    2    0    0  0.00000000000E+00  0.00000000000E+00 -0.22817717286E+03  0.16205229055E+04  0.16043782799E+04 0.  0.
        1    1    3    3  502    0  0.50615054271E+03 -0.29659942232E+03 -0.66672112860E+03  0.88807468861E+03  0.50400001928E-02 0. -1.
       -1    1    3    3    0  502 -0.50615054271E+03  0.29659942232E+03  0.43854395574E+03  0.73244821684E+03  0.50400001928E-02 0.  1.
</event>
<event>
 5   0  0.1908125E-04  0.1572547E+04  0.7818609E-02  0.8837593E-01
        4   -1    0    0  501    0  0.00000000000E+00  0.00000000000E+00  0.14418407148E+04  0.14418412742E+04  0.12699999809E+01 0. -1.
       -4   -1    0    0    0  501  0.00000000000E+00  0.00000000000E+00 -0.42877418795E+03  0.42877606877E+03  0.12699999809E+01 0.  1.
    10030    2    1    2    0    0  0.00000000000E+00  0.00000000000E+00  0.10130665269E+04  0.18706173429E+04  0.15725474415E+04 0.  0.
        5    1    3    3  502    0  0.61041268846E+03  0.14164190440E+03 -0.58392329319E+02  0.62936303786E+03  0.46999998093E+01 0. -1.
       -5    1    3    3    0  502 -0.61041268846E+03 -0.14164190440E+03  0.10714588562E+04  0.12412543051E+04  0.46999998093E+01 0.  1.
</event>
<event>
 5   0  0.5083831E-04  0.1590954E+04  0.7818609E-02  0.8826125E-01
       -2   -1    0    0    0  501  0.00000000000E+00  0.00000000000E+00  0.10873248181E+04  0.10873248181E+04  0.25500000920E-02 0.  1.
        2   -1    0    0  501    0  0.00000000000E+00  0.00000000000E+00 -0.58196395352E+03  0.58196395353E+03  0.25500000920E-02 0. -1.
    10030    2    1    2    0    0  0.00000000000E+00  0.00000000000E+00  0.50536086453E+03  0.16692887716E+04  0.15909542418E+04 0.  0.
        4    1    3    3  502    0  0.16146947724E+02 -0.24833190577E+03 -0.54006882268E+03  0.59464729502E+03  0.12699999809E+01 0. -1.
       -4    1    3    3    0  502 -0.16146947724E+02  0.24833190577E+03  0.10454296872E+04  0.10746414766E+04  0.12699999809E+01 0.  1.
</event>
<event>
 5   0  0.5264308E-04  0.1605515E+04  0.7818609E-02  0.8817167E-01
       -2   -1    0    0    0  501  0.00000000000E+00  0.00000000000E+00  0.33409368967E+03  0.33409368968E+03  0.25500000920E-02 0.  1.
        2   -1    0    0  501    0  0.00000000000E+00  0.00000000000E+00 -0.19288591790E+04  0.19288591790E+04  0.25500000920E-02 0. -1.
    10030    2    1    2    0    0  0.00000000000E+00  0.00000000000E+00 -0.15947654893E+04  0.22629528687E+04  0.16055150949E+04 0.  0.
        3    1    3    3  502    0  0.29322331783E+03 -0.72535349943E+03 -0.10507066660E+04  0.13100008097E+04  0.10100000352E+00 0.  1.
       -3    1    3    3    0  502 -0.29322331783E+03  0.72535349943E+03 -0.54405882334E+03  0.95295205898E+03  0.10100000352E+00 0. -1.
</event>
<event>
 5   0  0.1908125E-04  0.1608974E+04  0.7818609E-02  0.8815054E-01
        3   -1    0    0  501    0  0.00000000000E+00  0.00000000000E+00  0.62408737715E+03  0.62408738533E+03  0.10100000352E+00 0. -1.
       -3   -1    0    0    0  501  0.00000000000E+00  0.00000000000E+00 -0.10370329730E+04  0.10370329779E+04  0.10100000352E+00 0.  1.
    10030    2    1    2    0    0  0.00000000000E+00  0.00000000000E+00 -0.41294559585E+03  0.16611203632E+04  0.16089738332E+04 0.  0.
        5    1    3    3  502    0  0.40057488199E+02 -0.52890563663E+03  0.41796987121E+03  0.67532708968E+03  0.46999998093E+01 0. -1.
       -5    1    3    3    0  502 -0.40057488199E+02  0.52890563663E+03 -0.83091546706E+03  0.98579327357E+03  0.46999998093E+01 0.  1.
</event>
<event>
 5   0  0.1908125E-04  0.1598458E+04  0.7818609E-02  0.8821496E-01
        3   -1    0    0  501    0  0.00000000000E+00  0.00000000000E+00  0.59025901216E+03  0.59025902080E+03  0.10100000352E+00 0. -1.
       -3   -1    0    0    0  501  0.00000000000E+00  0.00000000000E+00 -0.10821810861E+04  0.10821810908E+04  0.10100000352E+00 0.  1.
    10030    2    1    2    0    0  0.00000000000E+00  0.00000000000E+00 -0.49192207392E+03  0.16724401116E+04  0.15984581947E+04 0.  0.
        5    1    3    3  502    0 -0.27790215830E+03  0.43967690802E+03 -0.88084007535E+03  0.10229597848E+04  0.46999998093E+01 0.  1.
       -5    1    3    3    0  502  0.27790215830E+03 -0.43967690802E+03  0.38891800143E+03  0.64948032677E+03  0.46999998093E+01 0. -1.
</event>
<event>
 5   0  0.2796994E-04  0.1584720E+04  0.7818609E-02  0.8829990E-01
       -1   -1    0    0    0  501  0.00000000000E+00  0.00000000000E+00  0.44163883026E+03  0.44163883029E+03  0.50400001928E-02 0. -1.
        1   -1    0    0  501    0  0.00000000000E+00  0.00000000000E+00 -0.14216015646E+04  0.14216015646E+04  0.50400001928E-02 0.  1.
    10030    2    1    2    0    0  0.00000000000E+00  0.00000000000E+00 -0.97996273437E+03  0.18632403949E+04  0.15847201042E+04 0.  0.
        3    1    3    3  502    0  0.41649498866E+03  0.11187073591E+03  0.29156436252E+03  0.52056980783E+03  0.10100000352E+00 0. -1.
       -3    1    3    3    0  502 -0.41649498866E+03 -0.11187073591E+03 -0.12715270969E+04  0.13426705871E+04  0.10100000352E+00 0.  1.
</event>
<event>
 5   0  0.5381164E-04  0.1601361E+04  0.7818609E-02  0.8819712E-01
       -2   -1    0    0    0  501  0.00000000000E+00  0.00000000000E+00  0.47234580912E+03  0.47234580913E+03  0.25500000920E-02 0. -1.
        2   -1    0    0  501    0  0.00000000000E+00  0.00000000000E+00 -0.13572452105E+04  0.13572452105E+04  0.25500000920E-02 0.  1.
    10030    2    1    2    0    0  0.00000000000E+00  0.00000000000E+00 -0.88489940141E+03  0.18295910197E+04  0.16013607803E+04 0.  0.
        5    1    3    3  502    0 -0.77373545106E+03  0.16253514616E+03 -0.29800855401E+03  0.84493515149E+03  0.46999998093E+01 0. -1.
       -5    1    3    3    0  502  0.77373545106E+03 -0.16253514616E+03 -0.58689084740E+03  0.98465586817E+03  0.46999998093E+01 0.  1.
</event>
<event>
 5   0  0.2763895E-04  0.1603544E+04  0.7818609E-02  0.8818374E-01
        1   -1    0    0  501    0  0.00000000000E+00  0.00000000000E+00  0.22375399575E+04  0.22375399575E+04  0.50400001928E-02 0.  1.
       -1   -1    0    0    0  501  0.00000000000E+00  0.00000000000E+00 -0.28729691184E+03  0.28729691188E+03  0.50400001928E-02 0. -1.
    10030    2    1    2    0    0  0.00000000000E+00  0.00000000000E+00  0.19502430456E+04  0.25248368694E+04  0.16035439750E+04 0.  0.
        4    1    3    3  502    0  0.41032783922E+03 -0.44826343376E+03  0.17986015656E+04  0.18984936782E+04  0.12699999809E+01 0.  1.
       -4    1    3    3    0  502 -0.41032783922E+03  0.44826343376E+03  0.15164148004E+03  0.62634319111E+03  0.12699999809E+01 0. -1.
</event>
<event>
 5   0  0.5131239E-04  0.1603400E+04  0.7818609E-02  0.8818462E-01
        2   -1    0    0  501    0  0.00000000000E+00  0.00000000000E+00  0.12957902513E+04  0.12957902513E+04  0.25500000920E-02 0. -1.
       -2   -1    0    0    0  501  0.00000000000E+00  0.00000000000E+00 -0.49600835102E+03  0.49600835103E+03  0.25500000920E-02 0.  1.
    10030    2    1    2    0    0  0.00000000000E+00  0.00000000000E+00  0.79978190030E+03  0.17917986024E+04  0.16033998701E+04 0.  0.
        1    1    3    3  502    0  0.17932803089E+03 -0.57335905146E+03 -0.19335674602E+03  0.63109902219E+03  0.50400001928E-02 0.  1.
       -1    1    3    3    0  502 -0.17932803089E+03  0.57335905146E+03  0.99313864632E+03  0.11606995802E+04  0.50400001928E-02 0. -1.
</event>
<event>
 5   0  0.5315984E-04  0.1597707E+04  0.7818609E-02  0.8821958E-01
       -2   -1    0    0    0  501  0.00000000000E+00  0.00000000000E+00  0.11223226979E+04  0.11223226979E+04  0.25500000920E-02 0.  1.
        2   -1    0    0  501    0  0.00000000000E+00  0.00000000000E+00 -0.56861296775E+03  0.56861296775E+03  0.25500000920E-02 0. -1.
    10030    2    1    2    0    0  0.00000000000E+00  0.00000000000E+00  0.55370973014E+03  0.16909356656E+04  0.15977074075E+04 0.  0.
        2    1    3    3  502    0  0.31285844640E+03 -0.49080437518E+03 -0.30224599387E+03  0.65583685700E+03  0.25500000920E-02 0. -1.
       -2    1    3    3    0  502 -0.31285844640E+03  0.49080437518E+03  0.85595572401E+03  0.10350988086E+04  0.25500000920E-02 0.  1.
</event>
<event>
 5   0  0.2730707E-04  0.1595913E+04  0.7818609E-02  0.8823063E-01
       -1   -1    0    0    0  501  0.00000000000E+00  0.00000000000E+00  0.81783699722E+03  0.81783699723E+03  0.50400001928E-02 0.  1.
        1   -1    0    0  501    0  0.00000000000E+00  0.00000000000E+00 -0.77855916728E+03  0.77855916730E+03  0.50400001928E-02 0. -1.
    10030    2    1    2    0    0  0.00000000000E+00  0.00000000000E+00  0.39277829937E+02  0.15963961645E+04  0.15959128943E+04 0.  0.
        5    1    3    3  502    0  0.39861076469E+03 -0.38657827348E+02 -0.67073486522E+03  0.78121208309E+03  0.46999998093E+01 0. -1.
       -5    1    3    3    0  502 -0.39861076469E+03  0.38657827348E+02  0.71001269516E+03  0.81518408144E+03  0.46999998093E+01 0.  1.
</event>
<event>
 5   0  0.5083831E-04  0.1608941E+04  0.7818609E-02  0.8815074E-01
       -2   -1    0    0    0  501  0.00000000000E+00  0.00000000000E+00  0.49006156621E+03  0.49006156621E+03  0.25500000920E-02 0. -1.
        2   -1    0    0  501    0  0.00000000000E+00  0.00000000000E+00 -0.13205951351E+04  0.13205951351E+04  0.25500000920E-02 0.  1.
    10030    2    1    2    0    0  0.00000000000E+00  0.00000000000E+00 -0.83053356890E+03  0.18106567013E+04  0.16089411677E+04 0.  0.
        4    1    3    3  502    0 -0.23781612796E+03 -0.11132771413E+03 -0.12710088061E+04  0.12978502875E+04  0.12699999809E+01 0.  1.
       -4    1    3    3    0  502  0.23781612796E+03  0.11132771413E+03  0.44047523716E+03  0.51280641387E+03  0.12699999809E+01 0. -1.
</event>
<event>
 5   0  0.5381164E-04  0.1583839E+04  0.7818609E-02  0.8830538E-01
        2   -1    0    0  501    0  0.00000000000E+00  0.00000000000E+00  0.97247796872E+03  0.97247796873E+03  0.25500000920E-02 0.  1.
       -2   -1    0    0    0  501  0.00000000000E+00  0.00000000000E+00 -0.64488512569E+03  0.64488512569E+03  0.25500000920E-02 0. -1.
    10030    2    1    2    0    0  0.00000000000E+00  0.00000000000E+00  0.32759284304E+03  0.16173630944E+04  0.15838391043E+04 0.  0.
        5    1    3    3  502    0  0.53185239326E+03  0.17588894815E+03  0.73538561531E+03  0.92445550649E+03  0.46999998093E+01 0.  1.
       -5    1    3    3    0  502 -0.53185239326E+03 -0.17588894815E+03 -0.40779277227E+03  0.69290758792E+03  0.46999998093E+01 0. -1.
</event>
<event>
 5   0  0.2763895E-04  0.1603163E+04  0.7818609E-02  0.8818607E-01
       -1   -1    0    0    0  501  0.00000000000E+00  0.00000000000E+00  0.70355516170E+03  0.70355516172E+03  0.50400001928E-02 0.  1.
        1   -1    0    0  501    0  0.00000000000E+00  0.00000000000E+00 -0.91326564801E+03  0.91326564803E+03  0.50400001928E-02 0. -1.
    10030    2    1    2    0    0  0.00000000000E+00  0.00000000000E+00 -0.20971048631E+03  0.16168208097E+04  0.16031628248E+04 0.  0.
        4    1    3    3  502    0  0.59726239693E+02  0.18877370876E+02 -0.91079260147E+03  0.91294488039E+03  0.12699999809E+01 0. -1.
       -4    1    3    3    0  502 -0.59726239693E+02 -0.18877370876E+02  0.70108211515E+03  0.70387592935E+03  0.12699999809E+01 0.  1.
</event>
<event>
 5   0  0.5264308E-04  0.1586962E+04  0.7818609E-02  0.8828598E-01
       -2   -1    0    0    0  501  0.00000000000E+00  0.00000000000E+00  0.56377866462E+03  0.56377866463E+03  0.25500000920E-02 0.  1.
        2   -1    0    0  501    0  0.00000000000E+00  0.00000000000E+00 -0.11167717480E+04  0.11167717480E+04  0.25500000920E-02 0. -1.
    10030    2    1    2    0    0  0.00000000000E+00  0.00000000000E+00 -0.55299308337E+03  0.16805504126E+04  0.15869619841E+04 0.  0.
        3    1    3    3  502    0  0.31910224917E+03  0.31818948377E+03  0.41512029355E+03  0.61269540665E+03  0.10100000352E+00 0.  1.
       -3    1    3    3    0  502 -0.31910224917E+03 -0.31818948377E+03 -0.96811337692E+03  0.10678550060E+04  0.10100000352E+00 0. -1.
</event>
<event>
 5   0  0.1908125E-04  0.1618011E+04  0.7818609E-02  0.8809559E-01
       -3   -1    0    0    0  501  0.00000000000E+00  0.00000000000E+00  0.84198629497E+03  0.84198630103E+03  0.10100000352E+00 0.  1.
        3   -1    0    0  501    0  0.00000000000E+00  0.00000000000E+00 -0.77731671180E+03  0.77731671836E+03  0.10100000352E+00 0. -1.
    10030    2    1    2    0    0  0.00000000000E+00  0.00000000000E+00  0.64669583175E+02  0.16193030194E+04  0.16180111599E+04 0.  0.
        2    1    3    3  502    0  0.76830788209E+03 -0.31897624345E+01 -0.22121083221E+03  0.79952573977E+03  0.25500000920E-02 0. -1.
       -2    1    3    3    0  502 -0.76830788209E+03  0.31897624345E+01  0.28588041539E+03  0.81977727962E+03  0.25500000920E-02 0.  1.
</event>
<event>
 5   0  0.2796994E-04  0.1612705E+04  0.7818609E-02  0.8812781E-01
        1   -1    0    0  501    0  0.00000000000E+00  0.00000000000E+00  0.11267053324E+04  0.11267053324E+04  0.50400001928E-02 0.  1.
       -1   -1    0    0    0  501  0.00000000000E+00  0.00000000000E+00 -0.57708452792E+03  0.57708452794E+03  0.50400001928E-02 0. -1.
    10030    2    1    2    0    0  0.00000000000E+00  0.00000000000E+00  0.54962080449E+03  0.17037898604E+04  0.16127048272E+04 0.  0.
        3    1    3    3  502    0  0.79702708616E+03 -0.45185222281E+02  0.39485143388E+03  0.89061863075E+03  0.10100000352E+00 0.  1.
       -3    1    3    3    0  502 -0.79702708616E+03  0.45185222281E+02  0.15476937061E+03  0.81317122961E+03  0.10100000352E+00 0. -1.
</event>
<event>
 5   0  0.2796994E-04  0.1548280E+04  0.7818609E-02  0.8852967E-01
       -1   -1    0    0    0  501  0.00000000000E+00  0.00000000000E+00  0.54681479233E+03  0.54681479235E+03  0.50400001928E-02 0.  1.
        1   -1    0    0  501    0  0.00000000000E+00  0.00000000000E+00 -0.10959700065E+04  0.10959700065E+04  0.50400001928E-02 0. -1.
    10030    2    1    2    0    0  0.00000000000E+00  0.00000000000E+00 -0.54915521420E+03  0.16427847989E+04  0.15482798346E+04 0.  0.
        3    1    3    3  502    0 -0.58307675028E+03  0.32047808561E+03  0.14531483052E+03  0.68102944888E+03  0.10100000352E+00 0.  1.
       -3    1    3    3    0  502  0.58307675028E+03 -0.32047808561E+03 -0.69447004472E+03  0.96175535002E+03  0.10100000352E+00 0. -1.
</event>
<event>
 5   0  0.2689675E-04  0.1597522E+04  0.7818609E-02  0.8822072E-01
        1   -1    0    0  501    0  0.00000000000E+00  0.00000000000E+00  0.14480861490E+04  0.14480861490E+04  0.50400001928E-02 0.  1.
       -1   -1    0    0    0  501  0.00000000000E+00  0.00000000000E+00 -0.44059457668E+03  0.44059457671E+03  0.50400001928E-02 0. -1.
    10030    2    1    2    0    0  0.00000000000E+00  0.00000000000E+00  0.10074915723E+04  0.18886807257E+04  0.15975217104E+04 0.  0.
        1    1    3    3  502    0  0.29664052203E+03 -0.33080389481E+03 -0.28100204873E+03  0.52572708466E+03  0.50400001928E-02 0. -1.
       -1    1    3    3    0  502 -0.29664052203E+03  0.33080389481E+03  0.12884936210E+04  0.13629536410E+04  0.50400001928E-02 0.  1.
</event>
<event>
 5   0  0.5264308E-04  0.1597212E+04  0.7818609E-02  0.8822263E-01
       -2   -1    0    0    0  501  0.00000000000E+00  0.00000000000E+00  0.15767789085E+04  0.15767789085E+04  0.25500000920E-02 0. -1.
        2   -1    0    0  501    0  0.00000000000E+00  0.00000000000E+00 -0.40447753534E+03  0.40447753535E+03  0.25500000920E-02 0.  1.
    10030    2    1    2    0    0  0.00000000000E+00  0.00000000000E+00  0.11723013732E+04  0.19812564439E+04  0.15972121296E+04 0.  0.
        3    1    3    3  502    0 -0.33898540689E+03 -0.69120366760E+03  0.84957559118E+03  0.11464956657E+04  0.10100000352E+00 0.  1.
       -3    1    3    3    0  502  0.33898540689E+03  0.69120366760E+03  0.32272578202E+03  0.83476077816E+03  0.10100000352E+00 0. -1.
</event>
<event>
 5   0  0.1908125E-04  0.1597776E+04  0.7818609E-02  0.8821915E-01
       -3   -1    0    0    0  501  0.00000000000E+00  0.00000000000E+00  0.12836466142E+04  0.12836466182E+04  0.10100000352E+00 0.  1.
        3   -1    0    0  501    0  0.00000000000E+00  0.00000000000E+00 -0.49719472550E+03  0.49719473576E+03  0.10100000352E+00 0. -1.
    10030    2    1    2    0    0  0.00000000000E+00  0.00000000000E+00  0.78645188869E+03  0.17808413539E+04  0.15977763782E+04 0.  0.
        1    1    3    3  502    0 -0.61852866016E+03  0.47030484370E+03  0.60012294796E+03  0.98179015179E+03  0.50400001928E-02 0.  1.
       -1    1    3    3    0  502  0.61852866016E+03 -0.47030484370E+03  0.18632894073E+03  0.79905120213E+03  0.50400001928E-02 0. -1.
</event>
<event>
 5   0  0.5264308E-04  0.1585822E+04  0.7818609E-02  0.8829306E-01
        2   -1    0    0  501    0  0.00000000000E+00  0.00000000000E+00  0.98425102623E+03  0.98425102623E+03  0.25500000920E-02 0. -1.
       -2   -1    0    0    0  501  0.00000000000E+00  0.00000000000E+00 -0.63876806917E+03  0.63876806918E+03  0.25500000920E-02 0.  1.
    10030    2    1    2    0    0  0.00000000000E+00  0.00000000000E+00  0.34548295706E+03  0.16230190954E+04  0.15858223452E+04 0.  0.
        3    1    3    3  502    0  0.19912552425E+03  0.16058623280E+03  0.94085798940E+03  0.97501419426E+03  0.10100000352E+00 0. -1.
       -3    1    3    3    0  502 -0.19912552425E+03 -0.16058623280E+03 -0.59537503235E+03  0.64800490115E+03  0.10100000352E+00 0.  1.
</event>
<event>
 5   0  0.5381164E-04  0.1625546E+04  0.7818609E-02  0.8805006E-01
       -2   -1    0    0    0  501  0.00000000000E+00  0.00000000000E+00  0.15743936471E+04  0.15743936471E+04  0.25500000920E-02 0. -1.
        2   -1    0    0  501    0  0.00000000000E+00  0.00000000000E+00 -0.41959004949E+03  0.41959004950E+03  0.25500000920E-02 0.  1.
    10030    2    1    2    0    0  0.00000000000E+00  0.00000000000E+00  0.11548035976E+04  0.19939836966E+04  0.16255459493E+04 0.  0.
        5    1    3    3  502    0  0.25536120093E+03  0.69816542235E+03  0.17440599873E+03  0.76359926814E+03  0.46999998093E+01 0.  1.
       -5    1    3    3    0  502 -0.25536120093E+03 -0.69816542235E+03  0.98039759884E+03  0.12303844284E+04  0.46999998093E+01 0. -1.
</event>
<event>
 5   0  0.2649086E-04  0.1615286E+04  0.7818609E-02  0.8811212E-01
        1   -1    0    0  501    0  0.00000000000E+00  0.00000000000E+00  0.55148098174E+03  0.55148098176E+03  0.50400001928E-02 0. -1.
       -1   -1    0    0    0  501  0.00000000000E+00  0.00000000000E+00 -0.11827912953E+04  0.11827912954E+04  0.50400001928E-02 0.  1.
    10030    2    1    2    0    0  0.00000000000E+00  0.00000000000E+00 -0.63131031361E+03  0.17342722771E+04  0.16152856153E+04 0.  0.
        2    1    3    3  502    0 -0.51402832632E+03 -0.98132343254E+02 -0.97613836972E+03  0.11075654355E+04  0.25500000920E-02 0. -1.
       -2    1    3    3    0  502  0.51402832632E+03  0.98132343254E+02  0.34482805611E+03  0.62670684163E+03  0.25500000920E-02 0.  1.
</event>
<event>
 5   0  0.2763895E-04  0.1599936E+04  0.7818609E-02  0.8820587E-01
        1   -1    0    0  501    0  0.00000000000E+00  0.00000000000E+00  0.49949938220E+03  0.49949938222E+03  0.50400001928E-02 0. -1.
       -1   -1    0    0    0  501  0.00000000000E+00  0.00000000000E+00 -0.12811807257E+04  0.12811807257E+04  0.50400001928E-02 0.  1.
    10030    2    1    2    0    0  0.00000000000E+00  0.00000000000E+00 -0.78168134348E+03  0.17806801079E+04  0.15999362250E+04 0.  0.
        4    1    3    3  502    0 -0.54007418862E+03 -0.27818678376E+02  0.26523886283E+03  0.60233485316E+03  0.12699999809E+01 0. -1.
       -4    1    3    3    0  502  0.54007418862E+03  0.27818678376E+02 -0.10469202063E+04  0.11783452547E+04  0.12699999809E+01 0.  1.
</event>
<event>
 5   0  0.5315984E-04  0.1608735E+04  0.7818609E-02  0.8815200E-01
        2   -1    0    0  501    0  0.00000000000E+00  0.00000000000E+00  0.68034825898E+03  0.68034825899E+03  0.25500000920E-02 0. -1.
       -2   -1    0    0    0  501  0.00000000000E+00  0.00000000000E+00 -0.95099417126E+03  0.95099417127E+03  0.25500000920E-02 0.  1.
    10030    2    1    2    0    0  0.00000000000E+00  0.00000000000E+00 -0.27064591228E+03  0.16313424303E+04  0.16087351910E+04 0.  0.
        2    1    3    3  502    0  0.10828239935E+03  0.14325777443E+03 -0.93040719633E+03  0.94757871385E+03  0.25500000920E-02 0.  1.
       -2    1    3    3    0  502 -0.10828239935E+03 -0.14325777443E+03  0.65976128405E+03  0.68376371641E+03  0.25500000920E-02 0. -1.
</event>
<event>
 5   0  0.5264308E-04  0.1636600E+04  0.7818609E-02  0.8798373E-01
        2   -1    0    0  501    0  0.00000000000E+00  0.00000000000E+00  0.97713891680E+03  0.97713891680E+03  0.25500000920E-02 0.  1.
       -2   -1    0    0    0  501  0.00000000000E+00  0.00000000000E+00 -0.68528145574E+03  0.68528145575E+03  0.25500000920E-02 0. -1.
    10030    2    1    2    0    0  0.00000000000E+00  0.00000000000E+00  0.29185746105E+03  0.16624203725E+04  0.16366003536E+04 0.  0.
        3    1    3    3  502    0 -0.42619666530E+02  0.68613835091E+03  0.59679270995E+03  0.91036466398E+03  0.10100000352E+00 0.  1.
       -3    1    3    3    0  502  0.42619666530E+02 -0.68613835091E+03 -0.30493524890E+03  0.75205570857E+03  0.10100000352E+00 0. -1.
</event>
<event>
 5   0  0.2689675E-04  0.1592101E+04  0.7818609E-02  0.8825416E-01
       -1   -1    0    0    0  501  0.00000000000E+00  0.00000000000E+00  0.39005665800E+03  0.39005665803E+03  0.50400001928E-02 0. -1.
        1   -1    0    0  501    0  0.00000000000E+00  0.00000000000E+00 -0.16246261003E+04  0.16246261004E+04  0.50400001928E-02 0.  1.
    10030    2    1    2    0    0  0.00000000000E+00  0.00000000000E+00 -0.12345694423E+04  0.20146827584E+04  0.15921007848E+04 0.  0.
        1    1    3    3  502    0 -0.47038378653E+02  0.26528844168E+03 -0.15651758056E+04  0.15881957905E+04  0.50400001928E-02 0.  1.
       -1    1    3    3    0  502  0.47038378653E+02 -0.26528844168E+03  0.33060636326E+03  0.42648696793E+03  0.50400001928E-02 0. -1.
</event>
<event>
 5   0  0.5381164E-04  0.1599209E+04  0.7818609E-02  0.8821034E-01
        2   -1    0    0  501    0  0.00000000000E+00  0.00000000000E+00  0.21517364433E+04  0.21517364433E+04  0.25500000920E-02 0.  1.
       -2   -1    0    0    0  501  0.00000000000E+00  0.00000000000E+00 -0.29714029560E+03  0.29714029561E+03  0.25500000920E-02 0. -1.
    10030    2    1    2    0    0  0.00000000000E+00  0.00000000000E+00  0.18545961477E+04  0.24488767389E+04  0.15992093082E+04 0.  0.
        5    1    3    3  502    0 -0.70124518320E+03  0.90535321198E+02  0.14990390655E+04  0.16574322494E+04  0.46999998093E+01 0.  1.
       -5    1    3    3    0  502  0.70124518320E+03 -0.90535321198E+02  0.35555708221E+03  0.79144448956E+03  0.46999998093E+01 0. -1.
</event>
<event>
 5   0  0.2763895E-04  0.1610467E+04  0.7818609E-02  0.8814143E-01
        1   -1    0    0  501    0  0.00000000000E+00  0.00000000000E+00  0.46681406264E+03  0.46681406267E+03  0.50400001928E-02 0. -1.
       -1   -1    0    0    0  501  0.00000000000E+00  0.00000000000E+00 -0.13889919100E+04  0.13889919100E+04  0.50400001928E-02 0.  1.
    10030    2    1    2    0    0  0.00000000000E+00  0.00000000000E+00 -0.92217784735E+03  0.18558059727E+04  0.16104669590E+04 0.  0.
        4    1    3    3  502    0 -0.44499788271E+03  0.32715295310E+03 -0.11363123279E+04  0.12634316324E+04  0.12699999809E+01 0.  1.
       -4    1    3    3    0  502  0.44499788271E+03 -0.32715295310E+03  0.21413448055E+03  0.59237434026E+03  0.12699999809E+01 0. -1.
</event>
<event>
 5   0  0.2730707E-04  0.1542179E+04  0.7818609E-02  0.8856879E-01
        1   -1    0    0  501    0  0.00000000000E+00  0.00000000000E+00  0.52468570728E+03  0.52468570731E+03  0.50400001928E-02 0.  1.
       -1   -1    0    0    0  501  0.00000000000E+00  0.00000000000E+00 -0.11332101627E+04  0.11332101627E+04  0.50400001928E-02 0. -1.
    10030    2    1    2    0    0  0.00000000000E+00  0.00000000000E+00 -0.60852445538E+03  0.16578958700E+04  0.15421792058E+04 0.  0.
        5    1    3    3  502    0 -0.74807030757E+02  0.74374304765E+03 -0.50768896332E+03  0.90361495464E+03  0.46999998093E+01 0. -1.
       -5    1    3    3    0  502  0.74807030757E+02 -0.74374304765E+03 -0.10083549206E+03  0.75428091534E+03  0.46999998093E+01 0.  1.
</event>
<event>
 5   0  0.5315984E-04  0.1586642E+04  0.7818609E-02  0.8828797E-01
       -2   -1    0    0    0  501  0.00000000000E+00  0.00000000000E+00  0.32641052561E+03  0.32641052562E+03  0.25500000920E-02 0. -1.
        2   -1    0    0  501    0  0.00000000000E+00  0.00000000000E+00 -0.19281174192E+04  0.19281174192E+04  0.25500000920E-02 0.  1.
    10030    2    1    2    0    0  0.00000000000E+00  0.00000000000E+00 -0.16017068936E+04  0.22545279448E+04  0.15866415099E+04 0.  0.
        2    1    3    3  502    0 -0.17593328926E+02  0.28542236948E+03  0.25062781483E+03  0.38024959670E+03  0.25500000920E-02 0. -1.
       -2    1    3    3    0  502  0.17593328926E+02 -0.28542236948E+03 -0.18523347084E+04  0.18742783481E+04  0.25500000920E-02 0.  1.
</event>
<event>
 5   0  0.2689675E-04  0.1568173E+04  0.7818609E-02  0.8840343E-01
        1   -1    0    0  501    0  0.00000000000E+00  0.00000000000E+00  0.98736673217E+03  0.98736673219E+03  0.50400001928E-02 0.  1.
       -1   -1    0    0    0  501  0.00000000000E+00  0.00000000000E+00 -0.62265749125E+03  0.62265749127E+03  0.50400001928E-02 0. -1.
    10030    2    1    2    0    0  0.00000000000E+00  0.00000000000E+00  0.36470924092E+03  0.16100242235E+04  0.15681725574E+04 0.  0.
        1    1    3    3  502    0 -0.21468935384E+03 -0.17243490951E+03  0.93609058034E+03  0.97575144954E+03  0.50400001928E-02 0.  1.
       -1    1    3    3    0  502  0.21468935384E+03  0.17243490951E+03 -0.57138133941E+03  0.63427277391E+03  0.50400001928E-02 0. -1.
</event>
<event>
 5   0  0.2649086E-04  0.1615168E+04  0.7818609E-02  0.8811284E-01
       -1   -1    0    0    0  501  0.00000000000E+00  0.00000000000E+00  0.15121897699E+04  0.15121897699E+04  0.50400001928E-02 0. -1.
        1   -1    0    0  501    0  0.00000000000E+00  0.00000000000E+00 -0.43128963553E+03  0.43128963555E+03  0.50400001928E-02 0.  1.
    10030    2    1    2    0    0  0.00000000000E+00  0.00000000000E+00  0.10809001344E+04  0.19434794055E+04  0.16151678238E+04 0.  0.
        2    1    3    3  502    0 -0.25442134204E+03 -0.47492016824E+03  0.12643257937E+04  0.13743358753E+04  0.25500000920E-02 0. -1.
       -2    1    3    3    0  502  0.25442134204E+03  0.47492016824E+03 -0.18342565928E+03  0.56914353021E+03  0.25500000920E-02 0.  1.
</event>
<event>
 5   0  0.5381164E-04  0.1555017E+04  0.7818609E-02  0.8848669E-01
        2   -1    0    0  501    0  0.00000000000E+00  0.00000000000E+00  0.26725978967E+04  0.26725978967E+04  0.25500000920E-02 0. -1.
       -2   -1    0    0    0  501  0.00000000000E+00  0.00000000000E+00 -0.22619174851E+03  0.22619174853E+03  0.25500000920E-02 0.  1.
    10030    2    1    2    0    0  0.00000000000E+00  0.00000000000E+00  0.24464061482E+04  0.28987896453E+04  0.15550171592E+04 0.  0.
        5    1    3    3  502    0  0.18423611766E+03 -0.68105661051E+03  0.61423125509E+03  0.93545880641E+03  0.46999998093E+01 0. -1.
       -5    1    3    3    0  502 -0.18423611766E+03  0.68105661051E+03  0.18321748931E+04  0.19633308389E+04  0.46999998093E+01 0.  1.
</event>
<event>
 5   0  0.5083831E-04  0.1385508E+04  0.7818609E-02  0.8964376E-01
        2   -1    0    0  501    0  0.00000000000E+00  0.00000000000E+00  0.24738065361E+04  0.24738065361E+04  0.25500000920E-02 0.  1.
       -2   -1    0    0    0  501  0.00000000000E+00  0.00000000000E+00 -0.19399578186E+03  0.19399578188E+03  0.25500000920E-02 0. -1.
    10030    2    1    2    0    0  0.00000000000E+00  0.00000000000E+00  0.22798107543E+04  0.26678023180E+04  0.13855078970E+04 0.  0.
        4    1    3    3  502    0  0.56778041584E+01  0.67524214096E+03  0.14377196490E+04  0.15884028420E+04  0.12699999809E+01 0. -1.
       -4    1    3    3    0  502 -0.56778041584E+01 -0.67524214096E+03  0.84209110524E+03  0.10793994760E+04  0.12699999809E+01 0.  1.
</event>
<event>
 5   0  0.2649086E-04  0.1595836E+04  0.7818609E-02  0.8823110E-01
       -1   -1    0    0    0  501  0.00000000000E+00  0.00000000000E+00  0.66623509214E+03  0.66623509216E+03  0.50400001928E-02 0.  1.
        1   -1    0    0  501    0  0.00000000000E+00  0.00000000000E+00 -0.95562829934E+03  0.95562829936E+03  0.50400001928E-02 0. -1.
    10030    2    1    2    0    0  0.00000000000E+00  0.00000000000E+00 -0.28939320720E+03  0.16218633915E+04  0.15958359666E+04 0.  0.
        2    1    3    3  502    0  0.17406253872E+03 -0.53051340243E+03  0.43462738118E+03  0.70756144470E+03  0.25500000920E-02 0.  1.
       -2    1    3    3    0  502 -0.17406253872E+03  0.53051340243E+03 -0.72402058838E+03  0.91430194682E+03  0.25500000920E-02 0. -1.
</event>
<event>
 5   0  0.2796994E-04  0.1597828E+04  0.7818609E-02  0.8821883E-01
        1   -1    0    0  501    0  0.00000000000E+00  0.00000000000E+00  0.13939204299E+04  0.13939204299E+04  0.50400001928E-02 0. -1.
       -1   -1    0    0    0  501  0.00000000000E+00  0.00000000000E+00 -0.45789122381E+03  0.45789122384E+03  0.50400001928E-02 0.  1.
    10030    2    1    2    0    0  0.00000000000E+00  0.00000000000E+00  0.93602920607E+03  0.18518116537E+04  0.15978284408E+04 0.  0.
        3    1    3    3  502    0  0.53630214737E+03  0.53421789237E+01 -0.21823507355E+03  0.57902943766E+03  0.10100000352E+00 0.  1.
       -3    1    3    3    0  502 -0.53630214737E+03 -0.53421789237E+01  0.11542642796E+04  0.12727822161E+04  0.10100000352E+00 0. -1.
</event>
<event>
 5   0  0.2649086E-04  0.1609783E+04  0.7818609E-02  0.8814561E-01
        1   -1    0    0  501    0  0.00000000000E+00  0.00000000000E+00  0.80288836319E+03  0.80288836321E+03  0.50400001928E-02 0. -1.
       -1   -1    0    0    0  501  0.00000000000E+00  0.00000000000E+00 -0.80689921950E+03  0.80689921952E+03  0.50400001928E-02 0.  1.
    10030    2    1    2    0    0  0.00000000000E+00  0.00000000000E+00 -0.40108563113E+01  0.16097875827E+04  0.16097825861E+04 0.  0.
        2    1    3    3  502    0  0.78653053381E+03  0.60458039406E+02 -0.16189506879E+03  0.80529216341E+03  0.25500000920E-02 0.  1.
       -2    1    3    3    0  502 -0.78653053381E+03 -0.60458039406E+02  0.15788421248E+03  0.80449541931E+03  0.25500000920E-02 0. -1.
</event>
<event>
 5   0  0.5264308E-04  0.1621342E+04  0.7818609E-02  0.8807543E-01
        2   -1    0    0  501    0  0.00000000000E+00  0.00000000000E+00  0.10502306455E+04  0.10502306455E+04  0.25500000920E-02 0.  1.
       -2   -1    0    0    0  501  0.00000000000E+00  0.00000000000E+00 -0.62575529552E+03  0.62575529552E+03  0.25500000920E-02 0. -1.
    10030    2    1    2    0    0  0.00000000000E+00  0.00000000000E+00  0.42447535001E+03  0.16759859411E+04  0.16213418985E+04 0.  0.
        3    1    3    3  502    0 -0.41791600127E+03 -0.58953075665E+03 -0.16755087544E+03  0.74180428903E+03  0.10100000352E+00 0. -1.
       -3    1    3    3    0  502  0.41791600127E+03  0.58953075665E+03  0.59202622545E+03  0.93418165202E+03  0.10100000352E+00 0.  1.
</event>
<event>
 5   0  0.1908125E-04  0.1593797E+04  0.7818609E-02  0.8824368E-01
        3   -1    0    0  501    0  0.00000000000E+00  0.00000000000E+00  0.11541648759E+04  0.11541648803E+04  0.10100000352E+00 0. -1.
       -3   -1    0    0    0  501  0.00000000000E+00  0.00000000000E+00 -0.55022220834E+03  0.55022221761E+03  0.10100000352E+00 0.  1.
    10030    2    1    2    0    0  0.00000000000E+00  0.00000000000E+00  0.60394266753E+03  0.17043870979E+04  0.15937969237E+04 0.  0.
        4    1    3    3  502    0  0.97667569581E+02 -0.50913578877E+03  0.94918280768E+03  0.10815303143E+04  0.12699999809E+01 0. -1.
       -4    1    3    3    0  502 -0.97667569581E+02  0.50913578877E+03 -0.34524014015E+03  0.62285678356E+03  0.12699999809E+01 0.  1.
</event>
<event>
 5   0  0.2763895E-04  0.1510151E+04  0.7818609E-02  0.8877731E-01
        1   -1    0    0  501    0  0.00000000000E+00  0.00000000000E+00  0.23539085284E+04  0.23539085284E+04  0.50400001928E-02 0. -1.
       -1   -1    0    0    0  501  0.00000000000E+00  0.00000000000E+00 -0.24220936661E+03  0.24220936667E+03  0.50400001928E-02 0.  1.
    10030    2    1    2    0    0  0.00000000000E+00  0.00000000000E+00  0.21116991618E+04  0.25961178951E+04  0.15101505803E+04 0.  0.
        4    1    3    3  502    0 -0.14034929850E+03 -0.25323548765E+03 -0.14299028952E+03  0.32291480856E+03  0.12699999809E+01 0.  1.
       -4    1    3    3    0  502  0.14034929850E+03  0.25323548765E+03  0.22546894513E+04  0.22732030865E+04  0.12699999809E+01 0. -1.
</event>
<event>
 5   0  0.2796994E-04  0.1611607E+04  0.7818609E-02  0.8813449E-01
        1   -1    0    0  501    0  0.00000000000E+00  0.00000000000E+00  0.16101777862E+04  0.16101777862E+04  0.50400001928E-02 0.  1.
       -1   -1    0    0    0  501  0.00000000000E+00  0.00000000000E+00 -0.40325954847E+03  0.40325954850E+03  0.50400001928E-02 0. -1.
    10030    2    1    2    0    0  0.00000000000E+00  0.00000000000E+00  0.12069182377E+04  0.20134373347E+04  0.16116073555E+04 0.  0.
        3    1    3    3  502    0 -0.24359275766E+03 -0.69762160047E+03  0.20190680904E+03  0.76601546902E+03  0.10100000352E+00 0. -1.
       -3    1    3    3    0  502  0.24359275766E+03  0.69762160047E+03  0.10050114287E+04  0.12474218657E+04  0.10100000352E+00 0.  1.
</event>
<event>
 5   0  0.5131239E-04  0.1575119E+04  0.7818609E-02  0.8835981E-01
       -2   -1    0    0    0  501  0.00000000000E+00  0.00000000000E+00  0.47707774281E+03  0.47707774281E+03  0.25500000920E-02 0. -1.
        2   -1    0    0  501    0  0.00000000000E+00  0.00000000000E+00 -0.13001026327E+04  0.13001026327E+04  0.25500000920E-02 0.  1.
    10030    2    1    2    0    0  0.00000000000E+00  0.00000000000E+00 -0.82302488986E+03  0.17771803755E+04  0.15751190805E+04 0.  0.
        1    1    3    3  502    0 -0.51468172045E+03  0.26624177999E+03  0.19026357839E+03  0.60990342519E+03  0.50400001928E-02 0. -1.
       -1    1    3    3    0  502  0.51468172045E+03 -0.26624177999E+03 -0.10132884682E+04  0.11672769503E+04  0.50400001928E-02 0.  1.
</event>
<event>
 5   0  0.2689675E-04  0.1601073E+04  0.7818609E-02  0.8819889E-01
       -1   -1    0    0    0  501  0.00000000000E+00  0.00000000000E+00  0.10156809657E+04  0.10156809657E+04  0.50400001928E-02 0. -1.
        1   -1    0    0  501    0  0.00000000000E+00  0.00000000000E+00 -0.63096479828E+03  0.63096479830E+03  0.50400001928E-02 0.  1.
    10030    2    1    2    0    0  0.00000000000E+00  0.00000000000E+00  0.38471616738E+03  0.16466457640E+04  0.16010733095E+04 0.  0.
        1    1    3    3  502    0  0.12970289859E+03  0.52692780407E+02 -0.61827720858E+03  0.63392907938E+03  0.50400001928E-02 0.  1.
       -1    1    3    3    0  502 -0.12970289859E+03 -0.52692780407E+02  0.10029933760E+04  0.10127166846E+04  0.50400001928E-02 0. -1.
</event>
<event>
 5   0  0.5264308E-04  0.1592068E+04  0.7818609E-02  0.8825436E-01
        2   -1    0    0  501    0  0.00000000000E+00  0.00000000000E+00  0.90831264605E+03  0.90831264605E+03  0.25500000920E-02 0.  1.
       -2   -1    0    0    0  501  0.00000000000E+00  0.00000000000E+00 -0.69763451179E+03  0.69763451179E+03  0.25500000920E-02 0. -1.
    10030    2    1    2    0    0  0.00000000000E+00  0.00000000000E+00  0.21067813426E+03  0.16059471578E+04  0.15920681510E+04 0.  0.
        3    1    3    3  502    0 -0.30077886703E+03  0.28126183012E+02  0.84824518190E+03  0.90043262259E+03  0.10100000352E+00 0.  1.
       -3    1    3    3    0  502  0.30077886703E+03 -0.28126183012E+02 -0.63756704763E+03  0.70551453525E+03  0.10100000352E+00 0. -1.
</event>
<event>
 5   0  0.5264308E-04  0.1608376E+04  0.7818609E-02  0.8815419E-01
       -2   -1    0    0    0  501  0.00000000000E+00  0.00000000000E+00  0.26591772799E+03  0.26591772800E+03  0.25500000920E-02 0. -1.
        2   -1    0    0  501    0  0.00000000000E+00  0.00000000000E+00 -0.24320249444E+04  0.24320249444E+04  0.25500000920E-02 0.  1.
    10030    2    1    2    0    0  0.00000000000E+00  0.00000000000E+00 -0.21661072164E+04  0.26979426724E+04  0.16083762590E+04 0.  0.
        3    1    3    3  502    0 -0.11159005279E+03 -0.36572664771E+03  0.10367534130E+03  0.39617787334E+03  0.10100000352E+00 0. -1.
       -3    1    3    3    0  502  0.11159005279E+03  0.36572664771E+03 -0.22697825577E+04  0.23017647990E+04  0.10100000352E+00 0.  1.
</event>
<event>
 5   0  0.5083831E-04  0.1618307E+04  0.7818609E-02  0.8809380E-01
        2   -1    0    0  501    0  0.00000000000E+00  0.00000000000E+00  0.90985847536E+03  0.90985847537E+03  0.25500000920E-02 0. -1.
       -2   -1    0    0    0  501  0.00000000000E+00  0.00000000000E+00 -0.71959443569E+03  0.71959443569E+03  0.25500000920E-02 0.  1.
    10030    2    1    2    0    0  0.00000000000E+00  0.00000000000E+00  0.19026403967E+03  0.16294529111E+04  0.16183066411E+04 0.  0.
        4    1    3    3  502    0 -0.41614984295E+03 -0.78256287557E+02  0.78939015225E+03  0.89579191987E+03  0.12699999809E+01 0. -1.
       -4    1    3    3    0  502  0.41614984295E+03  0.78256287557E+02 -0.59912611258E+03  0.73366099119E+03  0.12699999809E+01 0.  1.
</event>
<event>
 5   0  0.2796994E-04  0.1603121E+04  0.7818609E-02  0.8818633E-01
        1   -1    0    0  501    0  0.00000000000E+00  0.00000000000E+00  0.72697150156E+03  0.72697150158E+03  0.50400001928E-02 0.  1.
       -1   -1    0    0    0  501  0.00000000000E+00  0.00000000000E+00 -0.88380245264E+03  0.88380245266E+03  0.50400001928E-02 0. -1.
    10030    2    1    2    0    0  0.00000000000E+00  0.00000000000E+00 -0.15683095108E+03  0.16107739542E+04  0.16031209513E+04 0.  0.
        3    1    3    3  502    0  0.48429722692E+03 -0.56423422873E+03  0.22233787836E+03  0.77610451051E+03  0.10100000352E+00 0.  1.
       -3    1    3    3    0  502 -0.48429722692E+03  0.56423422873E+03 -0.37916882944E+03  0.83466944373E+03  0.10100000352E+00 0. -1.
</event>
<event>
 5   0  0.5083831E-04  0.1611010E+04  0.7818609E-02  0.8813812E-01
       -2   -1    0    0    0  501  0.00000000000E+00  0.00000000000E+00  0.40672243288E+03  0.40672243289E+03  0.25500000920E-02 0. -1.
        2   -1    0    0  501    0  0.00000000000E+00  0.00000000000E+00 -0.15952856249E+04  0.15952856249E+04  0.25500000920E-02 0.  1.
    10030    2    1    2    0    0  0.00000000000E+00  0.00000000000E+00 -0.11885631920E+04  0.20020080578E+04  0.16110101806E+04 0.  0.
        4    1    3    3  502    0 -0.19316571581E+03  0.63676410804E+03 -0.11583859430E+04  0.13359046107E+04  0.12699999809E+01 0. -1.
       -4    1    3    3    0  502  0.19316571581E+03 -0.63676410804E+03 -0.30177249088E+02  0.66610344716E+03  0.12699999809E+01 0.  1.
</event>
<event>
 5   0  0.2730707E-04  0.1604848E+04  0.7818609E-02  0.8817575E-01
        1   -1    0    0  501    0  0.00000000000E+00  0.00000000000E+00  0.12885011880E+04  0.12885011880E+04  0.50400001928E-02 0.  1.
       -1   -1    0    0    0  501  0.00000000000E+00  0.00000000000E+00 -0.49971567518E+03  0.49971567520E+03  0.50400001928E-02 0. -1.
    10030    2    1    2    0    0  0.00000000000E+00  0.00000000000E+00  0.78878551278E+03  0.17882168632E+04  0.16048479568E+04 0.  0.
        5    1    3    3  502    0 -0.11074250355E+03 -0.53659010359E+03 -0.25882302373E+03  0.60597383522E+03  0.46999998093E+01 0. -1.
       -5    1    3    3    0  502  0.11074250355E+03  0.53659010359E+03  0.10476085365E+04  0.11822430279E+04  0.46999998093E+01 0.  1.
</event>
<event>
 5   0  0.5131239E-04  0.1598260E+04  0.7818609E-02  0.8821618E-01
       -2   -1    0    0    0  501  0.00000000000E+00  0.00000000000E+00  0.37661616559E+03  0.37661616560E+03  0.25500000920E-02 0. -1.
        2   -1    0    0  501    0  0.00000000000E+00  0.00000000000E+00 -0.16956487208E+04  0.16956487208E+04  0.25500000920E-02 0.  1.
    10030    2    1    2    0    0  0.00000000000E+00  0.00000000000E+00 -0.13190325552E+04  0.20722648864E+04  0.15982599531E+04 0.  0.
        1    1    3    3  502    0 -0.28619215666E+03  0.72885228604E+03 -0.86646986810E+03  0.11678619943E+04  0.50400001928E-02 0. -1.
       -1    1    3    3    0  502  0.28619215666E+03 -0.72885228604E+03 -0.45256268709E+03  0.90440289207E+03  0.50400001928E-02 0.  1.
</event>
<event>
 5   0  0.2649086E-04  0.1590486E+04  0.7818609E-02  0.8826414E-01
       -1   -1    0    0    0  501  0.00000000000E+00  0.00000000000E+00  0.90709014954E+03  0.90709014955E+03  0.50400001928E-02 0.  1.
        1   -1    0    0  501    0  0.00000000000E+00  0.00000000000E+00 -0.69718688302E+03  0.69718688303E+03  0.50400001928E-02 0. -1.
    10030    2    1    2    0    0  0.00000000000E+00  0.00000000000E+00  0.20990326652E+03  0.16042770326E+04  0.15904859056E+04 0.  0.
        2    1    3    3  502    0 -0.73063534509E+02 -0.47675363324E+03  0.74271497905E+03  0.88558333713E+03  0.25500000920E-02 0.  1.
       -2    1    3    3    0  502  0.73063534509E+02  0.47675363324E+03 -0.53281171253E+03  0.71869369546E+03  0.25500000920E-02 0. -1.
</event>
<event>
 5   0  0.5381164E-04  0.1598583E+04  0.7818609E-02  0.8821419E-01
       -2   -1    0    0    0  501  0.00000000000E+00  0.00000000000E+00  0.40582712940E+03  0.40582712941E+03  0.25500000920E-02 0.  1.
        2   -1    0    0  501    0  0.00000000000E+00  0.00000000000E+00 -0.15742348304E+04  0.15742348304E+04  0.25500000920E-02 0. -1.
    10030    2    1    2    0    0  0.00000000000E+00  0.00000000000E+00 -0.11684077010E+04  0.19800619599E+04  0.15985833757E+04 0.  0.
        5    1    3    3  502    0  0.67521768789E+03 -0.37982450851E+03 -0.34066302875E+03  0.84632084487E+03  0.46999998093E+01 0.  1.
       -5    1    3    3    0  502 -0.67521768789E+03  0.37982450851E+03 -0.82774467230E+03  0.11337411150E+04  0.46999998093E+01 0. -1.
</event>
<event>
 5   0  0.2796994E-04  0.1598019E+04  0.7818609E-02  0.8821766E-01
       -1   -1    0    0    0  501  0.00000000000E+00  0.00000000000E+00  0.64838416914E+03  0.64838416916E+03  0.50400001928E-02 0.  1.
        1   -1    0    0  501    0  0.00000000000E+00  0.00000000000E+00 -0.98462687003E+03  0.98462687005E+03  0.50400001928E-02 0. -1.
    10030    2    1    2    0    0  0.00000000000E+00  0.00000000000E+00 -0.33624270090E+03  0.16330110392E+04  0.15980193679E+04 0.  0.
        3    1    3    3  502    0 -0.58328119075E+03 -0.49092827401E+03 -0.41249992801E+03  0.86682392590E+03  0.10100000352E+00 0. -1.
       -3    1    3    3    0  502  0.58328119075E+03  0.49092827401E+03  0.76257227112E+02  0.76618711330E+03  0.10100000352E+00 0.  1.
</event>
<event>
 5   0  0.2796994E-04  0.1590847E+04  0.7818609E-02  0.8826191E-01
       -1   -1    0    0    0  501  0.00000000000E+00  0.00000000000E+00  0.10555795693E+04  0.10555795693E+04  0.50400001928E-02 0.  1.
        1   -1    0    0  501    0  0.00000000000E+00  0.00000000000E+00 -0.59938463029E+03  0.59938463031E+03  0.50400001928E-02 0. -1.
    10030    2    1    2    0    0  0.00000000000E+00  0.00000000000E+00  0.45619493899E+03  0.16549641996E+04  0.15908465292E+04 0.  0.
        3    1    3    3  502    0 -0.31617138550E+03 -0.71311004173E+03  0.38995716728E+03  0.87209912231E+03  0.10100000352E+00 0.  1.
       -3    1    3    3    0  502  0.31617138550E+03  0.71311004173E+03  0.66237771714E+02  0.78286507728E+03  0.10100000352E+00 0. -1.
</event>
<event>
 5   0  0.1908125E-04  0.1611513E+04  0.7818609E-02  0.8813506E-01
        3   -1    0    0  501    0  0.00000000000E+00  0.00000000000E+00  0.36383778423E+03  0.36383779825E+03  0.10100000352E+00 0. -1.
       -3   -1    0    0    0  501  0.00000000000E+00  0.00000000000E+00 -0.17844308736E+04  0.17844308764E+04  0.10100000352E+00 0.  1.
    10030    2    1    2    0    0  0.00000000000E+00  0.00000000000E+00 -0.14205930894E+04  0.21482686747E+04  0.16115128213E+04 0.  0.
        3    1    3    3  502    0  0.58122512383E+03  0.83606735953E+02  0.25231132916E+02  0.58774939484E+03  0.10100000352E+00 0. -1.
       -3    1    3    3    0  502 -0.58122512383E+03 -0.83606735953E+02 -0.14458242223E+04  0.15605192798E+04  0.10100000352E+00 0.  1.
</event>
<event>
 5   0  0.2796994E-04  0.1583326E+04  0.7818609E-02  0.8830858E-01
       -1   -1    0    0    0  501  0.00000000000E+00  0.00000000000E+00  0.35120550887E+03  0.35120550891E+03  0.50400001928E-02 0. -1.
        1   -1    0    0  501    0  0.00000000000E+00  0.00000000000E+00 -0.17845106639E+04  0.17845106640E+04  0.50400001928E-02 0.  1.
    10030    2    1    2    0    0  0.00000000000E+00  0.00000000000E+00 -0.14333051551E+04  0.21357161729E+04  0.15833255835E+04 0.  0.
        3    1    3    3  502    0 -0.27369642394E+03 -0.48227243106E+01  0.28533644752E+03  0.39541103884E+03  0.10100000352E+00 0. -1.
       -3    1    3    3    0  502  0.27369642394E+03  0.48227243106E+01 -0.17186416026E+04  0.17403051340E+04  0.10100000352E+00 0.  1.
</event>
<event>
 5   0  0.2649086E-04  0.1575582E+04  0.7818609E-02  0.8835691E-01
        1   -1    0    0  501    0  0.00000000000E+00  0.00000000000E+00  0.80203011197E+03  0.80203011199E+03  0.50400001928E-02 0.  1.
       -1   -1    0    0    0  501  0.00000000000E+00  0.00000000000E+00 -0.77380490879E+03  0.77380490881E+03  0.50400001928E-02 0. -1.
    10030    2    1    2    0    0  0.00000000000E+00  0.00000000000E+00  0.28225203185E+02  0.15758350208E+04  0.15755822259E+04 0.  0.
        2    1    3    3  502    0  0.66445075581E+03 -0.68055574471E+02  0.43189779254E+03  0.79540057287E+03  0.25500000920E-02 0. -1.
       -2    1    3    3    0  502 -0.66445075581E+03  0.68055574471E+02 -0.40367258935E+03  0.78043444793E+03  0.25500000920E-02 0.  1.
</event>
<event>
 5   0  0.2730707E-04  0.1613952E+04  0.7818609E-02  0.8812022E-01
       -1   -1    0    0    0  501  0.00000000000E+00  0.00000000000E+00  0.37617736908E+03  0.37617736911E+03  0.50400001928E-02 0.  1.
        1   -1    0    0  501    0  0.00000000000E+00  0.00000000000E+00 -0.17311257156E+04  0.17311257157E+04  0.50400001928E-02 0. -1.
    10030    2    1    2    0    0  0.00000000000E+00  0.00000000000E+00 -0.13549483466E+04  0.21073030848E+04  0.16139520653E+04 0.  0.
        5    1    3    3  502    0  0.43311314575E+03 -0.58320240871E+03 -0.11362789860E+04  0.13486526872E+04  0.46999998093E+01 0. -1.
       -5    1    3    3    0  502 -0.43311314575E+03  0.58320240871E+03 -0.21866936056E+03  0.75865039761E+03  0.46999998093E+01 0.  1.
</event>
<event>
 5   0  0.5381164E-04  0.1663753E+04  0.7818609E-02  0.8782312E-01
        2   -1    0    0  501    0  0.00000000000E+00  0.00000000000E+00  0.11394670871E+04  0.11394670871E+04  0.25500000920E-02 0. -1.
       -2   -1    0    0    0  501  0.00000000000E+00  0.00000000000E+00 -0.60731743583E+03  0.60731743583E+03  0.25500000920E-02 0.  1.
    10030    2    1    2    0    0  0.00000000000E+00  0.00000000000E+00  0.53214965129E+03  0.17467845230E+04  0.16637526614E+04 0.  0.
        5    1    3    3  502    0  0.90716046539E+02  0.23663751592E+03 -0.56578595996E+03  0.61996980372E+03  0.46999998093E+01 0.  1.
       -5    1    3    3    0  502 -0.90716046539E+02 -0.23663751592E+03  0.10979356112E+04  0.11268147192E+04  0.46999998093E+01 0. -1.
</event>
<event>
 5   0  0.1908125E-04  0.1622666E+04  0.7818609E-02  0.8806743E-01
       -3   -1    0    0    0  501  0.00000000000E+00  0.00000000000E+00  0.66398915398E+03  0.66398916166E+03  0.10100000352E+00 0. -1.
        3   -1    0    0  501    0  0.00000000000E+00  0.00000000000E+00 -0.99137324766E+03  0.99137325280E+03  0.10100000352E+00 0.  1.
    10030    2    1    2    0    0  0.00000000000E+00  0.00000000000E+00 -0.32738409368E+03  0.16553624145E+04  0.16226658246E+04 0.  0.
        2    1    3    3  502    0 -0.28716069244E+03  0.70071224922E+03  0.13338390450E+03  0.76892794557E+03  0.25500000920E-02 0.  1.
       -2    1    3    3    0  502  0.28716069244E+03 -0.70071224922E+03 -0.46076799818E+03  0.88643446889E+03  0.25500000920E-02 0. -1.
</event>
<event>
 5   0  0.5131239E-04  0.1629673E+04  0.7818609E-02  0.8802523E-01
        2   -1    0    0  501    0  0.00000000000E+00  0.00000000000E+00  0.92937280526E+03  0.92937280526E+03  0.25500000920E-02 0. -1.
       -2   -1    0    0    0  501  0.00000000000E+00  0.00000000000E+00 -0.71441554443E+03  0.71441554444E+03  0.25500000920E-02 0.  1.
    10030    2    1    2    0    0  0.00000000000E+00  0.00000000000E+00  0.21495726082E+03  0.16437883497E+04  0.16296728244E+04 0.  0.
        1    1    3    3  502    0 -0.10801505407E+03 -0.49020538801E+03  0.75490250238E+03  0.90655742370E+03  0.50400001928E-02 0. -1.
       -1    1    3    3    0  502  0.10801505407E+03  0.49020538801E+03 -0.53994524156E+03  0.73723092600E+03  0.50400001928E-02 0.  1.
</event>
<event>
 5   0  0.2689675E-04  0.1631734E+04  0.7818609E-02  0.8801286E-01
       -1   -1    0    0    0  501  0.00000000000E+00  0.00000000000E+00  0.97348147930E+03  0.97348147931E+03  0.50400001928E-02 0. -1.
        1   -1    0    0  501    0  0.00000000000E+00  0.00000000000E+00 -0.68377172393E+03  0.68377172394E+03  0.50400001928E-02 0.  1.
    10030    2    1    2    0    0  0.00000000000E+00  0.00000000000E+00  0.28970975537E+03  0.16572532033E+04  0.16317341810E+04 0.  0.
        1    1    3    3  502    0  0.65922059054E+03 -0.47853241117E+03  0.19110889544E+03  0.83671241503E+03  0.50400001928E-02 0. -1.
       -1    1    3    3    0  502 -0.65922059054E+03  0.47853241117E+03  0.98600859931E+02  0.82054078822E+03  0.50400001928E-02 0.  1.
</event>
<event>
 5   0  0.5083831E-04  0.1588449E+04  0.7818609E-02  0.8827676E-01
       -2   -1    0    0    0  501  0.00000000000E+00  0.00000000000E+00  0.93495717445E+03  0.93495717446E+03  0.25500000920E-02 0. -1.
        2   -1    0    0  501    0  0.00000000000E+00  0.00000000000E+00 -0.67467555576E+03  0.67467555576E+03  0.25500000920E-02 0.  1.
    10030    2    1    2    0    0  0.00000000000E+00  0.00000000000E+00  0.26028161870E+03  0.16096327302E+04  0.15884492454E+04 0.  0.
        4    1    3    3  502    0  0.74159006265E+03 -0.20043821939E+03 -0.74191136815E+02  0.77177538085E+03  0.12699999809E+01 0.  1.
       -4    1    3    3    0  502 -0.74159006265E+03  0.20043821939E+03  0.33447275551E+03  0.83785734937E+03  0.12699999809E+01 0. -1.
</event>
<event>
 5   0  0.5264308E-04  0.1604855E+04  0.7818609E-02  0.8817571E-01
        2   -1    0    0  501    0  0.00000000000E+00  0.00000000000E+00  0.14907332041E+04  0.14907332041E+04  0.25500000920E-02 0. -1.
       -2   -1    0    0    0  501  0.00000000000E+00  0.00000000000E+00 -0.43192825720E+03  0.43192825721E+03  0.25500000920E-02 0.  1.
    10030    2    1    2    0    0  0.00000000000E+00  0.00000000000E+00  0.10588049469E+04  0.19226614613E+04  0.16048548779E+04 0.  0.
        3    1    3    3  502    0 -0.44634872791E+03  0.56111917965E+03  0.96103837106E+03  0.11990315599E+04  0.10100000352E+00 0. -1.
       -3    1    3    3    0  502  0.44634872791E+03 -0.56111917965E+03  0.97766575798E+02  0.72362990142E+03  0.10100000352E+00 0.  1.
</event>
<event>
 5   0  0.2796994E-04  0.1589028E+04  0.7818609E-02  0.8827317E-01
        1   -1    0    0  501    0  0.00000000000E+00  0.00000000000E+00  0.26014700431E+04  0.26014700431E+04  0.50400001928E-02 0. -1.
       -1   -1    0    0    0  501  0.00000000000E+00  0.00000000000E+00 -0.24265213710E+03  0.24265213715E+03  0.50400001928E-02 0.  1.
    10030    2    1    2    0    0  0.00000000000E+00  0.00000000000E+00  0.23588179060E+04  0.28441221803E+04  0.15890277098E+04 0.  0.
        3    1    3    3  502    0  0.13980986690E+03  0.26896546029E+03  0.24938992033E+04  0.25122544585E+04  0.10100000352E+00 0. -1.
       -3    1    3    3    0  502 -0.13980986690E+03 -0.26896546029E+03 -0.13508129726E+03  0.33186772181E+03  0.10100000352E+00 0.  1.
</event>
<event>
 5   0  0.2730707E-04  0.1602259E+04  0.7818609E-02  0.8819162E-01
       -1   -1    0    0    0  501  0.00000000000E+00  0.00000000000E+00  0.52101094287E+03  0.52101094290E+03  0.50400001928E-02 0. -1.
        1   -1    0    0  501    0  0.00000000000E+00  0.00000000000E+00 -0.12318518537E+04  0.12318518537E+04  0.50400001928E-02 0.  1.
    10030    2    1    2    0    0  0.00000000000E+00  0.00000000000E+00 -0.71084091086E+03  0.17528627966E+04  0.16022587754E+04 0.  0.
        5    1    3    3  502    0  0.62759934934E+03  0.30467382308E+03  0.75395653889E+02  0.70172193666E+03  0.46999998093E+01 0. -1.
       -5    1    3    3    0  502 -0.62759934934E+03 -0.30467382308E+03 -0.78623656475E+03  0.10511408600E+04  0.46999998093E+01 0.  1.
</event>
<event>
 5   0  0.2763895E-04  0.1596229E+04  0.7818609E-02  0.8822868E-01
        1   -1    0    0  501    0  0.00000000000E+00  0.00000000000E+00  0.10844870354E+04  0.10844870354E+04  0.50400001928E-02 0. -1.
       -1   -1    0    0    0  501  0.00000000000E+00  0.00000000000E+00 -0.58736217326E+03  0.58736217328E+03  0.50400001928E-02 0.  1.
    10030    2    1    2    0    0  0.00000000000E+00  0.00000000000E+00  0.49712486214E+03  0.16718492087E+04  0.15962288834E+04 0.  0.
        4    1    3    3  502    0 -0.45441751987E+03 -0.20401271941E+03 -0.40457318136E+03  0.64171453468E+03  0.12699999809E+01 0.  1.
       -4    1    3    3    0  502  0.45441751987E+03  0.20401271941E+03  0.90169804350E+03  0.10301346740E+04  0.12699999809E+01 0. -1.
</event>
<event>
 5   0  0.5381164E-04  0.1605855E+04  0.7818609E-02  0.8816959E-01
        2   -1    0    0  501    0  0.00000000000E+00  0.00000000000E+00  0.23545156301E+04  0.23545156301E+04  0.25500000920E-02 0. -1.
       -2   -1    0    0    0  501  0.00000000000E+00  0.00000000000E+00 -0.27381126941E+03  0.27381126942E+03  0.25500000920E-02 0.  1.
    10030    2    1    2    0    0  0.00000000000E+00  0.00000000000E+00  0.20807043606E+04  0.26283268995E+04  0.16058554275E+04 0.  0.
        5    1    3    3  502    0  0.77916603665E+03  0.53161037073E+02  0.73526835183E+03  0.10726450707E+04  0.46999998093E+01 0.  1.
       -5    1    3    3    0  502 -0.77916603665E+03 -0.53161037073E+02  0.13454360088E+04  0.15556818288E+04  0.46999998093E+01 0. -1.
</event>
<event>
 5   0  0.5315984E-04  0.1540407E+04  0.7818609E-02  0.8858019E-01
       -2   -1    0    0    0  501  0.00000000000E+00  0.00000000000E+00  0.37289276978E+03  0.37289276979E+03  0.25500000920E-02 0.  1.
        2   -1    0    0  501    0  0.00000000000E+00  0.00000000000E+00 -0.15908408857E+04  0.15908408857E+04  0.25500000920E-02 0. -1.
    10030    2    1    2    0    0  0.00000000000E+00  0.00000000000E+00 -0.12179481159E+04  0.19637336555E+04  0.15404065232E+04 0.  0.
        2    1    3    3  502    0  0.35250057355E+03 -0.56256418688E+02  0.26107365981E+03  0.44224528811E+03  0.25500000920E-02 0.  1.
       -2    1    3    3    0  502 -0.35250057355E+03  0.56256418688E+02 -0.14790217758E+04  0.15214883674E+04  0.25500000920E-02 0. -1.
</event>
<event>
 5   0  0.5264308E-04  0.1603672E+04  0.7818609E-02  0.8818295E-01
       -2   -1    0    0    0  501  0.00000000000E+00  0.00000000000E+00  0.17458098854E+04  0.17458098855E+04  0.25500000920E-02 0. -1.
        2   -1    0    0  501    0  0.00000000000E+00  0.00000000000E+00 -0.36827668061E+03  0.36827668062E+03  0.25500000920E-02 0.  1.
    10030    2    1    2    0    0  0.00000000000E+00  0.00000000000E+00  0.13775332048E+04  0.21140865661E+04  0.16036721231E+04 0.  0.
        3    1    3    3  502    0 -0.51648456858E+03  0.24740370889E+03  0.14286206004E+04  0.15391301878E+04  0.10100000352E+00 0. -1.
       -3    1    3    3    0  502  0.51648456858E+03 -0.24740370889E+03 -0.51087395585E+02  0.57495637830E+03  0.10100000352E+00 0.  1.
</event>
<event>
 5   0  0.5315984E-04  0.1560839E+04  0.7818609E-02  0.8844974E-01
       -2   -1    0    0    0  501  0.00000000000E+00  0.00000000000E+00  0.98906962072E+03  0.98906962072E+03  0.25500000920E-02 0. -1.
        2   -1    0    0  501    0  0.00000000000E+00  0.00000000000E+00 -0.61578521731E+03  0.61578521732E+03  0.25500000920E-02 0.  1.
    10030    2    1    2    0    0  0.00000000000E+00  0.00000000000E+00  0.37328440341E+03  0.16048548380E+04  0.15608388147E+04 0.  0.
        2    1    3    3  502    0 -0.69896008627E+01 -0.76901803390E+03  0.32311369857E+03  0.83417027830E+03  0.25500000920E-02 0. -1.
       -2    1    3    3    0  502  0.69896008627E+01  0.76901803390E+03  0.50170704839E+02  0.77068455974E+03  0.25500000920E-02 0.  1.
</event>
<event>
 5   0  0.5264308E-04  0.1584078E+04  0.7818609E-02  0.8830389E-01
        2   -1    0    0  501    0  0.00000000000E+00  0.00000000000E+00  0.58492324046E+03  0.58492324046E+03  0.25500000920E-02 0. -1.
       -2   -1    0    0    0  501  0.00000000000E+00  0.00000000000E+00 -0.10724930880E+04  0.10724930880E+04  0.25500000920E-02 0.  1.
    10030    2    1    2    0    0  0.00000000000E+00  0.00000000000E+00 -0.48756984757E+03  0.16574163285E+04  0.15840784481E+04 0.  0.
        3    1    3    3  502    0 -0.14048252167E+03  0.83253422544E+02  0.56711854372E+03  0.59016093067E+03  0.10100000352E+00 0. -1.
       -3    1    3    3    0  502  0.14048252167E+03 -0.83253422544E+02 -0.10546883913E+04  0.10672553978E+04  0.10100000352E+00 0.  1.
</event>
<event>
 5   0  0.5381164E-04  0.1589699E+04  0.7818609E-02  0.8826901E-01
       -2   -1    0    0    0  501  0.00000000000E+00  0.00000000000E+00  0.88140821811E+03  0.88140821812E+03  0.25500000920E-02 0.  1.
        2   -1    0    0  501    0  0.00000000000E+00  0.00000000000E+00 -0.71679136795E+03  0.71679136796E+03  0.25500000920E-02 0. -1.
    10030    2    1    2    0    0  0.00000000000E+00  0.00000000000E+00  0.16461685016E+03  0.15981995861E+04  0.15896990940E+04 0.  0.
        5    1    3    3  502    0 -0.12936847138E+03  0.45006762593E+03 -0.56336141897E+03  0.73259487282E+03  0.46999998093E+01 0. -1.
       -5    1    3    3    0  502  0.12936847138E+03 -0.45006762593E+03  0.72797826913E+03  0.86560471326E+03  0.46999998093E+01 0.  1.
</event>
<event>
 5   0  0.5083831E-04  0.1598703E+04  0.7818609E-02  0.8821345E-01
       -2   -1    0    0    0  501  0.00000000000E+00  0.00000000000E+00  0.18902044048E+04  0.18902044048E+04  0.25500000920E-02 0. -1.
        2   -1    0    0  501    0  0.00000000000E+00  0.00000000000E+00 -0.33803883877E+03  0.33803883878E+03  0.25500000920E-02 0.  1.
    10030    2    1    2    0    0  0.00000000000E+00  0.00000000000E+00  0.15521655660E+04  0.22282432436E+04  0.15987026016E+04 0.  0.
        4    1    3    3  502    0 -0.75475748488E+03  0.25006624267E+03  0.89075390043E+03  0.11940000464E+04  0.12699999809E+01 0. -1.
       -4    1    3    3    0  502  0.75475748488E+03 -0.25006624267E+03  0.66141166559E+03  0.10342431972E+04  0.12699999809E+01 0.  1.
</event>
<event>
 5   0  0.5083831E-04  0.1603154E+04  0.7818609E-02  0.8818613E-01
        2   -1    0    0  501    0  0.00000000000E+00  0.00000000000E+00  0.10137452034E+04  0.10137452034E+04  0.25500000920E-02 0. -1.
       -2   -1    0    0    0  501  0.00000000000E+00  0.00000000000E+00 -0.63381356303E+03  0.63381356304E+03  0.25500000920E-02 0.  1.
    10030    2    1    2    0    0  0.00000000000E+00  0.00000000000E+00  0.37993164033E+03  0.16475587664E+04  0.16031537161E+04 0.  0.
        4    1    3    3  502    0 -0.37865437225E+03 -0.55576687171E+03 -0.25831329643E+03  0.72040497036E+03  0.12699999809E+01 0.  1.
       -4    1    3    3    0  502  0.37865437225E+03  0.55576687171E+03  0.63824493677E+03  0.92715379604E+03  0.12699999809E+01 0. -1.
</event>
<event>
 5   0  0.2689675E-04  0.1604154E+04  0.7818609E-02  0.8818000E-01
        1   -1    0    0  501    0  0.00000000000E+00  0.00000000000E+00  0.40992333904E+03  0.40992333907E+03  0.50400001928E-02 0.  1.
       -1   -1    0    0    0  501  0.00000000000E+00  0.00000000000E+00 -0.15693854199E+04  0.15693854199E+04  0.50400001928E-02 0. -1.
    10030    2    1    2    0    0  0.00000000000E+00  0.00000000000E+00 -0.11594620809E+04  0.19793087590E+04  0.16041542465E+04 0.  0.
        1    1    3    3  502    0  0.49062821853E+03 -0.38450188768E+03 -0.12025208986E+04  0.13544793325E+04  0.50400001928E-02 0. -1.
       -1    1    3    3    0  502 -0.49062821853E+03  0.38450188768E+03  0.43058817745E+02  0.62482942653E+03  0.50400001928E-02 0.  1.
</event>
<event>
 5   0  0.5315984E-04  0.1598640E+04  0.7818609E-02  0.8821384E-01
       -2   -1    0    0    0  501  0.00000000000E+00  0.00000000000E+00  0.46694392916E+03  0.46694392917E+03  0.25500000920E-02 0. -1.
        2   -1    0    0  501    0  0.00000000000E+00  0.00000000000E+00 -0.13682851755E+04  0.13682851755E+04  0.25500000920E-02 0.  1.
    10030    2    1    2    0    0  0.00000000000E+00  0.00000000000E+00 -0.90134124637E+03  0.18352291047E+04  0.15986399921E+04 0.  0.
        2    1    3    3  502    0  0.53744470209E+03  0.53205419659E+03 -0.74778597321E+03  0.10635376522E+04  0.25500000920E-02 0.  1.
       -2    1    3    3    0  502 -0.53744470209E+03 -0.53205419659E+03 -0.15355527315E+03  0.77169145249E+03  0.25500000920E-02 0. -1.
</event>
<event>
 5   0  0.2730707E-04  0.1599202E+04  0.7818609E-02  0.8821039E-01
        1   -1    0    0  501    0  0.00000000000E+00  0.00000000000E+00  0.78794927684E+03  0.78794927686E+03  0.50400001928E-02 0.  1.
       -1   -1    0    0    0  501  0.00000000000E+00  0.00000000000E+00 -0.81142468325E+03  0.81142468327E+03  0.50400001928E-02 0. -1.
    10030    2    1    2    0    0  0.00000000000E+00  0.00000000000E+00 -0.23475406411E+02  0.15993739601E+04  0.15992016663E+04 0.  0.
        5    1    3    3  502    0 -0.17895299170E+03  0.17360662891E+03  0.74806512721E+03  0.78853469131E+03  0.46999998093E+01 0.  1.
       -5    1    3    3    0  502  0.17895299170E+03 -0.17360662891E+03 -0.77154053363E+03  0.81083926882E+03  0.46999998093E+01 0. -1.
</event>
<event>
 5   0  0.2763895E-04  0.1597198E+04  0.7818609E-02  0.8822271E-01
        1   -1    0    0  501    0  0.00000000000E+00  0.00000000000E+00  0.15332451808E+04  0.15332451809E+04  0.50400001928E-02 0. -1.
       -1   -1    0    0    0  501  0.00000000000E+00  0.00000000000E+00 -0.41595456642E+03  0.41595456645E+03  0.50400001928E-02 0.  1.
    10030    2    1    2    0    0  0.00000000000E+00  0.00000000000E+00  0.11172906144E+04  0.19491997473E+04  0.15971979645E+04 0.  0.
        4    1    3    3  502    0  0.20418139704E+03  0.33502714757E+03  0.14075168417E+04  0.14611770958E+04  0.12699999809E+01 0. -1.
       -4    1    3    3    0  502 -0.20418139704E+03 -0.33502714757E+03 -0.29022622731E+03  0.48802265155E+03  0.12699999809E+01 0.  1.
</event>
<event>
 5   0  0.2730707E-04  0.1591469E+04  0.7818609E-02  0.8825806E-01
        1   -1    0    0  501    0  0.00000000000E+00  0.00000000000E+00  0.51772035715E+03  0.51772035717E+03  0.50400001928E-02 0.  1.
       -1   -1    0    0    0  501  0.00000000000E+00  0.00000000000E+00 -0.12230414812E+04  0.12230414812E+04  0.50400001928E-02 0. -1.
    10030    2    1    2    0    0  0.00000000000E+00  0.00000000000E+00 -0.70532112406E+03  0.17407618384E+04  0.15914690980E+04 0.  0.
        5    1    3    3  502    0 -0.78171711619E+03 -0.93349838624E+02 -0.47916239415E+03  0.92163687648E+03  0.46999998093E+01 0. -1.
       -5    1    3    3    0  502  0.78171711619E+03  0.93349838624E+02 -0.22615872992E+03  0.81912496192E+03  0.46999998093E+01 0.  1.
</event>
<event>
 5   0  0.5131239E-04  0.1595151E+04  0.7818609E-02  0.8823532E-01
        2   -1    0    0  501    0  0.00000000000E+00  0.00000000000E+00  0.19718999783E+04  0.19718999783E+04  0.25500000920E-02 0.  1.
       -2   -1    0    0    0  501  0.00000000000E+00  0.00000000000E+00 -0.32259591267E+03  0.32259591268E+03  0.25500000920E-02 0. -1.
    10030    2    1    2    0    0  0.00000000000E+00  0.00000000000E+00  0.16493040656E+04  0.22944958910E+04  0.15951512445E+04 0.  0.
        1    1    3    3  502    0 -0.66547114614E+03  0.23862522998E+03  0.13557638384E+04  0.15290158378E+04  0.50400001928E-02 0. -1.
       -1    1    3    3    0  502  0.66547114614E+03 -0.23862522998E+03  0.29354022718E+03  0.76548005312E+03  0.50400001928E-02 0.  1.
</event>
<event>
 5   0  0.5264308E-04  0.1578251E+04  0.7818609E-02  0.8834022E-01
        2   -1    0    0  501    0  0.00000000000E+00  0.00000000000E+00  0.13828363194E+04  0.13828363194E+04  0.25500000920E-02 0.  1.
       -2   -1    0    0    0  501  0.00000000000E+00  0.00000000000E+00 -0.45032027634E+03  0.45032027635E+03  0.25500000920E-02 0. -1.
    10030    2    1    2    0    0  0.00000000000E+00  0.00000000000E+00  0.93251604302E+03  0.18331565957E+04  0.15782512265E+04 0.  0.
        3    1    3    3  502    0 -0.38752379596E+03 -0.58314616206E+03  0.88903071009E+03  0.11316402929E+04  0.10100000352E+00 0.  1.
       -3    1    3    3    0  502  0.38752379596E+03  0.58314616206E+03  0.43485332924E+02  0.70151630283E+03  0.10100000352E+00 0. -1.
</event>
<event>
 5   0  0.5381164E-04  0.1627204E+04  0.7818609E-02  0.8804008E-01
        2   -1    0    0  501    0  0.00000000000E+00  0.00000000000E+00  0.66275619572E+03  0.66275619573E+03  0.25500000920E-02 0.  1.
       -2   -1    0    0    0  501  0.00000000000E+00  0.00000000000E+00 -0.99878112926E+03  0.99878112926E+03  0.25500000920E-02 0. -1.
    10030    2    1    2    0    0  0.00000000000E+00  0.00000000000E+00 -0.33602493353E+03  0.16615373250E+04  0.16272042055E+04 0.  0.
        5    1    3    3  502    0  0.48277030610E+03 -0.58749455978E+03 -0.46344261274E+03  0.89051567731E+03  0.46999998093E+01 0. -1.
       -5    1    3    3    0  502 -0.48277030610E+03  0.58749455978E+03  0.12741767921E+03  0.77102164768E+03  0.46999998093E+01 0.  1.
</event>
<event>
 5   0  0.2730707E-04  0.1559721E+04  0.7818609E-02  0.8845683E-01
        1   -1    0    0  501    0  0.00000000000E+00  0.00000000000E+00  0.95255330687E+03  0.95255330688E+03  0.50400001928E-02 0. -1.
       -1   -1    0    0    0  501  0.00000000000E+00  0.00000000000E+00 -0.63847557594E+03  0.63847557596E+03  0.50400001928E-02 0.  1.
    10030    2    1    2    0    0  0.00000000000E+00  0.00000000000E+00  0.31407773093E+03  0.15910288828E+04  0.15597205150E+04 0.  0.
        5    1    3    3  502    0  0.57001621936E+03  0.35560979376E+03 -0.24686771089E+03  0.71578109253E+03  0.46999998093E+01 0. -1.
       -5    1    3    3    0  502 -0.57001621936E+03 -0.35560979376E+03  0.56094544182E+03  0.87524779031E+03  0.46999998093E+01 0.  1.
</event>
<event>
 5   0  0.5264308E-04  0.1599646E+04  0.7818609E-02  0.8820766E-01
        2   -1    0    0  501    0  0.00000000000E+00  0.00000000000E+00  0.50737532303E+03  0.50737532304E+03  0.25500000920E-02 0.  1.
       -2   -1    0    0    0  501  0.00000000000E+00  0.00000000000E+00 -0.12608349622E+04  0.12608349623E+04  0.25500000920E-02 0. -1.
    10030    2    1    2    0    0  0.00000000000E+00  0.00000000000E+00 -0.75345963922E+03  0.17682102853E+04  0.15996456436E+04 0.  0.
        3    1    3    3  502    0 -0.14852694002E+02 -0.64319594037E+03  0.14852156297E+03  0.66028803192E+03  0.10100000352E+00 0.  1.
       -3    1    3    3    0  502  0.14852694002E+02  0.64319594037E+03 -0.90198120218E+03  0.11079222534E+04  0.10100000352E+00 0. -1.
</event>
<event>
 5   0  0.5083831E-04  0.1587034E+04  0.7818609E-02  0.8828553E-01
       -2   -1    0    0    0  501  0.00000000000E+00  0.00000000000E+00  0.10869597422E+04  0.10869597422E+04  0.25500000920E-02 0. -1.
        2   -1    0    0  501    0  0.00000000000E+00  0.00000000000E+00 -0.57929419882E+03  0.57929419883E+03  0.25500000920E-02 0.  1.
    10030    2    1    2    0    0  0.00000000000E+00  0.00000000000E+00  0.50766554342E+03  0.16662539411E+04  0.15870343072E+04 0.  0.
        4    1    3    3  502    0  0.32000762405E+03  0.43706048540E+03  0.86264067510E+03  0.10186153811E+04  0.12699999809E+01 0. -1.
       -4    1    3    3    0  502 -0.32000762405E+03 -0.43706048540E+03 -0.35497513168E+03  0.64763855998E+03  0.12699999809E+01 0.  1.
</event>
<event>
 5   0  0.5381164E-04  0.1606463E+04  0.7818609E-02  0.8816587E-01
       -2   -1    0    0    0  501  0.00000000000E+00  0.00000000000E+00  0.42695550058E+03  0.42695550059E+03  0.25500000920E-02 0. -1.
        2   -1    0    0  501    0  0.00000000000E+00  0.00000000000E+00 -0.15111195785E+04  0.15111195785E+04  0.25500000920E-02 0.  1.
    10030    2    1    2    0    0  0.00000000000E+00  0.00000000000E+00 -0.10841640779E+04  0.19380750791E+04  0.16064629670E+04 0.  0.
        5    1    3    3  502    0  0.64139745361E+03 -0.14870497697E+03 -0.10971089027E+04  0.12795209643E+04  0.46999998093E+01 0.  1.
       -5    1    3    3    0  502 -0.64139745361E+03  0.14870497697E+03  0.12944824757E+02  0.65855411483E+03  0.46999998093E+01 0. -1.
</event>
<event>
 5   0  0.2730707E-04  0.1591959E+04  0.7818609E-02  0.8825503E-01
        1   -1    0    0  501    0  0.00000000000E+00  0.00000000000E+00  0.65138021054E+03  0.65138021055E+03  0.50400001928E-02 0.  1.
       -1   -1    0    0    0  501  0.00000000000E+00  0.00000000000E+00 -0.97267827941E+03  0.97267827943E+03  0.50400001928E-02 0. -1.
    10030    2    1    2    0    0  0.00000000000E+00  0.00000000000E+00 -0.32129806888E+03  0.16240584900E+04  0.15919590227E+04 0.  0.
        5    1    3    3  502    0  0.30517443265E+03 -0.28274509949E+03 -0.85292229475E+03  0.94898617299E+03  0.46999998093E+01 0. -1.
       -5    1    3    3    0  502 -0.30517443265E+03  0.28274509949E+03  0.53162422588E+03  0.67507231699E+03  0.46999998093E+01 0.  1.
</event>
<event>
 5   0  0.5264308E-04  0.1595367E+04  0.7818609E-02  0.8823399E-01
       -2   -1    0    0    0  501  0.00000000000E+00  0.00000000000E+00  0.37215480464E+03  0.37215480465E+03  0.25500000920E-02 0. -1.
        2   -1    0    0  501    0  0.00000000000E+00  0.00000000000E+00 -0.17097690585E+04  0.17097690585E+04  0.25500000920E-02 0.  1.
    10030    2    1    2    0    0  0.00000000000E+00  0.00000000000E+00 -0.13376142539E+04  0.20819238632E+04  0.15953667540E+04 0.  0.
        3    1    3    3  502    0 -0.28100034039E+02  0.64424412599E+03 -0.12815353449E+04  0.14346333874E+04  0.10100000352E+00 0.  1.
       -3    1    3    3    0  502  0.28100034039E+02 -0.64424412599E+03 -0.56078908956E+02  0.64729047576E+03  0.10100000352E+00 0. -1.
</event>
<event>
 5   0  0.5131239E-04  0.1623629E+04  0.7818609E-02  0.8806162E-01
        2   -1    0    0  501    0  0.00000000000E+00  0.00000000000E+00  0.11827046045E+04  0.11827046045E+04  0.25500000920E-02 0. -1.
       -2   -1    0    0    0  501  0.00000000000E+00  0.00000000000E+00 -0.55723343010E+03  0.55723343011E+03  0.25500000920E-02 0.  1.
    10030    2    1    2    0    0  0.00000000000E+00  0.00000000000E+00  0.62547117435E+03  0.17399380346E+04  0.16236287058E+04 0.  0.
        1    1    3    3  502    0  0.45399254957E+03  0.52735247540E+03  0.76081847863E+03  0.10310454043E+04  0.50400001928E-02 0. -1.
       -1    1    3    3    0  502 -0.45399254957E+03 -0.52735247540E+03 -0.13534730428E+03  0.70889263022E+03  0.50400001928E-02 0.  1.
</event>
<event>
 5   0  0.5083831E-04  0.1724068E+04  0.7818609E-02  0.8747755E-01
        2   -1    0    0  501    0  0.00000000000E+00  0.00000000000E+00  0.21102119240E+04  0.21102119240E+04  0.25500000920E-02 0. -1.
       -2   -1    0    0    0  501  0.00000000000E+00  0.00000000000E+00 -0.35214613604E+03  0.35214613605E+03  0.25500000920E-02 0.  1.
    10030    2    1    2    0    0  0.00000000000E+00  0.00000000000E+00  0.17580657880E+04  0.24623580601E+04  0.17240684154E+04 0.  0.
        4    1    3    3  502    0  0.36327872011E+03 -0.38799780148E+03 -0.90255135625E+02  0.53913015575E+03  0.12699999809E+01 0.  1.
       -4    1    3    3    0  502 -0.36327872011E+03  0.38799780148E+03  0.18483209236E+04  0.19232279043E+04  0.12699999809E+01 0. -1.
</event>
<event>
 5   0  0.5131239E-04  0.1604577E+04  0.7818609E-02  0.8817741E-01
        2   -1    0    0  501    0  0.00000000000E+00  0.00000000000E+00  0.30582636724E+03  0.30582636725E+03  0.25500000920E-02 0. -1.
       -2   -1    0    0    0  501  0.00000000000E+00  0.00000000000E+00 -0.21046798063E+04  0.21046798063E+04  0.25500000920E-02 0.  1.
    10030    2    1    2    0    0  0.00000000000E+00  0.00000000000E+00 -0.17988534391E+04  0.24105061735E+04  0.16045766786E+04 0.  0.
        1    1    3    3  502    0 -0.47445677991E+03  0.62902395599E+03 -0.67216061130E+03  0.10356545083E+04  0.50400001928E-02 0. -1.
       -1    1    3    3    0  502  0.47445677991E+03 -0.62902395599E+03 -0.11266928278E+04  0.13748516652E+04  0.50400001928E-02 0.  1.
</event>
<event>
 5   0  0.5264308E-04  0.1604260E+04  0.7818609E-02  0.8817935E-01
       -2   -1    0    0    0  501  0.00000000000E+00  0.00000000000E+00  0.41254949270E+03  0.41254949271E+03  0.25500000920E-02 0.  1.
        2   -1    0    0  501    0  0.00000000000E+00  0.00000000000E+00 -0.15596003301E+04  0.15596003301E+04  0.25500000920E-02 0. -1.
    10030    2    1    2    0    0  0.00000000000E+00  0.00000000000E+00 -0.11470508374E+04  0.19721498229E+04  0.16042597359E+04 0.  0.
        3    1    3    3  502    0  0.56454298644E+03  0.19144387575E+03  0.86257779932E+02  0.60232877725E+03  0.10100000352E+00 0.  1.
       -3    1    3    3    0  502 -0.56454298644E+03 -0.19144387575E+03 -0.12333086174E+04  0.13698210456E+04  0.10100000352E+00 0. -1.
</event>
<event>
 5   0  0.5315984E-04  0.1609950E+04  0.7818609E-02  0.8814459E-01
        2   -1    0    0  501    0  0.00000000000E+00  0.00000000000E+00  0.12684291300E+04  0.12684291300E+04  0.25500000920E-02 0.  1.
       -2   -1    0    0    0  501  0.00000000000E+00  0.00000000000E+00 -0.51085590731E+03  0.51085590731E+03  0.25500000920E-02 0. -1.
    10030    2    1    2    0    0  0.00000000000E+00  0.00000000000E+00  0.75757322270E+03  0.17792850373E+04  0.16099497061E+04 0.  0.
        2    1    3    3  502    0  0.23925238464E+03  0.68134952300E+03  0.77187313784E+03  0.10570085227E+04  0.25500000920E-02 0. -1.
       -2    1    3    3    0  502 -0.23925238464E+03 -0.68134952300E+03 -0.14299915137E+02  0.72227651466E+03  0.25500000920E-02 0.  1.
</event>
<event>
 5   0  0.5131239E-04  0.1578043E+04  0.7818609E-02  0.8834152E-01
        2   -1    0    0  501    0  0.00000000000E+00  0.00000000000E+00  0.83603813500E+03  0.83603813500E+03  0.25500000920E-02 0. -1.
       -2   -1    0    0    0  501  0.00000000000E+00  0.00000000000E+00 -0.74464876934E+03  0.74464876934E+03  0.25500000920E-02 0.  1.
    10030    2    1    2    0    0  0.00000000000E+00  0.00000000000E+00  0.91389365658E+02  0.15806869043E+04  0.15780427983E+04 0.  0.
        1    1    3    3  502    0 -0.34967852728E+03  0.14507663430E+03 -0.64773143248E+03  0.75025216488E+03  0.50400001928E-02 0.  1.
       -1    1    3    3    0  502  0.34967852728E+03 -0.14507663430E+03  0.73912079814E+03  0.83043473947E+03  0.50400001928E-02 0. -1.
</event>
<event>
 5   0  0.5315984E-04  0.1590420E+04  0.7818609E-02  0.8826455E-01
        2   -1    0    0  501    0  0.00000000000E+00  0.00000000000E+00  0.59941632185E+03  0.59941632185E+03  0.25500000920E-02 0. -1.
       -2   -1    0    0    0  501  0.00000000000E+00  0.00000000000E+00 -0.10549575182E+04  0.10549575182E+04  0.25500000920E-02 0.  1.
    10030    2    1    2    0    0  0.00000000000E+00  0.00000000000E+00 -0.45554119638E+03  0.16543738401E+04  0.15904197626E+04 0.  0.
        2    1    3    3  502    0 -0.79352442210E+02 -0.76371021891E+03 -0.44299308246E+03  0.88644964869E+03  0.25500000920E-02 0.  1.
       -2    1    3    3    0  502  0.79352442210E+02  0.76371021891E+03 -0.12548113919E+02  0.76792419139E+03  0.25500000920E-02 0. -1.
</event>
<event>
 5   0  0.2689675E-04  0.1597951E+04  0.7818609E-02  0.8821808E-01
        1   -1    0    0  501    0  0.00000000000E+00  0.00000000000E+00  0.14684339636E+04  0.14684339636E+04  0.50400001928E-02 0. -1.
       -1   -1    0    0    0  501  0.00000000000E+00  0.00000000000E+00 -0.43472261969E+03  0.43472261971E+03  0.50400001928E-02 0.  1.
    10030    2    1    2    0    0  0.00000000000E+00  0.00000000000E+00  0.10337113439E+04  0.19031565833E+04  0.15979505118E+04 0.  0.
        1    1    3    3  502    0  0.31546144329E+03  0.13011550505E+03 -0.34356590113E+03  0.48423495878E+03  0.50400001928E-02 0.  1.
       -1    1    3    3    0  502 -0.31546144329E+03 -0.13011550505E+03  0.13772772451E+04  0.14189216246E+04  0.50400001928E-02 0. -1.
</event>
<event>
 5   0  0.2649086E-04  0.1602165E+04  0.7818609E-02  0.8819219E-01
        1   -1    0    0  501    0  0.00000000000E+00  0.00000000000E+00  0.84473879335E+03  0.84473879337E+03  0.50400001928E-02 0.  1.
       -1   -1    0    0    0  501  0.00000000000E+00  0.00000000000E+00 -0.75968281528E+03  0.75968281530E+03  0.50400001928E-02 0. -1.
    10030    2    1    2    0    0  0.00000000000E+00  0.00000000000E+00  0.85055978070E+02  0.16044216087E+04  0.16021654655E+04 0.  0.
        2    1    3    3  502    0 -0.11707390258E+03  0.14558112839E+03  0.82262006699E+03  0.84356620264E+03  0.25500000920E-02 0.  1.
       -2    1    3    3    0  502  0.11707390258E+03 -0.14558112839E+03 -0.73756408892E+03  0.76085540603E+03  0.25500000920E-02 0. -1.
</event>
<event>
 5   0  0.2763895E-04  0.1309976E+04  0.7818609E-02  0.9021691E-01
        1   -1    0    0  501    0  0.00000000000E+00  0.00000000000E+00  0.46986541633E+03  0.46986541636E+03  0.50400001928E-02 0.  1.
       -1   -1    0    0    0  501  0.00000000000E+00  0.00000000000E+00 -0.91304698921E+03  0.91304698922E+03  0.50400001928E-02 0. -1.
    10030    2    1    2    0    0  0.00000000000E+00  0.00000000000E+00 -0.44318157288E+03  0.13829124056E+04  0.13099758834E+04 0.  0.
        4    1    3    3  502    0 -0.57682354529E+03  0.30725185857E+03 -0.26734542246E+03  0.70611917890E+03  0.12699999809E+01 0.  1.
       -4    1    3    3    0  502  0.57682354529E+03 -0.30725185857E+03 -0.17583615041E+03  0.67679322668E+03  0.12699999809E+01 0. -1.
</event>
<event>
 5   0  0.2730707E-04  0.1609632E+04  0.7818609E-02  0.8814652E-01
       -1   -1    0    0    0  501  0.00000000000E+00  0.00000000000E+00  0.28774205717E+03  0.28774205722E+03  0.50400001928E-02 0. -1.
        1   -1    0    0  501    0  0.00000000000E+00  0.00000000000E+00 -0.22510749807E+04  0.22510749807E+04  0.50400001928E-02 0.  1.
    10030    2    1    2    0    0  0.00000000000E+00  0.00000000000E+00 -0.19633329235E+04  0.25388170379E+04  0.16096321889E+04 0.  0.
        5    1    3    3  502    0  0.64973249005E+03 -0.20374389445E+03 -0.16583169127E+04  0.17926798253E+04  0.46999998093E+01 0.  1.
       -5    1    3    3    0  502 -0.64973249005E+03  0.20374389445E+03 -0.30501601080E+03  0.74613721259E+03  0.46999998093E+01 0. -1.
</event>
<event>
 5   0  0.5264308E-04  0.1596170E+04  0.7818609E-02  0.8822905E-01
        2   -1    0    0  501    0  0.00000000000E+00  0.00000000000E+00  0.17894312431E+04  0.17894312431E+04  0.25500000920E-02 0.  1.
       -2   -1    0    0    0  501  0.00000000000E+00  0.00000000000E+00 -0.35594512764E+03  0.35594512765E+03  0.25500000920E-02 0. -1.
    10030    2    1    2    0    0  0.00000000000E+00  0.00000000000E+00  0.14334861154E+04  0.21453763707E+04  0.15961695803E+04 0.  0.
        3    1    3    3  502    0  0.50678817083E+03 -0.25313898976E+03 -0.38846035834E+02  0.56782270378E+03  0.10100000352E+00 0. -1.
       -3    1    3    3    0  502 -0.50678817083E+03  0.25313898976E+03  0.14723321513E+04  0.15775536670E+04  0.10100000352E+00 0.  1.
</event>
<event>
 5   0  0.5264308E-04  0.1583538E+04  0.7818609E-02  0.8830725E-01
       -2   -1    0    0    0  501  0.00000000000E+00  0.00000000000E+00  0.74116406728E+03  0.74116406728E+03  0.25500000920E-02 0.  1.
        2   -1    0    0  501    0  0.00000000000E+00  0.00000000000E+00 -0.84582935642E+03  0.84582935642E+03  0.25500000920E-02 0. -1.
    10030    2    1    2    0    0  0.00000000000E+00  0.00000000000E+00 -0.10466528914E+03  0.15869934237E+04  0.15835382231E+04 0.  0.
        3    1    3    3  502    0 -0.13544422170E+03  0.11514340680E+03 -0.82556987645E+03  0.84449320449E+03  0.10100000352E+00 0. -1.
       -3    1    3    3    0  502  0.13544422170E+03 -0.11514340680E+03  0.72090458731E+03  0.74250021921E+03  0.10100000352E+00 0.  1.
</event>
<event>
 5   0  0.2796994E-04  0.1412016E+04  0.7818609E-02  0.8945166E-01
        1   -1    0    0  501    0  0.00000000000E+00  0.00000000000E+00  0.72020369295E+03  0.72020369297E+03  0.50400001928E-02 0.  1.
       -1   -1    0    0    0  501  0.00000000000E+00  0.00000000000E+00 -0.69209231575E+03  0.69209231577E+03  0.50400001928E-02 0. -1.
    10030    2    1    2    0    0  0.00000000000E+00  0.00000000000E+00  0.28111377198E+02  0.14122960087E+04  0.14120162063E+04 0.  0.
        3    1    3    3  502    0 -0.45824125851E+03 -0.11653074493E+03  0.53845240613E+03  0.71658598185E+03  0.10100000352E+00 0.  1.
       -3    1    3    3    0  502  0.45824125851E+03  0.11653074493E+03 -0.51034102893E+03  0.69571002689E+03  0.10100000352E+00 0. -1.
</event>
<event>
 5   0  0.2763895E-04  0.1588403E+04  0.7818609E-02  0.8827705E-01
        1   -1    0    0  501    0  0.00000000000E+00  0.00000000000E+00  0.15287968437E+04  0.15287968437E+04  0.50400001928E-02 0.  1.
       -1   -1    0    0    0  501  0.00000000000E+00  0.00000000000E+00 -0.41258311841E+03  0.41258311844E+03  0.50400001928E-02 0. -1.
    10030    2    1    2    0    0  0.00000000000E+00  0.00000000000E+00  0.11162137253E+04  0.19413799622E+04  0.15884026810E+04 0.  0.
        4    1    3    3  502    0  0.77383498636E+03  0.11380839933E+03  0.38971853830E+03  0.87387361206E+03  0.12699999809E+01 0. -1.
       -4    1    3    3    0  502 -0.77383498636E+03 -0.11380839933E+03  0.72649518700E+03  0.10675063501E+04  0.12699999809E+01 0.  1.
</event>
<event>
 5   0  0.2730707E-04  0.1600011E+04  0.7818609E-02  0.8820541E-01
        1   -1    0    0  501    0  0.00000000000E+00  0.00000000000E+00  0.97934385956E+03  0.97934385958E+03  0.50400001928E-02 0.  1.
       -1   -1    0    0    0  501  0.00000000000E+00  0.00000000000E+00 -0.65350787608E+03  0.65350787610E+03  0.50400001928E-02 0. -1.
    10030    2    1    2    0    0  0.00000000000E+00  0.00000000000E+00  0.32583598348E+03  0.16328517357E+04  0.16000111570E+04 0.  0.
        5    1    3    3  502    0  0.14715753486E+03  0.77781011807E+03  0.45035552484E+02  0.79290239679E+03  0.46999998093E+01 0. -1.
       -5    1    3    3    0  502 -0.14715753486E+03 -0.77781011807E+03  0.28080043100E+03  0.83994933889E+03  0.46999998093E+01 0.  1.
</event>
<event>
 5   0  0.5083831E-04  0.1590728E+04  0.7818609E-02  0.8826264E-01
        2   -1    0    0  501    0  0.00000000000E+00  0.00000000000E+00  0.12547594856E+04  0.12547594856E+04  0.25500000920E-02 0. -1.
       -2   -1    0    0    0  501  0.00000000000E+00  0.00000000000E+00 -0.50416363214E+03  0.50416363215E+03  0.25500000920E-02 0.  1.
    10030    2    1    2    0    0  0.00000000000E+00  0.00000000000E+00  0.75059585344E+03  0.17589231177E+04  0.15907282605E+04 0.  0.
        4    1    3    3  502    0  0.11010979324E+03 -0.78138986199E+02 -0.49139806144E+03  0.50961116100E+03  0.12699999809E+01 0.  1.
       -4    1    3    3    0  502 -0.11010979324E+03  0.78138986199E+02  0.12419939149E+04  0.12493119567E+04  0.12699999809E+01 0. -1.
</event>
<event>
 5   0  0.5083831E-04  0.1596688E+04  0.7818609E-02  0.8822585E-01
        2   -1    0    0  501    0  0.00000000000E+00  0.00000000000E+00  0.42188995134E+03  0.42188995134E+03  0.25500000920E-02 0.  1.
       -2   -1    0    0    0  501  0.00000000000E+00  0.00000000000E+00 -0.15107100837E+04  0.15107100837E+04  0.25500000920E-02 0. -1.
    10030    2    1    2    0    0  0.00000000000E+00  0.00000000000E+00 -0.10888201324E+04  0.19326000351E+04  0.15966883274E+04 0.  0.
        4    1    3    3  502    0 -0.18823590838E+03 -0.16590236503E+02  0.39442986871E+03  0.43736086631E+03  0.12699999809E+01 0.  1.
       -4    1    3    3    0  502  0.18823590838E+03  0.16590236503E+02 -0.14832500011E+04  0.14952391688E+04  0.12699999809E+01 0. -1.
</event>
<event>
 5   0  0.5264308E-04  0.1598500E+04  0.7818609E-02  0.8821470E-01
       -2   -1    0    0    0  501  0.00000000000E+00  0.00000000000E+00  0.10183717337E+04  0.10183717337E+04  0.25500000920E-02 0.  1.
        2   -1    0    0  501    0  0.00000000000E+00  0.00000000000E+00 -0.62727610520E+03  0.62727610521E+03  0.25500000920E-02 0. -1.
    10030    2    1    2    0    0  0.00000000000E+00  0.00000000000E+00  0.39109562852E+03  0.16456478389E+04  0.15984996150E+04 0.  0.
        3    1    3    3  502    0  0.65565056592E+03 -0.40437930442E+03 -0.23809486846E+02  0.77069266786E+03  0.10100000352E+00 0. -1.
       -3    1    3    3    0  502 -0.65565056592E+03  0.40437930442E+03  0.41490511537E+03  0.87495517107E+03  0.10100000352E+00 0.  1.
</event>
<event>
 5   0  0.2689675E-04  0.1605061E+04  0.7818609E-02  0.8817445E-01
       -1   -1    0    0    0  501  0.00000000000E+00  0.00000000000E+00  0.13296689245E+04  0.13296689245E+04  0.50400001928E-02 0. -1.
        1   -1    0    0  501    0  0.00000000000E+00  0.00000000000E+00 -0.48437280001E+03  0.48437280003E+03  0.50400001928E-02 0.  1.
    10030    2    1    2    0    0  0.00000000000E+00  0.00000000000E+00  0.84529612450E+03  0.18140417246E+04  0.16050613198E+04 0.  0.
        1    1    3    3  502    0  0.76112720154E+03  0.25327652409E+03  0.45014344751E+03  0.91983299459E+03  0.50400001928E-02 0. -1.
       -1    1    3    3    0  502 -0.76112720154E+03 -0.25327652409E+03  0.39515267700E+03  0.89420872996E+03  0.50400001928E-02 0.  1.
</event>
<event>
 5   0  0.5083831E-04  0.1609569E+04  0.7818609E-02  0.8814691E-01
       -2   -1    0    0    0  501  0.00000000000E+00  0.00000000000E+00  0.10859497815E+04  0.10859497815E+04  0.25500000920E-02 0. -1.
        2   -1    0    0  501    0  0.00000000000E+00  0.00000000000E+00 -0.59641617851E+03  0.59641617852E+03  0.25500000920E-02 0.  1.
    10030    2    1    2    0    0  0.00000000000E+00  0.00000000000E+00  0.48953360303E+03  0.16823659601E+04  0.16095689097E+04 0.  0.
        4    1    3    3  502    0 -0.24506037756E+03  0.63705257659E+03  0.69041372614E+03  0.97085699262E+03  0.12699999809E+01 0. -1.
       -4    1    3    3    0  502  0.24506037756E+03 -0.63705257659E+03 -0.20088012310E+03  0.71150896744E+03  0.12699999809E+01 0.  1.
</event>
<event>
 5   0  0.2763895E-04  0.1601719E+04  0.7818609E-02  0.8819493E-01
        1   -1    0    0  501    0  0.00000000000E+00  0.00000000000E+00  0.17380182621E+04  0.17380182621E+04  0.50400001928E-02 0.  1.
       -1   -1    0    0    0  501  0.00000000000E+00  0.00000000000E+00 -0.36902708867E+03  0.36902708871E+03  0.50400001928E-02 0. -1.
    10030    2    1    2    0    0  0.00000000000E+00  0.00000000000E+00  0.13689911734E+04  0.21070453508E+04  0.16017188510E+04 0.  0.
        4    1    3    3  502    0  0.31452925866E+03  0.71796431218E+03  0.46844741317E+03  0.91315168505E+03  0.12699999809E+01 0. -1.
       -4    1    3    3    0  502 -0.31452925866E+03 -0.71796431218E+03  0.90054376027E+03  0.11938936658E+04  0.12699999809E+01 0.  1.
</event>
<event>
 5   0  0.5131239E-04  0.1587981E+04  0.7818609E-02  0.8827966E-01
       -2   -1    0    0    0  501  0.00000000000E+00  0.00000000000E+00  0.64702449001E+03  0.64702449001E+03  0.25500000920E-02 0.  1.
        2   -1    0    0  501    0  0.00000000000E+00  0.00000000000E+00 -0.97433871776E+03  0.97433871777E+03  0.25500000920E-02 0. -1.
    10030    2    1    2    0    0  0.00000000000E+00  0.00000000000E+00 -0.32731422775E+03  0.16213632078E+04  0.15879811233E+04 0.  0.
        1    1    3    3  502    0  0.24849171520E+03 -0.19992903604E+03  0.57874662578E+03  0.66080814829E+03  0.50400001928E-02 0.  1.
       -1    1    3    3    0  502 -0.24849171520E+03  0.19992903604E+03 -0.90606085353E+03  0.96055505949E+03  0.50400001928E-02 0. -1.
</event>
<event>
 5   0  0.5381164E-04  0.1610126E+04  0.7818609E-02  0.8814351E-01
        2   -1    0    0  501    0  0.00000000000E+00  0.00000000000E+00  0.14986765241E+04  0.14986765241E+04  0.25500000920E-02 0. -1.
       -2   -1    0    0    0  501  0.00000000000E+00  0.00000000000E+00 -0.43246583418E+03  0.43246583419E+03  0.25500000920E-02 0.  1.
    10030    2    1    2    0    0  0.00000000000E+00  0.00000000000E+00  0.10662106899E+04  0.19311423583E+04  0.16101259493E+04 0.  0.
        5    1    3    3  502    0 -0.47650428268E+03 -0.69102402051E+02 -0.24072093239E+03  0.53833087472E+03  0.46999998093E+01 0.  1.
       -5    1    3    3    0  502  0.47650428268E+03  0.69102402051E+02  0.13069316223E+04  0.13928114836E+04  0.46999998093E+01 0. -1.
</event>
<event>
 5   0  0.2689675E-04  0.1578100E+04  0.7818609E-02  0.8834116E-01
        1   -1    0    0  501    0  0.00000000000E+00  0.00000000000E+00  0.11119586460E+04  0.11119586460E+04  0.50400001928E-02 0.  1.
       -1   -1    0    0    0  501  0.00000000000E+00  0.00000000000E+00 -0.55991284780E+03  0.55991284782E+03  0.50400001928E-02 0. -1.
    10030    2    1    2    0    0  0.00000000000E+00  0.00000000000E+00  0.55204579818E+03  0.16718714938E+04  0.15781000376E+04 0.  0.
        1    1    3    3  502    0  0.46481156788E+03 -0.58838613586E+03  0.15759071032E+02  0.74999759123E+03  0.50400001928E-02 0.  1.
       -1    1    3    3    0  502 -0.46481156788E+03  0.58838613586E+03  0.53628672715E+03  0.92187390258E+03  0.50400001928E-02 0. -1.
</event>
<event>
 5   0  0.2689675E-04  0.1604449E+04  0.7818609E-02  0.8817819E-01
       -1   -1    0    0    0  501  0.00000000000E+00  0.00000000000E+00  0.27945952796E+03  0.27945952800E+03  0.50400001928E-02 0. -1.
        1   -1    0    0  501    0  0.00000000000E+00  0.00000000000E+00 -0.23028885154E+04  0.23028885154E+04  0.50400001928E-02 0.  1.
    10030    2    1    2    0    0  0.00000000000E+00  0.00000000000E+00 -0.20234289875E+04  0.25823480434E+04  0.16044489864E+04 0.  0.
        1    1    3    3  502    0 -0.27678695348E+03 -0.59572878864E+03 -0.17528857675E+04  0.18719274348E+04  0.50400001928E-02 0.  1.
       -1    1    3    3    0  502  0.27678695348E+03  0.59572878864E+03 -0.27054321993E+03  0.71042060859E+03  0.50400001928E-02 0. -1.
</event>
<event>
 5   0  0.2763895E-04  0.1548591E+04  0.7818609E-02  0.8852768E-01
        1   -1    0    0  501    0  0.00000000000E+00  0.00000000000E+00  0.70770124398E+03  0.70770124400E+03  0.50400001928E-02 0.  1.
       -1   -1    0    0    0  501  0.00000000000E+00  0.00000000000E+00 -0.84715598728E+03  0.84715598730E+03  0.50400001928E-02 0. -1.
    10030    2    1    2    0    0  0.00000000000E+00  0.00000000000E+00 -0.13945474330E+03  0.15548572313E+04  0.15485907737E+04 0.  0.
        4    1    3    3  502    0 -0.20455723264E+02  0.73711595261E+03  0.16739213879E+03  0.75616142803E+03  0.12699999809E+01 0. -1.
       -4    1    3    3    0  502  0.20455723264E+02 -0.73711595261E+03 -0.30684688210E+03  0.79869580327E+03  0.12699999809E+01 0.  1.
</event>
<event>
 5   0  0.5083831E-04  0.1608041E+04  0.7818609E-02  0.8815623E-01
       -2   -1    0    0    0  501  0.00000000000E+00  0.00000000000E+00  0.10240329877E+04  0.10240329877E+04  0.25500000920E-02 0. -1.
        2   -1    0    0  501    0  0.00000000000E+00  0.00000000000E+00 -0.63127784408E+03  0.63127784408E+03  0.25500000920E-02 0.  1.
    10030    2    1    2    0    0  0.00000000000E+00  0.00000000000E+00  0.39275514358E+03  0.16553108317E+04  0.16080414630E+04 0.  0.
        4    1    3    3  502    0  0.43210421732E+03  0.61490247791E+03 -0.97728181145E+02  0.75787302515E+03  0.12699999809E+01 0.  1.
       -4    1    3    3    0  502 -0.43210421732E+03 -0.61490247791E+03  0.49048332473E+03  0.89743780659E+03  0.12699999809E+01 0. -1.
</event>
<event>
 5   0  0.2689675E-04  0.1564821E+04  0.7818609E-02  0.8842456E-01
       -1   -1    0    0    0  501  0.00000000000E+00  0.00000000000E+00  0.63885431392E+03  0.63885431394E+03  0.50400001928E-02 0.  1.
        1   -1    0    0  501    0  0.00000000000E+00  0.00000000000E+00 -0.95822561220E+03  0.95822561222E+03  0.50400001928E-02 0. -1.
    10030    2    1    2    0    0  0.00000000000E+00  0.00000000000E+00 -0.31937129828E+03  0.15970799262E+04  0.15648214800E+04 0.  0.
        1    1    3    3  502    0  0.42480953666E+03  0.56963729556E+03 -0.49387547363E+03  0.86536857721E+03  0.50400001928E-02 0. -1.
       -1    1    3    3    0  502 -0.42480953666E+03 -0.56963729556E+03  0.17450417535E+03  0.73171134895E+03  0.50400001928E-02 0.  1.
</event>
<event>
 5   0  0.5131239E-04  0.1538335E+04  0.7818609E-02  0.8859353E-01
        2   -1    0    0  501    0  0.00000000000E+00  0.00000000000E+00  0.11142155532E+04  0.11142155532E+04  0.25500000920E-02 0.  1.
       -2   -1    0    0    0  501  0.00000000000E+00  0.00000000000E+00 -0.53097337638E+03  0.53097337639E+03  0.25500000920E-02 0. -1.
    10030    2    1    2    0    0  0.00000000000E+00  0.00000000000E+00  0.58324217678E+03  0.16451889295E+04  0.15383351966E+04 0.  0.
        1    1    3    3  502    0  0.68460717780E+03  0.23268768456E+03  0.57211402248E+03  0.92203308031E+03  0.50400001928E-02 0.  1.
       -1    1    3    3    0  502 -0.68460717780E+03 -0.23268768456E+03  0.11128154298E+02  0.72315584924E+03  0.50400001928E-02 0. -1.
</event>
<event>
 5   0  0.1908125E-04  0.1609666E+04  0.7818609E-02  0.8814632E-01
       -3   -1    0    0    0  501  0.00000000000E+00  0.00000000000E+00  0.35877498956E+03  0.35877500378E+03  0.10100000352E+00 0.  1.
        3   -1    0    0  501    0  0.00000000000E+00  0.00000000000E+00 -0.18054658833E+04  0.18054658861E+04  0.10100000352E+00 0. -1.
    10030    2    1    2    0    0  0.00000000000E+00  0.00000000000E+00 -0.14466908937E+04  0.21642408899E+04  0.16096658310E+04 0.  0.
        5    1    3    3  502    0 -0.12573070008E+03 -0.39486478206E+03 -0.16509797132E+04  0.17021993151E+04  0.46999998093E+01 0. -1.
       -5    1    3    3    0  502  0.12573070008E+03  0.39486478206E+03  0.20428881947E+03  0.46204157477E+03  0.46999998093E+01 0.  1.
</event>
<event>
 5   0  0.1908125E-04  0.1606919E+04  0.7818609E-02  0.8816309E-01
        3   -1    0    0  501    0  0.00000000000E+00  0.00000000000E+00  0.76538637115E+03  0.76538637782E+03  0.10100000352E+00 0.  1.
       -3   -1    0    0    0  501  0.00000000000E+00  0.00000000000E+00 -0.84342646385E+03  0.84342646989E+03  0.10100000352E+00 0. -1.
    10030    2    1    2    0    0  0.00000000000E+00  0.00000000000E+00 -0.78040092694E+02  0.16088128477E+04  0.16069189534E+04 0.  0.
        2    1    3    3  502    0 -0.36516785774E+03 -0.59080618174E+02 -0.75309908233E+03  0.83904488055E+03  0.25500000920E-02 0. -1.
       -2    1    3    3    0  502  0.36516785774E+03  0.59080618174E+02  0.67505898964E+03  0.76976796716E+03  0.25500000920E-02 0.  1.
</event>
<event>
 5   0  0.5264308E-04  0.1595887E+04  0.7818609E-02  0.8823079E-01
        2   -1    0    0  501    0  0.00000000000E+00  0.00000000000E+00  0.20146140708E+04  0.20146140708E+04  0.25500000920E-02 0.  1.
       -2   -1    0    0    0  501  0.00000000000E+00  0.00000000000E+00 -0.31604754147E+03  0.31604754148E+03  0.25500000920E-02 0. -1.
    10030    2    1    2    0    0  0.00000000000E+00  0.00000000000E+00  0.16985665294E+04  0.23306616123E+04  0.15958869936E+04 0.  0.
        3    1    3    3  502    0  0.30095985107E+03  0.68011122186E+03  0.42705908542E+03  0.85761738479E+03  0.10100000352E+00 0. -1.
       -3    1    3    3    0  502 -0.30095985107E+03 -0.68011122186E+03  0.12715074439E+04  0.14730442275E+04  0.10100000352E+00 0.  1.
</event>
<event>
 5   0  0.2689675E-04  0.1572796E+04  0.7818609E-02  0.8837437E-01
       -1   -1    0    0    0  501  0.00000000000E+00  0.00000000000E+00  0.38852838389E+03  0.38852838393E+03  0.50400001928E-02 0.  1.
        1   -1    0    0  501    0  0.00000000000E+00  0.00000000000E+00 -0.15917020479E+04  0.15917020479E+04  0.50400001928E-02 0. -1.
    10030    2    1    2    0    0  0.00000000000E+00  0.00000000000E+00 -0.12031736640E+04  0.19802304318E+04  0.15727955040E+04 0.  0.
        1    1    3    3  502    0 -0.63973177884E+03 -0.79162030040E+02 -0.34457112568E+02  0.64553130713E+03  0.50400001928E-02 0.  1.
       -1    1    3    3    0  502  0.63973177884E+03  0.79162030040E+02 -0.11687165514E+04  0.13346991247E+04  0.50400001928E-02 0. -1.
</event>
<event>
 5   0  0.1908125E-04  0.1592023E+04  0.7818609E-02  0.8825464E-01
       -3   -1    0    0    0  501  0.00000000000E+00  0.00000000000E+00  0.14537056120E+04  0.14537056155E+04  0.10100000352E+00 0.  1.
        3   -1    0    0  501    0  0.00000000000E+00  0.00000000000E+00 -0.43587526768E+03  0.43587527938E+03  0.10100000352E+00 0. -1.
    10030    2    1    2    0    0  0.00000000000E+00  0.00000000000E+00  0.10178303443E+04  0.18895808949E+04  0.15920230364E+04 0.  0.
        2    1    3    3  502    0 -0.64303349924E+03 -0.62824909809E+02 -0.42957961712E+02  0.64752176560E+03  0.25500000920E-02 0. -1.
       -2    1    3    3    0  502  0.64303349924E+03  0.62824909809E+02  0.10607883060E+04  0.12420591293E+04  0.25500000920E-02 0.  1.
</event>
<event>
 5   0  0.5381164E-04  0.1629656E+04  0.7818609E-02  0.8802534E-01
        2   -1    0    0  501    0  0.00000000000E+00  0.00000000000E+00  0.71040733302E+03  0.71040733302E+03  0.25500000920E-02 0. -1.
       -2   -1    0    0    0  501  0.00000000000E+00  0.00000000000E+00 -0.93459716044E+03  0.93459716044E+03  0.25500000920E-02 0.  1.
    10030    2    1    2    0    0  0.00000000000E+00  0.00000000000E+00 -0.22418982742E+03  0.16450044935E+04  0.16296560081E+04 0.  0.
        5    1    3    3  502    0  0.59198988380E+02  0.59023489445E+03 -0.67596215251E+03  0.89934902706E+03  0.46999998093E+01 0.  1.
       -5    1    3    3    0  502 -0.59198988380E+02 -0.59023489445E+03  0.45177232509E+03  0.74565546640E+03  0.46999998093E+01 0. -1.
</event>
<event>
 5   0  0.2689675E-04  0.1593921E+04  0.7818609E-02  0.8824292E-01
       -1   -1    0    0    0  501  0.00000000000E+00  0.00000000000E+00  0.35391617157E+03  0.35391617161E+03  0.50400001928E-02 0.  1.
        1   -1    0    0  501    0  0.00000000000E+00  0.00000000000E+00 -0.17946217379E+04  0.17946217379E+04  0.50400001928E-02 0. -1.
    10030    2    1    2    0    0  0.00000000000E+00  0.00000000000E+00 -0.14407055663E+04  0.21485379095E+04  0.15939205186E+04 0.  0.
        1    1    3    3  502    0 -0.20556367694E+03 -0.40122640624E+03 -0.16062254055E+04  0.16682922728E+04  0.50400001928E-02 0. -1.
       -1    1    3    3    0  502  0.20556367694E+03  0.40122640624E+03  0.16551983919E+03  0.48024563666E+03  0.50400001928E-02 0.  1.
</event>
<event>
 5   0  0.2730707E-04  0.1600533E+04  0.7818609E-02  0.8820221E-01
        1   -1    0    0  501    0  0.00000000000E+00  0.00000000000E+00  0.10952661317E+04  0.10952661317E+04  0.50400001928E-02 0. -1.
       -1   -1    0    0    0  501  0.00000000000E+00  0.00000000000E+00 -0.58472216777E+03  0.58472216779E+03  0.50400001928E-02 0.  1.
    10030    2    1    2    0    0  0.00000000000E+00  0.00000000000E+00  0.51054396392E+03  0.16799882995E+04  0.16005328948E+04 0.  0.
        5    1    3    3  502    0  0.31669562588E+03 -0.35336977710E+03 -0.42110712887E+03  0.63444434177E+03  0.46999998093E+01 0.  1.
       -5    1    3    3    0  502 -0.31669562588E+03  0.35336977710E+03  0.93165109279E+03  0.10455439577E+04  0.46999998093E+01 0. -1.
</event>
<event>
 5   0  0.2796994E-04  0.1595527E+04  0.7818609E-02  0.8823300E-01
        1   -1    0    0  501    0  0.00000000000E+00  0.00000000000E+00  0.49616833387E+03  0.49616833389E+03  0.50400001928E-02 0.  1.
       -1   -1    0    0    0  501  0.00000000000E+00  0.00000000000E+00 -0.12826835928E+04  0.12826835928E+04  0.50400001928E-02 0. -1.
    10030    2    1    2    0    0  0.00000000000E+00  0.00000000000E+00 -0.78651525895E+03  0.17788519267E+04  0.15955274754E+04 0.  0.
        3    1    3    3  502    0  0.16525155091E+03  0.84652811616E+02 -0.12582588690E+04  0.12718842578E+04  0.10100000352E+00 0. -1.
       -3    1    3    3    0  502 -0.16525155091E+03 -0.84652811616E+02  0.47174361001E+03  0.50696766897E+03  0.10100000352E+00 0.  1.
</event>
<event>
 5   0  0.5083831E-04  0.1635815E+04  0.7818609E-02  0.8798842E-01
        2   -1    0    0  501    0  0.00000000000E+00  0.00000000000E+00  0.10318316053E+04  0.10318316053E+04  0.25500000920E-02 0.  1.
       -2   -1    0    0    0  501  0.00000000000E+00  0.00000000000E+00 -0.64833548005E+03  0.64833548006E+03  0.25500000920E-02 0. -1.
    10030    2    1    2    0    0  0.00000000000E+00  0.00000000000E+00  0.38349612525E+03  0.16801670854E+04  0.16358154409E+04 0.  0.
        4    1    3    3  502    0 -0.49596047270E+03  0.14481501716E+03  0.84299208873E+03  0.98872921179E+03  0.12699999809E+01 0.  1.
       -4    1    3    3    0  502  0.49596047270E+03 -0.14481501716E+03 -0.45949596348E+03  0.69143787358E+03  0.12699999809E+01 0. -1.
</event>
<event>
 5   0  0.2649086E-04  0.1508123E+04  0.7818609E-02  0.8879069E-01
        1   -1    0    0  501    0  0.00000000000E+00  0.00000000000E+00  0.69438066093E+03  0.69438066095E+03  0.50400001928E-02 0.  1.
       -1   -1    0    0    0  501  0.00000000000E+00  0.00000000000E+00 -0.81887157227E+03  0.81887157228E+03  0.50400001928E-02 0. -1.
    10030    2    1    2    0    0  0.00000000000E+00  0.00000000000E+00 -0.12449091134E+03  0.15132522332E+04  0.15081227849E+04 0.  0.
        2    1    3    3  502    0 -0.73946844837E+03 -0.94087851495E+02 -0.17639738787E+03  0.76601706795E+03  0.25500000920E-02 0. -1.
       -2    1    3    3    0  502  0.73946844837E+03  0.94087851495E+02  0.51906476535E+02  0.74723516529E+03  0.25500000920E-02 0.  1.
</event>
<event>
 5   0  0.1908125E-04  0.1541359E+04  0.7818609E-02  0.8857406E-01
        3   -1    0    0  501    0  0.00000000000E+00  0.00000000000E+00  0.51784226489E+03  0.51784227474E+03  0.10100000352E+00 0.  1.
       -3   -1    0    0    0  501  0.00000000000E+00  0.00000000000E+00 -0.11469655700E+04  0.11469655745E+04  0.10100000352E+00 0. -1.
    10030    2    1    2    0    0  0.00000000000E+00  0.00000000000E+00 -0.62912330512E+03  0.16648078492E+04  0.15413594784E+04 0.  0.
        3    1    3    3  502    0  0.51107921102E+03  0.47629629800E+03  0.36903085517E+02  0.69958700056E+03  0.10100000352E+00 0.  1.
       -3    1    3    3    0  502 -0.51107921102E+03 -0.47629629800E+03 -0.66602639063E+03  0.96522084864E+03  0.10100000352E+00 0. -1.
</event>
<event>
 5   0  0.5131239E-04  0.1555368E+04  0.7818609E-02  0.8848446E-01
        2   -1    0    0  501    0  0.00000000000E+00  0.00000000000E+00  0.14381753786E+04  0.14381753786E+04  0.25500000920E-02 0. -1.
       -2   -1    0    0    0  501  0.00000000000E+00  0.00000000000E+00 -0.42052778838E+03  0.42052778838E+03  0.25500000920E-02 0.  1.
    10030    2    1    2    0    0  0.00000000000E+00  0.00000000000E+00  0.10176475903E+04  0.18587031670E+04  0.15553683953E+04 0.  0.
        1    1    3    3  502    0 -0.23169014319E+03 -0.47597219123E+02  0.13941480737E+04  0.14140702490E+04  0.50400001928E-02 0. -1.
       -1    1    3    3    0  502  0.23169014319E+03  0.47597219123E+02 -0.37650048344E+03  0.44463291801E+03  0.50400001928E-02 0.  1.
</event>
<event>
 5   0  0.5083831E-04  0.1667499E+04  0.7818609E-02  0.8780121E-01
       -2   -1    0    0    0  501  0.00000000000E+00  0.00000000000E+00  0.33230223518E+03  0.33230223518E+03  0.25500000920E-02 0. -1.
        2   -1    0    0  501    0  0.00000000000E+00  0.00000000000E+00 -0.20918846231E+04  0.20918846231E+04  0.25500000920E-02 0.  1.
    10030    2    1    2    0    0  0.00000000000E+00  0.00000000000E+00 -0.17595823879E+04  0.24241868583E+04  0.16674986489E+04 0.  0.
        4    1    3    3  502    0  0.57371018242E+03  0.60463750838E+03 -0.90909980003E+03  0.12333669159E+04  0.12699999809E+01 0.  1.
       -4    1    3    3    0  502 -0.57371018242E+03 -0.60463750838E+03 -0.85048258791E+03  0.11908199424E+04  0.12699999809E+01 0. -1.
</event>
<event>
 5   0  0.5083831E-04  0.1593962E+04  0.7818609E-02  0.8824266E-01
       -2   -1    0    0    0  501  0.00000000000E+00  0.00000000000E+00  0.35775137443E+03  0.35775137444E+03  0.25500000920E-02 0. -1.
        2   -1    0    0  501    0  0.00000000000E+00  0.00000000000E+00 -0.17754760209E+04  0.17754760209E+04  0.25500000920E-02 0.  1.
    10030    2    1    2    0    0  0.00000000000E+00  0.00000000000E+00 -0.14177246465E+04  0.21332273954E+04  0.15939623418E+04 0.  0.
        4    1    3    3  502    0  0.59845278517E+03 -0.52220227169E+03 -0.62073206820E+03  0.10080430854E+04  0.12699999809E+01 0. -1.
       -4    1    3    3    0  502 -0.59845278517E+03  0.52220227169E+03 -0.79699257827E+03  0.11251843100E+04  0.12699999809E+01 0.  1.
</event>
<event>
 5   0  0.5083831E-04  0.1594753E+04  0.7818609E-02  0.8823778E-01
        2   -1    0    0  501    0  0.00000000000E+00  0.00000000000E+00  0.10734917344E+04  0.10734917344E+04  0.25500000920E-02 0.  1.
       -2   -1    0    0    0  501  0.00000000000E+00  0.00000000000E+00 -0.59228136856E+03  0.59228136856E+03  0.25500000920E-02 0. -1.
    10030    2    1    2    0    0  0.00000000000E+00  0.00000000000E+00  0.48121036581E+03  0.16657731029E+04  0.15947528380E+04 0.  0.
        4    1    3    3  502    0  0.61155866440E+03  0.77867375573E+02  0.76883385690E+03  0.98548183170E+03  0.12699999809E+01 0.  1.
       -4    1    3    3    0  502 -0.61155866440E+03 -0.77867375573E+02 -0.28762349109E+03  0.68029127123E+03  0.12699999809E+01 0. -1.
</event>
<event>
 5   0  0.5264308E-04  0.1609213E+04  0.7818609E-02  0.8814908E-01
       -2   -1    0    0    0  501  0.00000000000E+00  0.00000000000E+00  0.39696078238E+03  0.39696078239E+03  0.25500000920E-02 0.  1.
        2   -1    0    0  501    0  0.00000000000E+00  0.00000000000E+00 -0.16308712372E+04  0.16308712372E+04  0.25500000920E-02 0. -1.
    10030    2    1    2    0    0  0.00000000000E+00  0.00000000000E+00 -0.12339104548E+04  0.20278320196E+04  0.16092133759E+04 0.  0.
        3    1    3    3  502    0  0.64041525794E+02  0.76413950248E+03 -0.30988082410E+03  0.82706507097E+03  0.10100000352E+00 0.  1.
       -3    1    3    3    0  502 -0.64041525794E+02 -0.76413950248E+03 -0.92402963074E+03  0.12007669486E+04  0.10100000352E+00 0. -1.
</event>
<event>
 5   0  0.2796994E-04  0.1597894E+04  0.7818609E-02  0.8821843E-01
        1   -1    0    0  501    0  0.00000000000E+00  0.00000000000E+00  0.76717507260E+03  0.76717507262E+03  0.50400001928E-02 0. -1.
       -1   -1    0    0    0  501  0.00000000000E+00  0.00000000000E+00 -0.83203426590E+03  0.83203426591E+03  0.50400001928E-02 0.  1.
    10030    2    1    2    0    0  0.00000000000E+00  0.00000000000E+00 -0.64859193298E+02  0.15992093385E+04  0.15978935489E+04 0.  0.
        3    1    3    3  502    0 -0.21933689980E+03  0.52966776723E+03 -0.58935823521E+03  0.82219204501E+03  0.10100000352E+00 0. -1.
       -3    1    3    3    0  502  0.21933689980E+03 -0.52966776723E+03  0.52449904191E+03  0.77701729352E+03  0.10100000352E+00 0.  1.
</event>
<event>
 5   0  0.2763895E-04  0.1560233E+04  0.7818609E-02  0.8845358E-01
       -1   -1    0    0    0  501  0.00000000000E+00  0.00000000000E+00  0.60837414964E+03  0.60837414966E+03  0.50400001928E-02 0. -1.
        1   -1    0    0  501    0  0.00000000000E+00  0.00000000000E+00 -0.10003413853E+04  0.10003413853E+04  0.50400001928E-02 0.  1.
    10030    2    1    2    0    0  0.00000000000E+00  0.00000000000E+00 -0.39196723568E+03  0.16087155350E+04  0.15602331104E+04 0.  0.
        4    1    3    3  502    0  0.66092338462E+02  0.50917286526E+03 -0.80156289079E+03  0.95190854850E+03  0.12699999809E+01 0.  1.
       -4    1    3    3    0  502 -0.66092338462E+02 -0.50917286526E+03  0.40959565511E+03  0.65680698649E+03  0.12699999809E+01 0. -1.
</event>
<event>
 5   0  0.5264308E-04  0.1538554E+04  0.7818609E-02  0.8859212E-01
        2   -1    0    0  501    0  0.00000000000E+00  0.00000000000E+00  0.14645057619E+04  0.14645057619E+04  0.25500000920E-02 0.  1.
       -2   -1    0    0    0  501  0.00000000000E+00  0.00000000000E+00 -0.40408636331E+03  0.40408636332E+03  0.25500000920E-02 0. -1.
    10030    2    1    2    0    0  0.00000000000E+00  0.00000000000E+00  0.10604193986E+04  0.18685921252E+04  0.15385536161E+04 0.  0.
        3    1    3    3  502    0 -0.33786035680E+03  0.27658143967E+03 -0.23900894323E+03  0.49776721328E+03  0.10100000352E+00 0. -1.
       -3    1    3    3    0  502  0.33786035680E+03 -0.27658143967E+03  0.12994283418E+04  0.13708249119E+04  0.10100000352E+00 0.  1.
</event>
<event>
 5   0  0.5315984E-04  0.1572517E+04  0.7818609E-02  0.8837612E-01
       -2   -1    0    0    0  501  0.00000000000E+00  0.00000000000E+00  0.56417693236E+03  0.56417693236E+03  0.25500000920E-02 0.  1.
        2   -1    0    0  501    0  0.00000000000E+00  0.00000000000E+00 -0.10957599249E+04  0.10957599249E+04  0.25500000920E-02 0. -1.
    10030    2    1    2    0    0  0.00000000000E+00  0.00000000000E+00 -0.53158299250E+03  0.16599368572E+04  0.15725170562E+04 0.  0.
        2    1    3    3  502    0 -0.22390905631E+03  0.60319335701E+03  0.21124393417E+03  0.67720121911E+03  0.25500000920E-02 0.  1.
       -2    1    3    3    0  502  0.22390905631E+03 -0.60319335701E+03 -0.74282692667E+03  0.98273563811E+03  0.25500000920E-02 0. -1.
</event>
<event>
 5   0  0.2689675E-04  0.1541790E+04  0.7818609E-02  0.8857129E-01
        1   -1    0    0  501    0  0.00000000000E+00  0.00000000000E+00  0.25664052162E+04  0.25664052162E+04  0.50400001928E-02 0. -1.
       -1   -1    0    0    0  501  0.00000000000E+00  0.00000000000E+00 -0.23156102222E+03  0.23156102228E+03  0.50400001928E-02 0.  1.
    10030    2    1    2    0    0  0.00000000000E+00  0.00000000000E+00  0.23348441940E+04  0.27979662385E+04  0.15417904078E+04 0.  0.
        1    1    3    3  502    0  0.71579377388E+03  0.86218827916E+02  0.16627029606E+04  0.18122846212E+04  0.50400001928E-02 0. -1.
       -1    1    3    3    0  502 -0.71579377388E+03 -0.86218827916E+02  0.67214123339E+03  0.98568161729E+03  0.50400001928E-02 0.  1.
</event>
<event>
 5   0  0.5131239E-04  0.1590072E+04  0.7818609E-02  0.8826670E-01
        2   -1    0    0  501    0  0.00000000000E+00  0.00000000000E+00  0.19108650535E+04  0.19108650535E+04  0.25500000920E-02 0.  1.
       -2   -1    0    0    0  501  0.00000000000E+00  0.00000000000E+00 -0.33078334485E+03  0.33078334486E+03  0.25500000920E-02 0. -1.
    10030    2    1    2    0    0  0.00000000000E+00  0.00000000000E+00  0.15800817086E+04  0.22416483983E+04  0.15900721165E+04 0.  0.
        1    1    3    3  502    0  0.53086831786E+03  0.49369584942E+03  0.12501677384E+04  0.14451560943E+04  0.50400001928E-02 0.  1.
       -1    1    3    3    0  502 -0.53086831786E+03 -0.49369584942E+03  0.32991397020E+03  0.79649230405E+03  0.50400001928E-02 0. -1.
</event>
<event>
 5   0  0.2649086E-04  0.1599694E+04  0.7818609E-02  0.8820736E-01
        1   -1    0    0  501    0  0.00000000000E+00  0.00000000000E+00  0.73019531156E+03  0.73019531158E+03  0.50400001928E-02 0. -1.
       -1   -1    0    0    0  501  0.00000000000E+00  0.00000000000E+00 -0.87614296193E+03  0.87614296195E+03  0.50400001928E-02 0.  1.
    10030    2    1    2    0    0  0.00000000000E+00  0.00000000000E+00 -0.14594765037E+03  0.16063382735E+04  0.15996943247E+04 0.  0.
        2    1    3    3  502    0  0.21739182717E+03 -0.23556439680E+03 -0.80882408494E+03  0.87002654669E+03  0.25500000920E-02 0.  1.
       -2    1    3    3    0  502 -0.21739182717E+03  0.23556439680E+03  0.66287643457E+03  0.73631172683E+03  0.25500000920E-02 0. -1.
</event>
<event>
 5   0  0.5381164E-04  0.1599359E+04  0.7818609E-02  0.8820942E-01
       -2   -1    0    0    0  501  0.00000000000E+00  0.00000000000E+00  0.13327259760E+04  0.13327259760E+04  0.25500000920E-02 0. -1.
        2   -1    0    0  501    0  0.00000000000E+00  0.00000000000E+00 -0.47983418399E+03  0.47983418400E+03  0.25500000920E-02 0.  1.
    10030    2    1    2    0    0  0.00000000000E+00  0.00000000000E+00  0.85289179203E+03  0.18125601600E+04  0.15993592232E+04 0.  0.
        5    1    3    3  502    0  0.45471912371E+03  0.38333034769E+03  0.10322641895E+04  0.11913450734E+04  0.46999998093E+01 0. -1.
       -5    1    3    3    0  502 -0.45471912371E+03 -0.38333034769E+03 -0.17937239745E+03  0.62121508666E+03  0.46999998093E+01 0.  1.
</event>
<event>
 5   0  0.2649086E-04  0.1596119E+04  0.7818609E-02  0.8822936E-01
        1   -1    0    0  501    0  0.00000000000E+00  0.00000000000E+00  0.25097622768E+04  0.25097622768E+04  0.50400001928E-02 0.  1.
       -1   -1    0    0    0  501  0.00000000000E+00  0.00000000000E+00 -0.25376874596E+03  0.25376874601E+03  0.50400001928E-02 0. -1.
    10030    2    1    2    0    0  0.00000000000E+00  0.00000000000E+00  0.22559935309E+04  0.27635310228E+04  0.15961193260E+04 0.  0.
        2    1    3    3  502    0 -0.73604203799E+03  0.23902355260E+03  0.79044320163E+03  0.11062054942E+04  0.25500000920E-02 0. -1.
       -2    1    3    3    0  502  0.73604203799E+03 -0.23902355260E+03  0.14655503292E+04  0.16573255286E+04  0.25500000920E-02 0.  1.
</event>
<event>
 5   0  0.2796994E-04  0.1601726E+04  0.7818609E-02  0.8819488E-01
        1   -1    0    0  501    0  0.00000000000E+00  0.00000000000E+00  0.92586973708E+03  0.92586973709E+03  0.50400001928E-02 0. -1.
       -1   -1    0    0    0  501  0.00000000000E+00  0.00000000000E+00 -0.69273422302E+03  0.69273422304E+03  0.50400001928E-02 0.  1.
    10030    2    1    2    0    0  0.00000000000E+00  0.00000000000E+00  0.23313551406E+03  0.16186039601E+04  0.16017261351E+04 0.  0.
        3    1    3    3  502    0  0.19365781121E+03 -0.49798786073E+03  0.71941603378E+03  0.89613319163E+03  0.10100000352E+00 0. -1.
       -3    1    3    3    0  502 -0.19365781121E+03  0.49798786073E+03 -0.48628051972E+03  0.72247076850E+03  0.10100000352E+00 0.  1.
</event>
<event>
 5   0  0.2730707E-04  0.1656422E+04  0.7818609E-02  0.8786616E-01
        1   -1    0    0  501    0  0.00000000000E+00  0.00000000000E+00  0.18125805174E+04  0.18125805174E+04  0.50400001928E-02 0.  1.
       -1   -1    0    0    0  501  0.00000000000E+00  0.00000000000E+00 -0.37842912187E+03  0.37842912190E+03  0.50400001928E-02 0. -1.
    10030    2    1    2    0    0  0.00000000000E+00  0.00000000000E+00  0.14341513956E+04  0.21910096393E+04  0.16564217501E+04 0.  0.
        5    1    3    3  502    0 -0.60063592416E+03 -0.36175549630E+03  0.13404946737E+03  0.71387807236E+03  0.46999998093E+01 0. -1.
       -5    1    3    3    0  502  0.60063592416E+03  0.36175549630E+03  0.13001019282E+04  0.14771315670E+04  0.46999998093E+01 0.  1.
</event>
<event>
 5   0  0.5131239E-04  0.1617810E+04  0.7818609E-02  0.8809681E-01
       -2   -1    0    0    0  501  0.00000000000E+00  0.00000000000E+00  0.48277824949E+03  0.48277824950E+03  0.25500000920E-02 0. -1.
        2   -1    0    0  501    0  0.00000000000E+00  0.00000000000E+00 -0.13553367308E+04  0.13553367308E+04  0.25500000920E-02 0.  1.
    10030    2    1    2    0    0  0.00000000000E+00  0.00000000000E+00 -0.87255848135E+03  0.18381149803E+04  0.16178097470E+04 0.  0.
        1    1    3    3  502    0  0.18140229082E+03  0.70975571828E+03 -0.82601727954E+03  0.11040672610E+04  0.50400001928E-02 0.  1.
       -1    1    3    3    0  502 -0.18140229082E+03 -0.70975571828E+03 -0.46541201810E+02  0.73404771932E+03  0.50400001928E-02 0. -1.
</event>
<event>
 5   0  0.2796994E-04  0.1575122E+04  0.7818609E-02  0.8835979E-01
       -1   -1    0    0    0  501  0.00000000000E+00  0.00000000000E+00  0.72332719604E+03  0.72332719605E+03  0.50400001928E-02 0.  1.
        1   -1    0    0  501    0  0.00000000000E+00  0.00000000000E+00 -0.85749878647E+03  0.85749878648E+03  0.50400001928E-02 0. -1.
    10030    2    1    2    0    0  0.00000000000E+00  0.00000000000E+00 -0.13417159043E+03  0.15808259825E+04  0.15751218275E+04 0.  0.
        3    1    3    3  502    0 -0.73985287687E+03 -0.26843802440E+03 -0.95665759317E+02  0.79283869738E+03  0.10100000352E+00 0.  1.
       -3    1    3    3    0  502  0.73985287687E+03  0.26843802440E+03 -0.38505831115E+02  0.78798728516E+03  0.10100000352E+00 0. -1.
</event>
<event>
 5   0  0.5315984E-04  0.1611727E+04  0.7818609E-02  0.8813376E-01
       -2   -1    0    0    0  501  0.00000000000E+00  0.00000000000E+00  0.14215067690E+04  0.14215067690E+04  0.25500000920E-02 0.  1.
        2   -1    0    0  501    0  0.00000000000E+00  0.00000000000E+00 -0.45685019209E+03  0.45685019210E+03  0.25500000920E-02 0. -1.
    10030    2    1    2    0    0  0.00000000000E+00  0.00000000000E+00  0.96465657690E+03  0.18783569611E+04  0.16117265779E+04 0.  0.
        2    1    3    3  502    0 -0.16790028147E+03 -0.20187235345E+03 -0.40559951792E+03  0.48317069504E+03  0.25500000920E-02 0. -1.
       -2    1    3    3    0  502  0.16790028147E+03  0.20187235345E+03  0.13702560948E+04  0.13951862661E+04  0.25500000920E-02 0.  1.
</event>
<event>
 5   0  0.2763895E-04  0.1575797E+04  0.7818609E-02  0.8835556E-01
        1   -1    0    0  501    0  0.00000000000E+00  0.00000000000E+00  0.57438853893E+03  0.57438853896E+03  0.50400001928E-02 0. -1.
       -1   -1    0    0    0  501  0.00000000000E+00  0.00000000000E+00 -0.10807737641E+04  0.10807737641E+04  0.50400001928E-02 0.  1.
    10030    2    1    2    0    0  0.00000000000E+00  0.00000000000E+00 -0.50638522513E+03  0.16551623030E+04  0.15757970216E+04 0.  0.
        4    1    3    3  502    0  0.46380099152E+03 -0.56377421522E+03  0.58094450863E+02  0.73234507140E+03  0.12699999809E+01 0. -1.
       -4    1    3    3    0  502 -0.46380099152E+03  0.56377421522E+03 -0.56447967600E+03  0.92281723163E+03  0.12699999809E+01 0.  1.
</event>
<event>
 5   0  0.2730707E-04  0.1571769E+04  0.7818609E-02  0.8838082E-01
       -1   -1    0    0    0  501  0.00000000000E+00  0.00000000000E+00  0.85078069430E+03  0.85078069432E+03  0.50400001928E-02 0.  1.
        1   -1    0    0  501    0  0.00000000000E+00  0.00000000000E+00 -0.72593812864E+03  0.72593812865E+03  0.50400001928E-02 0. -1.
    10030    2    1    2    0    0  0.00000000000E+00  0.00000000000E+00  0.12484256567E+03  0.15767188230E+04  0.15717686154E+04 0.  0.
        5    1    3    3  502    0  0.51561151765E+03 -0.10763468389E+03  0.64748328642E+03  0.83468386740E+03  0.46999998093E+01 0.  1.
       -5    1    3    3    0  502 -0.51561151765E+03  0.10763468389E+03 -0.52264072075E+03  0.74203495557E+03  0.46999998093E+01 0. -1.
</event>
<event>
 5   0  0.5381164E-04  0.1600373E+04  0.7818609E-02  0.8820319E-01
        2   -1    0    0  501    0  0.00000000000E+00  0.00000000000E+00  0.19366452758E+04  0.19366452758E+04  0.25500000920E-02 0.  1.
       -2   -1    0    0    0  501  0.00000000000E+00  0.00000000000E+00 -0.33062241120E+03  0.33062241121E+03  0.25500000920E-02 0. -1.
    10030    2    1    2    0    0  0.00000000000E+00  0.00000000000E+00  0.16060228646E+04  0.22672676870E+04  0.16003728700E+04 0.  0.
        5    1    3    3  502    0 -0.64323703995E+03 -0.47414541346E+03  0.74445342062E+03  0.10921541778E+04  0.46999998093E+01 0. -1.
       -5    1    3    3    0  502  0.64323703995E+03  0.47414541346E+03  0.86156944396E+03  0.11751135092E+04  0.46999998093E+01 0.  1.
</event>
<event>
 5   0  0.2730707E-04  0.1627787E+04  0.7818609E-02  0.8803657E-01
       -1   -1    0    0    0  501  0.00000000000E+00  0.00000000000E+00  0.12193982186E+04  0.12193982186E+04  0.50400001928E-02 0. -1.
        1   -1    0    0  501    0  0.00000000000E+00  0.00000000000E+00 -0.54323720240E+03  0.54323720242E+03  0.50400001928E-02 0.  1.
    10030    2    1    2    0    0  0.00000000000E+00  0.00000000000E+00  0.67616101618E+03  0.17626354210E+04  0.16277868127E+04 0.  0.
        5    1    3    3  502    0 -0.11986883338E+02  0.10360467231E+03  0.12121174076E+04  0.12166052414E+04  0.46999998093E+01 0. -1.
       -5    1    3    3    0  502  0.11986883338E+02 -0.10360467231E+03 -0.53595639146E+03  0.54603017961E+03  0.46999998093E+01 0.  1.
</event>
<event>
 5   0  0.2649086E-04  0.1579116E+04  0.7818609E-02  0.8833482E-01
        1   -1    0    0  501    0  0.00000000000E+00  0.00000000000E+00  0.11932939359E+04  0.11932939359E+04  0.50400001928E-02 0.  1.
       -1   -1    0    0    0  501  0.00000000000E+00  0.00000000000E+00 -0.52242076801E+03  0.52242076803E+03  0.50400001928E-02 0. -1.
    10030    2    1    2    0    0  0.00000000000E+00  0.00000000000E+00  0.67087316792E+03  0.17157147040E+04  0.15791156189E+04 0.  0.
        2    1    3    3  502    0 -0.91605639308E+02  0.55046299761E+03  0.94232484927E+03  0.10951608222E+04  0.25500000920E-02 0.  1.
       -2    1    3    3    0  502  0.91605639308E+02 -0.55046299761E+03 -0.27145168135E+03  0.62055388179E+03  0.25500000920E-02 0. -1.
</event>
<event>
 5   0  0.5131239E-04  0.1577343E+04  0.7818609E-02  0.8834589E-01
        2   -1    0    0  501    0  0.00000000000E+00  0.00000000000E+00  0.16624377753E+04  0.16624377753E+04  0.25500000920E-02 0. -1.
       -2   -1    0    0    0  501  0.00000000000E+00  0.00000000000E+00 -0.37415087645E+03  0.37415087645E+03  0.25500000920E-02 0.  1.
    10030    2    1    2    0    0  0.00000000000E+00  0.00000000000E+00  0.12882868989E+04  0.20365886518E+04  0.15773427664E+04 0.  0.
        1    1    3    3  502    0 -0.69772430597E+03 -0.79334666956E+02  0.11076819000E+04  0.13115153022E+04  0.50400001928E-02 0. -1.
       -1    1    3    3    0  502  0.69772430597E+03  0.79334666956E+02  0.18060499891E+03  0.72507334952E+03  0.50400001928E-02 0.  1.
</event>
<event>
 5   0  0.2763895E-04  0.1649749E+04  0.7818609E-02  0.8790555E-01
       -1   -1    0    0    0  501  0.00000000000E+00  0.00000000000E+00  0.88502812347E+03  0.88502812348E+03  0.50400001928E-02 0. -1.
        1   -1    0    0  501    0  0.00000000000E+00  0.00000000000E+00 -0.76880981687E+03  0.76880981688E+03  0.50400001928E-02 0.  1.
    10030    2    1    2    0    0  0.00000000000E+00  0.00000000000E+00  0.11621830660E+03  0.16538379404E+04  0.16497494471E+04 0.  0.
        4    1    3    3  502    0 -0.10540551565E+03 -0.73541765416E+03  0.41742069648E+03  0.85216846898E+03  0.12699999809E+01 0. -1.
       -4    1    3    3    0  502  0.10540551565E+03  0.73541765416E+03 -0.30120238989E+03  0.80166947138E+03  0.12699999809E+01 0.  1.
</event>
<event>
 5   0  0.5131239E-04  0.1594473E+04  0.7818609E-02  0.8823951E-01
       -2   -1    0    0    0  501  0.00000000000E+00  0.00000000000E+00  0.65946841503E+03  0.65946841504E+03  0.25500000920E-02 0.  1.
        2   -1    0    0  501    0  0.00000000000E+00  0.00000000000E+00 -0.96378542150E+03  0.96378542150E+03  0.25500000920E-02 0. -1.
    10030    2    1    2    0    0  0.00000000000E+00  0.00000000000E+00 -0.30431700646E+03  0.16232538365E+04  0.15944730093E+04 0.  0.
        1    1    3    3  502    0  0.51712402236E+02  0.76061387045E+02 -0.95836604263E+03  0.96276943182E+03  0.50400001928E-02 0. -1.
       -1    1    3    3    0  502 -0.51712402236E+02 -0.76061387045E+02  0.65404903617E+03  0.66048440472E+03  0.50400001928E-02 0.  1.
</event>
<event>
 5   0  0.5131239E-04  0.1577368E+04  0.7818609E-02  0.8834573E-01
        2   -1    0    0  501    0  0.00000000000E+00  0.00000000000E+00  0.12881682408E+04  0.12881682408E+04  0.25500000920E-02 0. -1.
       -2   -1    0    0    0  501  0.00000000000E+00  0.00000000000E+00 -0.48287384400E+03  0.48287384401E+03  0.25500000920E-02 0.  1.
    10030    2    1    2    0    0  0.00000000000E+00  0.00000000000E+00  0.80529439680E+03  0.17710420848E+04  0.15773683782E+04 0.  0.
        1    1    3    3  502    0  0.57387106827E+03 -0.48199066395E+03  0.67854065195E+03  0.10109700389E+04  0.50400001928E-02 0. -1.
       -1    1    3    3    0  502 -0.57387106827E+03  0.48199066395E+03  0.12675374485E+03  0.76007204593E+03  0.50400001928E-02 0.  1.
</event>
<event>
 5   0  0.2763895E-04  0.1603616E+04  0.7818609E-02  0.8818330E-01
        1   -1    0    0  501    0  0.00000000000E+00  0.00000000000E+00  0.64787213714E+03  0.64787213716E+03  0.50400001928E-02 0.  1.
       -1   -1    0    0    0  501  0.00000000000E+00  0.00000000000E+00 -0.99231962615E+03  0.99231962616E+03  0.50400001928E-02 0. -1.
    10030    2    1    2    0    0  0.00000000000E+00  0.00000000000E+00 -0.34444748901E+03  0.16401917633E+04  0.16036162096E+04 0.  0.
        4    1    3    3  502    0 -0.48810996016E+03 -0.34260087035E+03  0.37597465716E+03  0.70497180461E+03  0.12699999809E+01 0.  1.
       -4    1    3    3    0  502  0.48810996016E+03  0.34260087035E+03 -0.72042214617E+03  0.93521995871E+03  0.12699999809E+01 0. -1.
</event>
<event>
 5   0  0.2796994E-04  0.1573133E+04  0.7818609E-02  0.8837225E-01
        1   -1    0    0  501    0  0.00000000000E+00  0.00000000000E+00  0.23914530226E+04  0.23914530226E+04  0.50400001928E-02 0. -1.
       -1   -1    0    0    0  501  0.00000000000E+00  0.00000000000E+00 -0.25870756789E+03  0.25870756794E+03  0.50400001928E-02 0.  1.
    10030    2    1    2    0    0  0.00000000000E+00  0.00000000000E+00  0.21327454547E+04  0.26501605905E+04  0.15731331734E+04 0.  0.
        3    1    3    3  502    0  0.28054609351E+02  0.24742929149E+03 -0.19055119649E+03  0.31355714643E+03  0.10100000352E+00 0.  1.
       -3    1    3    3    0  502 -0.28054609351E+02 -0.24742929149E+03  0.23232966512E+04  0.23366034441E+04  0.10100000352E+00 0. -1.
</event>
<event>
 5   0  0.5083831E-04  0.1596617E+04  0.7818609E-02  0.8822629E-01
       -2   -1    0    0    0  501  0.00000000000E+00  0.00000000000E+00  0.25829760549E+03  0.25829760550E+03  0.25500000920E-02 0. -1.
        2   -1    0    0  501    0  0.00000000000E+00  0.00000000000E+00 -0.24672940753E+04  0.24672940753E+04  0.25500000920E-02 0.  1.
    10030    2    1    2    0    0  0.00000000000E+00  0.00000000000E+00 -0.22089964698E+04  0.27255916808E+04  0.15966166123E+04 0.  0.
        4    1    3    3  502    0 -0.79072072911E+03  0.86291212775E+02 -0.98860237242E+03  0.12688663084E+04  0.12699999809E+01 0.  1.
       -4    1    3    3    0  502  0.79072072911E+03 -0.86291212775E+02 -0.12203940974E+04  0.14567253724E+04  0.12699999809E+01 0. -1.
</event>
<event>
 5   0  0.2763895E-04  0.1608386E+04  0.7818609E-02  0.8815413E-01
        1   -1    0    0  501    0  0.00000000000E+00  0.00000000000E+00  0.15133682738E+04  0.15133682738E+04  0.50400001928E-02 0.  1.
       -1   -1    0    0    0  501  0.00000000000E+00  0.00000000000E+00 -0.42734215994E+03  0.42734215997E+03  0.50400001928E-02 0. -1.
    10030    2    1    2    0    0  0.00000000000E+00  0.00000000000E+00  0.10860261139E+04  0.19407104338E+04  0.16083856092E+04 0.  0.
        4    1    3    3  502    0  0.55265863590E+03 -0.45839135191E+03  0.10600620842E+03  0.72580515875E+03  0.12699999809E+01 0. -1.
       -4    1    3    3    0  502 -0.55265863590E+03  0.45839135191E+03  0.98001990546E+03  0.12149052750E+04  0.12699999809E+01 0.  1.
</event>
<event>
 5   0  0.2689675E-04  0.1590731E+04  0.7818609E-02  0.8826262E-01
       -1   -1    0    0    0  501  0.00000000000E+00  0.00000000000E+00  0.52809980972E+03  0.52809980975E+03  0.50400001928E-02 0. -1.
        1   -1    0    0  501    0  0.00000000000E+00  0.00000000000E+00 -0.11978918477E+04  0.11978918477E+04  0.50400001928E-02 0.  1.
    10030    2    1    2    0    0  0.00000000000E+00  0.00000000000E+00 -0.66979203795E+03  0.17259916574E+04  0.15907312241E+04 0.  0.
        1    1    3    3  502    0 -0.51979661790E+03  0.55714850150E+03 -0.58232928652E+03  0.95901531514E+03  0.50400001928E-02 0.  1.
       -1    1    3    3    0  502  0.51979661790E+03 -0.55714850150E+03 -0.87462751423E+02  0.76697634228E+03  0.50400001928E-02 0. -1.
</event>
<event>
 5   0  0.2730707E-04  0.1600689E+04  0.7818609E-02  0.8820125E-01
       -1   -1    0    0    0  501  0.00000000000E+00  0.00000000000E+00  0.74136842694E+03  0.74136842696E+03  0.50400001928E-02 0.  1.
        1   -1    0    0  501    0  0.00000000000E+00  0.00000000000E+00 -0.86401183164E+03  0.86401183166E+03  0.50400001928E-02 0. -1.
    10030    2    1    2    0    0  0.00000000000E+00  0.00000000000E+00 -0.12264340470E+03  0.16053802586E+04  0.16006887174E+04 0.  0.
        5    1    3    3  502    0  0.51697443837E+03  0.53394963801E+03  0.23647316688E+03  0.77994001981E+03  0.46999998093E+01 0. -1.
       -5    1    3    3    0  502 -0.51697443837E+03 -0.53394963801E+03 -0.35911657158E+03  0.82544023880E+03  0.46999998093E+01 0.  1.
</event>
<event>
 5   0  0.5083831E-04  0.1762802E+04  0.7818609E-02  0.8726335E-01
       -2   -1    0    0    0  501  0.00000000000E+00  0.00000000000E+00  0.92747559252E+03  0.92747559253E+03  0.25500000920E-02 0.  1.
        2   -1    0    0  501    0  0.00000000000E+00  0.00000000000E+00 -0.83761503975E+03  0.83761503976E+03  0.25500000920E-02 0. -1.
    10030    2    1    2    0    0  0.00000000000E+00  0.00000000000E+00  0.89860552772E+02  0.17650906323E+04  0.17628017532E+04 0.  0.
        4    1    3    3  502    0  0.51403294252E+01  0.80718711506E+03  0.39935092908E+03  0.90058882914E+03  0.12699999809E+01 0.  1.
       -4    1    3    3    0  502 -0.51403294252E+01 -0.80718711506E+03 -0.30949037631E+03  0.86450180314E+03  0.12699999809E+01 0. -1.
</event>
<event>
 5   0  0.5315984E-04  0.1596918E+04  0.7818609E-02  0.8822444E-01
        2   -1    0    0  501    0  0.00000000000E+00  0.00000000000E+00  0.65931439249E+03  0.65931439249E+03  0.25500000920E-02 0. -1.
       -2   -1    0    0    0  501  0.00000000000E+00  0.00000000000E+00 -0.96696876470E+03  0.96696876471E+03  0.25500000920E-02 0.  1.
    10030    2    1    2    0    0  0.00000000000E+00  0.00000000000E+00 -0.30765437222E+03  0.16262831572E+04  0.15969175604E+04 0.  0.
        2    1    3    3  502    0 -0.42533208424E+03  0.30963087940E+03 -0.76550328181E+03  0.92885625251E+03  0.25500000920E-02 0.  1.
       -2    1    3    3    0  502  0.42533208424E+03 -0.30963087940E+03  0.45784890959E+03  0.69742690469E+03  0.25500000920E-02 0. -1.
</event>
<event>
 5   0  0.2730707E-04  0.1603470E+04  0.7818609E-02  0.8818419E-01
       -1   -1    0    0    0  501  0.00000000000E+00  0.00000000000E+00  0.68869866689E+03  0.68869866691E+03  0.50400001928E-02 0.  1.
        1   -1    0    0  501    0  0.00000000000E+00  0.00000000000E+00 -0.93332356817E+03  0.93332356818E+03  0.50400001928E-02 0. -1.
    10030    2    1    2    0    0  0.00000000000E+00  0.00000000000E+00 -0.24462490127E+03  0.16220222351E+04  0.16034696096E+04 0.  0.
        5    1    3    3  502    0  0.73299024006E+03  0.32181658482E+03 -0.16659105527E+03  0.81768898487E+03  0.46999998093E+01 0.  1.
       -5    1    3    3    0  502 -0.73299024006E+03 -0.32181658482E+03 -0.78033846002E+02  0.80433325022E+03  0.46999998093E+01 0. -1.
</event>
<event>
 5   0  0.2689675E-04  0.1590917E+04  0.7818609E-02  0.8826148E-01
        1   -1    0    0  501    0  0.00000000000E+00  0.00000000000E+00  0.13280665768E+04  0.13280665768E+04  0.50400001928E-02 0. -1.
       -1   -1    0    0    0  501  0.00000000000E+00  0.00000000000E+00 -0.47644760533E+03  0.47644760536E+03  0.50400001928E-02 0.  1.
    10030    2    1    2    0    0  0.00000000000E+00  0.00000000000E+00  0.85161897147E+03  0.18045141822E+04  0.15909168932E+04 0.  0.
        1    1    3    3  502    0 -0.43646482425E+03 -0.59707911260E+03  0.75795444765E+03  0.10590089491E+04  0.50400001928E-02 0. -1.
       -1    1    3    3    0  502  0.43646482425E+03  0.59707911260E+03  0.93664523821E+02  0.74550523308E+03  0.50400001928E-02 0.  1.
</event>
<event>
 5   0  0.5264308E-04  0.1507664E+04  0.7818609E-02  0.8879372E-01
       -2   -1    0    0    0  501  0.00000000000E+00  0.00000000000E+00  0.78284401499E+03  0.78284401500E+03  0.25500000920E-02 0. -1.
        2   -1    0    0  501    0  0.00000000000E+00  0.00000000000E+00 -0.72589531488E+03  0.72589531489E+03  0.25500000920E-02 0.  1.
    10030    2    1    2    0    0  0.00000000000E+00  0.00000000000E+00  0.56948700110E+02  0.15087393299E+04  0.15076641573E+04 0.  0.
        3    1    3    3  502    0  0.35530554087E+03 -0.11369963019E+03 -0.62704482038E+03  0.72962651421E+03  0.10100000352E+00 0.  1.
       -3    1    3    3    0  502 -0.35530554087E+03  0.11369963019E+03  0.68399352049E+03  0.77911281567E+03  0.10100000352E+00 0. -1.
</event>
<event>
 5   0  0.5083831E-04  0.1606306E+04  0.7818609E-02  0.8816684E-01
       -2   -1    0    0    0  501  0.00000000000E+00  0.00000000000E+00  0.10942442953E+04  0.10942442953E+04  0.25500000920E-02 0. -1.
        2   -1    0    0  501    0  0.00000000000E+00  0.00000000000E+00 -0.58949772917E+03  0.58949772917E+03  0.25500000920E-02 0.  1.
    10030    2    1    2    0    0  0.00000000000E+00  0.00000000000E+00  0.50474656617E+03  0.16837420245E+04  0.16063057334E+04 0.  0.
        4    1    3    3  502    0  0.29584975880E+03  0.13293741355E+03  0.10225409713E+04  0.10727493121E+04  0.12699999809E+01 0. -1.
       -4    1    3    3    0  502 -0.29584975880E+03 -0.13293741355E+03 -0.51779440515E+03  0.61099271240E+03  0.12699999809E+01 0.  1.
</event>
<event>
 5   0  0.5083831E-04  0.1602572E+04  0.7818609E-02  0.8818969E-01
        2   -1    0    0  501    0  0.00000000000E+00  0.00000000000E+00  0.12236471793E+04  0.12236471793E+04  0.25500000920E-02 0.  1.
       -2   -1    0    0    0  501  0.00000000000E+00  0.00000000000E+00 -0.52470973889E+03  0.52470973889E+03  0.25500000920E-02 0. -1.
    10030    2    1    2    0    0  0.00000000000E+00  0.00000000000E+00  0.69893744043E+03  0.17483569182E+04  0.16025724220E+04 0.  0.
        4    1    3    3  502    0  0.38908471688E+03  0.14448434307E+03 -0.39829911842E+03  0.57524468092E+03  0.12699999809E+01 0. -1.
       -4    1    3    3    0  502 -0.38908471688E+03 -0.14448434307E+03  0.10972365589E+04  0.11731122373E+04  0.12699999809E+01 0.  1.
</event>
<event>
 5   0  0.2796994E-04  0.1618397E+04  0.7818609E-02  0.8809325E-01
        1   -1    0    0  501    0  0.00000000000E+00  0.00000000000E+00  0.17230744478E+04  0.17230744478E+04  0.50400001928E-02 0.  1.
       -1   -1    0    0    0  501  0.00000000000E+00  0.00000000000E+00 -0.38001976220E+03  0.38001976223E+03  0.50400001928E-02 0. -1.
    10030    2    1    2    0    0  0.00000000000E+00  0.00000000000E+00  0.13430546856E+04  0.21030942100E+04  0.16183971601E+04 0.  0.
        3    1    3    3  502    0 -0.26249330005E+03 -0.76442733714E+03  0.72269574507E+03  0.10842237022E+04  0.10100000352E+00 0.  1.
       -3    1    3    3    0  502  0.26249330005E+03  0.76442733714E+03  0.62035894049E+03  0.10188705078E+04  0.10100000352E+00 0. -1.
</event>
<event>
 5   0  0.2796994E-04  0.1603323E+04  0.7818609E-02  0.8818509E-01
        1   -1    0    0  501    0  0.00000000000E+00  0.00000000000E+00  0.26832437778E+04  0.26832437778E+04  0.50400001928E-02 0.  1.
       -1   -1    0    0    0  501  0.00000000000E+00  0.00000000000E+00 -0.23950897407E+03  0.23950897413E+03  0.50400001928E-02 0. -1.
    10030    2    1    2    0    0  0.00000000000E+00  0.00000000000E+00  0.24437348038E+04  0.29227527520E+04  0.16033227554E+04 0.  0.
        3    1    3    3  502    0 -0.61720883420E+03 -0.29575011144E+03  0.19828112864E+04  0.20976070845E+04  0.10100000352E+00 0.  1.
       -3    1    3    3    0  502  0.61720883420E+03  0.29575011144E+03  0.46092351738E+03  0.82514566744E+03  0.10100000352E+00 0. -1.
</event>
<event>
 5   0  0.2689675E-04  0.1588619E+04  0.7818609E-02  0.8827570E-01
       -1   -1    0    0    0  501  0.00000000000E+00  0.00000000000E+00  0.64819705064E+03  0.64819705066E+03  0.50400001928E-02 0.  1.
        1   -1    0    0  501    0  0.00000000000E+00  0.00000000000E+00 -0.97335796899E+03  0.97335796901E+03  0.50400001928E-02 0. -1.
    10030    2    1    2    0    0  0.00000000000E+00  0.00000000000E+00 -0.32516091835E+03  0.16215550197E+04  0.15886192303E+04 0.  0.
        1    1    3    3  502    0  0.43746802999E+03 -0.15710425554E+01 -0.83930907805E+03  0.94647793105E+03  0.50400001928E-02 0. -1.
       -1    1    3    3    0  502 -0.43746802999E+03  0.15710425554E+01  0.51414815969E+03  0.67507708862E+03  0.50400001928E-02 0.  1.
</event>
<event>
 5   0  0.2649086E-04  0.1585427E+04  0.7818609E-02  0.8829551E-01
       -1   -1    0    0    0  501  0.00000000000E+00  0.00000000000E+00  0.58935734341E+03  0.58935734343E+03  0.50400001928E-02 0. -1.
        1   -1    0    0  501    0  0.00000000000E+00  0.00000000000E+00 -0.10662367521E+04  0.10662367521E+04  0.50400001928E-02 0.  1.
    10030    2    1    2    0    0  0.00000000000E+00  0.00000000000E+00 -0.47687940868E+03  0.16555940955E+04  0.15854267056E+04 0.  0.
        2    1    3    3  502    0 -0.70132915728E+03  0.13553127854E+03 -0.59740190660E+03  0.93119297266E+03  0.25500000920E-02 0.  1.
       -2    1    3    3    0  502  0.70132915728E+03 -0.13553127854E+03  0.12052249792E+03  0.72440112288E+03  0.25500000920E-02 0. -1.
</event>
<event>
 5   0  0.5264308E-04  0.1595985E+04  0.7818609E-02  0.8823018E-01
        2   -1    0    0  501    0  0.00000000000E+00  0.00000000000E+00  0.16250329905E+04  0.16250329905E+04  0.25500000920E-02 0.  1.
       -2   -1    0    0    0  501  0.00000000000E+00  0.00000000000E+00 -0.39186397885E+03  0.39186397886E+03  0.25500000920E-02 0. -1.
    10030    2    1    2    0    0  0.00000000000E+00  0.00000000000E+00  0.12331690117E+04  0.20168969694E+04  0.15959848288E+04 0.  0.
        3    1    3    3  502    0 -0.44538339403E+03  0.54701745675E+03  0.10880723972E+04  0.12967251125E+04  0.10100000352E+00 0.  1.
       -3    1    3    3    0  502  0.44538339403E+03 -0.54701745675E+03  0.14509661442E+03  0.72017185684E+03  0.10100000352E+00 0. -1.
</event>
<event>
 5   0  0.5264308E-04  0.1601319E+04  0.7818609E-02  0.8819738E-01
        2   -1    0    0  501    0  0.00000000000E+00  0.00000000000E+00  0.10501901381E+04  0.10501901382E+04  0.25500000920E-02 0. -1.
       -2   -1    0    0    0  501  0.00000000000E+00  0.00000000000E+00 -0.61041881714E+03  0.61041881715E+03  0.25500000920E-02 0.  1.
    10030    2    1    2    0    0  0.00000000000E+00  0.00000000000E+00  0.43977132101E+03  0.16606089553E+04  0.16013192335E+04 0.  0.
        3    1    3    3  502    0  0.38480915282E+02  0.37547855236E+03  0.95213944363E+03  0.10242238302E+04  0.10100000352E+00 0. -1.
       -3    1    3    3    0  502 -0.38480915282E+02 -0.37547855236E+03 -0.51236812262E+03  0.63638512506E+03  0.10100000352E+00 0.  1.
</event>
<event>
 5   0  0.2796994E-04  0.1629665E+04  0.7818609E-02  0.8802528E-01
       -1   -1    0    0    0  501  0.00000000000E+00  0.00000000000E+00  0.85994484474E+03  0.85994484476E+03  0.50400001928E-02 0. -1.
        1   -1    0    0  501    0  0.00000000000E+00  0.00000000000E+00 -0.77208698597E+03  0.77208698599E+03  0.50400001928E-02 0.  1.
    10030    2    1    2    0    0  0.00000000000E+00  0.00000000000E+00  0.87857858766E+02  0.16320318307E+04  0.16296652703E+04 0.  0.
        3    1    3    3  502    0 -0.74850817466E+02  0.96093376321E+02  0.85077604013E+03  0.85945125663E+03  0.10100000352E+00 0. -1.
       -3    1    3    3    0  502  0.74850817466E+02 -0.96093376321E+02 -0.76291818137E+03  0.77258057412E+03  0.10100000352E+00 0.  1.
</event>
<event>
 5   0  0.5083831E-04  0.1563693E+04  0.7818609E-02  0.8843169E-01
        2   -1    0    0  501    0  0.00000000000E+00  0.00000000000E+00  0.23159270550E+04  0.23159270550E+04  0.25500000920E-02 0.  1.
       -2   -1    0    0    0  501  0.00000000000E+00  0.00000000000E+00 -0.26394783188E+03  0.26394783189E+03  0.25500000920E-02 0. -1.
    10030    2    1    2    0    0  0.00000000000E+00  0.00000000000E+00  0.20519792231E+04  0.25798748869E+04  0.15636929685E+04 0.  0.
        4    1    3    3  502    0 -0.66725900817E+03  0.31950020422E+03  0.14432684236E+04  0.16218323957E+04  0.12699999809E+01 0. -1.
       -4    1    3    3    0  502  0.66725900817E+03 -0.31950020422E+03  0.60871079956E+03  0.95804249117E+03  0.12699999809E+01 0.  1.
</event>
<event>
 5   0  0.5131239E-04  0.1618915E+04  0.7818609E-02  0.8809012E-01
        2   -1    0    0  501    0  0.00000000000E+00  0.00000000000E+00  0.12719454476E+04  0.12719454476E+04  0.25500000920E-02 0.  1.
       -2   -1    0    0    0  501  0.00000000000E+00  0.00000000000E+00 -0.51513305757E+03  0.51513305758E+03  0.25500000920E-02 0. -1.
    10030    2    1    2    0    0  0.00000000000E+00  0.00000000000E+00  0.75681239002E+03  0.17870785052E+04  0.16189146333E+04 0.  0.
        1    1    3    3  502    0 -0.23378754650E+03  0.56236687103E+03  0.96699804978E+03  0.11428028451E+04  0.50400001928E-02 0.  1.
       -1    1    3    3    0  502  0.23378754650E+03 -0.56236687103E+03 -0.21018565976E+03  0.64427566005E+03  0.50400001928E-02 0. -1.
</event>
<event>
 5   0  0.5083831E-04  0.1623823E+04  0.7818609E-02  0.8806045E-01
       -2   -1    0    0    0  501  0.00000000000E+00  0.00000000000E+00  0.55940238875E+03  0.55940238875E+03  0.25500000920E-02 0.  1.
        2   -1    0    0  501    0  0.00000000000E+00  0.00000000000E+00 -0.11784011396E+04  0.11784011396E+04  0.25500000920E-02 0. -1.
    10030    2    1    2    0    0  0.00000000000E+00  0.00000000000E+00 -0.61899875081E+03  0.17378035283E+04  0.16238231583E+04 0.  0.
        4    1    3    3  502    0  0.78309987053E+03 -0.37044875965E+02 -0.83536451965E+02  0.78841466359E+03  0.12699999809E+01 0. -1.
       -4    1    3    3    0  502 -0.78309987053E+03  0.37044875965E+02 -0.53546229885E+03  0.94938886472E+03  0.12699999809E+01 0.  1.
</event>
<event>
 5   0  0.2730707E-04  0.1610165E+04  0.7818609E-02  0.8814328E-01
       -1   -1    0    0    0  501  0.00000000000E+00  0.00000000000E+00  0.51202887602E+03  0.51202887604E+03  0.50400001928E-02 0.  1.
        1   -1    0    0  501    0  0.00000000000E+00  0.00000000000E+00 -0.12658612151E+04  0.12658612152E+04  0.50400001928E-02 0. -1.
    10030    2    1    2    0    0  0.00000000000E+00  0.00000000000E+00 -0.75383233912E+03  0.17778900912E+04  0.16101645819E+04 0.  0.
        5    1    3    3  502    0 -0.11538510043E+03  0.76194988149E+03 -0.63410420993E+03  0.99799377871E+03  0.46999998093E+01 0.  1.
       -5    1    3    3    0  502  0.11538510043E+03 -0.76194988149E+03 -0.11972812919E+03  0.77989631248E+03  0.46999998093E+01 0. -1.
</event>
<event>
 5   0  0.5131239E-04  0.1588541E+04  0.7818609E-02  0.8827619E-01
       -2   -1    0    0    0  501  0.00000000000E+00  0.00000000000E+00  0.36208538043E+03  0.36208538043E+03  0.25500000920E-02 0.  1.
        2   -1    0    0  501    0  0.00000000000E+00  0.00000000000E+00 -0.17423122582E+04  0.17423122582E+04  0.25500000920E-02 0. -1.
    10030    2    1    2    0    0  0.00000000000E+00  0.00000000000E+00 -0.13802268777E+04  0.21043976386E+04  0.15885412136E+04 0.  0.
        1    1    3    3  502    0  0.41355096663E+03 -0.23178323732E+03 -0.15343329763E+04  0.16059033450E+04  0.50400001928E-02 0. -1.
       -1    1    3    3    0  502 -0.41355096663E+03  0.23178323732E+03  0.15410609862E+03  0.49849429361E+03  0.50400001928E-02 0.  1.
</event>
<event>
 5   0  0.5264308E-04  0.1606883E+04  0.7818609E-02  0.8816330E-01
        2   -1    0    0  501    0  0.00000000000E+00  0.00000000000E+00  0.70073182086E+03  0.70073182086E+03  0.25500000920E-02 0. -1.
       -2   -1    0    0    0  501  0.00000000000E+00  0.00000000000E+00 -0.92120623385E+03  0.92120623385E+03  0.25500000920E-02 0.  1.
    10030    2    1    2    0    0  0.00000000000E+00  0.00000000000E+00 -0.22047441299E+03  0.16219380547E+04  0.16068833457E+04 0.  0.
        3    1    3    3  502    0 -0.49926952857E+03  0.43546691037E+02 -0.74409525930E+03  0.89713106154E+03  0.10100000352E+00 0.  1.
       -3    1    3    3    0  502  0.49926952857E+03 -0.43546691037E+02  0.52362084631E+03  0.72480699317E+03  0.10100000352E+00 0. -1.
</event>
<event>
 5   0  0.2763895E-04  0.1573125E+04  0.7818609E-02  0.8837231E-01
       -1   -1    0    0    0  501  0.00000000000E+00  0.00000000000E+00  0.10720923370E+04  0.10720923370E+04  0.50400001928E-02 0. -1.
        1   -1    0    0  501    0  0.00000000000E+00  0.00000000000E+00 -0.57707755171E+03  0.57707755173E+03  0.50400001928E-02 0.  1.
    10030    2    1    2    0    0  0.00000000000E+00  0.00000000000E+00  0.49501478531E+03  0.16491698888E+04  0.15731248152E+04 0.  0.
        4    1    3    3  502    0  0.26073391453E+03 -0.63751847939E+03 -0.15067811364E+03  0.70506559452E+03  0.12699999809E+01 0.  1.
       -4    1    3    3    0  502 -0.26073391453E+03  0.63751847939E+03  0.64569289895E+03  0.94410429424E+03  0.12699999809E+01 0. -1.
</event>
<event>
 5   0  0.5381164E-04  0.1610533E+04  0.7818609E-02  0.8814103E-01
       -2   -1    0    0    0  501  0.00000000000E+00  0.00000000000E+00  0.97647897003E+03  0.97647897003E+03  0.25500000920E-02 0. -1.
        2   -1    0    0  501    0  0.00000000000E+00  0.00000000000E+00 -0.66407344085E+03  0.66407344086E+03  0.25500000920E-02 0.  1.
    10030    2    1    2    0    0  0.00000000000E+00  0.00000000000E+00  0.31240552918E+03  0.16405524109E+04  0.16105325201E+04 0.  0.
        5    1    3    3  502    0  0.64385374453E+03  0.16686439269E+02  0.64853946991E+03  0.91403042380E+03  0.46999998093E+01 0. -1.
       -5    1    3    3    0  502 -0.64385374453E+03 -0.16686439269E+02 -0.33613394074E+03  0.72652198708E+03  0.46999998093E+01 0.  1.
</event>
<event>
 5   0  0.5315984E-04  0.1625640E+04  0.7818609E-02  0.8804949E-01
       -2   -1    0    0    0  501  0.00000000000E+00  0.00000000000E+00  0.28148630993E+03  0.28148630994E+03  0.25500000920E-02 0. -1.
        2   -1    0    0  501    0  0.00000000000E+00  0.00000000000E+00 -0.23470998978E+04  0.23470998978E+04  0.25500000920E-02 0.  1.
    10030    2    1    2    0    0  0.00000000000E+00  0.00000000000E+00 -0.20656135879E+04  0.26285862077E+04  0.16256401684E+04 0.  0.
        2    1    3    3  502    0 -0.50203540694E+02  0.32263290093E+03 -0.22363946874E+04  0.22601047724E+04  0.25500000920E-02 0.  1.
       -2    1    3    3    0  502  0.50203540694E+02 -0.32263290093E+03  0.17078109951E+03  0.36848143538E+03  0.25500000920E-02 0. -1.
</event>
<event>
 5   0  0.5315984E-04  0.1510445E+04  0.7818609E-02  0.8877536E-01
       -2   -1    0    0    0  501  0.00000000000E+00  0.00000000000E+00  0.64061278612E+03  0.64061278612E+03  0.25500000920E-02 0. -1.
        2   -1    0    0  501    0  0.00000000000E+00  0.00000000000E+00 -0.89033714888E+03  0.89033714889E+03  0.25500000920E-02 0.  1.
    10030    2    1    2    0    0  0.00000000000E+00  0.00000000000E+00 -0.24972436276E+03  0.15309499350E+04  0.15104454463E+04 0.  0.
        2    1    3    3  502    0  0.65184443771E+03 -0.37302335053E+03 -0.20540008875E+03  0.77861209050E+03  0.25500000920E-02 0. -1.
       -2    1    3    3    0  502 -0.65184443771E+03  0.37302335053E+03 -0.44324274014E+02  0.75233784451E+03  0.25500000920E-02 0.  1.
</event>
<event>
 5   0  0.2796994E-04  0.1485089E+04  0.7818609E-02  0.8894430E-01
       -1   -1    0    0    0  501  0.00000000000E+00  0.00000000000E+00  0.41971518998E+03  0.41971519001E+03  0.50400001928E-02 0.  1.
        1   -1    0    0  501    0  0.00000000000E+00  0.00000000000E+00 -0.13136816636E+04  0.13136816636E+04  0.50400001928E-02 0. -1.
    10030    2    1    2    0    0  0.00000000000E+00  0.00000000000E+00 -0.89396647358E+03  0.17333968536E+04  0.14850887503E+04 0.  0.
        3    1    3    3  502    0  0.22842344299E+03  0.63156853888E+03 -0.81666736714E+03  0.10573559889E+04  0.10100000352E+00 0. -1.
       -3    1    3    3    0  502 -0.22842344299E+03 -0.63156853888E+03 -0.77299106439E+02  0.67604086464E+03  0.10100000352E+00 0.  1.
</event>
<event>
 5   0  0.2649086E-04  0.1607689E+04  0.7818609E-02  0.8815839E-01
        1   -1    0    0  501    0  0.00000000000E+00  0.00000000000E+00  0.91828132761E+03  0.91828132762E+03  0.50400001928E-02 0. -1.
       -1   -1    0    0    0  501  0.00000000000E+00  0.00000000000E+00 -0.70366849271E+03  0.70366849273E+03  0.50400001928E-02 0.  1.
    10030    2    1    2    0    0  0.00000000000E+00  0.00000000000E+00  0.21461283490E+03  0.16219498203E+04  0.16076885740E+04 0.  0.
        2    1    3    3  502    0 -0.51660126656E+03 -0.53679363542E+03  0.41188071134E+03  0.85127551123E+03  0.25500000920E-02 0. -1.
       -2    1    3    3    0  502  0.51660126656E+03  0.53679363542E+03 -0.19726787644E+03  0.77067430911E+03  0.25500000920E-02 0.  1.
</event>
<event>
 5   0  0.5131239E-04  0.1583973E+04  0.7818609E-02  0.8830455E-01
       -2   -1    0    0    0  501  0.00000000000E+00  0.00000000000E+00  0.24507943263E+03  0.24507943264E+03  0.25500000920E-02 0.  1.
        2   -1    0    0  501    0  0.00000000000E+00  0.00000000000E+00 -0.25593443918E+04  0.25593443918E+04  0.25500000920E-02 0. -1.
    10030    2    1    2    0    0  0.00000000000E+00  0.00000000000E+00 -0.23142649591E+04  0.28044238244E+04  0.15839730698E+04 0.  0.
        1    1    3    3  502    0 -0.39234335051E+03 -0.78463430383E+02 -0.23672438979E+04  0.24008193366E+04  0.50400001928E-02 0. -1.
       -1    1    3    3    0  502  0.39234335051E+03  0.78463430383E+02  0.52978938809E+02  0.40360448781E+03  0.50400001928E-02 0.  1.
</event>
<event>
 5   0  0.2649086E-04  0.1609126E+04  0.7818609E-02  0.8814961E-01
       -1   -1    0    0    0  501  0.00000000000E+00  0.00000000000E+00  0.68822931325E+03  0.68822931327E+03  0.50400001928E-02 0. -1.
        1   -1    0    0  501    0  0.00000000000E+00  0.00000000000E+00 -0.94056045584E+03  0.94056045585E+03  0.50400001928E-02 0.  1.
    10030    2    1    2    0    0  0.00000000000E+00  0.00000000000E+00 -0.25233114259E+03  0.16287897691E+04  0.16091255720E+04 0.  0.
        2    1    3    3  502    0  0.70730560490E+03 -0.24103476760E+03  0.17571090423E+03  0.76762836046E+03  0.25500000920E-02 0.  1.
       -2    1    3    3    0  502 -0.70730560490E+03  0.24103476760E+03 -0.42804204682E+03  0.86116140866E+03  0.25500000920E-02 0. -1.
</event>
<event>
 5   0  0.2730707E-04  0.1562583E+04  0.7818609E-02  0.8843870E-01
       -1   -1    0    0    0  501  0.00000000000E+00  0.00000000000E+00  0.58639637439E+03  0.58639637441E+03  0.50400001928E-02 0.  1.
        1   -1    0    0  501    0  0.00000000000E+00  0.00000000000E+00 -0.10409624779E+04  0.10409624780E+04  0.50400001928E-02 0. -1.
    10030    2    1    2    0    0  0.00000000000E+00  0.00000000000E+00 -0.45456610355E+03  0.16273588524E+04  0.15625832752E+04 0.  0.
        5    1    3    3  502    0  0.12955382869E+03 -0.40543530073E+02  0.57400514675E+03  0.58985758523E+03  0.46999998093E+01 0.  1.
       -5    1    3    3    0  502 -0.12955382869E+03  0.40543530073E+02 -0.10285712503E+04  0.10375012671E+04  0.46999998093E+01 0. -1.
</event>
<event>
 5   0  0.5381164E-04  0.1570495E+04  0.7818609E-02  0.8838882E-01
        2   -1    0    0  501    0  0.00000000000E+00  0.00000000000E+00  0.11949702563E+04  0.11949702563E+04  0.25500000920E-02 0. -1.
       -2   -1    0    0    0  501  0.00000000000E+00  0.00000000000E+00 -0.51600737153E+03  0.51600737154E+03  0.25500000920E-02 0.  1.
    10030    2    1    2    0    0  0.00000000000E+00  0.00000000000E+00  0.67896288473E+03  0.17109776278E+04  0.15704947768E+04 0.  0.
        5    1    3    3  502    0  0.34528155102E+03  0.13348215435E+03 -0.41496225737E+03  0.55610484627E+03  0.46999998093E+01 0.  1.
       -5    1    3    3    0  502 -0.34528155102E+03 -0.13348215435E+03  0.10939251421E+04  0.11548727815E+04  0.46999998093E+01 0. -1.
</event>
<event>
 5   0  0.2649086E-04  0.1596499E+04  0.7818609E-02  0.8822701E-01
        1   -1    0    0  501    0  0.00000000000E+00  0.00000000000E+00  0.33742368236E+03  0.33742368240E+03  0.50400001928E-02 0.  1.
       -1   -1    0    0    0  501  0.00000000000E+00  0.00000000000E+00 -0.18884347194E+04  0.18884347194E+04  0.50400001928E-02 0. -1.
    10030    2    1    2    0    0  0.00000000000E+00  0.00000000000E+00 -0.15510110371E+04  0.22258584018E+04  0.15964994168E+04 0.  0.
        2    1    3    3  502    0  0.35751761484E+03 -0.71183671149E+03 -0.84757761712E+03  0.11631501046E+04  0.25500000920E-02 0. -1.
       -2    1    3    3    0  502 -0.35751761484E+03  0.71183671149E+03 -0.70343341994E+03  0.10627082972E+04  0.25500000920E-02 0.  1.
</event>
<event>
 5   0  0.2796994E-04  0.1611953E+04  0.7818609E-02  0.8813239E-01
       -1   -1    0    0    0  501  0.00000000000E+00  0.00000000000E+00  0.60129101602E+03  0.60129101604E+03  0.50400001928E-02 0.  1.
        1   -1    0    0  501    0  0.00000000000E+00  0.00000000000E+00 -0.10803384879E+04  0.10803384879E+04  0.50400001928E-02 0. -1.
    10030    2    1    2    0    0  0.00000000000E+00  0.00000000000E+00 -0.47904747191E+03  0.16816295040E+04  0.16119526384E+04 0.  0.
        3    1    3    3  502    0 -0.30953991924E+03  0.31713400947E+03  0.46278366339E+03  0.64074774356E+03  0.10100000352E+00 0.  1.
       -3    1    3    3    0  502  0.30953991924E+03 -0.31713400947E+03 -0.94183113530E+03  0.10408817604E+04  0.10100000352E+00 0. -1.
</event>
<event>
 5   0  0.2730707E-04  0.1627394E+04  0.7818609E-02  0.8803894E-01
       -1   -1    0    0    0  501  0.00000000000E+00  0.00000000000E+00  0.69065065884E+03  0.69065065885E+03  0.50400001928E-02 0. -1.
        1   -1    0    0  501    0  0.00000000000E+00  0.00000000000E+00 -0.95866488544E+03  0.95866488545E+03  0.50400001928E-02 0.  1.
    10030    2    1    2    0    0  0.00000000000E+00  0.00000000000E+00 -0.26801422660E+03  0.16493155443E+04  0.16273936644E+04 0.  0.
        5    1    3    3  502    0  0.38388955216E+03  0.71270838394E+03 -0.21730931205E+03  0.83819440221E+03  0.46999998093E+01 0.  1.
       -5    1    3    3    0  502 -0.38388955216E+03 -0.71270838394E+03 -0.50704914555E+02  0.81112114210E+03  0.46999998093E+01 0. -1.
</event>
<event>
 5   0  0.5315984E-04  0.1598135E+04  0.7818609E-02  0.8821695E-01
        2   -1    0    0  501    0  0.00000000000E+00  0.00000000000E+00  0.85625466832E+03  0.85625466832E+03  0.25500000920E-02 0.  1.
       -2   -1    0    0    0  501  0.00000000000E+00  0.00000000000E+00 -0.74569960383E+03  0.74569960384E+03  0.25500000920E-02 0. -1.
    10030    2    1    2    0    0  0.00000000000E+00  0.00000000000E+00  0.11055506448E+03  0.16019542722E+04  0.15981348716E+04 0.  0.
        2    1    3    3  502    0 -0.27899306319E+02 -0.59788136518E+03 -0.47539138735E+03  0.76435428258E+03  0.25500000920E-02 0. -1.
       -2    1    3    3    0  502  0.27899306319E+02  0.59788136518E+03  0.58594645184E+03  0.83759998958E+03  0.25500000920E-02 0.  1.
</event>
<event>
 5   0  0.5131239E-04  0.1633230E+04  0.7818609E-02  0.8800390E-01
       -2   -1    0    0    0  501  0.00000000000E+00  0.00000000000E+00  0.40473291947E+03  0.40473291948E+03  0.25500000920E-02 0.  1.
        2   -1    0    0  501    0  0.00000000000E+00  0.00000000000E+00 -0.16476538779E+04  0.16476538779E+04  0.25500000920E-02 0. -1.
    10030    2    1    2    0    0  0.00000000000E+00  0.00000000000E+00 -0.12429209585E+04  0.20523867974E+04  0.16332296401E+04 0.  0.
        1    1    3    3  502    0 -0.13746352805E+03  0.47147127751E+03  0.19842416867E+03  0.52967304802E+03  0.50400001928E-02 0.  1.
       -1    1    3    3    0  502  0.13746352805E+03 -0.47147127751E+03 -0.14413451271E+04  0.15227137494E+04  0.50400001928E-02 0. -1.
</event>
<event>
 5   0  0.2796994E-04  0.1611566E+04  0.7818609E-02  0.8813474E-01
       -1   -1    0    0    0  501  0.00000000000E+00  0.00000000000E+00  0.75012056206E+03  0.75012056207E+03  0.50400001928E-02 0. -1.
        1   -1    0    0  501    0  0.00000000000E+00  0.00000000000E+00 -0.86557570813E+03  0.86557570814E+03  0.50400001928E-02 0.  1.
    10030    2    1    2    0    0  0.00000000000E+00  0.00000000000E+00 -0.11545514607E+03  0.16156962702E+04  0.16115658680E+04 0.  0.
        3    1    3    3  502    0  0.65476154279E+03 -0.88598393959E+02 -0.52012954291E+03  0.84089066170E+03  0.10100000352E+00 0.  1.
       -3    1    3    3    0  502 -0.65476154279E+03  0.88598393959E+02  0.40467439684E+03  0.77480560852E+03  0.10100000352E+00 0. -1.
</event>
<event>
 5   0  0.5131239E-04  0.1616809E+04  0.7818609E-02  0.8810288E-01
       -2   -1    0    0    0  501  0.00000000000E+00  0.00000000000E+00  0.14999297572E+04  0.14999297572E+04  0.25500000920E-02 0.  1.
        2   -1    0    0  501    0  0.00000000000E+00  0.00000000000E+00 -0.43569887911E+03  0.43569887912E+03  0.25500000920E-02 0. -1.
    10030    2    1    2    0    0  0.00000000000E+00  0.00000000000E+00  0.10642308781E+04  0.19356286364E+04  0.16168088495E+04 0.  0.
        1    1    3    3  502    0  0.70355467297E+03  0.71620274798E+01  0.10087075098E+04  0.12298501180E+04  0.50400001928E-02 0.  1.
       -1    1    3    3    0  502 -0.70355467297E+03 -0.71620274798E+01  0.55523368359E+02  0.70577851834E+03  0.50400001928E-02 0. -1.
</event>
<event>
 5   0  0.5131239E-04  0.1583524E+04  0.7818609E-02  0.8830734E-01
       -2   -1    0    0    0  501  0.00000000000E+00  0.00000000000E+00  0.63241030795E+03  0.63241030795E+03  0.25500000920E-02 0. -1.
        2   -1    0    0  501    0  0.00000000000E+00  0.00000000000E+00 -0.99126645475E+03  0.99126645475E+03  0.25500000920E-02 0.  1.
    10030    2    1    2    0    0  0.00000000000E+00  0.00000000000E+00 -0.35885614680E+03  0.16236767627E+04  0.15835240749E+04 0.  0.
        1    1    3    3  502    0  0.28025704315E+03 -0.36376352806E+03  0.48192229064E+03  0.66567034546E+03  0.50400001928E-02 0. -1.
       -1    1    3    3    0  502 -0.28025704315E+03  0.36376352806E+03 -0.84077843744E+03  0.95800641724E+03  0.50400001928E-02 0.  1.
</event>
<event>
 5   0  0.5381164E-04  0.1600246E+04  0.7818609E-02  0.8820397E-01
        2   -1    0    0  501    0  0.00000000000E+00  0.00000000000E+00  0.15758117637E+04  0.15758117637E+04  0.25500000920E-02 0.  1.
       -2   -1    0    0    0  501  0.00000000000E+00  0.00000000000E+00 -0.40626483771E+03  0.40626483772E+03  0.25500000920E-02 0. -1.
    10030    2    1    2    0    0  0.00000000000E+00  0.00000000000E+00  0.11695469260E+04  0.19820766014E+04  0.16002461191E+04 0.  0.
        5    1    3    3  502    0 -0.75152412956E+03 -0.27178541680E+03  0.63304722674E+03  0.10195227861E+04  0.46999998093E+01 0.  1.
       -5    1    3    3    0  502  0.75152412956E+03  0.27178541680E+03  0.53649969923E+03  0.96255381531E+03  0.46999998093E+01 0. -1.
</event>
<event>
 5   0  0.5264308E-04  0.1593526E+04  0.7818609E-02  0.8824535E-01
        2   -1    0    0  501    0  0.00000000000E+00  0.00000000000E+00  0.81588141042E+03  0.81588141043E+03  0.25500000920E-02 0. -1.
       -2   -1    0    0    0  501  0.00000000000E+00  0.00000000000E+00 -0.77809285565E+03  0.77809285566E+03  0.25500000920E-02 0.  1.
    10030    2    1    2    0    0  0.00000000000E+00  0.00000000000E+00  0.37788554772E+02  0.15939742661E+04  0.15935262740E+04 0.  0.
        3    1    3    3  502    0  0.23169737718E+03  0.73788488213E+03 -0.17266337891E+03  0.79244585083E+03  0.10100000352E+00 0.  1.
       -3    1    3    3    0  502 -0.23169737718E+03 -0.73788488213E+03  0.21045193369E+03  0.80152841526E+03  0.10100000352E+00 0. -1.
</event>
<event>
 5   0  0.2689675E-04  0.1598338E+04  0.7818609E-02  0.8821570E-01
       -1   -1    0    0    0  501  0.00000000000E+00  0.00000000000E+00  0.79005093953E+03  0.79005093955E+03  0.50400001928E-02 0.  1.
        1   -1    0    0  501    0  0.00000000000E+00  0.00000000000E+00 -0.80839200591E+03  0.80839200593E+03  0.50400001928E-02 0. -1.
    10030    2    1    2    0    0  0.00000000000E+00  0.00000000000E+00 -0.18341066378E+02  0.15984429455E+04  0.15983377163E+04 0.  0.
        1    1    3    3  502    0 -0.12506660578E+03  0.39142549759E+03  0.67630532482E+03  0.79135609459E+03  0.50400001928E-02 0.  1.
       -1    1    3    3    0  502  0.12506660578E+03 -0.39142549759E+03 -0.69464639120E+03  0.80708685089E+03  0.50400001928E-02 0. -1.
</event>
<event>
 5   0  0.2689675E-04  0.1587457E+04  0.7818609E-02  0.8828291E-01
       -1   -1    0    0    0  501  0.00000000000E+00  0.00000000000E+00  0.57506492419E+03  0.57506492421E+03  0.50400001928E-02 0.  1.
        1   -1    0    0  501    0  0.00000000000E+00  0.00000000000E+00 -0.10955372089E+04  0.10955372090E+04  0.50400001928E-02 0. -1.
    10030    2    1    2    0    0  0.00000000000E+00  0.00000000000E+00 -0.52047228476E+03  0.16706021332E+04  0.15874571138E+04 0.  0.
        1    1    3    3  502    0 -0.13567002153E+02 -0.49276894480E+03 -0.91491204964E+03  0.10392638525E+04  0.50400001928E-02 0. -1.
       -1    1    3    3    0  502  0.13567002153E+02  0.49276894480E+03  0.39443976488E+03  0.63133828067E+03  0.50400001928E-02 0.  1.
</event>
<event>
 5   0  0.2689675E-04  0.1611848E+04  0.7818609E-02  0.8813302E-01
       -1   -1    0    0    0  501  0.00000000000E+00  0.00000000000E+00  0.29543565236E+03  0.29543565240E+03  0.50400001928E-02 0.  1.
        1   -1    0    0  501    0  0.00000000000E+00  0.00000000000E+00 -0.21984927372E+04  0.21984927373E+04  0.50400001928E-02 0. -1.
    10030    2    1    2    0    0  0.00000000000E+00  0.00000000000E+00 -0.19030570849E+04  0.24939283897E+04  0.16118475562E+04 0.  0.
        1    1    3    3  502    0 -0.28689218882E+03 -0.57636145141E+03 -0.17016065044E+04  0.18193307414E+04  0.50400001928E-02 0. -1.
       -1    1    3    3    0  502  0.28689218882E+03  0.57636145141E+03 -0.20145058051E+03  0.67459764830E+03  0.50400001928E-02 0.  1.
</event>
<event>
 5   0  0.5381164E-04  0.1620788E+04  0.7818609E-02  0.8807878E-01
        2   -1    0    0  501    0  0.00000000000E+00  0.00000000000E+00  0.10896033104E+04  0.10896033104E+04  0.25500000920E-02 0. -1.
       -2   -1    0    0    0  501  0.00000000000E+00  0.00000000000E+00 -0.60273143677E+03  0.60273143677E+03  0.25500000920E-02 0.  1.
    10030    2    1    2    0    0  0.00000000000E+00  0.00000000000E+00  0.48687187365E+03  0.16923347472E+04  0.16207876712E+04 0.  0.
        5    1    3    3  502    0  0.25968774646E+03 -0.32503981849E+03  0.96956802217E+03  0.10550700682E+04  0.46999998093E+01 0. -1.
       -5    1    3    3    0  502 -0.25968774646E+03  0.32503981849E+03 -0.48269614852E+03  0.63726467897E+03  0.46999998093E+01 0.  1.
</event>
<event>
 5   0  0.5131239E-04  0.1592637E+04  0.7818609E-02  0.8825084E-01
       -2   -1    0    0    0  501  0.00000000000E+00  0.00000000000E+00  0.46130750819E+03  0.46130750820E+03  0.25500000920E-02 0.  1.
        2   -1    0    0  501    0  0.00000000000E+00  0.00000000000E+00 -0.13746213720E+04  0.13746213720E+04  0.25500000920E-02 0. -1.
    10030    2    1    2    0    0  0.00000000000E+00  0.00000000000E+00 -0.91331386385E+03  0.18359288802E+04  0.15926370080E+04 0.  0.
        1    1    3    3  502    0  0.33743968258E+03 -0.28557327214E+03 -0.12201860485E+04  0.12977949091E+04  0.50400001928E-02 0. -1.
       -1    1    3    3    0  502 -0.33743968258E+03  0.28557327214E+03  0.30687218465E+03  0.53813397113E+03  0.50400001928E-02 0.  1.
</event>
<event>
 5   0  0.2730707E-04  0.1611726E+04  0.7818609E-02  0.8813377E-01
       -1   -1    0    0    0  501  0.00000000000E+00  0.00000000000E+00  0.74677157605E+03  0.74677157607E+03  0.50400001928E-02 0.  1.
        1   -1    0    0  501    0  0.00000000000E+00  0.00000000000E+00 -0.86963016081E+03  0.86963016082E+03  0.50400001928E-02 0. -1.
    10030    2    1    2    0    0  0.00000000000E+00  0.00000000000E+00 -0.12285858476E+03  0.16164017369E+04  0.16117258896E+04 0.  0.
        5    1    3    3  502    0 -0.77746365685E+03 -0.96707039632E+02  0.12777381360E+03  0.79382002159E+03  0.46999998093E+01 0.  1.
       -5    1    3    3    0  502  0.77746365685E+03  0.96707039632E+02 -0.25063239836E+03  0.82258171530E+03  0.46999998093E+01 0. -1.
</event>
<event>
 5   0  0.2730707E-04  0.1600353E+04  0.7818609E-02  0.8820331E-01
       -1   -1    0    0    0  501  0.00000000000E+00  0.00000000000E+00  0.49252977388E+03  0.49252977391E+03  0.50400001928E-02 0. -1.
        1   -1    0    0  501    0  0.00000000000E+00  0.00000000000E+00 -0.12999878973E+04  0.12999878973E+04  0.50400001928E-02 0.  1.
    10030    2    1    2    0    0  0.00000000000E+00  0.00000000000E+00 -0.80745812343E+03  0.17925176712E+04  0.16003533924E+04 0.  0.
        5    1    3    3  502    0 -0.16070222566E+03 -0.53193837576E+03  0.24114403651E+03  0.60576907917E+03  0.46999998093E+01 0. -1.
       -5    1    3    3    0  502  0.16070222566E+03  0.53193837576E+03 -0.10486021599E+04  0.11867485921E+04  0.46999998093E+01 0.  1.
</event>
<event>
 5   0  0.5131239E-04  0.1545223E+04  0.7818609E-02  0.8854925E-01
       -2   -1    0    0    0  501  0.00000000000E+00  0.00000000000E+00  0.62771430680E+03  0.62771430680E+03  0.25500000920E-02 0. -1.
        2   -1    0    0  501    0  0.00000000000E+00  0.00000000000E+00 -0.95095521611E+03  0.95095521612E+03  0.25500000920E-02 0.  1.
    10030    2    1    2    0    0  0.00000000000E+00  0.00000000000E+00 -0.32324090932E+03  0.15786695229E+04  0.15452225656E+04 0.  0.
        1    1    3    3  502    0 -0.27030434393E+03 -0.31833677659E+02 -0.90035582623E+03  0.94059472422E+03  0.50400001928E-02 0.  1.
       -1    1    3    3    0  502  0.27030434393E+03  0.31833677659E+02  0.57711491691E+03  0.63807479870E+03  0.50400001928E-02 0. -1.
</event>
<event>
 5   0  0.2796994E-04  0.1576141E+04  0.7818609E-02  0.8835341E-01
        1   -1    0    0  501    0  0.00000000000E+00  0.00000000000E+00  0.16431715160E+04  0.16431715160E+04  0.50400001928E-02 0. -1.
       -1   -1    0    0    0  501  0.00000000000E+00  0.00000000000E+00 -0.37796138122E+03  0.37796138125E+03  0.50400001928E-02 0.  1.
    10030    2    1    2    0    0  0.00000000000E+00  0.00000000000E+00  0.12652101348E+04  0.20211328972E+04  0.15761413335E+04 0.  0.
        3    1    3    3  502    0 -0.10000359918E+03 -0.78093455007E+03  0.58826029076E+03  0.98280703661E+03  0.10100000352E+00 0.  1.
       -3    1    3    3    0  502  0.10000359918E+03  0.78093455007E+03  0.67694984400E+03  0.10383258606E+04  0.10100000352E+00 0. -1.
</event>
<event>
 5   0  0.2649086E-04  0.1569161E+04  0.7818609E-02  0.8839721E-01
       -1   -1    0    0    0  501  0.00000000000E+00  0.00000000000E+00  0.95449639232E+03  0.95449639234E+03  0.50400001928E-02 0. -1.
        1   -1    0    0  501    0  0.00000000000E+00  0.00000000000E+00 -0.64491260626E+03  0.64491260628E+03  0.50400001928E-02 0.  1.
    10030    2    1    2    0    0  0.00000000000E+00  0.00000000000E+00  0.30958378606E+03  0.15994089986E+04  0.15691612486E+04 0.  0.
        2    1    3    3  502    0  0.27369340269E+03 -0.47781392341E+03 -0.41486646805E+03  0.68944065038E+03  0.25500000920E-02 0.  1.
       -2    1    3    3    0  502 -0.27369340269E+03  0.47781392341E+03  0.72445025412E+03  0.90996834823E+03  0.25500000920E-02 0. -1.
</event>
<event>
 5   0  0.2763895E-04  0.1487414E+04  0.7818609E-02  0.8892866E-01
        1   -1    0    0  501    0  0.00000000000E+00  0.00000000000E+00  0.72251827493E+03  0.72251827495E+03  0.50400001928E-02 0. -1.
       -1   -1    0    0    0  501  0.00000000000E+00  0.00000000000E+00 -0.76551722440E+03  0.76551722442E+03  0.50400001928E-02 0.  1.
    10030    2    1    2    0    0  0.00000000000E+00  0.00000000000E+00 -0.42998949475E+02  0.14880354994E+04  0.14874141110E+04 0.  0.
        4    1    3    3  502    0  0.71902776098E+01  0.74281635365E+03 -0.57161753690E+02  0.74504826309E+03  0.12699999809E+01 0. -1.
       -4    1    3    3    0  502 -0.71902776098E+01 -0.74281635365E+03  0.14162804215E+02  0.74298723628E+03  0.12699999809E+01 0.  1.
</event>
<event>
 5   0  0.2763895E-04  0.1603449E+04  0.7818609E-02  0.8818432E-01
       -1   -1    0    0    0  501  0.00000000000E+00  0.00000000000E+00  0.67802969282E+03  0.67802969284E+03  0.50400001928E-02 0.  1.
        1   -1    0    0  501    0  0.00000000000E+00  0.00000000000E+00 -0.94798570277E+03  0.94798570278E+03  0.50400001928E-02 0. -1.
    10030    2    1    2    0    0  0.00000000000E+00  0.00000000000E+00 -0.26995600995E+03  0.16260153956E+04  0.16034493505E+04 0.  0.
        4    1    3    3  502    0 -0.62275751267E+03 -0.50446790718E+03 -0.15639520279E+03  0.81656344598E+03  0.12699999809E+01 0.  1.
       -4    1    3    3    0  502  0.62275751267E+03  0.50446790718E+03 -0.11356080716E+03  0.80945194964E+03  0.12699999809E+01 0. -1.
</event>
<event>
 5   0  0.2689675E-04  0.1568718E+04  0.7818609E-02  0.8840000E-01
       -1   -1    0    0    0  501  0.00000000000E+00  0.00000000000E+00  0.33445510851E+03  0.33445510855E+03  0.50400001928E-02 0. -1.
        1   -1    0    0  501    0  0.00000000000E+00  0.00000000000E+00 -0.18394660964E+04  0.18394660964E+04  0.50400001928E-02 0.  1.
    10030    2    1    2    0    0  0.00000000000E+00  0.00000000000E+00 -0.15050109879E+04  0.21739212050E+04  0.15687177349E+04 0.  0.
        1    1    3    3  502    0  0.18272339884E+03  0.56484266047E+03 -0.14628978090E+04  0.15787669465E+04  0.50400001928E-02 0.  1.
       -1    1    3    3    0  502 -0.18272339884E+03 -0.56484266047E+03 -0.42113178895E+02  0.59515425852E+03  0.50400001928E-02 0. -1.
</event>
<event>
 5   0  0.2796994E-04  0.1561028E+04  0.7818609E-02  0.8844854E-01
       -1   -1    0    0    0  501  0.00000000000E+00  0.00000000000E+00  0.54695615342E+03  0.54695615344E+03  0.50400001928E-02 0.  1.
        1   -1    0    0  501    0  0.00000000000E+00  0.00000000000E+00 -0.11138047197E+04  0.11138047198E+04  0.50400001928E-02 0. -1.
    10030    2    1    2    0    0  0.00000000000E+00  0.00000000000E+00 -0.56684856632E+03  0.16607608732E+04  0.15610283088E+04 0.  0.
        3    1    3    3  502    0  0.94699765267E+00 -0.78038236146E+03 -0.29864972467E+03  0.83557716289E+03  0.10100000352E+00 0. -1.
       -3    1    3    3    0  502 -0.94699765267E+00  0.78038236146E+03 -0.26819884165E+03  0.82518371031E+03  0.10100000352E+00 0.  1.
</event>
<event>
 5   0  0.2763895E-04  0.1600431E+04  0.7818609E-02  0.8820283E-01
        1   -1    0    0  501    0  0.00000000000E+00  0.00000000000E+00  0.10593440809E+04  0.10593440809E+04  0.50400001928E-02 0. -1.
       -1   -1    0    0    0  501  0.00000000000E+00  0.00000000000E+00 -0.60447325461E+03  0.60447325463E+03  0.50400001928E-02 0.  1.
    10030    2    1    2    0    0  0.00000000000E+00  0.00000000000E+00  0.45487082633E+03  0.16638173356E+04  0.16004313973E+04 0.  0.
        4    1    3    3  502    0 -0.15470920882E+03 -0.55600167716E+03 -0.34883880530E+03  0.67436112676E+03  0.12699999809E+01 0.  1.
       -4    1    3    3    0  502  0.15470920882E+03  0.55600167716E+03  0.80370963163E+03  0.98945620882E+03  0.12699999809E+01 0. -1.
</event>
<event>
 5   0  0.5381164E-04  0.1610564E+04  0.7818609E-02  0.8814084E-01
       -2   -1    0    0    0  501  0.00000000000E+00  0.00000000000E+00  0.37785276093E+03  0.37785276094E+03  0.25500000920E-02 0. -1.
        2   -1    0    0  501    0  0.00000000000E+00  0.00000000000E+00 -0.17162216800E+04  0.17162216800E+04  0.25500000920E-02 0.  1.
    10030    2    1    2    0    0  0.00000000000E+00  0.00000000000E+00 -0.13383689191E+04  0.20940744409E+04  0.16105640008E+04 0.  0.
        5    1    3    3  502    0 -0.93714454000E+02  0.34220725610E+03  0.27072467206E+03  0.44632067292E+03  0.46999998093E+01 0. -1.
       -5    1    3    3    0  502  0.93714454000E+02 -0.34220725610E+03 -0.16090935911E+04  0.16477537680E+04  0.46999998093E+01 0.  1.
</event>
<event>
 5   0  0.2649086E-04  0.1595075E+04  0.7818609E-02  0.8823579E-01
       -1   -1    0    0    0  501  0.00000000000E+00  0.00000000000E+00  0.46878547702E+03  0.46878547704E+03  0.50400001928E-02 0.  1.
        1   -1    0    0  501    0  0.00000000000E+00  0.00000000000E+00 -0.13568386921E+04  0.13568386921E+04  0.50400001928E-02 0. -1.
    10030    2    1    2    0    0  0.00000000000E+00  0.00000000000E+00 -0.88805321507E+03  0.18256241691E+04  0.15950752628E+04 0.  0.
        2    1    3    3  502    0  0.30984486611E+03 -0.31189063964E+03 -0.12056275304E+04  0.12832838167E+04  0.25500000920E-02 0. -1.
       -2    1    3    3    0  502 -0.30984486611E+03  0.31189063964E+03  0.31757431531E+03  0.54234035245E+03  0.25500000920E-02 0.  1.
</event>
<event>
 5   0  0.2796994E-04  0.1608273E+04  0.7818609E-02  0.8815481E-01
       -1   -1    0    0    0  501  0.00000000000E+00  0.00000000000E+00  0.56353635624E+03  0.56353635626E+03  0.50400001928E-02 0. -1.
        1   -1    0    0  501    0  0.00000000000E+00  0.00000000000E+00 -0.11474607035E+04  0.11474607035E+04  0.50400001928E-02 0.  1.
    10030    2    1    2    0    0  0.00000000000E+00  0.00000000000E+00 -0.58392434721E+03  0.17109970597E+04  0.16082733894E+04 0.  0.
        3    1    3    3  502    0 -0.52537365075E+03 -0.50444360324E+03  0.70621568091E+02  0.73175695271E+03  0.10100000352E+00 0. -1.
       -3    1    3    3    0  502  0.52537365075E+03  0.50444360324E+03 -0.65454591530E+03  0.97924010702E+03  0.10100000352E+00 0.  1.
</event>
<event>
 5   0  0.2649086E-04  0.1605028E+04  0.7818609E-02  0.8817465E-01
        1   -1    0    0  501    0  0.00000000000E+00  0.00000000000E+00  0.12670311199E+04  0.12670311200E+04  0.50400001928E-02 0. -1.
       -1   -1    0    0    0  501  0.00000000000E+00  0.00000000000E+00 -0.50829778323E+03  0.50829778325E+03  0.50400001928E-02 0.  1.
    10030    2    1    2    0    0  0.00000000000E+00  0.00000000000E+00  0.75873333671E+03  0.17753289032E+04  0.16050284852E+04 0.  0.
        2    1    3    3  502    0 -0.47810957433E+03 -0.37216376975E+03 -0.20271589431E+03  0.63889621254E+03  0.25500000920E-02 0.  1.
       -2    1    3    3    0  502  0.47810957433E+03  0.37216376975E+03  0.96144923102E+03  0.11364326907E+04  0.25500000920E-02 0. -1.
</event>
<event>
 5   0  0.5131239E-04  0.1613776E+04  0.7818609E-02  0.8812129E-01
        2   -1    0    0  501    0  0.00000000000E+00  0.00000000000E+00  0.12219804721E+04  0.12219804721E+04  0.25500000920E-02 0. -1.
       -2   -1    0    0    0  501  0.00000000000E+00  0.00000000000E+00 -0.53279744140E+03  0.53279744141E+03  0.25500000920E-02 0.  1.
    10030    2    1    2    0    0  0.00000000000E+00  0.00000000000E+00  0.68918303065E+03  0.17547779135E+04  0.16137757824E+04 0.  0.
        1    1    3    3  502    0  0.70719114709E+03  0.28521172659E+02 -0.76736525445E+02  0.71191380811E+03  0.50400001928E-02 0.  1.
       -1    1    3    3    0  502 -0.70719114709E+03 -0.28521172659E+02  0.76591955610E+03  0.10428641054E+04  0.50400001928E-02 0. -1.
</event>
<event>
 5   0  0.2689675E-04  0.1593760E+04  0.7818609E-02  0.8824391E-01
       -1   -1    0    0    0  501  0.00000000000E+00  0.00000000000E+00  0.28491780648E+03  0.28491780652E+03  0.50400001928E-02 0. -1.
        1   -1    0    0  501    0  0.00000000000E+00  0.00000000000E+00 -0.22287752016E+04  0.22287752016E+04  0.50400001928E-02 0.  1.
    10030    2    1    2    0    0  0.00000000000E+00  0.00000000000E+00 -0.19438573951E+04  0.25136930081E+04  0.15937600091E+04 0.  0.
        1    1    3    3  502    0 -0.41520881609E+03  0.41996675367E+03 -0.12808887598E+03  0.60429892877E+03  0.50400001928E-02 0. -1.
       -1    1    3    3    0  502  0.41520881609E+03 -0.41996675367E+03 -0.18157685192E+04  0.19093940794E+04  0.50400001928E-02 0.  1.
</event>
<event>
 5   0  0.5315984E-04  0.1547253E+04  0.7818609E-02  0.8853624E-01
       -2   -1    0    0    0  501  0.00000000000E+00  0.00000000000E+00  0.32732829635E+03  0.32732829636E+03  0.25500000920E-02 0.  1.
        2   -1    0    0  501    0  0.00000000000E+00  0.00000000000E+00 -0.18284326961E+04  0.18284326961E+04  0.25500000920E-02 0. -1.
    10030    2    1    2    0    0  0.00000000000E+00  0.00000000000E+00 -0.15011043997E+04  0.21557609924E+04  0.15472527388E+04 0.  0.
        2    1    3    3  502    0  0.12703100881E+03 -0.19165854946E+03 -0.17797234055E+04  0.17945153320E+04  0.25500000920E-02 0. -1.
       -2    1    3    3    0  502 -0.12703100881E+03  0.19165854946E+03  0.27861900577E+03  0.36124566041E+03  0.25500000920E-02 0.  1.
</event>
<event>
 5   0  0.1908125E-04  0.1600867E+04  0.7818609E-02  0.8820015E-01
       -3   -1    0    0    0  501  0.00000000000E+00  0.00000000000E+00  0.12432305824E+04  0.12432305865E+04  0.10100000352E+00 0. -1.
        3   -1    0    0  501    0  0.00000000000E+00  0.00000000000E+00 -0.51534617132E+03  0.51534618122E+03  0.10100000352E+00 0.  1.
    10030    2    1    2    0    0  0.00000000000E+00  0.00000000000E+00  0.72788441111E+03  0.17585767677E+04  0.16008674312E+04 0.  0.
        4    1    3    3  502    0  0.58924582370E+03  0.46810276741E+03  0.66349995177E+03  0.10032769510E+04  0.12699999809E+01 0. -1.
       -4    1    3    3    0  502 -0.58924582370E+03 -0.46810276741E+03  0.64384459337E+02  0.75529981670E+03  0.12699999809E+01 0.  1.
</event>
<event>
 5   0  0.2689675E-04  0.1569206E+04  0.7818609E-02  0.8839693E-01
       -1   -1    0    0    0  501  0.00000000000E+00  0.00000000000E+00  0.92392279887E+03  0.92392279888E+03  0.50400001928E-02 0.  1.
        1   -1    0    0  501    0  0.00000000000E+00  0.00000000000E+00 -0.66629121869E+03  0.66629121871E+03  0.50400001928E-02 0. -1.
    10030    2    1    2    0    0  0.00000000000E+00  0.00000000000E+00  0.25763158017E+03  0.15902140176E+04  0.15692057197E+04 0.  0.
        1    1    3    3  502    0 -0.38496982671E+03  0.60554098431E+03 -0.19279717346E+03  0.74300228887E+03  0.50400001928E-02 0. -1.
       -1    1    3    3    0  502  0.38496982671E+03 -0.60554098431E+03  0.45042875363E+03  0.84721172872E+03  0.50400001928E-02 0.  1.
</event>
<event>
 5   0  0.2796994E-04  0.1587140E+04  0.7818609E-02  0.8828488E-01
       -1   -1    0    0    0  501  0.00000000000E+00  0.00000000000E+00  0.57673590128E+03  0.57673590131E+03  0.50400001928E-02 0.  1.
        1   -1    0    0  501    0  0.00000000000E+00  0.00000000000E+00 -0.10919263705E+04  0.10919263705E+04  0.50400001928E-02 0. -1.
    10030    2    1    2    0    0  0.00000000000E+00  0.00000000000E+00 -0.51519046923E+03  0.16686622718E+04  0.15871397411E+04 0.  0.
        3    1    3    3  502    0 -0.35950031999E+03 -0.68930798688E+03 -0.90143710270E+02  0.78263138165E+03  0.10100000352E+00 0.  1.
       -3    1    3    3    0  502  0.35950031999E+03  0.68930798688E+03 -0.42504675896E+03  0.88603089018E+03  0.10100000352E+00 0. -1.
</event>
<event>
 5   0  0.5264308E-04  0.1635898E+04  0.7818609E-02  0.8798793E-01
        2   -1    0    0  501    0  0.00000000000E+00  0.00000000000E+00  0.12304184234E+04  0.12304184234E+04  0.25500000920E-02 0.  1.
       -2   -1    0    0    0  501  0.00000000000E+00  0.00000000000E+00 -0.54375044078E+03  0.54375044079E+03  0.25500000920E-02 0. -1.
    10030    2    1    2    0    0  0.00000000000E+00  0.00000000000E+00  0.68666798261E+03  0.17741688642E+04  0.16358979920E+04 0.  0.
        3    1    3    3  502    0  0.32179743814E+03 -0.66256140401E+03 -0.42395524130E+02  0.73779305767E+03  0.10100000352E+00 0. -1.
       -3    1    3    3    0  502 -0.32179743814E+03  0.66256140401E+03  0.72906350674E+03  0.10363758065E+04  0.10100000352E+00 0.  1.
</event>
<event>
 5   0  0.5083831E-04  0.1610727E+04  0.7818609E-02  0.8813985E-01
       -2   -1    0    0    0  501  0.00000000000E+00  0.00000000000E+00  0.63515617303E+03  0.63515617303E+03  0.25500000920E-02 0.  1.
        2   -1    0    0  501    0  0.00000000000E+00  0.00000000000E+00 -0.10211823056E+04  0.10211823056E+04  0.25500000920E-02 0. -1.
    10030    2    1    2    0    0  0.00000000000E+00  0.00000000000E+00 -0.38602613256E+03  0.16563384786E+04  0.16107268486E+04 0.  0.
        4    1    3    3  502    0  0.33088584509E+03  0.34022467835E+03 -0.86210750052E+03  0.98410834240E+03  0.12699999809E+01 0. -1.
       -4    1    3    3    0  502 -0.33088584509E+03 -0.34022467835E+03  0.47608136795E+03  0.67223013623E+03  0.12699999809E+01 0.  1.
</event>
<event>
 5   0  0.2689675E-04  0.1589009E+04  0.7818609E-02  0.8827329E-01
        1   -1    0    0  501    0  0.00000000000E+00  0.00000000000E+00  0.12241886133E+04  0.12241886133E+04  0.50400001928E-02 0. -1.
       -1   -1    0    0    0  501  0.00000000000E+00  0.00000000000E+00 -0.51563723048E+03  0.51563723051E+03  0.50400001928E-02 0.  1.
    10030    2    1    2    0    0  0.00000000000E+00  0.00000000000E+00  0.70855138285E+03  0.17398258439E+04  0.15890087806E+04 0.  0.
        1    1    3    3  502    0  0.34323654136E+03 -0.68504077729E+03  0.12422665432E+03  0.77622448527E+03  0.50400001928E-02 0.  1.
       -1    1    3    3    0  502 -0.34323654136E+03  0.68504077729E+03  0.58432472853E+03  0.96360135859E+03  0.50400001928E-02 0. -1.
</event>
<event>
 5   0  0.2730707E-04  0.1601736E+04  0.7818609E-02  0.8819482E-01
       -1   -1    0    0    0  501  0.00000000000E+00  0.00000000000E+00  0.26764079986E+03  0.26764079991E+03  0.50400001928E-02 0. -1.
        1   -1    0    0  501    0  0.00000000000E+00  0.00000000000E+00 -0.23964579346E+04  0.23964579346E+04  0.50400001928E-02 0.  1.
    10030    2    1    2    0    0  0.00000000000E+00  0.00000000000E+00 -0.21288171348E+04  0.26640987345E+04  0.16017364559E+04 0.  0.
        5    1    3    3  502    0 -0.96617974196E+02 -0.66803502311E+03 -0.17812740990E+04  0.19048793481E+04  0.46999998093E+01 0.  1.
       -5    1    3    3    0  502  0.96617974196E+02  0.66803502311E+03 -0.34754303575E+03  0.75921938643E+03  0.46999998093E+01 0. -1.
</event>
<event>
 5   0  0.5264308E-04  0.1575274E+04  0.7818609E-02  0.8835884E-01
        2   -1    0    0  501    0  0.00000000000E+00  0.00000000000E+00  0.10701809097E+04  0.10701809097E+04  0.25500000920E-02 0. -1.
       -2   -1    0    0    0  501  0.00000000000E+00  0.00000000000E+00 -0.57968899813E+03  0.57968899814E+03  0.25500000920E-02 0.  1.
    10030    2    1    2    0    0  0.00000000000E+00  0.00000000000E+00  0.49049191157E+03  0.16498699078E+04  0.15752740706E+04 0.  0.
        3    1    3    3  502    0  0.83134606047E+02  0.71374507290E+03 -0.92562220640E+02  0.72450753391E+03  0.10100000352E+00 0.  1.
       -3    1    3    3    0  502 -0.83134606047E+02 -0.71374507290E+03  0.58305413221E+03  0.92536237393E+03  0.10100000352E+00 0. -1.
</event>
<event>
 5   0  0.2763895E-04  0.1610415E+04  0.7818609E-02  0.8814175E-01
        1   -1    0    0  501    0  0.00000000000E+00  0.00000000000E+00  0.10949988419E+04  0.10949988419E+04  0.50400001928E-02 0. -1.
       -1   -1    0    0    0  501  0.00000000000E+00  0.00000000000E+00 -0.59210910050E+03  0.59210910052E+03  0.50400001928E-02 0.  1.
    10030    2    1    2    0    0  0.00000000000E+00  0.00000000000E+00  0.50288974142E+03  0.16871079424E+04  0.16104145794E+04 0.  0.
        4    1    3    3  502    0 -0.41970652771E+03  0.43957713705E+03 -0.30189025225E+03  0.67861695095E+03  0.12699999809E+01 0.  1.
       -4    1    3    3    0  502  0.41970652771E+03 -0.43957713705E+03  0.80477999367E+03  0.10084909915E+04  0.12699999809E+01 0. -1.
</event>
<event>
 5   0  0.5264308E-04  0.1594136E+04  0.7818609E-02  0.8824159E-01
       -2   -1    0    0    0  501  0.00000000000E+00  0.00000000000E+00  0.46114712245E+03  0.46114712246E+03  0.25500000920E-02 0.  1.
        2   -1    0    0  501    0  0.00000000000E+00  0.00000000000E+00 -0.13776886082E+04  0.13776886082E+04  0.25500000920E-02 0. -1.
    10030    2    1    2    0    0  0.00000000000E+00  0.00000000000E+00 -0.91654148574E+03  0.18388357306E+04  0.15941356747E+04 0.  0.
        3    1    3    3  502    0  0.17297884026E+03 -0.27411734354E+03 -0.12982336201E+04  0.13380854008E+04  0.10100000352E+00 0. -1.
       -3    1    3    3    0  502 -0.17297884026E+03  0.27411734354E+03  0.38169213437E+03  0.50075032986E+03  0.10100000352E+00 0.  1.
</event>
<event>
 5   0  0.1908125E-04  0.1593806E+04  0.7818609E-02  0.8824363E-01
        3   -1    0    0  501    0  0.00000000000E+00  0.00000000000E+00  0.38532283915E+03  0.38532285238E+03  0.10100000352E+00 0.  1.
       -3   -1    0    0    0  501  0.00000000000E+00  0.00000000000E+00 -0.16481090827E+04  0.16481090858E+04  0.10100000352E+00 0. -1.
    10030    2    1    2    0    0  0.00000000000E+00  0.00000000000E+00 -0.12627862436E+04  0.20334319382E+04  0.15938056187E+04 0.  0.
        2    1    3    3  502    0 -0.67457772045E+02 -0.12012207287E+03 -0.16328005450E+04  0.16386022956E+04  0.25500000920E-02 0. -1.
       -2    1    3    3    0  502  0.67457772045E+02  0.12012207287E+03  0.37001430143E+03  0.39482964259E+03  0.25500000920E-02 0.  1.
</event>
<event>
 5   0  0.2649086E-04  0.1595585E+04  0.7818609E-02  0.8823265E-01
        1   -1    0    0  501    0  0.00000000000E+00  0.00000000000E+00  0.94060860033E+03  0.94060860034E+03  0.50400001928E-02 0. -1.
       -1   -1    0    0    0  501  0.00000000000E+00  0.00000000000E+00 -0.67666107230E+03  0.67666107232E+03  0.50400001928E-02 0.  1.
    10030    2    1    2    0    0  0.00000000000E+00  0.00000000000E+00  0.26394752803E+03  0.16172696727E+04  0.15955854401E+04 0.  0.
        2    1    3    3  502    0 -0.51588412375E+03 -0.56148164514E+03  0.36984408059E+03  0.84745661300E+03  0.25500000920E-02 0. -1.
       -2    1    3    3    0  502  0.51588412375E+03  0.56148164514E+03 -0.10589655256E+03  0.76981305966E+03  0.25500000920E-02 0.  1.
</event>
<event>
 5   0  0.5381164E-04  0.1641926E+04  0.7818609E-02  0.8795197E-01
        2   -1    0    0  501    0  0.00000000000E+00  0.00000000000E+00  0.14078220080E+04  0.14078220080E+04  0.25500000920E-02 0.  1.
       -2   -1    0    0    0  501  0.00000000000E+00  0.00000000000E+00 -0.47873974405E+03  0.47873974405E+03  0.25500000920E-02 0. -1.
    10030    2    1    2    0    0  0.00000000000E+00  0.00000000000E+00  0.92908226396E+03  0.18865617521E+04  0.16419261223E+04 0.  0.
        5    1    3    3  502    0 -0.49543050043E+03 -0.57576075844E+03  0.82240484633E+03  0.11195193848E+04  0.46999998093E+01 0.  1.
       -5    1    3    3    0  502  0.49543050043E+03  0.57576075844E+03  0.10667741762E+03  0.76704236724E+03  0.46999998093E+01 0. -1.
</event>
<event>
 5   0  0.2689675E-04  0.1463573E+04  0.7818609E-02  0.8909044E-01
       -1   -1    0    0    0  501  0.00000000000E+00  0.00000000000E+00  0.56738615184E+03  0.56738615186E+03  0.50400001928E-02 0. -1.
        1   -1    0    0  501    0  0.00000000000E+00  0.00000000000E+00 -0.94382230780E+03  0.94382230781E+03  0.50400001928E-02 0.  1.
    10030    2    1    2    0    0  0.00000000000E+00  0.00000000000E+00 -0.37643615597E+03  0.15112084597E+04  0.14635733084E+04 0.  0.
        1    1    3    3  502    0  0.51712767236E+02  0.65132283909E+03  0.15207797390E+03  0.67083780543E+03  0.50400001928E-02 0. -1.
       -1    1    3    3    0  502 -0.51712767236E+02 -0.65132283909E+03 -0.52851412987E+03  0.84037065424E+03  0.50400001928E-02 0.  1.
</event>
<event>
 5   0  0.2689675E-04  0.1602271E+04  0.7818609E-02  0.8819154E-01
       -1   -1    0    0    0  501  0.00000000000E+00  0.00000000000E+00  0.91478845045E+03  0.91478845047E+03  0.50400001928E-02 0.  1.
        1   -1    0    0  501    0  0.00000000000E+00  0.00000000000E+00 -0.70160246660E+03  0.70160246662E+03  0.50400001928E-02 0. -1.
    10030    2    1    2    0    0  0.00000000000E+00  0.00000000000E+00  0.21318598385E+03  0.16163909171E+04  0.16022706804E+04 0.  0.
        1    1    3    3  502    0  0.63328053427E+03  0.10571941569E+03  0.58997849697E+03  0.87194922837E+03  0.50400001928E-02 0.  1.
       -1    1    3    3    0  502 -0.63328053427E+03 -0.10571941569E+03 -0.37679251311E+03  0.74444168872E+03  0.50400001928E-02 0. -1.
</event>
<event>
 5   0  0.5264308E-04  0.1605631E+04  0.7818609E-02  0.8817096E-01
       -2   -1    0    0    0  501  0.00000000000E+00  0.00000000000E+00  0.10469517398E+04  0.10469517398E+04  0.25500000920E-02 0.  1.
        2   -1    0    0  501    0  0.00000000000E+00  0.00000000000E+00 -0.61560880217E+03  0.61560880218E+03  0.25500000920E-02 0. -1.
    10030    2    1    2    0    0  0.00000000000E+00  0.00000000000E+00  0.43134293763E+03  0.16625605420E+04  0.16056309744E+04 0.  0.
        3    1    3    3  502    0 -0.38684412332E+03  0.26606371919E+03  0.88997086188E+03  0.10062238437E+04  0.10100000352E+00 0.  1.
       -3    1    3    3    0  502  0.38684412332E+03 -0.26606371919E+03 -0.45862792425E+03  0.65633669829E+03  0.10100000352E+00 0. -1.
</event>
<event>
 5   0  0.2763895E-04  0.1492022E+04  0.7818609E-02  0.8889776E-01
        1   -1    0    0  501    0  0.00000000000E+00  0.00000000000E+00  0.17721075794E+04  0.17721075794E+04  0.50400001928E-02 0.  1.
       -1   -1    0    0    0  501  0.00000000000E+00  0.00000000000E+00 -0.31405106408E+03  0.31405106412E+03  0.50400001928E-02 0. -1.
    10030    2    1    2    0    0  0.00000000000E+00  0.00000000000E+00  0.14580565153E+04  0.20861586436E+04  0.14920218109E+04 0.  0.
        4    1    3    3  502    0  0.28518436776E+03  0.47420474975E+03  0.29461849052E+02  0.55413886504E+03  0.12699999809E+01 0. -1.
       -4    1    3    3    0  502 -0.28518436776E+03 -0.47420474975E+03  0.14285946663E+04  0.15320197785E+04  0.12699999809E+01 0.  1.
</event>
<event>
 5   0  0.2689675E-04  0.1595968E+04  0.7818609E-02  0.8823029E-01
        1   -1    0    0  501    0  0.00000000000E+00  0.00000000000E+00  0.88309124945E+03  0.88309124947E+03  0.50400001928E-02 0. -1.
       -1   -1    0    0    0  501  0.00000000000E+00  0.00000000000E+00 -0.72107917539E+03  0.72107917541E+03  0.50400001928E-02 0.  1.
    10030    2    1    2    0    0  0.00000000000E+00  0.00000000000E+00  0.16201207407E+03  0.16041704249E+04  0.15959683079E+04 0.  0.
        1    1    3    3  502    0  0.23411759327E+03  0.37103938151E+03 -0.58897598244E+03  0.73442084531E+03  0.50400001928E-02 0.  1.
       -1    1    3    3    0  502 -0.23411759327E+03 -0.37103938151E+03  0.75098805651E+03  0.86974957956E+03  0.50400001928E-02 0. -1.
</event>
<event>
 5   0  0.5381164E-04  0.1580540E+04  0.7818609E-02  0.8832593E-01
       -2   -1    0    0    0  501  0.00000000000E+00  0.00000000000E+00  0.46348625787E+03  0.46348625788E+03  0.25500000920E-02 0. -1.
        2   -1    0    0  501    0  0.00000000000E+00  0.00000000000E+00 -0.13474549935E+04  0.13474549935E+04  0.25500000920E-02 0.  1.
    10030    2    1    2    0    0  0.00000000000E+00  0.00000000000E+00 -0.88396873561E+03  0.18109412514E+04  0.15805402527E+04 0.  0.
        5    1    3    3  502    0  0.17895537204E+03  0.16015272228E+03 -0.13046163293E+04  0.13265442987E+04  0.46999998093E+01 0.  1.
       -5    1    3    3    0  502 -0.17895537204E+03 -0.16015272228E+03  0.42064759373E+03  0.48439695266E+03  0.46999998093E+01 0. -1.
</event>
<event>
 5   0  0.2730707E-04  0.1608849E+04  0.7818609E-02  0.8815130E-01
       -1   -1    0    0    0  501  0.00000000000E+00  0.00000000000E+00  0.55048135356E+03  0.55048135359E+03  0.50400001928E-02 0.  1.
        1   -1    0    0  501    0  0.00000000000E+00  0.00000000000E+00 -0.11755149429E+04  0.11755149429E+04  0.50400001928E-02 0. -1.
    10030    2    1    2    0    0  0.00000000000E+00  0.00000000000E+00 -0.62503358932E+03  0.17259962965E+04  0.16088493490E+04 0.  0.
        5    1    3    3  502    0 -0.39679539468E+03 -0.64777107020E+02 -0.10599798191E+04  0.11336763056E+04  0.46999998093E+01 0. -1.
       -5    1    3    3    0  502  0.39679539468E+03  0.64777107020E+02  0.43494622980E+03  0.59231999093E+03  0.46999998093E+01 0.  1.
</event>
<event>
 5   0  0.5264308E-04  0.1590413E+04  0.7818609E-02  0.8826459E-01
       -2   -1    0    0    0  501  0.00000000000E+00  0.00000000000E+00  0.49404701901E+03  0.49404701902E+03  0.25500000920E-02 0. -1.
        2   -1    0    0  501    0  0.00000000000E+00  0.00000000000E+00 -0.12799455732E+04  0.12799455732E+04  0.25500000920E-02 0.  1.
    10030    2    1    2    0    0  0.00000000000E+00  0.00000000000E+00 -0.78589855417E+03  0.17739925922E+04  0.15904128960E+04 0.  0.
        3    1    3    3  502    0  0.70326295662E+03  0.73476204063E+02  0.12882569096E+02  0.70720825045E+03  0.10100000352E+00 0. -1.
       -3    1    3    3    0  502 -0.70326295662E+03 -0.73476204063E+02 -0.79878112326E+03  0.10667843417E+04  0.10100000352E+00 0.  1.
</event>
<event>
 5   0  0.2649086E-04  0.1658964E+04  0.7818609E-02  0.8785121E-01
       -1   -1    0    0    0  501  0.00000000000E+00  0.00000000000E+00  0.59876718747E+03  0.59876718749E+03  0.50400001928E-02 0. -1.
        1   -1    0    0  501    0  0.00000000000E+00  0.00000000000E+00 -0.11490953283E+04  0.11490953283E+04  0.50400001928E-02 0.  1.
    10030    2    1    2    0    0  0.00000000000E+00  0.00000000000E+00 -0.55032814086E+03  0.17478625158E+04  0.16589642286E+04 0.  0.
        2    1    3    3  502    0 -0.65051841371E+02  0.33925461559E+03 -0.10697075037E+04  0.11240994528E+04  0.25500000920E-02 0.  1.
       -2    1    3    3    0  502  0.65051841371E+02 -0.33925461559E+03  0.51937936285E+03  0.62376306305E+03  0.25500000920E-02 0. -1.
</event>
<event>
 5   0  0.2763895E-04  0.1583742E+04  0.7818609E-02  0.8830599E-01
        1   -1    0    0  501    0  0.00000000000E+00  0.00000000000E+00  0.19223617494E+04  0.19223617494E+04  0.50400001928E-02 0. -1.
       -1   -1    0    0    0  501  0.00000000000E+00  0.00000000000E+00 -0.32619227675E+03  0.32619227679E+03  0.50400001928E-02 0.  1.
    10030    2    1    2    0    0  0.00000000000E+00  0.00000000000E+00  0.15961694726E+04  0.22485540262E+04  0.15837418424E+04 0.  0.
        4    1    3    3  502    0  0.18764651417E+03 -0.75048583349E+03  0.55790485783E+03  0.95378175902E+03  0.12699999809E+01 0.  1.
       -4    1    3    3    0  502 -0.18764651417E+03  0.75048583349E+03  0.10382646148E+04  0.12947722672E+04  0.12699999809E+01 0. -1.
</event>
<event>
 5   0  0.2689675E-04  0.1614666E+04  0.7818609E-02  0.8811588E-01
       -1   -1    0    0    0  501  0.00000000000E+00  0.00000000000E+00  0.46128798389E+03  0.46128798391E+03  0.50400001928E-02 0.  1.
        1   -1    0    0  501    0  0.00000000000E+00  0.00000000000E+00 -0.14129712081E+04  0.14129712081E+04  0.50400001928E-02 0. -1.
    10030    2    1    2    0    0  0.00000000000E+00  0.00000000000E+00 -0.95168322417E+03  0.18742591920E+04  0.16146660830E+04 0.  0.
        1    1    3    3  502    0  0.41729288055E+03  0.32499041024E+03  0.23216701388E+03  0.57762759393E+03  0.50400001928E-02 0.  1.
       -1    1    3    3    0  502 -0.41729288055E+03 -0.32499041024E+03 -0.11838502380E+04  0.12966315980E+04  0.50400001928E-02 0. -1.
</event>
<event>
 5   0  0.2763895E-04  0.1610563E+04  0.7818609E-02  0.8814085E-01
       -1   -1    0    0    0  501  0.00000000000E+00  0.00000000000E+00  0.53184035637E+03  0.53184035639E+03  0.50400001928E-02 0.  1.
        1   -1    0    0  501    0  0.00000000000E+00  0.00000000000E+00 -0.12193102919E+04  0.12193102919E+04  0.50400001928E-02 0. -1.
    10030    2    1    2    0    0  0.00000000000E+00  0.00000000000E+00 -0.68746993553E+03  0.17511506483E+04  0.16105631564E+04 0.  0.
        4    1    3    3  502    0 -0.28797956138E+03 -0.43370412778E+03 -0.10117292814E+04  0.11378177578E+04  0.12699999809E+01 0. -1.
       -4    1    3    3    0  502  0.28797956138E+03  0.43370412778E+03  0.32425934590E+03  0.61333289047E+03  0.12699999809E+01 0.  1.
</event>
<event>
 5   0  0.5315984E-04  0.1629876E+04  0.7818609E-02  0.8802401E-01
       -2   -1    0    0    0  501  0.00000000000E+00  0.00000000000E+00  0.42875710966E+03  0.42875710967E+03  0.25500000920E-02 0.  1.
        2   -1    0    0  501    0  0.00000000000E+00  0.00000000000E+00 -0.15489523213E+04  0.15489523213E+04  0.25500000920E-02 0. -1.
    10030    2    1    2    0    0  0.00000000000E+00  0.00000000000E+00 -0.11201952116E+04  0.19777094310E+04  0.16298764619E+04 0.  0.
        2    1    3    3  502    0 -0.76462047262E+03  0.25151396272E+03 -0.71463763225E+03  0.10763877954E+04  0.25500000920E-02 0. -1.
       -2    1    3    3    0  502  0.76462047262E+03 -0.25151396272E+03 -0.40555757939E+03  0.90132163560E+03  0.25500000920E-02 0.  1.
</event>
<event>
 5   0  0.5131239E-04  0.1662528E+04  0.7818609E-02  0.8783029E-01
       -2   -1    0    0    0  501  0.00000000000E+00  0.00000000000E+00  0.46925072005E+03  0.46925072006E+03  0.25500000920E-02 0. -1.
        2   -1    0    0  501    0  0.00000000000E+00  0.00000000000E+00 -0.14725608083E+04  0.14725608083E+04  0.25500000920E-02 0.  1.
    10030    2    1    2    0    0  0.00000000000E+00  0.00000000000E+00 -0.10033100883E+04  0.19418115284E+04  0.16625284595E+04 0.  0.
        1    1    3    3  502    0 -0.44780149887E+03  0.54484052948E+03 -0.10155996044E+04  0.12364545853E+04  0.50400001928E-02 0.  1.
       -1    1    3    3    0  502  0.44780149887E+03 -0.54484052948E+03  0.12289516139E+02  0.70535694311E+03  0.50400001928E-02 0. -1.
</event>
<event>
 5   0  0.5264308E-04  0.1603018E+04  0.7818609E-02  0.8818696E-01
       -2   -1    0    0    0  501  0.00000000000E+00  0.00000000000E+00  0.11028927068E+04  0.11028927068E+04  0.25500000920E-02 0.  1.
        2   -1    0    0  501    0  0.00000000000E+00  0.00000000000E+00 -0.58248358810E+03  0.58248358811E+03  0.25500000920E-02 0. -1.
    10030    2    1    2    0    0  0.00000000000E+00  0.00000000000E+00  0.52040911865E+03  0.16853762949E+04  0.16030182795E+04 0.  0.
        3    1    3    3  502    0 -0.66678071499E+03  0.30747211071E+03 -0.77680658077E+02  0.73835622540E+03  0.10100000352E+00 0. -1.
       -3    1    3    3    0  502  0.66678071499E+03 -0.30747211071E+03  0.59808977673E+03  0.94702006947E+03  0.10100000352E+00 0.  1.
</event>
<event>
 5   0  0.5131239E-04  0.1595133E+04  0.7818609E-02  0.8823543E-01
       -2   -1    0    0    0  501  0.00000000000E+00  0.00000000000E+00  0.55559115096E+03  0.55559115097E+03  0.25500000920E-02 0. -1.
        2   -1    0    0  501    0  0.00000000000E+00  0.00000000000E+00 -0.11449294599E+04  0.11449294599E+04  0.25500000920E-02 0.  1.
    10030    2    1    2    0    0  0.00000000000E+00  0.00000000000E+00 -0.58933830892E+03  0.17005206109E+04  0.15951334444E+04 0.  0.
        1    1    3    3  502    0  0.76775850185E+03  0.20911358202E+03 -0.23695293163E+03  0.83025797147E+03  0.50400001928E-02 0. -1.
       -1    1    3    3    0  502 -0.76775850185E+03 -0.20911358202E+03 -0.35238537729E+03  0.87026263938E+03  0.50400001928E-02 0.  1.
</event>
<event>
 5   0  0.5083831E-04  0.1614086E+04  0.7818609E-02  0.8811941E-01
        2   -1    0    0  501    0  0.00000000000E+00  0.00000000000E+00  0.55243288785E+03  0.55243288786E+03  0.25500000920E-02 0. -1.
       -2   -1    0    0    0  501  0.00000000000E+00  0.00000000000E+00 -0.11790007189E+04  0.11790007189E+04  0.25500000920E-02 0.  1.
    10030    2    1    2    0    0  0.00000000000E+00  0.00000000000E+00 -0.62656783101E+03  0.17314336067E+04  0.16140864561E+04 0.  0.
        4    1    3    3  502    0 -0.14998840169E+03 -0.17984872699E+03 -0.11417508874E+04  0.11655208222E+04  0.12699999809E+01 0.  1.
       -4    1    3    3    0  502  0.14998840169E+03  0.17984872699E+03  0.51518305636E+03  0.56591278453E+03  0.12699999809E+01 0. -1.
</event>
<event>
 5   0  0.2796994E-04  0.1581310E+04  0.7818609E-02  0.8832113E-01
        1   -1    0    0  501    0  0.00000000000E+00  0.00000000000E+00  0.11836118339E+04  0.11836118339E+04  0.50400001928E-02 0.  1.
       -1   -1    0    0    0  501  0.00000000000E+00  0.00000000000E+00 -0.52815908923E+03  0.52815908925E+03  0.50400001928E-02 0. -1.
    10030    2    1    2    0    0  0.00000000000E+00  0.00000000000E+00  0.65545274465E+03  0.17117709231E+04  0.15813100243E+04 0.  0.
        3    1    3    3  502    0 -0.43367727917E+02 -0.38844692510E+03 -0.41626314521E+03  0.57100506977E+03  0.10100000352E+00 0. -1.
       -3    1    3    3    0  502  0.43367727917E+02  0.38844692510E+03  0.10717158899E+04  0.11407658534E+04  0.10100000352E+00 0.  1.
</event>
<event>
 5   0  0.2689675E-04  0.1598369E+04  0.7818609E-02  0.8821550E-01
        1   -1    0    0  501    0  0.00000000000E+00  0.00000000000E+00  0.80261551226E+03  0.80261551228E+03  0.50400001928E-02 0.  1.
       -1   -1    0    0    0  501  0.00000000000E+00  0.00000000000E+00 -0.79576860679E+03  0.79576860680E+03  0.50400001928E-02 0. -1.
    10030    2    1    2    0    0  0.00000000000E+00  0.00000000000E+00  0.68469054746E+01  0.15983841191E+04  0.15983694542E+04 0.  0.
        1    1    3    3  502    0 -0.55854216397E+03 -0.47667891084E+03 -0.31202213829E+03  0.79784080353E+03  0.50400001928E-02 0. -1.
       -1    1    3    3    0  502  0.55854216397E+03  0.47667891084E+03  0.31886904377E+03  0.80054331555E+03  0.50400001928E-02 0.  1.
</event>
<event>
 5   0  0.1908125E-04  0.1590754E+04  0.7818609E-02  0.8826248E-01
        3   -1    0    0  501    0  0.00000000000E+00  0.00000000000E+00  0.19178963164E+04  0.19178963190E+04  0.10100000352E+00 0. -1.
       -3   -1    0    0    0  501  0.00000000000E+00  0.00000000000E+00 -0.32985335584E+03  0.32985337130E+03  0.10100000352E+00 0.  1.
    10030    2    1    2    0    0  0.00000000000E+00  0.00000000000E+00  0.15880429605E+04  0.22477496903E+04  0.15907539803E+04 0.  0.
        4    1    3    3  502    0  0.46636406914E+02 -0.17445840874E+01 -0.32791562517E+03  0.33122238474E+03  0.12699999809E+01 0.  1.
       -4    1    3    3    0  502 -0.46636406914E+02  0.17445840874E+01  0.19159585857E+04  0.19165273056E+04  0.12699999809E+01 0. -1.
</event>
<event>
 5   0  0.2689675E-04  0.1599659E+04  0.7818609E-02  0.8820757E-01
       -1   -1    0    0    0  501  0.00000000000E+00  0.00000000000E+00  0.73504585968E+03  0.73504585970E+03  0.50400001928E-02 0. -1.
        1   -1    0    0  501    0  0.00000000000E+00  0.00000000000E+00 -0.87032333439E+03  0.87032333441E+03  0.50400001928E-02 0.  1.
    10030    2    1    2    0    0  0.00000000000E+00  0.00000000000E+00 -0.13527747471E+03  0.16053691941E+04  0.15996594182E+04 0.  0.
        1    1    3    3  502    0  0.40102227598E+03 -0.61382477759E+03 -0.38835388403E+03  0.82970986657E+03  0.50400001928E-02 0.  1.
       -1    1    3    3    0  502 -0.40102227598E+03  0.61382477759E+03  0.25307640932E+03  0.77565932754E+03  0.50400001928E-02 0. -1.
</event>
<event>
 5   0  0.2763895E-04  0.1483121E+04  0.7818609E-02  0.8895755E-01
        1   -1    0    0  501    0  0.00000000000E+00  0.00000000000E+00  0.19800468267E+04  0.19800468267E+04  0.50400001928E-02 0. -1.
       -1   -1    0    0    0  501  0.00000000000E+00  0.00000000000E+00 -0.27772681094E+03  0.27772681099E+03  0.50400001928E-02 0.  1.
    10030    2    1    2    0    0  0.00000000000E+00  0.00000000000E+00  0.17023200157E+04  0.22577736377E+04  0.14831211559E+04 0.  0.
        4    1    3    3  502    0  0.16230693680E+03 -0.22754279485E+03  0.18967915890E+04  0.19172739006E+04  0.12699999809E+01 0. -1.
       -4    1    3    3    0  502 -0.16230693680E+03  0.22754279485E+03 -0.19447157323E+03  0.34049973703E+03  0.12699999809E+01 0.  1.
</event>
<event>
 5   0  0.2796994E-04  0.1608488E+04  0.7818609E-02  0.8815350E-01
        1   -1    0    0  501    0  0.00000000000E+00  0.00000000000E+00  0.10135421740E+04  0.10135421740E+04  0.50400001928E-02 0. -1.
       -1   -1    0    0    0  501  0.00000000000E+00  0.00000000000E+00 -0.63816639716E+03  0.63816639718E+03  0.50400001928E-02 0.  1.
    10030    2    1    2    0    0  0.00000000000E+00  0.00000000000E+00  0.37537577687E+03  0.16517085712E+04  0.16084881816E+04 0.  0.
        3    1    3    3  502    0  0.24461474413E+03 -0.45035896870E+03 -0.44876371773E+03  0.68121102332E+03  0.10100000352E+00 0.  1.
       -3    1    3    3    0  502 -0.24461474413E+03  0.45035896870E+03  0.82413949460E+03  0.97049754791E+03  0.10100000352E+00 0. -1.
</event>
<event>
 5   0  0.5083831E-04  0.1560119E+04  0.7818609E-02  0.8845430E-01
       -2   -1    0    0    0  501  0.00000000000E+00  0.00000000000E+00  0.74278278178E+03  0.74278278179E+03  0.25500000920E-02 0.  1.
        2   -1    0    0  501    0  0.00000000000E+00  0.00000000000E+00 -0.81920687600E+03  0.81920687600E+03  0.25500000920E-02 0. -1.
    10030    2    1    2    0    0  0.00000000000E+00  0.00000000000E+00 -0.76424094219E+02  0.15619896578E+04  0.15601189214E+04 0.  0.
        4    1    3    3  502    0 -0.26696294603E+03  0.20112190792E+03  0.66745358490E+03  0.74646844360E+03  0.12699999809E+01 0.  1.
       -4    1    3    3    0  502  0.26696294603E+03 -0.20112190792E+03 -0.74387767912E+03  0.81552121419E+03  0.12699999809E+01 0. -1.
</event>
<event>
 5   0  0.2649086E-04  0.1605636E+04  0.7818609E-02  0.8817093E-01
       -1   -1    0    0    0  501  0.00000000000E+00  0.00000000000E+00  0.51760708010E+03  0.51760708013E+03  0.50400001928E-02 0.  1.
        1   -1    0    0  501    0  0.00000000000E+00  0.00000000000E+00 -0.12451856538E+04  0.12451856538E+04  0.50400001928E-02 0. -1.
    10030    2    1    2    0    0  0.00000000000E+00  0.00000000000E+00 -0.72757857368E+03  0.17627927339E+04  0.16056362109E+04 0.  0.
        2    1    3    3  502    0 -0.12847413576E+03 -0.67517675309E+03 -0.81930635896E+03  0.10694073879E+04  0.25500000920E-02 0. -1.
       -2    1    3    3    0  502  0.12847413576E+03  0.67517675309E+03  0.91727785277E+02  0.69338534602E+03  0.25500000920E-02 0.  1.
</event>
<event>
 5   0  0.2796994E-04  0.1610700E+04  0.7818609E-02  0.8814002E-01
        1   -1    0    0  501    0  0.00000000000E+00  0.00000000000E+00  0.22943613482E+04  0.22943613482E+04  0.50400001928E-02 0. -1.
       -1   -1    0    0    0  501  0.00000000000E+00  0.00000000000E+00 -0.28268795795E+03  0.28268795800E+03  0.50400001928E-02 0.  1.
    10030    2    1    2    0    0  0.00000000000E+00  0.00000000000E+00  0.20116733902E+04  0.25770493062E+04  0.16106996298E+04 0.  0.
        3    1    3    3  502    0  0.19598444003E+03 -0.35590449834E+03  0.21183650271E+04  0.21569766598E+04  0.10100000352E+00 0. -1.
       -3    1    3    3    0  502 -0.19598444003E+03  0.35590449834E+03 -0.10669163687E+03  0.42007264639E+03  0.10100000352E+00 0.  1.
</event>
<event>
 5   0  0.5381164E-04  0.1613098E+04  0.7818609E-02  0.8812542E-01
        2   -1    0    0  501    0  0.00000000000E+00  0.00000000000E+00  0.50714324286E+03  0.50714324287E+03  0.25500000920E-02 0. -1.
       -2   -1    0    0    0  501  0.00000000000E+00  0.00000000000E+00 -0.12827167750E+04  0.12827167750E+04  0.25500000920E-02 0.  1.
    10030    2    1    2    0    0  0.00000000000E+00  0.00000000000E+00 -0.77557353213E+03  0.17898600179E+04  0.16130978209E+04 0.  0.
        5    1    3    3  502    0  0.18812293011E+03  0.38948717857E+03  0.36754958554E+03  0.56763129489E+03  0.46999998093E+01 0. -1.
       -5    1    3    3    0  502 -0.18812293011E+03 -0.38948717857E+03 -0.11431231177E+04  0.12222287230E+04  0.46999998093E+01 0.  1.
</event>
<event>
 5   0  0.2649086E-04  0.1573720E+04  0.7818609E-02  0.8836857E-01
        1   -1    0    0  501    0  0.00000000000E+00  0.00000000000E+00  0.21023282499E+04  0.21023282499E+04  0.50400001928E-02 0.  1.
       -1   -1    0    0    0  501  0.00000000000E+00  0.00000000000E+00 -0.29450624665E+03  0.29450624669E+03  0.50400001928E-02 0. -1.
    10030    2    1    2    0    0  0.00000000000E+00  0.00000000000E+00  0.18078220033E+04  0.23968344966E+04  0.15737201812E+04 0.  0.
        2    1    3    3  502    0  0.18160932275E+03 -0.34812879807E+03 -0.13463201920E+03  0.41509202203E+03  0.25500000920E-02 0. -1.
       -2    1    3    3    0  502 -0.18160932275E+03  0.34812879807E+03  0.19424540225E+04  0.19817424746E+04  0.25500000920E-02 0.  1.
</event>
<event>
 5   0  0.2730707E-04  0.1625835E+04  0.7818609E-02  0.8804832E-01
        1   -1    0    0  501    0  0.00000000000E+00  0.00000000000E+00  0.76298651271E+03  0.76298651273E+03  0.50400001928E-02 0.  1.
       -1   -1    0    0    0  501  0.00000000000E+00  0.00000000000E+00 -0.86611602793E+03  0.86611602794E+03  0.50400001928E-02 0. -1.
    10030    2    1    2    0    0  0.00000000000E+00  0.00000000000E+00 -0.10312951522E+03  0.16291025407E+04  0.16258349827E+04 0.  0.
        5    1    3    3  502    0 -0.93186204003E+02  0.72988858714E+03  0.29466077894E+03  0.79263363725E+03  0.46999998093E+01 0.  1.
       -5    1    3    3    0  502  0.93186204003E+02 -0.72988858714E+03 -0.39779029416E+03  0.83646890342E+03  0.46999998093E+01 0. -1.
</event>
<event>
 5   0  0.2730707E-04  0.1607471E+04  0.7818609E-02  0.8815971E-01
        1   -1    0    0  501    0  0.00000000000E+00  0.00000000000E+00  0.77615435418E+03  0.77615435420E+03  0.50400001928E-02 0. -1.
       -1   -1    0    0    0  501  0.00000000000E+00  0.00000000000E+00 -0.83229702129E+03  0.83229702131E+03  0.50400001928E-02 0.  1.
    10030    2    1    2    0    0  0.00000000000E+00  0.00000000000E+00 -0.56142667110E+02  0.16084513755E+04  0.16074712527E+04 0.  0.
        5    1    3    3  502    0  0.55956534517E+03  0.13737305833E+03 -0.58875586336E+03  0.82379626688E+03  0.46999998093E+01 0.  1.
       -5    1    3    3    0  502 -0.55956534517E+03 -0.13737305833E+03  0.53261319625E+03  0.78465510863E+03  0.46999998093E+01 0. -1.
</event>
<event>
 5   0  0.5315984E-04  0.1583085E+04  0.7818609E-02  0.8831008E-01
       -2   -1    0    0    0  501  0.00000000000E+00  0.00000000000E+00  0.43869400382E+03  0.43869400382E+03  0.25500000920E-02 0.  1.
        2   -1    0    0  501    0  0.00000000000E+00  0.00000000000E+00 -0.14281919901E+04  0.14281919901E+04  0.25500000920E-02 0. -1.
    10030    2    1    2    0    0  0.00000000000E+00  0.00000000000E+00 -0.98949798628E+03  0.18668859939E+04  0.15830846628E+04 0.  0.
        2    1    3    3  502    0  0.60593776120E+03  0.39596005615E+02  0.10402682108E+03  0.61607628880E+03  0.25500000920E-02 0.  1.
       -2    1    3    3    0  502 -0.60593776120E+03 -0.39596005615E+02 -0.10935248074E+04  0.12508097051E+04  0.25500000920E-02 0. -1.
</event>
<event>
 5   0  0.5315984E-04  0.1607084E+04  0.7818609E-02  0.8816208E-01
        2   -1    0    0  501    0  0.00000000000E+00  0.00000000000E+00  0.10911234854E+04  0.10911234854E+04  0.25500000920E-02 0.  1.
       -2   -1    0    0    0  501  0.00000000000E+00  0.00000000000E+00 -0.59175686941E+03  0.59175686942E+03  0.25500000920E-02 0. -1.
    10030    2    1    2    0    0  0.00000000000E+00  0.00000000000E+00  0.49936661595E+03  0.16828803548E+04  0.16070840897E+04 0.  0.
        2    1    3    3  502    0  0.19874597551E+03  0.36882225281E+02  0.10640641562E+04  0.10830940817E+04  0.25500000920E-02 0.  1.
       -2    1    3    3    0  502 -0.19874597551E+03 -0.36882225281E+02 -0.56469754028E+03  0.59978627304E+03  0.25500000920E-02 0. -1.
</event>
<event>
 5   0  0.5381164E-04  0.1584591E+04  0.7818609E-02  0.8830070E-01
       -2   -1    0    0    0  501  0.00000000000E+00  0.00000000000E+00  0.72290029887E+03  0.72290029887E+03  0.25500000920E-02 0.  1.
        2   -1    0    0  501    0  0.00000000000E+00  0.00000000000E+00 -0.86835287535E+03  0.86835287535E+03  0.25500000920E-02 0. -1.
    10030    2    1    2    0    0  0.00000000000E+00  0.00000000000E+00 -0.14545257648E+03  0.15912531742E+04  0.15845914970E+04 0.  0.
        5    1    3    3  502    0 -0.74224187106E+03  0.27526899593E+03 -0.40741990285E+02  0.79270298035E+03  0.46999998093E+01 0. -1.
       -5    1    3    3    0  502  0.74224187106E+03 -0.27526899593E+03 -0.10471058619E+03  0.79855019388E+03  0.46999998093E+01 0.  1.
</event>
<event>
 5   0  0.5083831E-04  0.1584094E+04  0.7818609E-02  0.8830379E-01
        2   -1    0    0  501    0  0.00000000000E+00  0.00000000000E+00  0.12868208767E+04  0.12868208767E+04  0.25500000920E-02 0.  1.
       -2   -1    0    0    0  501  0.00000000000E+00  0.00000000000E+00 -0.48751056976E+03  0.48751056976E+03  0.25500000920E-02 0. -1.
    10030    2    1    2    0    0  0.00000000000E+00  0.00000000000E+00  0.79931030693E+03  0.17743314465E+04  0.15840944148E+04 0.  0.
        4    1    3    3  502    0  0.22386391778E+02 -0.32922277090E+02 -0.48638796774E+03  0.48801628552E+03  0.12699999809E+01 0. -1.
       -4    1    3    3    0  502 -0.22386391778E+02  0.32922277090E+02  0.12856982747E+04  0.12863151609E+04  0.12699999809E+01 0.  1.
</event>
<event>
 5   0  0.2689675E-04  0.1630946E+04  0.7818609E-02  0.8801759E-01
       -1   -1    0    0    0  501  0.00000000000E+00  0.00000000000E+00  0.81276672044E+03  0.81276672045E+03  0.50400001928E-02 0.  1.
        1   -1    0    0  501    0  0.00000000000E+00  0.00000000000E+00 -0.81818820562E+03  0.81818820563E+03  0.50400001928E-02 0. -1.
    10030    2    1    2    0    0  0.00000000000E+00  0.00000000000E+00 -0.54214851829E+01  0.16309549261E+04  0.16309459152E+04 0.  0.
        1    1    3    3  502    0  0.60304708294E-02 -0.50120726528E+03  0.64055591602E+03  0.81333916933E+03  0.50400001928E-02 0.  1.
       -1    1    3    3    0  502 -0.60304708294E-02  0.50120726528E+03 -0.64597740120E+03  0.81761575675E+03  0.50400001928E-02 0. -1.
</event>
<event>
 5   0  0.5083831E-04  0.1606750E+04  0.7818609E-02  0.8816412E-01
        2   -1    0    0  501    0  0.00000000000E+00  0.00000000000E+00  0.21273982694E+04  0.21273982694E+04  0.25500000920E-02 0.  1.
       -2   -1    0    0    0  501  0.00000000000E+00  0.00000000000E+00 -0.30338063704E+03  0.30338063705E+03  0.25500000920E-02 0. -1.
    10030    2    1    2    0    0  0.00000000000E+00  0.00000000000E+00  0.18240176324E+04  0.24307789064E+04  0.16067500642E+04 0.  0.
        4    1    3    3  502    0 -0.41909679908E+02  0.14972584863E+03 -0.28040031483E+03  0.32062470346E+03  0.12699999809E+01 0. -1.
       -4    1    3    3    0  502  0.41909679908E+02 -0.14972584863E+03  0.21044179472E+04  0.21101542030E+04  0.12699999809E+01 0.  1.
</event>
<event>
 5   0  0.2763895E-04  0.1596195E+04  0.7818609E-02  0.8822889E-01
       -1   -1    0    0    0  501  0.00000000000E+00  0.00000000000E+00  0.56221720012E+03  0.56221720015E+03  0.50400001928E-02 0.  1.
        1   -1    0    0  501    0  0.00000000000E+00  0.00000000000E+00 -0.11329422263E+04  0.11329422263E+04  0.50400001928E-02 0. -1.
    10030    2    1    2    0    0  0.00000000000E+00  0.00000000000E+00 -0.57072502620E+03  0.16951594265E+04  0.15961949836E+04 0.  0.
        4    1    3    3  502    0  0.32398652133E+02 -0.19843728386E+03 -0.11056028138E+04  0.11237376131E+04  0.12699999809E+01 0. -1.
       -4    1    3    3    0  502 -0.32398652133E+02  0.19843728386E+03  0.53487778758E+03  0.57142181341E+03  0.12699999809E+01 0.  1.
</event>
<event>
 5   0  0.5131239E-04  0.1589552E+04  0.7818609E-02  0.8826993E-01
       -2   -1    0    0    0  501  0.00000000000E+00  0.00000000000E+00  0.77903029996E+03  0.77903029996E+03  0.25500000920E-02 0.  1.
        2   -1    0    0  501    0  0.00000000000E+00  0.00000000000E+00 -0.81083952281E+03  0.81083952281E+03  0.25500000920E-02 0. -1.
    10030    2    1    2    0    0  0.00000000000E+00  0.00000000000E+00 -0.31809222847E+02  0.15898698228E+04  0.15895515804E+04 0.  0.
        1    1    3    3  502    0 -0.38539116473E+03 -0.58214996797E+03  0.36396560996E+03  0.78733468126E+03  0.50400001928E-02 0.  1.
       -1    1    3    3    0  502  0.38539116473E+03  0.58214996797E+03 -0.39577483280E+03  0.80253514151E+03  0.50400001928E-02 0. -1.
</event>
<event>
 5   0  0.2796994E-04  0.1451923E+04  0.7818609E-02  0.8917068E-01
       -1   -1    0    0    0  501  0.00000000000E+00  0.00000000000E+00  0.33106998611E+03  0.33106998615E+03  0.50400001928E-02 0.  1.
        1   -1    0    0  501    0  0.00000000000E+00  0.00000000000E+00 -0.15918689890E+04  0.15918689891E+04  0.50400001928E-02 0. -1.
    10030    2    1    2    0    0  0.00000000000E+00  0.00000000000E+00 -0.12607990029E+04  0.19229389752E+04  0.14519229238E+04 0.  0.
        3    1    3    3  502    0  0.10695660247E+03 -0.34682803943E+03 -0.14630834634E+04  0.15074291475E+04  0.10100000352E+00 0. -1.
       -3    1    3    3    0  502 -0.10695660247E+03  0.34682803943E+03  0.20228446046E+03  0.41550982767E+03  0.10100000352E+00 0.  1.
</event>
<event>
 5   0  0.5264308E-04  0.1520449E+04  0.7818609E-02  0.8870967E-01
       -2   -1    0    0    0  501  0.00000000000E+00  0.00000000000E+00  0.30846840199E+03  0.30846840201E+03  0.25500000920E-02 0. -1.
        2   -1    0    0  501    0  0.00000000000E+00  0.00000000000E+00 -0.18735835762E+04  0.18735835762E+04  0.25500000920E-02 0.  1.
    10030    2    1    2    0    0  0.00000000000E+00  0.00000000000E+00 -0.15651151742E+04  0.21820519782E+04  0.15204490544E+04 0.  0.
        3    1    3    3  502    0 -0.56032929537E+03  0.26714596905E+03 -0.15272157864E+03  0.63926503018E+03  0.10100000352E+00 0. -1.
       -3    1    3    3    0  502  0.56032929537E+03 -0.26714596905E+03 -0.14123935956E+04  0.15427869481E+04  0.10100000352E+00 0.  1.
</event>
<event>
 5   0  0.2730707E-04  0.1609449E+04  0.7818609E-02  0.8814764E-01
       -1   -1    0    0    0  501  0.00000000000E+00  0.00000000000E+00  0.63638728345E+03  0.63638728347E+03  0.50400001928E-02 0. -1.
        1   -1    0    0  501    0  0.00000000000E+00  0.00000000000E+00 -0.10175906786E+04  0.10175906786E+04  0.50400001928E-02 0.  1.
    10030    2    1    2    0    0  0.00000000000E+00  0.00000000000E+00 -0.38120339513E+03  0.16539779621E+04  0.16094493066E+04 0.  0.
        5    1    3    3  502    0  0.46040115088E+03 -0.56649639595E+03  0.15740023976E+03  0.74678264028E+03  0.46999998093E+01 0.  1.
       -5    1    3    3    0  502 -0.46040115088E+03  0.56649639595E+03 -0.53860363489E+03  0.90719532178E+03  0.46999998093E+01 0. -1.
</event>
<event>
 5   0  0.5131239E-04  0.1607770E+04  0.7818609E-02  0.8815789E-01
        2   -1    0    0  501    0  0.00000000000E+00  0.00000000000E+00  0.18493871218E+04  0.18493871218E+04  0.25500000920E-02 0. -1.
       -2   -1    0    0    0  501  0.00000000000E+00  0.00000000000E+00 -0.34942995463E+03  0.34942995464E+03  0.25500000920E-02 0.  1.
    10030    2    1    2    0    0  0.00000000000E+00  0.00000000000E+00  0.14999571672E+04  0.21988170764E+04  0.16077702051E+04 0.  0.
        1    1    3    3  502    0 -0.74416978691E+03 -0.28858498872E+03  0.61907743582E+03  0.10101122903E+04  0.50400001928E-02 0. -1.
       -1    1    3    3    0  502  0.74416978691E+03  0.28858498872E+03  0.88087973135E+03  0.11887047861E+04  0.50400001928E-02 0.  1.
</event>
<event>
 5   0  0.5264308E-04  0.1597513E+04  0.7818609E-02  0.8822077E-01
       -2   -1    0    0    0  501  0.00000000000E+00  0.00000000000E+00  0.10485045790E+04  0.10485045790E+04  0.25500000920E-02 0.  1.
        2   -1    0    0  501    0  0.00000000000E+00  0.00000000000E+00 -0.60849710879E+03  0.60849710879E+03  0.25500000920E-02 0. -1.
    10030    2    1    2    0    0  0.00000000000E+00  0.00000000000E+00  0.44000747024E+03  0.16570016878E+04  0.15975130734E+04 0.  0.
        3    1    3    3  502    0  0.77145378911E+03  0.19996357794E+03  0.16428546722E+03  0.81370517153E+03  0.10100000352E+00 0. -1.
       -3    1    3    3    0  502 -0.77145378911E+03 -0.19996357794E+03  0.27572200301E+03  0.84329651628E+03  0.10100000352E+00 0.  1.
</event>
<event>
 5   0  0.1908125E-04  0.1610596E+04  0.7818609E-02  0.8814065E-01
       -3   -1    0    0    0  501  0.00000000000E+00  0.00000000000E+00  0.68144317418E+03  0.68144318167E+03  0.10100000352E+00 0.  1.
        3   -1    0    0  501    0  0.00000000000E+00  0.00000000000E+00 -0.95166416266E+03  0.95166416802E+03  0.10100000352E+00 0. -1.
    10030    2    1    2    0    0  0.00000000000E+00  0.00000000000E+00 -0.27022098848E+03  0.16331073497E+04  0.16105962352E+04 0.  0.
        4    1    3    3  502    0  0.99263908263E+02  0.60573624856E+03  0.39345623160E+03  0.72909474377E+03  0.12699999809E+01 0.  1.
       -4    1    3    3    0  502 -0.99263908263E+02 -0.60573624856E+03 -0.66367722008E+03  0.90401260592E+03  0.12699999809E+01 0. -1.
</event>
<event>
 5   0  0.2763895E-04  0.1606345E+04  0.7818609E-02  0.8816660E-01
        1   -1    0    0  501    0  0.00000000000E+00  0.00000000000E+00  0.17521314239E+04  0.17521314239E+04  0.50400001928E-02 0. -1.
       -1   -1    0    0    0  501  0.00000000000E+00  0.00000000000E+00 -0.36817197153E+03  0.36817197156E+03  0.50400001928E-02 0.  1.
    10030    2    1    2    0    0  0.00000000000E+00  0.00000000000E+00  0.13839594523E+04  0.21203033954E+04  0.16063445219E+04 0.  0.
        4    1    3    3  502    0 -0.34341719716E+03  0.66416711574E+03  0.30482359726E+03  0.80744805856E+03  0.12699999809E+01 0.  1.
       -4    1    3    3    0  502  0.34341719716E+03 -0.66416711574E+03  0.10791358551E+04  0.13128553369E+04  0.12699999809E+01 0. -1.
</event>
<event>
 5   0  0.2649086E-04  0.1567435E+04  0.7818609E-02  0.8840807E-01
        1   -1    0    0  501    0  0.00000000000E+00  0.00000000000E+00  0.14598666931E+04  0.14598666931E+04  0.50400001928E-02 0. -1.
       -1   -1    0    0    0  501  0.00000000000E+00  0.00000000000E+00 -0.42073239999E+03  0.42073240002E+03  0.50400001928E-02 0.  1.
    10030    2    1    2    0    0  0.00000000000E+00  0.00000000000E+00  0.10391342931E+04  0.18805990931E+04  0.15674351246E+04 0.  0.
        2    1    3    3  502    0  0.54656363078E+03 -0.47227764793E+03  0.88434245234E+03  0.11418579387E+04  0.25500000920E-02 0. -1.
       -2    1    3    3    0  502 -0.54656363078E+03  0.47227764793E+03  0.15479184077E+03  0.73874115440E+03  0.25500000920E-02 0.  1.
</event>
<event>
 5   0  0.5083831E-04  0.1608648E+04  0.7818609E-02  0.8815253E-01
        2   -1    0    0  501    0  0.00000000000E+00  0.00000000000E+00  0.90786455351E+03  0.90786455352E+03  0.25500000920E-02 0. -1.
       -2   -1    0    0    0  501  0.00000000000E+00  0.00000000000E+00 -0.71259211014E+03  0.71259211015E+03  0.25500000920E-02 0.  1.
    10030    2    1    2    0    0  0.00000000000E+00  0.00000000000E+00  0.19527244337E+03  0.16204566637E+04  0.16086480260E+04 0.  0.
        4    1    3    3  502    0 -0.65407411585E+03 -0.10998155177E+02 -0.37377512452E+03  0.75342110738E+03  0.12699999809E+01 0.  1.
       -4    1    3    3    0  502  0.65407411585E+03  0.10998155177E+02  0.56904756789E+03  0.86703555628E+03  0.12699999809E+01 0. -1.
</event>
<event>
 5   0  0.5131239E-04  0.1600052E+04  0.7818609E-02  0.8820516E-01
       -2   -1    0    0    0  501  0.00000000000E+00  0.00000000000E+00  0.62448169865E+03  0.62448169865E+03  0.25500000920E-02 0. -1.
        2   -1    0    0  501    0  0.00000000000E+00  0.00000000000E+00 -0.10249168103E+04  0.10249168103E+04  0.25500000920E-02 0.  1.
    10030    2    1    2    0    0  0.00000000000E+00  0.00000000000E+00 -0.40043511165E+03  0.16493985090E+04  0.16000522375E+04 0.  0.
        1    1    3    3  502    0  0.61493374923E+03  0.22493713385E+03 -0.67406963263E+03  0.93973937865E+03  0.50400001928E-02 0.  1.
       -1    1    3    3    0  502 -0.61493374923E+03 -0.22493713385E+03  0.27363452098E+03  0.70965913030E+03  0.50400001928E-02 0. -1.
</event>
<event>
 5   0  0.2689675E-04  0.1518559E+04  0.7818609E-02  0.8872204E-01
       -1   -1    0    0    0  501  0.00000000000E+00  0.00000000000E+00  0.80270335187E+03  0.80270335188E+03  0.50400001928E-02 0.  1.
        1   -1    0    0  501    0  0.00000000000E+00  0.00000000000E+00 -0.71820464151E+03  0.71820464152E+03  0.50400001928E-02 0. -1.
    10030    2    1    2    0    0  0.00000000000E+00  0.00000000000E+00  0.84498710362E+02  0.15209079934E+04  0.15185588867E+04 0.  0.
        1    1    3    3  502    0  0.16069269698E+03  0.66663139569E+03 -0.28426986366E+03  0.74231321960E+03  0.50400001928E-02 0. -1.
       -1    1    3    3    0  502 -0.16069269698E+03 -0.66663139569E+03  0.36876857402E+03  0.77859477380E+03  0.50400001928E-02 0.  1.
</event>
<event>
 5   0  0.5381164E-04  0.1644040E+04  0.7818609E-02  0.8793940E-01
       -2   -1    0    0    0  501  0.00000000000E+00  0.00000000000E+00  0.90768069118E+03  0.90768069119E+03  0.25500000920E-02 0.  1.
        2   -1    0    0  501    0  0.00000000000E+00  0.00000000000E+00 -0.74444326577E+03  0.74444326577E+03  0.25500000920E-02 0. -1.
    10030    2    1    2    0    0  0.00000000000E+00  0.00000000000E+00  0.16323742542E+03  0.16521239570E+04  0.16440398755E+04 0.  0.
        5    1    3    3  502    0  0.70734617889E+03 -0.97002625109E+02  0.49098720316E+03  0.86650946315E+03  0.46999998093E+01 0.  1.
       -5    1    3    3    0  502 -0.70734617889E+03  0.97002625109E+02 -0.32774977774E+03  0.78561449380E+03  0.46999998093E+01 0. -1.
</event>
<event>
 5   0  0.2763895E-04  0.1578236E+04  0.7818609E-02  0.8834031E-01
        1   -1    0    0  501    0  0.00000000000E+00  0.00000000000E+00  0.30349582626E+04  0.30349582626E+04  0.50400001928E-02 0.  1.
       -1   -1    0    0    0  501  0.00000000000E+00  0.00000000000E+00 -0.20517810010E+03  0.20517810016E+03  0.50400001928E-02 0. -1.
    10030    2    1    2    0    0  0.00000000000E+00  0.00000000000E+00  0.28297801625E+04  0.32401363628E+04  0.15782356862E+04 0.  0.
        4    1    3    3  502    0  0.31109044305E+03 -0.64698784459E+03  0.20874976504E+04  0.22074914696E+04  0.12699999809E+01 0.  1.
       -4    1    3    3    0  502 -0.31109044305E+03  0.64698784459E+03  0.74228251208E+03  0.10326448932E+04  0.12699999809E+01 0. -1.
</event>
<event>
 5   0  0.2796994E-04  0.1621900E+04  0.7818609E-02  0.8807206E-01
        1   -1    0    0  501    0  0.00000000000E+00  0.00000000000E+00  0.18304364780E+04  0.18304364780E+04  0.50400001928E-02 0.  1.
       -1   -1    0    0    0  501  0.00000000000E+00  0.00000000000E+00 -0.35928036785E+03  0.35928036788E+03  0.50400001928E-02 0. -1.
    10030    2    1    2    0    0  0.00000000000E+00  0.00000000000E+00  0.14711561102E+04  0.21897168459E+04  0.16218999861E+04 0.  0.
        3    1    3    3  502    0 -0.36031420644E+03  0.16846361339E+03  0.16896975122E+04  0.17358813350E+04  0.10100000352E+00 0.  1.
       -3    1    3    3    0  502  0.36031420644E+03 -0.16846361339E+03 -0.21854140197E+03  0.45383551093E+03  0.10100000352E+00 0. -1.
</event>
<event>
 5   0  0.2649086E-04  0.1612918E+04  0.7818609E-02  0.8812651E-01
       -1   -1    0    0    0  501  0.00000000000E+00  0.00000000000E+00  0.77267566608E+03  0.77267566610E+03  0.50400001928E-02 0. -1.
        1   -1    0    0  501    0  0.00000000000E+00  0.00000000000E+00 -0.84171988577E+03  0.84171988578E+03  0.50400001928E-02 0.  1.
    10030    2    1    2    0    0  0.00000000000E+00  0.00000000000E+00 -0.69044219687E+02  0.16143955519E+04  0.16129184399E+04 0.  0.
        2    1    3    3  502    0  0.75434235684E+02  0.22677122126E+03 -0.80546184679E+03  0.84016920757E+03  0.25500000920E-02 0.  1.
       -2    1    3    3    0  502 -0.75434235684E+02 -0.22677122126E+03  0.73641762710E+03  0.77422634431E+03  0.25500000920E-02 0. -1.
</event>
<event>
 5   0  0.5083831E-04  0.1605064E+04  0.7818609E-02  0.8817443E-01
        2   -1    0    0  501    0  0.00000000000E+00  0.00000000000E+00  0.13505572354E+04  0.13505572354E+04  0.25500000920E-02 0.  1.
       -2   -1    0    0    0  501  0.00000000000E+00  0.00000000000E+00 -0.47688270311E+03  0.47688270311E+03  0.25500000920E-02 0. -1.
    10030    2    1    2    0    0  0.00000000000E+00  0.00000000000E+00  0.87367453234E+03  0.18274399386E+04  0.16050637185E+04 0.  0.
        4    1    3    3  502    0  0.69387298122E+03  0.40319447081E+03  0.43057247810E+03  0.91072485810E+03  0.12699999809E+01 0.  1.
       -4    1    3    3    0  502 -0.69387298122E+03 -0.40319447081E+03  0.44310205424E+03  0.91671508046E+03  0.12699999809E+01 0. -1.
</event>
<event>
 5   0  0.2689675E-04  0.1586791E+04  0.7818609E-02  0.8828704E-01
       -1   -1    0    0    0  501  0.00000000000E+00  0.00000000000E+00  0.76801234412E+03  0.76801234414E+03  0.50400001928E-02 0.  1.
        1   -1    0    0  501    0  0.00000000000E+00  0.00000000000E+00 -0.81961725575E+03  0.81961725576E+03  0.50400001928E-02 0. -1.
    10030    2    1    2    0    0  0.00000000000E+00  0.00000000000E+00 -0.51604911625E+02  0.15876295999E+04  0.15867906855E+04 0.  0.
        1    1    3    3  502    0  0.49415734181E+03 -0.21199818113E+03  0.55789389113E+03  0.77484211362E+03  0.50400001928E-02 0.  1.
       -1    1    3    3    0  502 -0.49415734181E+03  0.21199818113E+03 -0.60949880275E+03  0.81278748627E+03  0.50400001928E-02 0. -1.
</event>
<event>
 5   0  0.2796994E-04  0.1597141E+04  0.7818609E-02  0.8822306E-01
        1   -1    0    0  501    0  0.00000000000E+00  0.00000000000E+00  0.70130197175E+03  0.70130197176E+03  0.50400001928E-02 0. -1.
       -1   -1    0    0    0  501  0.00000000000E+00  0.00000000000E+00 -0.90933000975E+03  0.90933000977E+03  0.50400001928E-02 0.  1.
    10030    2    1    2    0    0  0.00000000000E+00  0.00000000000E+00 -0.20802803801E+03  0.16106319815E+04  0.15971411069E+04 0.  0.
        3    1    3    3  502    0  0.54033114238E+03 -0.56328782867E+03  0.66123844702E+02  0.78334110986E+03  0.10100000352E+00 0. -1.
       -3    1    3    3    0  502 -0.54033114238E+03  0.56328782867E+03 -0.27415188271E+03  0.82729087167E+03  0.10100000352E+00 0.  1.
</event>
<event>
 5   0  0.5315984E-04  0.1710156E+04  0.7818609E-02  0.8755593E-01
        2   -1    0    0  501    0  0.00000000000E+00  0.00000000000E+00  0.21082142596E+04  0.21082142596E+04  0.25500000920E-02 0. -1.
       -2   -1    0    0    0  501  0.00000000000E+00  0.00000000000E+00 -0.34681411099E+03  0.34681411100E+03  0.25500000920E-02 0.  1.
    10030    2    1    2    0    0  0.00000000000E+00  0.00000000000E+00  0.17614001486E+04  0.24550283706E+04  0.17101560797E+04 0.  0.
        2    1    3    3  502    0 -0.44179279696E+03 -0.72240475922E+03  0.71018294981E+03  0.11051738930E+04  0.25500000920E-02 0.  1.
       -2    1    3    3    0  502  0.44179279696E+03  0.72240475922E+03  0.10512171988E+04  0.13498544776E+04  0.25500000920E-02 0. -1.
</event>
<event>
 5   0  0.5083831E-04  0.1689461E+04  0.7818609E-02  0.8767398E-01
        2   -1    0    0  501    0  0.00000000000E+00  0.00000000000E+00  0.19852751511E+04  0.19852751511E+04  0.25500000920E-02 0.  1.
       -2   -1    0    0    0  501  0.00000000000E+00  0.00000000000E+00 -0.35943105678E+03  0.35943105679E+03  0.25500000920E-02 0. -1.
    10030    2    1    2    0    0  0.00000000000E+00  0.00000000000E+00  0.16258440944E+04  0.23447062079E+04  0.16894609147E+04 0.  0.
        4    1    3    3  502    0  0.24860807299E+03 -0.73901111566E+03  0.36187413342E+03  0.85959170794E+03  0.12699999809E+01 0. -1.
       -4    1    3    3    0  502 -0.24860807299E+03  0.73901111566E+03  0.12639699609E+04  0.14851145000E+04  0.12699999809E+01 0.  1.
</event>
<event>
 5   0  0.2730707E-04  0.1607373E+04  0.7818609E-02  0.8816031E-01
        1   -1    0    0  501    0  0.00000000000E+00  0.00000000000E+00  0.18832590021E+04  0.18832590021E+04  0.50400001928E-02 0.  1.
       -1   -1    0    0    0  501  0.00000000000E+00  0.00000000000E+00 -0.34297561848E+03  0.34297561852E+03  0.50400001928E-02 0. -1.
    10030    2    1    2    0    0  0.00000000000E+00  0.00000000000E+00  0.15402833836E+04  0.22262346206E+04  0.16073729139E+04 0.  0.
        5    1    3    3  502    0 -0.24300471290E+03 -0.52518405308E+03  0.15425529947E+04  0.16475319152E+04  0.46999998093E+01 0.  1.
       -5    1    3    3    0  502  0.24300471290E+03  0.52518405308E+03 -0.22696111261E+01  0.57870270540E+03  0.46999998093E+01 0. -1.
</event>
<event>
 5   0  0.5083831E-04  0.1586193E+04  0.7818609E-02  0.8829076E-01
       -2   -1    0    0    0  501  0.00000000000E+00  0.00000000000E+00  0.36208212941E+03  0.36208212942E+03  0.25500000920E-02 0. -1.
        2   -1    0    0  501    0  0.00000000000E+00  0.00000000000E+00 -0.17371799625E+04  0.17371799625E+04  0.25500000920E-02 0.  1.
    10030    2    1    2    0    0  0.00000000000E+00  0.00000000000E+00 -0.13750978331E+04  0.20992620920E+04  0.15861926995E+04 0.  0.
        4    1    3    3  502    0  0.74692892243E+03 -0.15140459397E+03 -0.97802959830E+03  0.12399071233E+04  0.12699999809E+01 0.  1.
       -4    1    3    3    0  502 -0.74692892243E+03  0.15140459397E+03 -0.39706823483E+03  0.85935496871E+03  0.12699999809E+01 0. -1.
</event>
<event>
 5   0  0.2649086E-04  0.1704733E+04  0.7818609E-02  0.8758670E-01
       -1   -1    0    0    0  501  0.00000000000E+00  0.00000000000E+00  0.87682887613E+03  0.87682887614E+03  0.50400001928E-02 0. -1.
        1   -1    0    0  501    0  0.00000000000E+00  0.00000000000E+00 -0.82858645365E+03  0.82858645366E+03  0.50400001928E-02 0.  1.
    10030    2    1    2    0    0  0.00000000000E+00  0.00000000000E+00  0.48242422480E+02  0.17054153298E+04  0.17047328576E+04 0.  0.
        2    1    3    3  502    0  0.28095230436E+03  0.68014121884E+03  0.45441228853E+03  0.86487964646E+03  0.25500000920E-02 0. -1.
       -2    1    3    3    0  502 -0.28095230436E+03 -0.68014121884E+03 -0.40616986605E+03  0.84053568335E+03  0.25500000920E-02 0.  1.
</event>
<event>
 5   0  0.5381164E-04  0.1571583E+04  0.7818609E-02  0.8838199E-01
        2   -1    0    0  501    0  0.00000000000E+00  0.00000000000E+00  0.12690653597E+04  0.12690653597E+04  0.25500000920E-02 0. -1.
       -2   -1    0    0    0  501  0.00000000000E+00  0.00000000000E+00 -0.48655330253E+03  0.48655330254E+03  0.25500000920E-02 0.  1.
    10030    2    1    2    0    0  0.00000000000E+00  0.00000000000E+00  0.78251205712E+03  0.17556186622E+04  0.15715825678E+04 0.  0.
        5    1    3    3  502    0 -0.23292845233E+03 -0.68289926053E+02  0.12261185117E+04  0.12499231467E+04  0.46999998093E+01 0. -1.
       -5    1    3    3    0  502  0.23292845233E+03  0.68289926053E+02 -0.44360645456E+03  0.50569551553E+03  0.46999998093E+01 0.  1.
</event>
<event>
 5   0  0.2763895E-04  0.1608067E+04  0.7818609E-02  0.8815607E-01
       -1   -1    0    0    0  501  0.00000000000E+00  0.00000000000E+00  0.16742373330E+04  0.16742373330E+04  0.50400001928E-02 0.  1.
        1   -1    0    0  501    0  0.00000000000E+00  0.00000000000E+00 -0.38612793593E+03  0.38612793596E+03  0.50400001928E-02 0. -1.
    10030    2    1    2    0    0  0.00000000000E+00  0.00000000000E+00  0.12881093971E+04  0.20603652690E+04  0.16080669211E+04 0.  0.
        4    1    3    3  502    0 -0.14125390553E+03  0.77689997058E+03  0.44998604769E+03  0.90885383100E+03  0.12699999809E+01 0. -1.
       -4    1    3    3    0  502  0.14125390553E+03 -0.77689997058E+03  0.83812334939E+03  0.11515114380E+04  0.12699999809E+01 0.  1.
</event>
<event>
 5   0  0.5264308E-04  0.1583407E+04  0.7818609E-02  0.8830807E-01
        2   -1    0    0  501    0  0.00000000000E+00  0.00000000000E+00  0.18182297249E+04  0.18182297249E+04  0.25500000920E-02 0.  1.
       -2   -1    0    0    0  501  0.00000000000E+00  0.00000000000E+00 -0.34472799166E+03  0.34472799167E+03  0.25500000920E-02 0. -1.
    10030    2    1    2    0    0  0.00000000000E+00  0.00000000000E+00  0.14735017333E+04  0.21629577166E+04  0.15834073152E+04 0.  0.
        3    1    3    3  502    0  0.31122942138E+03 -0.23017853024E+03  0.16801408176E+04  0.17241575002E+04  0.10100000352E+00 0.  1.
       -3    1    3    3    0  502 -0.31122942138E+03  0.23017853024E+03 -0.20663908432E+03  0.43880021637E+03  0.10100000352E+00 0. -1.
</event>
<event>
 5   0  0.2649086E-04  0.1606708E+04  0.7818609E-02  0.8816437E-01
       -1   -1    0    0    0  501  0.00000000000E+00  0.00000000000E+00  0.72016554334E+03  0.72016554336E+03  0.50400001928E-02 0. -1.
        1   -1    0    0  501    0  0.00000000000E+00  0.00000000000E+00 -0.89615211075E+03  0.89615211077E+03  0.50400001928E-02 0.  1.
    10030    2    1    2    0    0  0.00000000000E+00  0.00000000000E+00 -0.17598656741E+03  0.16163176541E+04  0.16067082769E+04 0.  0.
        2    1    3    3  502    0 -0.55414280515E+03 -0.19025579468E+03 -0.64092259984E+03  0.86836242140E+03  0.25500000920E-02 0.  1.
       -2    1    3    3    0  502  0.55414280515E+03  0.19025579468E+03  0.46493603243E+03  0.74795523273E+03  0.25500000920E-02 0. -1.
</event>
<event>
 5   0  0.5315984E-04  0.1585937E+04  0.7818609E-02  0.8829235E-01
       -2   -1    0    0    0  501  0.00000000000E+00  0.00000000000E+00  0.78804729541E+03  0.78804729541E+03  0.25500000920E-02 0. -1.
        2   -1    0    0  501    0  0.00000000000E+00  0.00000000000E+00 -0.79792003458E+03  0.79792003459E+03  0.25500000920E-02 0.  1.
    10030    2    1    2    0    0  0.00000000000E+00  0.00000000000E+00 -0.98727391784E+01  0.15859673300E+04  0.15859366005E+04 0.  0.
        2    1    3    3  502    0  0.42129843603E+03 -0.10932617993E+03  0.65791441725E+03  0.78885738017E+03  0.25500000920E-02 0. -1.
       -2    1    3    3    0  502 -0.42129843603E+03  0.10932617993E+03 -0.66778715643E+03  0.79710994983E+03  0.25500000920E-02 0.  1.
</event>
<event>
 5   0  0.1908125E-04  0.1603688E+04  0.7818609E-02  0.8818286E-01
        3   -1    0    0  501    0  0.00000000000E+00  0.00000000000E+00  0.11275854546E+04  0.11275854592E+04  0.10100000352E+00 0.  1.
       -3   -1    0    0    0  501  0.00000000000E+00  0.00000000000E+00 -0.57020397961E+03  0.57020398855E+03  0.10100000352E+00 0. -1.
    10030    2    1    2    0    0  0.00000000000E+00  0.00000000000E+00  0.55738147503E+03  0.16977894477E+04  0.16036879061E+04 0.  0.
        3    1    3    3  502    0 -0.24838785867E+03  0.72198680088E+03  0.19385352401E+02  0.76376519367E+03  0.10100000352E+00 0. -1.
       -3    1    3    3    0  502  0.24838785867E+03 -0.72198680088E+03  0.53799612262E+03  0.93402425404E+03  0.10100000352E+00 0.  1.
</event>
<event>
 5   0  0.5083831E-04  0.1589870E+04  0.7818609E-02  0.8826795E-01
       -2   -1    0    0    0  501  0.00000000000E+00  0.00000000000E+00  0.98849316410E+03  0.98849316410E+03  0.25500000920E-02 0. -1.
        2   -1    0    0  501    0  0.00000000000E+00  0.00000000000E+00 -0.63927776050E+03  0.63927776050E+03  0.25500000920E-02 0.  1.
    10030    2    1    2    0    0  0.00000000000E+00  0.00000000000E+00  0.34921540360E+03  0.16277709246E+04  0.15898700528E+04 0.  0.
        4    1    3    3  502    0 -0.31873414398E+03  0.56477547769E+03  0.64530344674E+03  0.91486662744E+03  0.12699999809E+01 0. -1.
       -4    1    3    3    0  502  0.31873414398E+03 -0.56477547769E+03 -0.29608804314E+03  0.71290429717E+03  0.12699999809E+01 0.  1.
</event>
<event>
 5   0  0.5381164E-04  0.1598029E+04  0.7818609E-02  0.8821760E-01
        2   -1    0    0  501    0  0.00000000000E+00  0.00000000000E+00  0.12625075126E+04  0.12625075126E+04  0.25500000920E-02 0.  1.
       -2   -1    0    0    0  501  0.00000000000E+00  0.00000000000E+00 -0.50567947573E+03  0.50567947574E+03  0.25500000920E-02 0. -1.
    10030    2    1    2    0    0  0.00000000000E+00  0.00000000000E+00  0.75682803682E+03  0.17681869883E+04  0.15980289573E+04 0.  0.
        5    1    3    3  502    0  0.24293743238E+03  0.21826273588E+03 -0.42844040323E+03  0.53873972106E+03  0.46999998093E+01 0. -1.
       -5    1    3    3    0  502 -0.24293743238E+03 -0.21826273588E+03  0.11852684401E+04  0.12294472672E+04  0.46999998093E+01 0.  1.
</event>
<event>
 5   0  0.2763895E-04  0.1511093E+04  0.7818609E-02  0.8877109E-01
        1   -1    0    0  501    0  0.00000000000E+00  0.00000000000E+00  0.11396593760E+04  0.11396593760E+04  0.50400001928E-02 0.  1.
       -1   -1    0    0    0  501  0.00000000000E+00  0.00000000000E+00 -0.50089597642E+03  0.50089597644E+03  0.50400001928E-02 0. -1.
    10030    2    1    2    0    0  0.00000000000E+00  0.00000000000E+00  0.63876339960E+03  0.16405553525E+04  0.15110933736E+04 0.  0.
        4    1    3    3  502    0  0.42271433888E+03 -0.20352351539E+03  0.96235391256E+03  0.10706240701E+04  0.12699999809E+01 0.  1.
       -4    1    3    3    0  502 -0.42271433888E+03  0.20352351539E+03 -0.32359051296E+03  0.56993128234E+03  0.12699999809E+01 0. -1.
</event>
<event>
 5   0  0.2649086E-04  0.1609738E+04  0.7818609E-02  0.8814588E-01
       -1   -1    0    0    0  501  0.00000000000E+00  0.00000000000E+00  0.74547441396E+03  0.74547441398E+03  0.50400001928E-02 0.  1.
        1   -1    0    0  501    0  0.00000000000E+00  0.00000000000E+00 -0.86899592931E+03  0.86899592932E+03  0.50400001928E-02 0. -1.
    10030    2    1    2    0    0  0.00000000000E+00  0.00000000000E+00 -0.12352151535E+03  0.16144703433E+04  0.16097381541E+04 0.  0.
        2    1    3    3  502    0  0.12515564507E+02 -0.77480026623E+03  0.15646136362E+03  0.79053921485E+03  0.25500000920E-02 0. -1.
       -2    1    3    3    0  502 -0.12515564507E+02  0.77480026623E+03 -0.27998287897E+03  0.82393112845E+03  0.25500000920E-02 0.  1.
</event>
<event>
 5   0  0.5381164E-04  0.1565845E+04  0.7818609E-02  0.8841810E-01
        2   -1    0    0  501    0  0.00000000000E+00  0.00000000000E+00  0.15364758076E+04  0.15364758076E+04  0.25500000920E-02 0. -1.
       -2   -1    0    0    0  501  0.00000000000E+00  0.00000000000E+00 -0.39894381329E+03  0.39894381330E+03  0.25500000920E-02 0.  1.
    10030    2    1    2    0    0  0.00000000000E+00  0.00000000000E+00  0.11375319943E+04  0.19354196209E+04  0.15658448425E+04 0.  0.
        5    1    3    3  502    0 -0.88458321832E+02  0.58586413871E+02 -0.38999896658E+03  0.40420109664E+03  0.46999998093E+01 0.  1.
       -5    1    3    3    0  502  0.88458321832E+02 -0.58586413871E+02  0.15275309609E+04  0.15312185243E+04  0.46999998093E+01 0. -1.
</event>
<event>
 5   0  0.2796994E-04  0.1602478E+04  0.7818609E-02  0.8819027E-01
       -1   -1    0    0    0  501  0.00000000000E+00  0.00000000000E+00  0.69993956566E+03  0.69993956568E+03  0.50400001928E-02 0.  1.
        1   -1    0    0  501    0  0.00000000000E+00  0.00000000000E+00 -0.91719915445E+03  0.91719915447E+03  0.50400001928E-02 0. -1.
    10030    2    1    2    0    0  0.00000000000E+00  0.00000000000E+00 -0.21725958879E+03  0.16171387201E+04  0.16024780533E+04 0.  0.
        3    1    3    3  502    0 -0.24076297853E+02 -0.52243123767E+03  0.50394086950E+03  0.72627162712E+03  0.10100000352E+00 0.  1.
       -3    1    3    3    0  502  0.24076297853E+02  0.52243123767E+03 -0.72120045829E+03  0.89086709303E+03  0.10100000352E+00 0. -1.
</event>
<event>
 5   0  0.5131239E-04  0.1692166E+04  0.7818609E-02  0.8765845E-01
       -2   -1    0    0    0  501  0.00000000000E+00  0.00000000000E+00  0.38779147077E+03  0.38779147078E+03  0.25500000920E-02 0.  1.
        2   -1    0    0  501    0  0.00000000000E+00  0.00000000000E+00 -0.18459833553E+04  0.18459833553E+04  0.25500000920E-02 0. -1.
    10030    2    1    2    0    0  0.00000000000E+00  0.00000000000E+00 -0.14581918845E+04  0.22337748260E+04  0.16921661861E+04 0.  0.
        1    1    3    3  502    0  0.59237317123E+03  0.10889676983E+03  0.55309128435E+02  0.60483351444E+03  0.50400001928E-02 0.  1.
       -1    1    3    3    0  502 -0.59237317123E+03 -0.10889676983E+03 -0.15135010129E+04  0.16289413116E+04  0.50400001928E-02 0. -1.
</event>
<event>
 5   0  0.2689675E-04  0.1601348E+04  0.7818609E-02  0.8819720E-01
        1   -1    0    0  501    0  0.00000000000E+00  0.00000000000E+00  0.12620903878E+04  0.12620903878E+04  0.50400001928E-02 0.  1.
       -1   -1    0    0    0  501  0.00000000000E+00  0.00000000000E+00 -0.50795029019E+03  0.50795029022E+03  0.50400001928E-02 0. -1.
    10030    2    1    2    0    0  0.00000000000E+00  0.00000000000E+00  0.75414009758E+03  0.17700406780E+04  0.16013484053E+04 0.  0.
        1    1    3    3  502    0 -0.11434639506E+03  0.15778804379E+03  0.12354797263E+04  0.12507527010E+04  0.50400001928E-02 0.  1.
       -1    1    3    3    0  502  0.11434639506E+03 -0.15778804379E+03 -0.48133962876E+03  0.51928797701E+03  0.50400001928E-02 0. -1.
</event>
<event>
 5   0  0.5131239E-04  0.1602512E+04  0.7818609E-02  0.8819006E-01
        2   -1    0    0  501    0  0.00000000000E+00  0.00000000000E+00  0.44420243336E+03  0.44420243336E+03  0.25500000920E-02 0. -1.
       -2   -1    0    0    0  501  0.00000000000E+00  0.00000000000E+00 -0.14453124104E+04  0.14453124104E+04  0.25500000920E-02 0.  1.
    10030    2    1    2    0    0  0.00000000000E+00  0.00000000000E+00 -0.10011099771E+04  0.18895148438E+04  0.16025121400E+04 0.  0.
        1    1    3    3  502    0 -0.21390648125E+03 -0.67664945334E+03 -0.93920517474E+03  0.11771647403E+04  0.50400001928E-02 0.  1.
       -1    1    3    3    0  502  0.21390648125E+03  0.67664945334E+03 -0.61904802322E+02  0.71235010353E+03  0.50400001928E-02 0. -1.
</event>
<event>
 5   0  0.5131239E-04  0.1583266E+04  0.7818609E-02  0.8830895E-01
        2   -1    0    0  501    0  0.00000000000E+00  0.00000000000E+00  0.18541683142E+04  0.18541683142E+04  0.25500000920E-02 0. -1.
       -2   -1    0    0    0  501  0.00000000000E+00  0.00000000000E+00 -0.33798589364E+03  0.33798589365E+03  0.25500000920E-02 0.  1.
    10030    2    1    2    0    0  0.00000000000E+00  0.00000000000E+00  0.15161824206E+04  0.21921542079E+04  0.15832659090E+04 0.  0.
        1    1    3    3  502    0 -0.74989653279E+03 -0.33585040464E+01  0.40692502324E+03  0.85319638068E+03  0.50400001928E-02 0.  1.
       -1    1    3    3    0  502  0.74989653279E+03  0.33585040464E+01  0.11092573974E+04  0.13389578272E+04  0.50400001928E-02 0. -1.
</event>
<event>
 5   0  0.5381164E-04  0.1634296E+04  0.7818609E-02  0.8799752E-01
        2   -1    0    0  501    0  0.00000000000E+00  0.00000000000E+00  0.12328333102E+04  0.12328333102E+04  0.25500000920E-02 0. -1.
       -2   -1    0    0    0  501  0.00000000000E+00  0.00000000000E+00 -0.54162277069E+03  0.54162277069E+03  0.25500000920E-02 0.  1.
    10030    2    1    2    0    0  0.00000000000E+00  0.00000000000E+00  0.69121053950E+03  0.17744560809E+04  0.16342956810E+04 0.  0.
        5    1    3    3  502    0 -0.74386877897E+03 -0.25309284785E+03  0.58914473486E+03  0.98209488267E+03  0.46999998093E+01 0. -1.
       -5    1    3    3    0  502  0.74386877897E+03  0.25309284785E+03  0.10206580464E+03  0.79236119821E+03  0.46999998093E+01 0.  1.
</event>
<event>
 5   0  0.5264308E-04  0.1571029E+04  0.7818609E-02  0.8838547E-01
       -2   -1    0    0    0  501  0.00000000000E+00  0.00000000000E+00  0.10328004699E+04  0.10328004699E+04  0.25500000920E-02 0.  1.
        2   -1    0    0  501    0  0.00000000000E+00  0.00000000000E+00 -0.59743646924E+03  0.59743646925E+03  0.25500000920E-02 0. -1.
    10030    2    1    2    0    0  0.00000000000E+00  0.00000000000E+00  0.43536400070E+03  0.16302369392E+04  0.15710285372E+04 0.  0.
        3    1    3    3  502    0  0.30144765165E+03  0.52077242413E+03 -0.30628148376E+03  0.67519105587E+03  0.10100000352E+00 0. -1.
       -3    1    3    3    0  502 -0.30144765165E+03 -0.52077242413E+03  0.74164548446E+03  0.95504588332E+03  0.10100000352E+00 0.  1.
</event>
<event>
 5   0  0.2649086E-04  0.1611072E+04  0.7818609E-02  0.8813775E-01
       -1   -1    0    0    0  501  0.00000000000E+00  0.00000000000E+00  0.39257782365E+03  0.39257782368E+03  0.50400001928E-02 0. -1.
        1   -1    0    0  501    0  0.00000000000E+00  0.00000000000E+00 -0.16528910248E+04  0.16528910248E+04  0.50400001928E-02 0.  1.
    10030    2    1    2    0    0  0.00000000000E+00  0.00000000000E+00 -0.12603132011E+04  0.20454688485E+04  0.16110721415E+04 0.  0.
        2    1    3    3  502    0  0.28274688755E+03  0.59087226888E+03 -0.34900170899E+02  0.65596788221E+03  0.25500000920E-02 0. -1.
       -2    1    3    3    0  502 -0.28274688755E+03 -0.59087226888E+03 -0.12254130302E+04  0.13895009663E+04  0.25500000920E-02 0.  1.
</event>
<event>
 5   0  0.2796994E-04  0.1593677E+04  0.7818609E-02  0.8824442E-01
        1   -1    0    0  501    0  0.00000000000E+00  0.00000000000E+00  0.14642764121E+04  0.14642764121E+04  0.50400001928E-02 0.  1.
       -1   -1    0    0    0  501  0.00000000000E+00  0.00000000000E+00 -0.43362846041E+03  0.43362846044E+03  0.50400001928E-02 0. -1.
    10030    2    1    2    0    0  0.00000000000E+00  0.00000000000E+00  0.10306479517E+04  0.18979048725E+04  0.15936774156E+04 0.  0.
        3    1    3    3  502    0 -0.27822433198E+03  0.29144758790E+03 -0.30336990276E+03  0.50436473261E+03  0.10100000352E+00 0. -1.
       -3    1    3    3    0  502  0.27822433198E+03 -0.29144758790E+03  0.13340178545E+04  0.13935401399E+04  0.10100000352E+00 0.  1.
</event>
<event>
 5   0  0.1908125E-04  0.1595078E+04  0.7818609E-02  0.8823577E-01
        3   -1    0    0  501    0  0.00000000000E+00  0.00000000000E+00  0.46132136685E+03  0.46132137790E+03  0.10100000352E+00 0. -1.
       -3   -1    0    0    0  501  0.00000000000E+00  0.00000000000E+00 -0.13787970705E+04  0.13787970742E+04  0.10100000352E+00 0.  1.
    10030    2    1    2    0    0  0.00000000000E+00  0.00000000000E+00 -0.91747570363E+03  0.18401184521E+04  0.15950781332E+04 0.  0.
        5    1    3    3  502    0 -0.59822913209E+03  0.36088005377E+03 -0.90244637159E+03  0.11412905201E+04  0.46999998093E+01 0.  1.
       -5    1    3    3    0  502  0.59822913209E+03 -0.36088005377E+03 -0.15029332038E+02  0.69882793197E+03  0.46999998093E+01 0. -1.
</event>
<event>
 5   0  0.2649086E-04  0.1599369E+04  0.7818609E-02  0.8820936E-01
        1   -1    0    0  501    0  0.00000000000E+00  0.00000000000E+00  0.91144398245E+03  0.91144398246E+03  0.50400001928E-02 0. -1.
       -1   -1    0    0    0  501  0.00000000000E+00  0.00000000000E+00 -0.70162851442E+03  0.70162851443E+03  0.50400001928E-02 0.  1.
    10030    2    1    2    0    0  0.00000000000E+00  0.00000000000E+00  0.20981546803E+03  0.16130724969E+04  0.15993687347E+04 0.  0.
        2    1    3    3  502    0  0.59679257544E+02 -0.12943214922E+03 -0.68871485795E+03  0.70330821878E+03  0.25500000920E-02 0.  1.
       -2    1    3    3    0  502 -0.59679257544E+02  0.12943214922E+03  0.89853032598E+03  0.90976427812E+03  0.25500000920E-02 0. -1.
</event>
<event>
 5   0  0.2689675E-04  0.1589489E+04  0.7818609E-02  0.8827032E-01
       -1   -1    0    0    0  501  0.00000000000E+00  0.00000000000E+00  0.51327881632E+03  0.51327881635E+03  0.50400001928E-02 0. -1.
        1   -1    0    0  501    0  0.00000000000E+00  0.00000000000E+00 -0.12305567883E+04  0.12305567884E+04  0.50400001928E-02 0.  1.
    10030    2    1    2    0    0  0.00000000000E+00  0.00000000000E+00 -0.71727797202E+03  0.17438356047E+04  0.15894888886E+04 0.  0.
        1    1    3    3  502    0  0.22139896063E+03  0.74377255089E+03 -0.54676483742E+03  0.94929810633E+03  0.50400001928E-02 0. -1.
       -1    1    3    3    0  502 -0.22139896063E+03 -0.74377255089E+03 -0.17051313460E+03  0.79453749837E+03  0.50400001928E-02 0.  1.
</event>
<event>
 5   0  0.5131239E-04  0.1609398E+04  0.7818609E-02  0.8814795E-01
       -2   -1    0    0    0  501  0.00000000000E+00  0.00000000000E+00  0.26274985357E+03  0.26274985359E+03  0.25500000920E-02 0.  1.
        2   -1    0    0  501    0  0.00000000000E+00  0.00000000000E+00 -0.24644740861E+04  0.24644740861E+04  0.25500000920E-02 0. -1.
    10030    2    1    2    0    0  0.00000000000E+00  0.00000000000E+00 -0.22017242325E+04  0.27272239396E+04  0.16093976578E+04 0.  0.
        1    1    3    3  502    0  0.20479734844E+03 -0.53617324756E+03 -0.14509841336E+03  0.59201119492E+03  0.50400001928E-02 0.  1.
       -1    1    3    3    0  502 -0.20479734844E+03  0.53617324756E+03 -0.20566258191E+04  0.21352127447E+04  0.50400001928E-02 0. -1.
</event>
<event>
 5   0  0.2796994E-04  0.1568424E+04  0.7818609E-02  0.8840185E-01
       -1   -1    0    0    0  501  0.00000000000E+00  0.00000000000E+00  0.17582518637E+04  0.17582518637E+04  0.50400001928E-02 0.  1.
        1   -1    0    0  501    0  0.00000000000E+00  0.00000000000E+00 -0.34977266918E+03  0.34977266922E+03  0.50400001928E-02 0. -1.
    10030    2    1    2    0    0  0.00000000000E+00  0.00000000000E+00  0.14084791945E+04  0.21080245329E+04  0.15684239828E+04 0.  0.
        3    1    3    3  502    0  0.71376629913E+02 -0.70862867760E+03  0.11454025982E+04  0.13487758702E+04  0.10100000352E+00 0.  1.
       -3    1    3    3    0  502 -0.71376629913E+02  0.70862867760E+03  0.26307659631E+03  0.75924866266E+03  0.10100000352E+00 0. -1.
</event>
<event>
 5   0  0.5315984E-04  0.1638450E+04  0.7818609E-02  0.8797269E-01
        2   -1    0    0  501    0  0.00000000000E+00  0.00000000000E+00  0.14795095977E+04  0.14795095977E+04  0.25500000920E-02 0. -1.
       -2   -1    0    0    0  501  0.00000000000E+00  0.00000000000E+00 -0.45361602845E+03  0.45361602845E+03  0.25500000920E-02 0.  1.
    10030    2    1    2    0    0  0.00000000000E+00  0.00000000000E+00  0.10258935692E+04  0.19331256261E+04  0.16384495937E+04 0.  0.
        2    1    3    3  502    0 -0.10506886705E+02 -0.52536786756E+03  0.12544783643E+04  0.13600874080E+04  0.25500000920E-02 0. -1.
       -2    1    3    3    0  502  0.10506886705E+02  0.52536786756E+03 -0.22858479504E+03  0.57303821815E+03  0.25500000920E-02 0.  1.
</event>
<event>
 5   0  0.2730707E-04  0.1616929E+04  0.7818609E-02  0.8810215E-01
       -1   -1    0    0    0  501  0.00000000000E+00  0.00000000000E+00  0.37326513963E+03  0.37326513967E+03  0.50400001928E-02 0. -1.
        1   -1    0    0  501    0  0.00000000000E+00  0.00000000000E+00 -0.17510736568E+04  0.17510736568E+04  0.50400001928E-02 0.  1.
    10030    2    1    2    0    0  0.00000000000E+00  0.00000000000E+00 -0.13778085171E+04  0.21243387964E+04  0.16169288828E+04 0.  0.
        5    1    3    3  502    0  0.55641980271E+02 -0.21018777173E+03  0.33411308657E+03  0.39865846782E+03  0.46999998093E+01 0. -1.
       -5    1    3    3    0  502 -0.55641980271E+02  0.21018777173E+03 -0.17119216037E+04  0.17256803286E+04  0.46999998093E+01 0.  1.
</event>
<event>
 5   0  0.5083831E-04  0.1601785E+04  0.7818609E-02  0.8819452E-01
        2   -1    0    0  501    0  0.00000000000E+00  0.00000000000E+00  0.70889519698E+03  0.70889519698E+03  0.25500000920E-02 0.  1.
       -2   -1    0    0    0  501  0.00000000000E+00  0.00000000000E+00 -0.90482913100E+03  0.90482913101E+03  0.25500000920E-02 0. -1.
    10030    2    1    2    0    0  0.00000000000E+00  0.00000000000E+00 -0.19593393402E+03  0.16137243280E+04  0.16017852853E+04 0.  0.
        4    1    3    3  502    0 -0.18198007133E+03  0.74575106918E+03  0.13213421572E+03  0.77892391632E+03  0.12699999809E+01 0.  1.
       -4    1    3    3    0  502  0.18198007133E+03 -0.74575106918E+03 -0.32806814974E+03  0.83480041167E+03  0.12699999809E+01 0. -1.
</event>
<event>
 5   0  0.5131239E-04  0.1518667E+04  0.7818609E-02  0.8872134E-01
       -2   -1    0    0    0  501  0.00000000000E+00  0.00000000000E+00  0.31098953864E+03  0.31098953865E+03  0.25500000920E-02 0.  1.
        2   -1    0    0  501    0  0.00000000000E+00  0.00000000000E+00 -0.18540400437E+04  0.18540400437E+04  0.25500000920E-02 0. -1.
    10030    2    1    2    0    0  0.00000000000E+00  0.00000000000E+00 -0.15430505051E+04  0.21650295824E+04  0.15186665965E+04 0.  0.
        1    1    3    3  502    0  0.64767150061E+03 -0.20837347659E+03 -0.29083982087E+03  0.73992275264E+03  0.50400001928E-02 0.  1.
       -1    1    3    3    0  502 -0.64767150061E+03  0.20837347659E+03 -0.12522106842E+04  0.14251068297E+04  0.50400001928E-02 0. -1.
</event>
<event>
 5   0  0.5131239E-04  0.1578407E+04  0.7818609E-02  0.8833924E-01
        2   -1    0    0  501    0  0.00000000000E+00  0.00000000000E+00  0.84782136608E+03  0.84782136608E+03  0.25500000920E-02 0. -1.
       -2   -1    0    0    0  501  0.00000000000E+00  0.00000000000E+00 -0.73463868812E+03  0.73463868812E+03  0.25500000920E-02 0.  1.
    10030    2    1    2    0    0  0.00000000000E+00  0.00000000000E+00  0.11318267796E+03  0.15824600542E+04  0.15784072683E+04 0.  0.
        1    1    3    3  502    0 -0.73138347574E+03  0.24924259246E+03  0.21762354535E+03  0.80274757303E+03  0.50400001928E-02 0. -1.
       -1    1    3    3    0  502  0.73138347574E+03 -0.24924259246E+03 -0.10444086739E+03  0.77971248117E+03  0.50400001928E-02 0.  1.
</event>
<event>
 5   0  0.2763895E-04  0.1611189E+04  0.7818609E-02  0.8813703E-01
        1   -1    0    0  501    0  0.00000000000E+00  0.00000000000E+00  0.99184090944E+03  0.99184090946E+03  0.50400001928E-02 0. -1.
       -1   -1    0    0    0  501  0.00000000000E+00  0.00000000000E+00 -0.65432151567E+03  0.65432151569E+03  0.50400001928E-02 0.  1.
    10030    2    1    2    0    0  0.00000000000E+00  0.00000000000E+00  0.33751939377E+03  0.16461624251E+04  0.16111894329E+04 0.  0.
        4    1    3    3  502    0  0.63639433785E+03 -0.49033281910E+03  0.22969664255E+03  0.83557536299E+03  0.12699999809E+01 0. -1.
       -4    1    3    3    0  502 -0.63639433785E+03  0.49033281910E+03  0.10782275123E+03  0.81058706215E+03  0.12699999809E+01 0.  1.
</event>
<event>
 5   0  0.5083831E-04  0.1463382E+04  0.7818609E-02  0.8909175E-01
        2   -1    0    0  501    0  0.00000000000E+00  0.00000000000E+00  0.17659204475E+04  0.17659204475E+04  0.25500000920E-02 0.  1.
       -2   -1    0    0    0  501  0.00000000000E+00  0.00000000000E+00 -0.30316883952E+03  0.30316883953E+03  0.25500000920E-02 0. -1.
    10030    2    1    2    0    0  0.00000000000E+00  0.00000000000E+00  0.14627516080E+04  0.20690892870E+04  0.14633824555E+04 0.  0.
        4    1    3    3  502    0  0.72947550438E+02 -0.11228281802E+03  0.17484487103E+04  0.17535687274E+04  0.12699999809E+01 0.  1.
       -4    1    3    3    0  502 -0.72947550438E+02  0.11228281802E+03 -0.28569710234E+03  0.31552055959E+03  0.12699999809E+01 0. -1.
</event>
<event>
 5   0  0.5083831E-04  0.1425611E+04  0.7818609E-02  0.8935485E-01
       -2   -1    0    0    0  501  0.00000000000E+00  0.00000000000E+00  0.23446264303E+03  0.23446264304E+03  0.25500000920E-02 0.  1.
        2   -1    0    0  501    0  0.00000000000E+00  0.00000000000E+00 -0.21670489678E+04  0.21670489678E+04  0.25500000920E-02 0. -1.
    10030    2    1    2    0    0  0.00000000000E+00  0.00000000000E+00 -0.19325863247E+04  0.24015116108E+04  0.14256114878E+04 0.  0.
        4    1    3    3  502    0  0.20026963491E+03 -0.57110059342E+03 -0.16006919613E+04  0.17112802758E+04  0.12699999809E+01 0. -1.
       -4    1    3    3    0  502 -0.20026963491E+03  0.57110059342E+03 -0.33189436348E+03  0.69023133505E+03  0.12699999809E+01 0.  1.
</event>
<event>
 5   0  0.2649086E-04  0.1574557E+04  0.7818609E-02  0.8836333E-01
        1   -1    0    0  501    0  0.00000000000E+00  0.00000000000E+00  0.16244373363E+04  0.16244373363E+04  0.50400001928E-02 0. -1.
       -1   -1    0    0    0  501  0.00000000000E+00  0.00000000000E+00 -0.38155207120E+03  0.38155207123E+03  0.50400001928E-02 0.  1.
    10030    2    1    2    0    0  0.00000000000E+00  0.00000000000E+00  0.12428852651E+04  0.20059894075E+04  0.15745569920E+04 0.  0.
        2    1    3    3  502    0 -0.58507020347E+03  0.11047518309E+03 -0.34755831781E+02  0.59642256574E+03  0.25500000920E-02 0.  1.
       -2    1    3    3    0  502  0.58507020347E+03 -0.11047518309E+03  0.12776410969E+04  0.14095668418E+04  0.25500000920E-02 0. -1.
</event>
<event>
 5   0  0.5131239E-04  0.1602677E+04  0.7818609E-02  0.8818905E-01
        2   -1    0    0  501    0  0.00000000000E+00  0.00000000000E+00  0.17840895062E+04  0.17840895062E+04  0.25500000920E-02 0. -1.
       -2   -1    0    0    0  501  0.00000000000E+00  0.00000000000E+00 -0.35992793404E+03  0.35992793405E+03  0.25500000920E-02 0.  1.
    10030    2    1    2    0    0  0.00000000000E+00  0.00000000000E+00  0.14241615721E+04  0.21440174402E+04  0.16026773226E+04 0.  0.
        1    1    3    3  502    0 -0.29321544294E+03 -0.72628328741E+03  0.48552303944E+03  0.92151794958E+03  0.50400001928E-02 0.  1.
       -1    1    3    3    0  502  0.29321544294E+03  0.72628328741E+03  0.93863853270E+03  0.12224994907E+04  0.50400001928E-02 0. -1.
</event>
<event>
 5   0  0.2730707E-04  0.1606538E+04  0.7818609E-02  0.8816542E-01
       -1   -1    0    0    0  501  0.00000000000E+00  0.00000000000E+00  0.84602940427E+03  0.84602940429E+03  0.50400001928E-02 0. -1.
        1   -1    0    0  501    0  0.00000000000E+00  0.00000000000E+00 -0.76266954772E+03  0.76266954773E+03  0.50400001928E-02 0.  1.
    10030    2    1    2    0    0  0.00000000000E+00  0.00000000000E+00  0.83359856558E+02  0.16086989520E+04  0.16065377221E+04 0.  0.
        5    1    3    3  502    0  0.10167042508E+03 -0.72909180391E+03 -0.28016658535E+03  0.78767197450E+03  0.46999998093E+01 0.  1.
       -5    1    3    3    0  502 -0.10167042508E+03  0.72909180391E+03  0.36352644191E+03  0.82102697753E+03  0.46999998093E+01 0. -1.
</event>
<event>
 5   0  0.2730707E-04  0.1359215E+04  0.7818609E-02  0.8983881E-01
       -1   -1    0    0    0  501  0.00000000000E+00  0.00000000000E+00  0.67487795164E+03  0.67487795166E+03  0.50400001928E-02 0. -1.
        1   -1    0    0  501    0  0.00000000000E+00  0.00000000000E+00 -0.68437052148E+03  0.68437052150E+03  0.50400001928E-02 0.  1.
    10030    2    1    2    0    0  0.00000000000E+00  0.00000000000E+00 -0.94925698366E+01  0.13592484732E+04  0.13592153262E+04 0.  0.
        5    1    3    3  502    0  0.43024470273E+03 -0.52499416200E+03  0.28647812603E+02  0.67939102256E+03  0.46999998093E+01 0.  1.
       -5    1    3    3    0  502 -0.43024470273E+03  0.52499416200E+03 -0.38140382439E+02  0.67985745060E+03  0.46999998093E+01 0. -1.
</event>
<event>
 5   0  0.2730707E-04  0.1608533E+04  0.7818609E-02  0.8815323E-01
        1   -1    0    0  501    0  0.00000000000E+00  0.00000000000E+00  0.57726818736E+03  0.57726818738E+03  0.50400001928E-02 0.  1.
       -1   -1    0    0    0  501  0.00000000000E+00  0.00000000000E+00 -0.11205274029E+04  0.11205274029E+04  0.50400001928E-02 0. -1.
    10030    2    1    2    0    0  0.00000000000E+00  0.00000000000E+00 -0.54325921555E+03  0.16977955903E+04  0.16085332733E+04 0.  0.
        5    1    3    3  502    0 -0.76177216019E+03 -0.45422791544E+02 -0.53961401595E+03  0.93464722234E+03  0.46999998093E+01 0. -1.
       -5    1    3    3    0  502  0.76177216019E+03  0.45422791544E+02 -0.36451995964E+01  0.76314836795E+03  0.46999998093E+01 0.  1.
</event>
<event>
 5   0  0.2649086E-04  0.1604387E+04  0.7818609E-02  0.8817857E-01
       -1   -1    0    0    0  501  0.00000000000E+00  0.00000000000E+00  0.60204638002E+03  0.60204638004E+03  0.50400001928E-02 0. -1.
        1   -1    0    0  501    0  0.00000000000E+00  0.00000000000E+00 -0.10688786610E+04  0.10688786610E+04  0.50400001928E-02 0.  1.
    10030    2    1    2    0    0  0.00000000000E+00  0.00000000000E+00 -0.46683228096E+03  0.16709250410E+04  0.16043871460E+04 0.  0.
        2    1    3    3  502    0 -0.27958057271E+03 -0.74855310369E+03 -0.30718800204E+03  0.85607331128E+03  0.25500000920E-02 0.  1.
       -2    1    3    3    0  502  0.27958057271E+03  0.74855310369E+03 -0.15964427892E+03  0.81485172975E+03  0.25500000920E-02 0. -1.
</event>
<event>
 5   0  0.5264308E-04  0.1539811E+04  0.7818609E-02  0.8858402E-01
        2   -1    0    0  501    0  0.00000000000E+00  0.00000000000E+00  0.13691715834E+04  0.13691715834E+04  0.25500000920E-02 0. -1.
       -2   -1    0    0    0  501  0.00000000000E+00  0.00000000000E+00 -0.43292925558E+03  0.43292925559E+03  0.25500000920E-02 0.  1.
    10030    2    1    2    0    0  0.00000000000E+00  0.00000000000E+00  0.93624232779E+03  0.18021008390E+04  0.15398109421E+04 0.  0.
        3    1    3    3  502    0  0.59377506348E+03  0.47763705635E+03  0.59658388197E+03  0.96779043292E+03  0.10100000352E+00 0. -1.
       -3    1    3    3    0  502 -0.59377506348E+03 -0.47763705635E+03  0.33965844581E+03  0.83431040604E+03  0.10100000352E+00 0.  1.
</event>
<event>
 5   0  0.5381164E-04  0.1589502E+04  0.7818609E-02  0.8827024E-01
        2   -1    0    0  501    0  0.00000000000E+00  0.00000000000E+00  0.67250043168E+03  0.67250043169E+03  0.25500000920E-02 0.  1.
       -2   -1    0    0    0  501  0.00000000000E+00  0.00000000000E+00 -0.93922452087E+03  0.93922452087E+03  0.25500000920E-02 0. -1.
    10030    2    1    2    0    0  0.00000000000E+00  0.00000000000E+00 -0.26672408919E+03  0.16117249526E+04  0.15895016776E+04 0.  0.
        5    1    3    3  502    0 -0.96237103217E+02 -0.12018039039E+03  0.65721953158E+03  0.67502926526E+03  0.46999998093E+01 0.  1.
       -5    1    3    3    0  502  0.96237103217E+02  0.12018039039E+03 -0.92394362076E+03  0.93669568731E+03  0.46999998093E+01 0. -1.
</event>
<event>
 5   0  0.5315984E-04  0.1620015E+04  0.7818609E-02  0.8808346E-01
        2   -1    0    0  501    0  0.00000000000E+00  0.00000000000E+00  0.23551461904E+04  0.23551461904E+04  0.25500000920E-02 0. -1.
       -2   -1    0    0    0  501  0.00000000000E+00  0.00000000000E+00 -0.27858653537E+03  0.27858653538E+03  0.25500000920E-02 0.  1.
    10030    2    1    2    0    0  0.00000000000E+00  0.00000000000E+00  0.20765596550E+04  0.26337327258E+04  0.16200148363E+04 0.  0.
        2    1    3    3  502    0 -0.19034479768E+03 -0.61906585720E+03  0.24742774375E+03  0.69332111315E+03  0.25500000920E-02 0.  1.
       -2    1    3    3    0  502  0.19034479768E+03  0.61906585720E+03  0.18291319113E+04  0.19404116126E+04  0.25500000920E-02 0. -1.
</event>
<event>
 5   0  0.2649086E-04  0.1594028E+04  0.7818609E-02  0.8824225E-01
        1   -1    0    0  501    0  0.00000000000E+00  0.00000000000E+00  0.88177040064E+03  0.88177040065E+03  0.50400001928E-02 0.  1.
       -1   -1    0    0    0  501  0.00000000000E+00  0.00000000000E+00 -0.72040477655E+03  0.72040477656E+03  0.50400001928E-02 0. -1.
    10030    2    1    2    0    0  0.00000000000E+00  0.00000000000E+00  0.16136562409E+03  0.16021751772E+04  0.15940283667E+04 0.  0.
        2    1    3    3  502    0 -0.64770564486E+03 -0.38609744774E+03 -0.17877943252E+03  0.77495543551E+03  0.25500000920E-02 0. -1.
       -2    1    3    3    0  502  0.64770564486E+03  0.38609744774E+03  0.34014505661E+03  0.82721974171E+03  0.25500000920E-02 0.  1.
</event>
<event>
 5   0  0.5131239E-04  0.1601084E+04  0.7818609E-02  0.8819882E-01
       -2   -1    0    0    0  501  0.00000000000E+00  0.00000000000E+00  0.34451544059E+03  0.34451544060E+03  0.25500000920E-02 0.  1.
        2   -1    0    0  501    0  0.00000000000E+00  0.00000000000E+00 -0.18602005689E+04  0.18602005689E+04  0.25500000920E-02 0. -1.
    10030    2    1    2    0    0  0.00000000000E+00  0.00000000000E+00 -0.15156851283E+04  0.22047160095E+04  0.16010844057E+04 0.  0.
        1    1    3    3  502    0 -0.16002673717E+03  0.77212002553E+03 -0.94809953361E+03  0.12331547413E+04  0.50400001928E-02 0.  1.
       -1    1    3    3    0  502  0.16002673717E+03 -0.77212002553E+03 -0.56758559468E+03  0.97156126813E+03  0.50400001928E-02 0. -1.
</event>
<event>
 5   0  0.2649086E-04  0.1598032E+04  0.7818609E-02  0.8821758E-01
        1   -1    0    0  501    0  0.00000000000E+00  0.00000000000E+00  0.92446531769E+03  0.92446531771E+03  0.50400001928E-02 0. -1.
       -1   -1    0    0    0  501  0.00000000000E+00  0.00000000000E+00 -0.69058970030E+03  0.69058970032E+03  0.50400001928E-02 0.  1.
    10030    2    1    2    0    0  0.00000000000E+00  0.00000000000E+00  0.23387561740E+03  0.16150550180E+04  0.15980315725E+04 0.  0.
        2    1    3    3  502    0  0.11231389476E+03 -0.56129494420E+03  0.68033461862E+03  0.88911282672E+03  0.25500000920E-02 0. -1.
       -2    1    3    3    0  502 -0.11231389476E+03  0.56129494420E+03 -0.44645900122E+03  0.72594219130E+03  0.25500000920E-02 0.  1.
</event>
<event>
 5   0  0.2689675E-04  0.1617248E+04  0.7818609E-02  0.8810021E-01
       -1   -1    0    0    0  501  0.00000000000E+00  0.00000000000E+00  0.59872646486E+03  0.59872646488E+03  0.50400001928E-02 0.  1.
        1   -1    0    0  501    0  0.00000000000E+00  0.00000000000E+00 -0.10921061554E+04  0.10921061554E+04  0.50400001928E-02 0. -1.
    10030    2    1    2    0    0  0.00000000000E+00  0.00000000000E+00 -0.49337969056E+03  0.16908326203E+04  0.16172481043E+04 0.  0.
        1    1    3    3  502    0 -0.23196054899E+03  0.67538834640E+03  0.14993611519E+03  0.72968209064E+03  0.50400001928E-02 0.  1.
       -1    1    3    3    0  502  0.23196054899E+03 -0.67538834640E+03 -0.64331580575E+03  0.96115052967E+03  0.50400001928E-02 0. -1.
</event>
<event>
 5   0  0.2796994E-04  0.1501010E+04  0.7818609E-02  0.8883781E-01
       -1   -1    0    0    0  501  0.00000000000E+00  0.00000000000E+00  0.18528120466E+04  0.18528120466E+04  0.50400001928E-02 0. -1.
        1   -1    0    0  501    0  0.00000000000E+00  0.00000000000E+00 -0.30400165644E+03  0.30400165648E+03  0.50400001928E-02 0.  1.
    10030    2    1    2    0    0  0.00000000000E+00  0.00000000000E+00  0.15488103901E+04  0.21568137030E+04  0.15010102348E+04 0.  0.
        3    1    3    3  502    0 -0.71817181393E+03 -0.95877241239E+02  0.49321612368E+03  0.87648465735E+03  0.10100000352E+00 0.  1.
       -3    1    3    3    0  502  0.71817181393E+03  0.95877241239E+02  0.10555942664E+04  0.12803290457E+04  0.10100000352E+00 0. -1.
</event>
<event>
 5   0  0.2649086E-04  0.1600215E+04  0.7818609E-02  0.8820416E-01
       -1   -1    0    0    0  501  0.00000000000E+00  0.00000000000E+00  0.12546411742E+04  0.12546411742E+04  0.50400001928E-02 0.  1.
        1   -1    0    0  501    0  0.00000000000E+00  0.00000000000E+00 -0.51024342490E+03  0.51024342492E+03  0.50400001928E-02 0. -1.
    10030    2    1    2    0    0  0.00000000000E+00  0.00000000000E+00  0.74439774930E+03  0.17648845991E+04  0.16002154977E+04 0.  0.
        2    1    3    3  502    0  0.78552844080E+03  0.12219173372E+03  0.47198983063E+03  0.92453239603E+03  0.25500000920E-02 0.  1.
       -2    1    3    3    0  502 -0.78552844080E+03 -0.12219173372E+03  0.27240791867E+03  0.84035220310E+03  0.25500000920E-02 0. -1.
</event>
<event>
 5   0  0.2796994E-04  0.1615389E+04  0.7818609E-02  0.8811149E-01
        1   -1    0    0  501    0  0.00000000000E+00  0.00000000000E+00  0.20226386376E+04  0.20226386376E+04  0.50400001928E-02 0. -1.
       -1   -1    0    0    0  501  0.00000000000E+00  0.00000000000E+00 -0.32253438390E+03  0.32253438394E+03  0.50400001928E-02 0.  1.
    10030    2    1    2    0    0  0.00000000000E+00  0.00000000000E+00  0.17001042537E+04  0.23451730216E+04  0.16153891257E+04 0.  0.
        3    1    3    3  502    0  0.64018787068E+03 -0.43576618061E+03  0.51697355557E+03  0.93112530913E+03  0.10100000352E+00 0.  1.
       -3    1    3    3    0  502 -0.64018787068E+03  0.43576618061E+03  0.11831306981E+04  0.14140477124E+04  0.10100000352E+00 0. -1.
</event>
<event>
 5   0  0.2689675E-04  0.1653051E+04  0.7818609E-02  0.8788604E-01
        1   -1    0    0  501    0  0.00000000000E+00  0.00000000000E+00  0.68607246819E+03  0.68607246821E+03  0.50400001928E-02 0. -1.
       -1   -1    0    0    0  501  0.00000000000E+00  0.00000000000E+00 -0.99573197177E+03  0.99573197178E+03  0.50400001928E-02 0.  1.
    10030    2    1    2    0    0  0.00000000000E+00  0.00000000000E+00 -0.30965950358E+03  0.16818044400E+04  0.16530508662E+04 0.  0.
        1    1    3    3  502    0 -0.49302641058E+02 -0.49321447041E+03 -0.82773666536E+03  0.96480010958E+03  0.50400001928E-02 0.  1.
       -1    1    3    3    0  502  0.49302641058E+02  0.49321447041E+03  0.51807716179E+03  0.71700433041E+03  0.50400001928E-02 0. -1.
</event>
<event>
 5   0  0.2649086E-04  0.1610136E+04  0.7818609E-02  0.8814345E-01
        1   -1    0    0  501    0  0.00000000000E+00  0.00000000000E+00  0.93900373869E+03  0.93900373870E+03  0.50400001928E-02 0. -1.
       -1   -1    0    0    0  501  0.00000000000E+00  0.00000000000E+00 -0.69023598187E+03  0.69023598189E+03  0.50400001928E-02 0.  1.
    10030    2    1    2    0    0  0.00000000000E+00  0.00000000000E+00  0.24876775681E+03  0.16292397206E+04  0.16101356062E+04 0.  0.
        2    1    3    3  502    0 -0.64854121282E+03  0.30412287010E+03 -0.24745099650E+03  0.75784458864E+03  0.25500000920E-02 0.  1.
       -2    1    3    3    0  502  0.64854121282E+03 -0.30412287010E+03  0.49621875332E+03  0.87139513196E+03  0.25500000920E-02 0. -1.
</event>
<event>
 5   0  0.5315984E-04  0.1706316E+04  0.7818609E-02  0.8757771E-01
        2   -1    0    0  501    0  0.00000000000E+00  0.00000000000E+00  0.12052664296E+04  0.12052664296E+04  0.25500000920E-02 0.  1.
       -2   -1    0    0    0  501  0.00000000000E+00  0.00000000000E+00 -0.60391474464E+03  0.60391474464E+03  0.25500000920E-02 0. -1.
    10030    2    1    2    0    0  0.00000000000E+00  0.00000000000E+00  0.60135168500E+03  0.18091811743E+04  0.17063155254E+04 0.  0.
        2    1    3    3  502    0 -0.26761736222E+02  0.47630491037E+02 -0.60205808448E+03  0.60453187782E+03  0.25500000920E-02 0. -1.
       -2    1    3    3    0  502  0.26761736222E+02 -0.47630491037E+02  0.12034097695E+04  0.12046492965E+04  0.25500000920E-02 0.  1.
</event>
<event>
 5   0  0.2649086E-04  0.1803888E+04  0.7818609E-02  0.8704235E-01
       -1   -1    0    0    0  501  0.00000000000E+00  0.00000000000E+00  0.47122277983E+03  0.47122277986E+03  0.50400001928E-02 0.  1.
        1   -1    0    0  501    0  0.00000000000E+00  0.00000000000E+00 -0.17263654124E+04  0.17263654124E+04  0.50400001928E-02 0. -1.
    10030    2    1    2    0    0  0.00000000000E+00  0.00000000000E+00 -0.12551426326E+04  0.21975881923E+04  0.18038877002E+04 0.  0.
        2    1    3    3  502    0 -0.40168755580E+03 -0.11211556379E+03  0.34670966442E+03  0.54233788687E+03  0.25500000920E-02 0.  1.
       -2    1    3    3    0  502  0.40168755580E+03  0.11211556379E+03 -0.16018522970E+04  0.16552503054E+04  0.25500000920E-02 0. -1.
</event>
<event>
 5   0  0.2730707E-04  0.1600966E+04  0.7818609E-02  0.8819955E-01
        1   -1    0    0  501    0  0.00000000000E+00  0.00000000000E+00  0.60695365909E+03  0.60695365911E+03  0.50400001928E-02 0. -1.
       -1   -1    0    0    0  501  0.00000000000E+00  0.00000000000E+00 -0.10557193397E+04  0.10557193397E+04  0.50400001928E-02 0.  1.
    10030    2    1    2    0    0  0.00000000000E+00  0.00000000000E+00 -0.44876568060E+03  0.16626729988E+04  0.16009656039E+04 0.  0.
        5    1    3    3  502    0 -0.61226468414E+03 -0.22606979355E+03 -0.70568381159E+03  0.96124259526E+03  0.46999998093E+01 0.  1.
       -5    1    3    3    0  502  0.61226468414E+03  0.22606979355E+03  0.25691813099E+03  0.70143040355E+03  0.46999998093E+01 0. -1.
</event>
<event>
 5   0  0.1908125E-04  0.1584642E+04  0.7818609E-02  0.8830039E-01
        3   -1    0    0  501    0  0.00000000000E+00  0.00000000000E+00  0.76955376169E+03  0.76955376831E+03  0.10100000352E+00 0.  1.
       -3   -1    0    0    0  501  0.00000000000E+00  0.00000000000E+00 -0.81576139853E+03  0.81576140478E+03  0.10100000352E+00 0. -1.
    10030    2    1    2    0    0  0.00000000000E+00  0.00000000000E+00 -0.46207636846E+02  0.15853151731E+04  0.15846416164E+04 0.  0.
        3    1    3    3  502    0 -0.53483306404E+03  0.56987244120E+03 -0.15343293135E+03  0.79645632665E+03  0.10100000352E+00 0.  1.
       -3    1    3    3    0  502  0.53483306404E+03 -0.56987244120E+03  0.10722529451E+03  0.78885884645E+03  0.10100000352E+00 0. -1.
</event>
<event>
 5   0  0.5264308E-04  0.1591968E+04  0.7818609E-02  0.8825498E-01
        2   -1    0    0  501    0  0.00000000000E+00  0.00000000000E+00  0.17051773862E+04  0.17051773862E+04  0.25500000920E-02 0. -1.
       -2   -1    0    0    0  501  0.00000000000E+00  0.00000000000E+00 -0.37156853728E+03  0.37156853729E+03  0.25500000920E-02 0.  1.
    10030    2    1    2    0    0  0.00000000000E+00  0.00000000000E+00  0.13336088489E+04  0.20767459235E+04  0.15919676720E+04 0.  0.
        3    1    3    3  502    0 -0.42358541867E+03 -0.64575500664E+03  0.41531325323E+03  0.87687470258E+03  0.10100000352E+00 0. -1.
       -3    1    3    3    0  502  0.42358541867E+03  0.64575500664E+03  0.91829559570E+03  0.11998712209E+04  0.10100000352E+00 0.  1.
</event>
<event>
 5   0  0.5264308E-04  0.1553653E+04  0.7818609E-02  0.8849537E-01
       -2   -1    0    0    0  501  0.00000000000E+00  0.00000000000E+00  0.88718414787E+03  0.88718414787E+03  0.25500000920E-02 0. -1.
        2   -1    0    0  501    0  0.00000000000E+00  0.00000000000E+00 -0.68019675354E+03  0.68019675355E+03  0.25500000920E-02 0.  1.
    10030    2    1    2    0    0  0.00000000000E+00  0.00000000000E+00  0.20698739433E+03  0.15673809014E+04  0.15536534713E+04 0.  0.
        3    1    3    3  502    0 -0.45938542414E+03  0.62188026330E+03  0.27396879658E+02  0.77364115002E+03  0.10100000352E+00 0. -1.
       -3    1    3    3    0  502  0.45938542414E+03 -0.62188026330E+03  0.17959051467E+03  0.79373975140E+03  0.10100000352E+00 0.  1.
</event>
<event>
 5   0  0.5083831E-04  0.1649780E+04  0.7818609E-02  0.8790537E-01
       -2   -1    0    0    0  501  0.00000000000E+00  0.00000000000E+00  0.48690317925E+03  0.48690317925E+03  0.25500000920E-02 0.  1.
        2   -1    0    0  501    0  0.00000000000E+00  0.00000000000E+00 -0.13974920764E+04  0.13974920764E+04  0.25500000920E-02 0. -1.
    10030    2    1    2    0    0  0.00000000000E+00  0.00000000000E+00 -0.91058889719E+03  0.18843952557E+04  0.16497797853E+04 0.  0.
        4    1    3    3  502    0 -0.63433561604E+03 -0.26254649464E+03 -0.97763477479E+03  0.11946060863E+04  0.12699999809E+01 0. -1.
       -4    1    3    3    0  502  0.63433561604E+03  0.26254649464E+03  0.67045877598E+02  0.68978916940E+03  0.12699999809E+01 0.  1.
</event>
<event>
 5   0  0.5264308E-04  0.1597214E+04  0.7818609E-02  0.8822261E-01
       -2   -1    0    0    0  501  0.00000000000E+00  0.00000000000E+00  0.61122761674E+03  0.61122761675E+03  0.25500000920E-02 0.  1.
        2   -1    0    0  501    0  0.00000000000E+00  0.00000000000E+00 -0.10434296300E+04  0.10434296300E+04  0.25500000920E-02 0. -1.
    10030    2    1    2    0    0  0.00000000000E+00  0.00000000000E+00 -0.43220201326E+03  0.16546572468E+04  0.15972138316E+04 0.  0.
        3    1    3    3  502    0 -0.61217607048E+03  0.28826440334E+03 -0.65552239330E+03  0.94210696092E+03  0.10100000352E+00 0. -1.
       -3    1    3    3    0  502  0.61217607048E+03 -0.28826440334E+03  0.22332038004E+03  0.71255028583E+03  0.10100000352E+00 0.  1.
</event>
<event>
 5   0  0.5131239E-04  0.1590757E+04  0.7818609E-02  0.8826247E-01
        2   -1    0    0  501    0  0.00000000000E+00  0.00000000000E+00  0.13802796111E+04  0.13802796111E+04  0.25500000920E-02 0.  1.
       -2   -1    0    0    0  501  0.00000000000E+00  0.00000000000E+00 -0.45833234242E+03  0.45833234243E+03  0.25500000920E-02 0. -1.
    10030    2    1    2    0    0  0.00000000000E+00  0.00000000000E+00  0.92194726867E+03  0.18386119535E+04  0.15907567851E+04 0.  0.
        1    1    3    3  502    0 -0.75191534491E+03 -0.24493289876E+03  0.55944139791E+03  0.96868131423E+03  0.50400001928E-02 0.  1.
       -1    1    3    3    0  502  0.75191534491E+03  0.24493289876E+03  0.36250587076E+03  0.86993063929E+03  0.50400001928E-02 0. -1.
</event>
<event>
 5   0  0.5381164E-04  0.1610718E+04  0.7818609E-02  0.8813991E-01
       -2   -1    0    0    0  501  0.00000000000E+00  0.00000000000E+00  0.32573842938E+03  0.32573842939E+03  0.25500000920E-02 0. -1.
        2   -1    0    0  501    0  0.00000000000E+00  0.00000000000E+00 -0.19911771820E+04  0.19911771820E+04  0.25500000920E-02 0.  1.
    10030    2    1    2    0    0  0.00000000000E+00  0.00000000000E+00 -0.16654387526E+04  0.23169156113E+04  0.16107177628E+04 0.  0.
        5    1    3    3  502    0  0.68704245600E+03 -0.36032027797E+03 -0.11436440541E+04  0.13819558066E+04  0.46999998093E+01 0.  1.
       -5    1    3    3    0  502 -0.68704245600E+03  0.36032027797E+03 -0.52179469851E+03  0.93495980473E+03  0.46999998093E+01 0. -1.
</event>
<event>
 5   0  0.5381164E-04  0.1592741E+04  0.7818609E-02  0.8825020E-01
        2   -1    0    0  501    0  0.00000000000E+00  0.00000000000E+00  0.14732152771E+04  0.14732152771E+04  0.25500000920E-02 0. -1.
       -2   -1    0    0    0  501  0.00000000000E+00  0.00000000000E+00 -0.43049105169E+03  0.43049105170E+03  0.25500000920E-02 0.  1.
    10030    2    1    2    0    0  0.00000000000E+00  0.00000000000E+00  0.10427242254E+04  0.19037063288E+04  0.15927410261E+04 0.  0.
        5    1    3    3  502    0  0.34560611871E+03  0.35340817597E+03  0.12676384024E+04  0.13606138826E+04  0.46999998093E+01 0. -1.
       -5    1    3    3    0  502 -0.34560611871E+03 -0.35340817597E+03 -0.22491417703E+03  0.54309244623E+03  0.46999998093E+01 0.  1.
</event>
<event>
 5   0  0.2796994E-04  0.1615857E+04  0.7818609E-02  0.8810865E-01
        1   -1    0    0  501    0  0.00000000000E+00  0.00000000000E+00  0.51096050817E+03  0.51096050819E+03  0.50400001928E-02 0. -1.
       -1   -1    0    0    0  501  0.00000000000E+00  0.00000000000E+00 -0.12774931811E+04  0.12774931811E+04  0.50400001928E-02 0.  1.
    10030    2    1    2    0    0  0.00000000000E+00  0.00000000000E+00 -0.76653267295E+03  0.17884536893E+04  0.16158571286E+04 0.  0.
        3    1    3    3  502    0 -0.47521837991E+02  0.62103792426E+03  0.18628840865E+03  0.65011522814E+03  0.10100000352E+00 0. -1.
       -3    1    3    3    0  502  0.47521837991E+02 -0.62103792426E+03 -0.95282108161E+03  0.11383384612E+04  0.10100000352E+00 0.  1.
</event>
<event>
 5   0  0.2689675E-04  0.1584745E+04  0.7818609E-02  0.8829975E-01
        1   -1    0    0  501    0  0.00000000000E+00  0.00000000000E+00  0.11902491797E+04  0.11902491798E+04  0.50400001928E-02 0.  1.
       -1   -1    0    0    0  501  0.00000000000E+00  0.00000000000E+00 -0.52749825114E+03  0.52749825117E+03  0.50400001928E-02 0. -1.
    10030    2    1    2    0    0  0.00000000000E+00  0.00000000000E+00  0.66275092861E+03  0.17177474309E+04  0.15847452297E+04 0.  0.
        1    1    3    3  502    0  0.17992609427E+03  0.65690326573E+03 -0.10752654140E+03  0.68953408694E+03  0.50400001928E-02 0. -1.
       -1    1    3    3    0  502 -0.17992609427E+03 -0.65690326573E+03  0.77027747000E+03  0.10282133440E+04  0.50400001928E-02 0.  1.
</event>
<event>
 5   0  0.2796994E-04  0.1635995E+04  0.7818609E-02  0.8798735E-01
       -1   -1    0    0    0  501  0.00000000000E+00  0.00000000000E+00  0.14174301850E+04  0.14174301850E+04  0.50400001928E-02 0. -1.
        1   -1    0    0  501    0  0.00000000000E+00  0.00000000000E+00 -0.47206548745E+03  0.47206548748E+03  0.50400001928E-02 0.  1.
    10030    2    1    2    0    0  0.00000000000E+00  0.00000000000E+00  0.94536469756E+03  0.18894956725E+04  0.16359949526E+04 0.  0.
        3    1    3    3  502    0  0.24666236303E+03  0.84905718565E+02  0.13681006110E+04  0.13927492934E+04  0.10100000352E+00 0. -1.
       -3    1    3    3    0  502 -0.24666236303E+03 -0.84905718565E+02 -0.42273591344E+03  0.49674637905E+03  0.10100000352E+00 0.  1.
</event>
<event>
 5   0  0.2689675E-04  0.1597628E+04  0.7818609E-02  0.8822006E-01
        1   -1    0    0  501    0  0.00000000000E+00  0.00000000000E+00  0.16823229560E+04  0.16823229560E+04  0.50400001928E-02 0. -1.
       -1   -1    0    0    0  501  0.00000000000E+00  0.00000000000E+00 -0.37929941829E+03  0.37929941833E+03  0.50400001928E-02 0.  1.
    10030    2    1    2    0    0  0.00000000000E+00  0.00000000000E+00  0.13030235377E+04  0.20616223744E+04  0.15976283906E+04 0.  0.
        1    1    3    3  502    0 -0.71809456715E+03  0.33059385976E+03  0.79950076809E+03  0.11243458479E+04  0.50400001928E-02 0.  1.
       -1    1    3    3    0  502  0.71809456715E+03 -0.33059385976E+03  0.50352276964E+03  0.93727652646E+03  0.50400001928E-02 0. -1.
</event>
<event>
 5   0  0.2763895E-04  0.1587930E+04  0.7818609E-02  0.8827998E-01
        1   -1    0    0  501    0  0.00000000000E+00  0.00000000000E+00  0.62529534259E+03  0.62529534261E+03  0.50400001928E-02 0.  1.
       -1   -1    0    0    0  501  0.00000000000E+00  0.00000000000E+00 -0.10081323710E+04  0.10081323710E+04  0.50400001928E-02 0. -1.
    10030    2    1    2    0    0  0.00000000000E+00  0.00000000000E+00 -0.38283702843E+03  0.16334277137E+04  0.15879300694E+04 0.  0.
        4    1    3    3  502    0  0.15276504446E+02  0.65585382430E+03  0.26861016284E+03  0.70889395745E+03  0.12699999809E+01 0.  1.
       -4    1    3    3    0  502 -0.15276504446E+02 -0.65585382430E+03 -0.65144719127E+03  0.92453375620E+03  0.12699999809E+01 0. -1.
</event>
<event>
 5   0  0.5083831E-04  0.1601468E+04  0.7818609E-02  0.8819647E-01
       -2   -1    0    0    0  501  0.00000000000E+00  0.00000000000E+00  0.74038490230E+03  0.74038490230E+03  0.25500000920E-02 0. -1.
        2   -1    0    0  501    0  0.00000000000E+00  0.00000000000E+00 -0.86600241194E+03  0.86600241194E+03  0.25500000920E-02 0.  1.
    10030    2    1    2    0    0  0.00000000000E+00  0.00000000000E+00 -0.12561750964E+03  0.16063873142E+04  0.16014682153E+04 0.  0.
        4    1    3    3  502    0 -0.60912264923E+03  0.10909742885E+03  0.44692619445E+03  0.76333301185E+03  0.12699999809E+01 0. -1.
       -4    1    3    3    0  502  0.60912264923E+03 -0.10909742885E+03 -0.57254370409E+03  0.84305430239E+03  0.12699999809E+01 0.  1.
</event>
<event>
 5   0  0.5381164E-04  0.1777891E+04  0.7818609E-02  0.8718146E-01
       -2   -1    0    0    0  501  0.00000000000E+00  0.00000000000E+00  0.68378651584E+03  0.68378651585E+03  0.25500000920E-02 0. -1.
        2   -1    0    0  501    0  0.00000000000E+00  0.00000000000E+00 -0.11556586189E+04  0.11556586189E+04  0.25500000920E-02 0.  1.
    10030    2    1    2    0    0  0.00000000000E+00  0.00000000000E+00 -0.47187210304E+03  0.18394451347E+04  0.17778906384E+04 0.  0.
        5    1    3    3  502    0 -0.11212787544E+03 -0.43299909373E+03  0.55886717508E+03  0.71583202290E+03  0.46999998093E+01 0. -1.
       -5    1    3    3    0  502  0.11212787544E+03  0.43299909373E+03 -0.10307392781E+04  0.11236131118E+04  0.46999998093E+01 0.  1.
</event>
<event>
 5   0  0.2689675E-04  0.1612598E+04  0.7818609E-02  0.8812846E-01
       -1   -1    0    0    0  501  0.00000000000E+00  0.00000000000E+00  0.33624747988E+03  0.33624747992E+03  0.50400001928E-02 0. -1.
        1   -1    0    0  501    0  0.00000000000E+00  0.00000000000E+00 -0.19334510932E+04  0.19334510932E+04  0.50400001928E-02 0.  1.
    10030    2    1    2    0    0  0.00000000000E+00  0.00000000000E+00 -0.15972036133E+04  0.22696985731E+04  0.16125979754E+04 0.  0.
        1    1    3    3  502    0  0.46362840819E+03 -0.65434146876E+03 -0.91639362082E+03  0.12177402543E+04  0.50400001928E-02 0.  1.
       -1    1    3    3    0  502 -0.46362840819E+03  0.65434146876E+03 -0.68080999246E+03  0.10519583188E+04  0.50400001928E-02 0. -1.
</event>
<event>
 5   0  0.5264308E-04  0.1616346E+04  0.7818609E-02  0.8810569E-01
        2   -1    0    0  501    0  0.00000000000E+00  0.00000000000E+00  0.15748674993E+04  0.15748674993E+04  0.25500000920E-02 0. -1.
       -2   -1    0    0    0  501  0.00000000000E+00  0.00000000000E+00 -0.41472921940E+03  0.41472921940E+03  0.25500000920E-02 0.  1.
    10030    2    1    2    0    0  0.00000000000E+00  0.00000000000E+00  0.11601382799E+04  0.19895967187E+04  0.16163459638E+04 0.  0.
        3    1    3    3  502    0  0.72139061322E+03 -0.23625515509E+03  0.92146467169E+03  0.11938668546E+04  0.10100000352E+00 0. -1.
       -3    1    3    3    0  502 -0.72139061322E+03  0.23625515509E+03  0.23867360821E+03  0.79572986409E+03  0.10100000352E+00 0.  1.
</event>
<event>
 5   0  0.5131239E-04  0.1360354E+04  0.7818609E-02  0.8983027E-01
        2   -1    0    0  501    0  0.00000000000E+00  0.00000000000E+00  0.17712952664E+04  0.17712952664E+04  0.25500000920E-02 0. -1.
       -2   -1    0    0    0  501  0.00000000000E+00  0.00000000000E+00 -0.26118794712E+03  0.26118794713E+03  0.25500000920E-02 0.  1.
    10030    2    1    2    0    0  0.00000000000E+00  0.00000000000E+00  0.15101073193E+04  0.20324832135E+04  0.13603543279E+04 0.  0.
        1    1    3    3  502    0  0.47434684960E+03  0.19929523249E+03  0.90366989787E+02  0.52238847258E+03  0.50400001928E-02 0.  1.
       -1    1    3    3    0  502 -0.47434684960E+03 -0.19929523249E+03  0.14197403295E+04  0.15100947409E+04  0.50400001928E-02 0. -1.
</event>
<event>
 5   0  0.5315984E-04  0.1597199E+04  0.7818609E-02  0.8822271E-01
        2   -1    0    0  501    0  0.00000000000E+00  0.00000000000E+00  0.12626389767E+04  0.12626389767E+04  0.25500000920E-02 0. -1.
       -2   -1    0    0    0  501  0.00000000000E+00  0.00000000000E+00 -0.50510164450E+03  0.50510164451E+03  0.25500000920E-02 0.  1.
    10030    2    1    2    0    0  0.00000000000E+00  0.00000000000E+00  0.75753733224E+03  0.17677406212E+04  0.15971988274E+04 0.  0.
        2    1    3    3  502    0  0.66928462084E+03 -0.15468147378E+03 -0.72020300094E+02  0.69069181670E+03  0.25500000920E-02 0.  1.
       -2    1    3    3    0  502 -0.66928462084E+03  0.15468147378E+03  0.82955763233E+03  0.10770488046E+04  0.25500000920E-02 0. -1.
</event>
<event>
 5   0  0.2649086E-04  0.1615537E+04  0.7818609E-02  0.8811059E-01
       -1   -1    0    0    0  501  0.00000000000E+00  0.00000000000E+00  0.34267830128E+03  0.34267830132E+03  0.50400001928E-02 0. -1.
        1   -1    0    0  501    0  0.00000000000E+00  0.00000000000E+00 -0.19040894307E+04  0.19040894307E+04  0.50400001928E-02 0.  1.
    10030    2    1    2    0    0  0.00000000000E+00  0.00000000000E+00 -0.15614111294E+04  0.22467677320E+04  0.16155372254E+04 0.  0.
        2    1    3    3  502    0  0.11194208242E+03 -0.36108301875E+03 -0.17734709119E+04  0.18133149345E+04  0.25500000920E-02 0.  1.
       -2    1    3    3    0  502 -0.11194208242E+03  0.36108301875E+03  0.21205978256E+03  0.43345279747E+03  0.25500000920E-02 0. -1.
</event>
<event>
 5   0  0.2763895E-04  0.1628539E+04  0.7818609E-02  0.8803205E-01
        1   -1    0    0  501    0  0.00000000000E+00  0.00000000000E+00  0.13226433321E+04  0.13226433321E+04  0.50400001928E-02 0. -1.
       -1   -1    0    0    0  501  0.00000000000E+00  0.00000000000E+00 -0.50129517608E+03  0.50129517610E+03  0.50400001928E-02 0.  1.
    10030    2    1    2    0    0  0.00000000000E+00  0.00000000000E+00  0.82134815600E+03  0.18239385082E+04  0.16285388814E+04 0.  0.
        4    1    3    3  502    0  0.65257855445E+01 -0.45811079355E+03  0.11645868214E+04  0.12514680030E+04  0.12699999809E+01 0. -1.
       -4    1    3    3    0  502 -0.65257855445E+01  0.45811079355E+03 -0.34323866537E+03  0.57247050522E+03  0.12699999809E+01 0.  1.
</event>
<event>
 5   0  0.5381164E-04  0.1594005E+04  0.7818609E-02  0.8824239E-01
       -2   -1    0    0    0  501  0.00000000000E+00  0.00000000000E+00  0.60184476297E+03  0.60184476297E+03  0.25500000920E-02 0.  1.
        2   -1    0    0  501    0  0.00000000000E+00  0.00000000000E+00 -0.10554432665E+04  0.10554432665E+04  0.25500000920E-02 0. -1.
    10030    2    1    2    0    0  0.00000000000E+00  0.00000000000E+00 -0.45359850355E+03  0.16572880295E+04  0.15940050220E+04 0.  0.
        5    1    3    3  502    0 -0.44147910135E+03 -0.50129613019E+03  0.22518876691E+03  0.70493522952E+03  0.46999998093E+01 0.  1.
       -5    1    3    3    0  502  0.44147910135E+03  0.50129613019E+03 -0.67878727046E+03  0.95235279997E+03  0.46999998093E+01 0. -1.
</event>
<event>
 5   0  0.1908125E-04  0.1610274E+04  0.7818609E-02  0.8814261E-01
        4   -1    0    0  501    0  0.00000000000E+00  0.00000000000E+00  0.46640321812E+03  0.46640494720E+03  0.12699999809E+01 0.  1.
       -4   -1    0    0    0  501  0.00000000000E+00  0.00000000000E+00 -0.13898770588E+04  0.13898776390E+04  0.12699999809E+01 0. -1.
    10030    2    1    2    0    0  0.00000000000E+00  0.00000000000E+00 -0.92347384068E+03  0.18562825862E+04  0.16102736120E+04 0.  0.
        5    1    3    3  502    0 -0.24349663690E+03 -0.21702982470E+03 -0.13102844831E+04  0.13502814794E+04  0.46999998093E+01 0. -1.
       -5    1    3    3    0  502  0.24349663690E+03  0.21702982470E+03  0.38681064243E+03  0.50600110681E+03  0.46999998093E+01 0.  1.
</event>
<event>
 5   0  0.2730707E-04  0.1596591E+04  0.7818609E-02  0.8822645E-01
        1   -1    0    0  501    0  0.00000000000E+00  0.00000000000E+00  0.98281776360E+03  0.98281776361E+03  0.50400001928E-02 0. -1.
       -1   -1    0    0    0  501  0.00000000000E+00  0.00000000000E+00 -0.64841684618E+03  0.64841684620E+03  0.50400001928E-02 0.  1.
    10030    2    1    2    0    0  0.00000000000E+00  0.00000000000E+00  0.33440091742E+03  0.16312346098E+04  0.15965908614E+04 0.  0.
        5    1    3    3  502    0  0.15962239625E+03 -0.77769875557E+03  0.25243021391E+03  0.83308929095E+03  0.46999998093E+01 0. -1.
       -5    1    3    3    0  502 -0.15962239625E+03  0.77769875557E+03  0.81970703504E+02  0.79814531887E+03  0.46999998093E+01 0.  1.
</event>
<event>
 5   0  0.2763895E-04  0.1576611E+04  0.7818609E-02  0.8835047E-01
        1   -1    0    0  501    0  0.00000000000E+00  0.00000000000E+00  0.97251602833E+03  0.97251602835E+03  0.50400001928E-02 0.  1.
       -1   -1    0    0    0  501  0.00000000000E+00  0.00000000000E+00 -0.63898754466E+03  0.63898754468E+03  0.50400001928E-02 0. -1.
    10030    2    1    2    0    0  0.00000000000E+00  0.00000000000E+00  0.33352848368E+03  0.16115035730E+04  0.15766110860E+04 0.  0.
        4    1    3    3  502    0  0.51553797810E+02  0.69987201053E+03 -0.20027255702E+03  0.72978718487E+03  0.12699999809E+01 0. -1.
       -4    1    3    3    0  502 -0.51553797810E+02 -0.69987201053E+03  0.53380104070E+03  0.88171638816E+03  0.12699999809E+01 0.  1.
</event>
<event>
 5   0  0.2796994E-04  0.1566985E+04  0.7818609E-02  0.8841091E-01
        1   -1    0    0  501    0  0.00000000000E+00  0.00000000000E+00  0.11683883827E+04  0.11683883827E+04  0.50400001928E-02 0.  1.
       -1   -1    0    0    0  501  0.00000000000E+00  0.00000000000E+00 -0.52539090585E+03  0.52539090587E+03  0.50400001928E-02 0. -1.
    10030    2    1    2    0    0  0.00000000000E+00  0.00000000000E+00  0.64299747682E+03  0.16937792886E+04  0.15669851700E+04 0.  0.
        3    1    3    3  502    0 -0.93687764378E+02  0.19020078949E+03 -0.49379203190E+03  0.53738656337E+03  0.10100000352E+00 0. -1.
       -3    1    3    3    0  502  0.93687764378E+02 -0.19020078949E+03  0.11367895087E+04  0.11563927252E+04  0.10100000352E+00 0.  1.
</event>
<event>
 5   0  0.2730707E-04  0.1597791E+04  0.7818609E-02  0.8821906E-01
        1   -1    0    0  501    0  0.00000000000E+00  0.00000000000E+00  0.11177751792E+04  0.11177751792E+04  0.50400001928E-02 0. -1.
       -1   -1    0    0    0  501  0.00000000000E+00  0.00000000000E+00 -0.57098622440E+03  0.57098622442E+03  0.50400001928E-02 0.  1.
    10030    2    1    2    0    0  0.00000000000E+00  0.00000000000E+00  0.54678895481E+03  0.16887614036E+04  0.15977912621E+04 0.  0.
        5    1    3    3  502    0  0.10980250498E+03  0.66793540931E+03  0.72183621216E+03  0.98957764137E+03  0.46999998093E+01 0. -1.
       -5    1    3    3    0  502 -0.10980250498E+03 -0.66793540931E+03 -0.17504725735E+03  0.69918376227E+03  0.46999998093E+01 0.  1.
</event>
<event>
 5   0  0.2689675E-04  0.1598246E+04  0.7818609E-02  0.8821626E-01
        1   -1    0    0  501    0  0.00000000000E+00  0.00000000000E+00  0.16861477568E+04  0.16861477568E+04  0.50400001928E-02 0.  1.
       -1   -1    0    0    0  501  0.00000000000E+00  0.00000000000E+00 -0.37873153897E+03  0.37873153900E+03  0.50400001928E-02 0. -1.
    10030    2    1    2    0    0  0.00000000000E+00  0.00000000000E+00  0.13074162179E+04  0.20648792958E+04  0.15982457069E+04 0.  0.
        1    1    3    3  502    0 -0.59084111434E+03  0.52636660595E+03  0.50959562363E+03  0.94119218330E+03  0.50400001928E-02 0. -1.
       -1    1    3    3    0  502  0.59084111434E+03 -0.52636660595E+03  0.79782059422E+03  0.11236871125E+04  0.50400001928E-02 0.  1.
</event>
<event>
 5   0  0.1908125E-04  0.1577174E+04  0.7818609E-02  0.8834695E-01
       -3   -1    0    0    0  501  0.00000000000E+00  0.00000000000E+00  0.15862007642E+04  0.15862007674E+04  0.10100000352E+00 0.  1.
        3   -1    0    0  501    0  0.00000000000E+00  0.00000000000E+00 -0.39204972714E+03  0.39204974015E+03  0.10100000352E+00 0. -1.
    10030    2    1    2    0    0  0.00000000000E+00  0.00000000000E+00  0.11941510371E+04  0.19782505076E+04  0.15771741728E+04 0.  0.
        5    1    3    3  502    0 -0.81239733734E+01  0.55954616807E+03 -0.99811895245E+02  0.56845617032E+03  0.46999998093E+01 0. -1.
       -5    1    3    3    0  502  0.81239733734E+01 -0.55954616807E+03  0.12939629323E+04  0.14097943372E+04  0.46999998093E+01 0.  1.
</event>
<event>
 5   0  0.5131239E-04  0.1591944E+04  0.7818609E-02  0.8825512E-01
       -2   -1    0    0    0  501  0.00000000000E+00  0.00000000000E+00  0.77474403278E+03  0.77474403279E+03  0.25500000920E-02 0.  1.
        2   -1    0    0  501    0  0.00000000000E+00  0.00000000000E+00 -0.81778202210E+03  0.81778202210E+03  0.25500000920E-02 0. -1.
    10030    2    1    2    0    0  0.00000000000E+00  0.00000000000E+00 -0.43037989316E+02  0.15925260549E+04  0.15919443982E+04 0.  0.
        1    1    3    3  502    0  0.27916674031E+03 -0.71894885150E+03 -0.21844167909E+03  0.80158485961E+03  0.50400001928E-02 0. -1.
       -1    1    3    3    0  502 -0.27916674031E+03  0.71894885150E+03  0.17540368978E+03  0.79094119528E+03  0.50400001928E-02 0.  1.
</event>
<event>
 5   0  0.2689675E-04  0.1645992E+04  0.7818609E-02  0.8792781E-01
       -1   -1    0    0    0  501  0.00000000000E+00  0.00000000000E+00  0.55830090152E+03  0.55830090154E+03  0.50400001928E-02 0. -1.
        1   -1    0    0  501    0  0.00000000000E+00  0.00000000000E+00 -0.12131855958E+04  0.12131855959E+04  0.50400001928E-02 0.  1.
    10030    2    1    2    0    0  0.00000000000E+00  0.00000000000E+00 -0.65488469432E+03  0.17714864974E+04  0.16459922380E+04 0.  0.
        1    1    3    3  502    0  0.68224209217E+03 -0.47028053337E+02 -0.82023524280E+03  0.10679193620E+04  0.50400001928E-02 0.  1.
       -1    1    3    3    0  502 -0.68224209217E+03  0.47028053337E+02  0.16535054848E+03  0.70356713542E+03  0.50400001928E-02 0. -1.
</event>
<event>
 5   0  0.5083831E-04  0.1598640E+04  0.7818609E-02  0.8821384E-01
       -2   -1    0    0    0  501  0.00000000000E+00  0.00000000000E+00  0.66951167271E+03  0.66951167271E+03  0.25500000920E-02 0.  1.
        2   -1    0    0  501    0  0.00000000000E+00  0.00000000000E+00 -0.95429631900E+03  0.95429631901E+03  0.25500000920E-02 0. -1.
    10030    2    1    2    0    0  0.00000000000E+00  0.00000000000E+00 -0.28478464630E+03  0.16238079917E+04  0.15986400781E+04 0.  0.
        4    1    3    3  502    0 -0.11422671072E+03 -0.52050852746E+02 -0.94422108294E+03  0.95252931666E+03  0.12699999809E+01 0. -1.
       -4    1    3    3    0  502  0.11422671072E+03  0.52050852746E+02  0.65943643665E+03  0.67127867506E+03  0.12699999809E+01 0.  1.
</event>
<event>
 5   0  0.5381164E-04  0.1711170E+04  0.7818609E-02  0.8755019E-01
       -2   -1    0    0    0  501  0.00000000000E+00  0.00000000000E+00  0.33319038540E+03  0.33319038541E+03  0.25500000920E-02 0.  1.
        2   -1    0    0  501    0  0.00000000000E+00  0.00000000000E+00 -0.21970198856E+04  0.21970198856E+04  0.25500000920E-02 0. -1.
    10030    2    1    2    0    0  0.00000000000E+00  0.00000000000E+00 -0.18638295002E+04  0.25302102710E+04  0.17111702457E+04 0.  0.
        5    1    3    3  502    0 -0.22135544858E+03  0.57544213430E+03 -0.18090280667E+04  0.19112133634E+04  0.46999998093E+01 0. -1.
       -5    1    3    3    0  502  0.22135544858E+03 -0.57544213430E+03 -0.54801433574E+02  0.61899690764E+03  0.46999998093E+01 0.  1.
</event>
<event>
 5   0  0.2649086E-04  0.1588271E+04  0.7818609E-02  0.8827786E-01
        1   -1    0    0  501    0  0.00000000000E+00  0.00000000000E+00  0.65544466613E+03  0.65544466615E+03  0.50400001928E-02 0.  1.
       -1   -1    0    0    0  501  0.00000000000E+00  0.00000000000E+00 -0.96217336956E+03  0.96217336958E+03  0.50400001928E-02 0. -1.
    10030    2    1    2    0    0  0.00000000000E+00  0.00000000000E+00 -0.30672870343E+03  0.16176180357E+04  0.15882712652E+04 0.  0.
        2    1    3    3  502    0  0.21036829936E+03  0.73779423769E+03  0.55501069334E+02  0.76920447688E+03  0.25500000920E-02 0.  1.
       -2    1    3    3    0  502 -0.21036829936E+03 -0.73779423769E+03 -0.36222977277E+03  0.84841355885E+03  0.25500000920E-02 0. -1.
</event>
<event>
 5   0  0.2689675E-04  0.1619173E+04  0.7818609E-02  0.8808855E-01
        1   -1    0    0  501    0  0.00000000000E+00  0.00000000000E+00  0.78039920274E+03  0.78039920275E+03  0.50400001928E-02 0. -1.
       -1   -1    0    0    0  501  0.00000000000E+00  0.00000000000E+00 -0.83986567422E+03  0.83986567423E+03  0.50400001928E-02 0.  1.
    10030    2    1    2    0    0  0.00000000000E+00  0.00000000000E+00 -0.59466471483E+02  0.16202648770E+04  0.16191732490E+04 0.  0.
        1    1    3    3  502    0  0.61548873868E+03  0.32805894129E+03  0.38161743420E+03  0.79503517061E+03  0.50400001928E-02 0.  1.
       -1    1    3    3    0  502 -0.61548873868E+03 -0.32805894129E+03 -0.44108390568E+03  0.82522970637E+03  0.50400001928E-02 0. -1.
</event>
<event>
 5   0  0.5315984E-04  0.1598575E+04  0.7818609E-02  0.8821424E-01
        2   -1    0    0  501    0  0.00000000000E+00  0.00000000000E+00  0.19408657069E+04  0.19408657069E+04  0.25500000920E-02 0.  1.
       -2   -1    0    0    0  501  0.00000000000E+00  0.00000000000E+00 -0.32916252544E+03  0.32916252545E+03  0.25500000920E-02 0. -1.
    10030    2    1    2    0    0  0.00000000000E+00  0.00000000000E+00  0.16117031815E+04  0.22700282324E+04  0.15985746872E+04 0.  0.
        2    1    3    3  502    0  0.63330311205E+03  0.44508667771E+03  0.10887386136E+04  0.13358618009E+04  0.25500000920E-02 0.  1.
       -2    1    3    3    0  502 -0.63330311205E+03 -0.44508667771E+03  0.52296456795E+03  0.93416643151E+03  0.25500000920E-02 0. -1.
</event>
<event>
 5   0  0.2796994E-04  0.1597480E+04  0.7818609E-02  0.8822098E-01
        1   -1    0    0  501    0  0.00000000000E+00  0.00000000000E+00  0.14435416580E+04  0.14435416580E+04  0.50400001928E-02 0. -1.
       -1   -1    0    0    0  501  0.00000000000E+00  0.00000000000E+00 -0.44195864948E+03  0.44195864951E+03  0.50400001928E-02 0.  1.
    10030    2    1    2    0    0  0.00000000000E+00  0.00000000000E+00  0.10015830085E+04  0.18855003076E+04  0.15974801679E+04 0.  0.
        3    1    3    3  502    0  0.53734541216E+03  0.10132535916E+02  0.11982088933E+04  0.13132202109E+04  0.10100000352E+00 0. -1.
       -3    1    3    3    0  502 -0.53734541216E+03 -0.10132535916E+02 -0.19662588473E+03  0.57228009663E+03  0.10100000352E+00 0.  1.
</event>
<event>
 5   0  0.2796994E-04  0.1608290E+04  0.7818609E-02  0.8815471E-01
       -1   -1    0    0    0  501  0.00000000000E+00  0.00000000000E+00  0.14654262041E+04  0.14654262041E+04  0.50400001928E-02 0.  1.
        1   -1    0    0  501    0  0.00000000000E+00  0.00000000000E+00 -0.44127056473E+03  0.44127056476E+03  0.50400001928E-02 0. -1.
    10030    2    1    2    0    0  0.00000000000E+00  0.00000000000E+00  0.10241556394E+04  0.19066967689E+04  0.16082903329E+04 0.  0.
        3    1    3    3  502    0  0.12966251107E+03 -0.88105984863E+01  0.14528934500E+04  0.14586944096E+04  0.10100000352E+00 0.  1.
       -3    1    3    3    0  502 -0.12966251107E+03  0.88105984863E+01 -0.42873781063E+03  0.44800235924E+03  0.10100000352E+00 0. -1.
</event>
<event>
 5   0  0.5315984E-04  0.1591468E+04  0.7818609E-02  0.8825807E-01
        2   -1    0    0  501    0  0.00000000000E+00  0.00000000000E+00  0.39217383781E+03  0.39217383781E+03  0.25500000920E-02 0. -1.
       -2   -1    0    0    0  501  0.00000000000E+00  0.00000000000E+00 -0.16145708398E+04  0.16145708398E+04  0.25500000920E-02 0.  1.
    10030    2    1    2    0    0  0.00000000000E+00  0.00000000000E+00 -0.12223970019E+04  0.20067446776E+04  0.15914678038E+04 0.  0.
        2    1    3    3  502    0 -0.25438834480E+02 -0.74903319501E+03 -0.27404255303E+03  0.79799572831E+03  0.25500000920E-02 0. -1.
       -2    1    3    3    0  502  0.25438834480E+02  0.74903319501E+03 -0.94835444892E+03  0.12087489493E+04  0.25500000920E-02 0.  1.
</event>
<event>
 5   0  0.2730707E-04  0.1607326E+04  0.7818609E-02  0.8816060E-01
       -1   -1    0    0    0  501  0.00000000000E+00  0.00000000000E+00  0.55842001984E+03  0.55842001987E+03  0.50400001928E-02 0.  1.
        1   -1    0    0  501    0  0.00000000000E+00  0.00000000000E+00 -0.11566094674E+04  0.11566094674E+04  0.50400001928E-02 0. -1.
    10030    2    1    2    0    0  0.00000000000E+00  0.00000000000E+00 -0.59818944753E+03  0.17150294872E+04  0.16073255821E+04 0.  0.
        5    1    3    3  502    0  0.72460142737E+03 -0.21284141238E+02  0.71068761652E+02  0.72840449072E+03  0.46999998093E+01 0.  1.
       -5    1    3    3    0  502 -0.72460142737E+03  0.21284141238E+02 -0.66925820918E+03  0.98662499653E+03  0.46999998093E+01 0. -1.
</event>
<event>
 5   0  0.5264308E-04  0.1599826E+04  0.7818609E-02  0.8820655E-01
        2   -1    0    0  501    0  0.00000000000E+00  0.00000000000E+00  0.11782114954E+04  0.11782114954E+04  0.25500000920E-02 0. -1.
       -2   -1    0    0    0  501  0.00000000000E+00  0.00000000000E+00 -0.54307774733E+03  0.54307774733E+03  0.25500000920E-02 0.  1.
    10030    2    1    2    0    0  0.00000000000E+00  0.00000000000E+00  0.63513374807E+03  0.17212892427E+04  0.15998255465E+04 0.  0.
        3    1    3    3  502    0  0.33746766266E+03  0.52134520906E+03  0.86000199466E+03  0.10607962535E+04  0.10100000352E+00 0. -1.
       -3    1    3    3    0  502 -0.33746766266E+03 -0.52134520906E+03 -0.22486824658E+03  0.66049298927E+03  0.10100000352E+00 0.  1.
</event>
<event>
 5   0  0.5264308E-04  0.1615528E+04  0.7818609E-02  0.8811065E-01
       -2   -1    0    0    0  501  0.00000000000E+00  0.00000000000E+00  0.70078750519E+03  0.70078750520E+03  0.25500000920E-02 0. -1.
        2   -1    0    0  501    0  0.00000000000E+00  0.00000000000E+00 -0.93107075036E+03  0.93107075036E+03  0.25500000920E-02 0.  1.
    10030    2    1    2    0    0  0.00000000000E+00  0.00000000000E+00 -0.23028324516E+03  0.16318582556E+04  0.16155280849E+04 0.  0.
        3    1    3    3  502    0  0.27487724853E+03 -0.51721375587E+03  0.44673209745E+03  0.73663908946E+03  0.10100000352E+00 0. -1.
       -3    1    3    3    0  502 -0.27487724853E+03  0.51721375587E+03 -0.67701534262E+03  0.89521916610E+03  0.10100000352E+00 0.  1.
</event>
<event>
 5   0  0.5315984E-04  0.1595202E+04  0.7818609E-02  0.8823501E-01
        2   -1    0    0  501    0  0.00000000000E+00  0.00000000000E+00  0.14231024499E+04  0.14231024499E+04  0.25500000920E-02 0.  1.
       -2   -1    0    0    0  501  0.00000000000E+00  0.00000000000E+00 -0.44702877171E+03  0.44702877172E+03  0.25500000920E-02 0. -1.
    10030    2    1    2    0    0  0.00000000000E+00  0.00000000000E+00  0.97607367817E+03  0.18701312216E+04  0.15952024827E+04 0.  0.
        2    1    3    3  502    0 -0.50506454116E+03 -0.14106095961E+03  0.11925964168E+04  0.13027949180E+04  0.25500000920E-02 0.  1.
       -2    1    3    3    0  502  0.50506454116E+03  0.14106095961E+03 -0.21652273859E+03  0.56733630361E+03  0.25500000920E-02 0. -1.
</event>
<event>
 5   0  0.2763895E-04  0.1588626E+04  0.7818609E-02  0.8827566E-01
        1   -1    0    0  501    0  0.00000000000E+00  0.00000000000E+00  0.11215483111E+04  0.11215483111E+04  0.50400001928E-02 0.  1.
       -1   -1    0    0    0  501  0.00000000000E+00  0.00000000000E+00 -0.56255544864E+03  0.56255544866E+03  0.50400001928E-02 0. -1.
    10030    2    1    2    0    0  0.00000000000E+00  0.00000000000E+00  0.55899286249E+03  0.16841037598E+04  0.15886259640E+04 0.  0.
        4    1    3    3  502    0 -0.51957900532E+03 -0.58277251556E+03  0.12461517666E+03  0.79064322094E+03  0.12699999809E+01 0. -1.
       -4    1    3    3    0  502  0.51957900532E+03  0.58277251556E+03  0.43437768583E+03  0.89346053886E+03  0.12699999809E+01 0.  1.
</event>
<event>
 5   0  0.5131239E-04  0.1618629E+04  0.7818609E-02  0.8809184E-01
        2   -1    0    0  501    0  0.00000000000E+00  0.00000000000E+00  0.85680930405E+03  0.85680930406E+03  0.25500000920E-02 0. -1.
       -2   -1    0    0    0  501  0.00000000000E+00  0.00000000000E+00 -0.76445269013E+03  0.76445269013E+03  0.25500000920E-02 0.  1.
    10030    2    1    2    0    0  0.00000000000E+00  0.00000000000E+00  0.92356613924E+02  0.16212619942E+04  0.16186292688E+04 0.  0.
        1    1    3    3  502    0 -0.77126843721E+02  0.60946963456E+03  0.57390184242E+03  0.84069323195E+03  0.50400001928E-02 0. -1.
       -1    1    3    3    0  502  0.77126843721E+02 -0.60946963456E+03 -0.48154522850E+03  0.78056876224E+03  0.50400001928E-02 0.  1.
</event>
<event>
 5   0  0.5315984E-04  0.1613036E+04  0.7818609E-02  0.8812579E-01
        2   -1    0    0  501    0  0.00000000000E+00  0.00000000000E+00  0.71113288707E+03  0.71113288708E+03  0.25500000920E-02 0.  1.
       -2   -1    0    0    0  501  0.00000000000E+00  0.00000000000E+00 -0.91469741780E+03  0.91469741781E+03  0.25500000920E-02 0. -1.
    10030    2    1    2    0    0  0.00000000000E+00  0.00000000000E+00 -0.20356453073E+03  0.16258303049E+04  0.16130361627E+04 0.  0.
        2    1    3    3  502    0  0.18479966734E+03  0.20099547527E+03  0.66313187142E+03  0.71714292650E+03  0.25500000920E-02 0.  1.
       -2    1    3    3    0  502 -0.18479966734E+03 -0.20099547527E+03 -0.86669640215E+03  0.90868737838E+03  0.25500000920E-02 0. -1.
</event>
<event>
 5   0  0.5131239E-04  0.1614469E+04  0.7818609E-02  0.8811708E-01
       -2   -1    0    0    0  501  0.00000000000E+00  0.00000000000E+00  0.34560842346E+03  0.34560842347E+03  0.25500000920E-02 0. -1.
        2   -1    0    0  501    0  0.00000000000E+00  0.00000000000E+00 -0.18854495665E+04  0.18854495665E+04  0.25500000920E-02 0.  1.
    10030    2    1    2    0    0  0.00000000000E+00  0.00000000000E+00 -0.15398411430E+04  0.22310579899E+04  0.16144686460E+04 0.  0.
        1    1    3    3  502    0 -0.52871188941E+03 -0.24384943066E+03  0.27519878002E+01  0.58224254422E+03  0.50400001928E-02 0. -1.
       -1    1    3    3    0  502  0.52871188941E+03  0.24384943066E+03 -0.15425931308E+04  0.16488154457E+04  0.50400001928E-02 0.  1.
</event>
<event>
 5   0  0.5264308E-04  0.1592626E+04  0.7818609E-02  0.8825091E-01
       -2   -1    0    0    0  501  0.00000000000E+00  0.00000000000E+00  0.39880129574E+03  0.39880129575E+03  0.25500000920E-02 0.  1.
        2   -1    0    0  501    0  0.00000000000E+00  0.00000000000E+00 -0.15900502174E+04  0.15900502174E+04  0.25500000920E-02 0. -1.
    10030    2    1    2    0    0  0.00000000000E+00  0.00000000000E+00 -0.11912489217E+04  0.19888515132E+04  0.15926256145E+04 0.  0.
        3    1    3    3  502    0 -0.56729597733E+03 -0.45166094549E+03 -0.10065719509E+04  0.12405681916E+04  0.10100000352E+00 0. -1.
       -3    1    3    3    0  502  0.56729597733E+03  0.45166094549E+03 -0.18467697083E+03  0.74828332157E+03  0.10100000352E+00 0.  1.
</event>
<event>
 5   0  0.2649086E-04  0.1424107E+04  0.7818609E-02  0.8936551E-01
        1   -1    0    0  501    0  0.00000000000E+00  0.00000000000E+00  0.88918717075E+03  0.88918717077E+03  0.50400001928E-02 0.  1.
       -1   -1    0    0    0  501  0.00000000000E+00  0.00000000000E+00 -0.57020653724E+03  0.57020653726E+03  0.50400001928E-02 0. -1.
    10030    2    1    2    0    0  0.00000000000E+00  0.00000000000E+00  0.31898063352E+03  0.14593937080E+04  0.14241072117E+04 0.  0.
        2    1    3    3  502    0  0.14523982183E+03  0.57791486977E+02  0.87138719297E+03  0.88529661803E+03  0.25500000920E-02 0.  1.
       -2    1    3    3    0  502 -0.14523982183E+03 -0.57791486977E+02 -0.55240655945E+03  0.57409709000E+03  0.25500000920E-02 0. -1.
</event>
<event>
 5   0  0.5131239E-04  0.1609380E+04  0.7818609E-02  0.8814806E-01
       -2   -1    0    0    0  501  0.00000000000E+00  0.00000000000E+00  0.58457821762E+03  0.58457821763E+03  0.25500000920E-02 0. -1.
        2   -1    0    0  501    0  0.00000000000E+00  0.00000000000E+00 -0.11076812814E+04  0.11076812814E+04  0.25500000920E-02 0.  1.
    10030    2    1    2    0    0  0.00000000000E+00  0.00000000000E+00 -0.52310306377E+03  0.16922594990E+04  0.16093804388E+04 0.  0.
        1    1    3    3  502    0 -0.30510280652E+03 -0.57694360996E+03  0.23340644145E+03  0.69313073699E+03  0.50400001928E-02 0.  1.
       -1    1    3    3    0  502  0.30510280652E+03  0.57694360996E+03 -0.75650950523E+03  0.99912876204E+03  0.50400001928E-02 0. -1.
</event>
<event>
 5   0  0.5083831E-04  0.1578366E+04  0.7818609E-02  0.8833950E-01
        2   -1    0    0  501    0  0.00000000000E+00  0.00000000000E+00  0.11816379498E+04  0.11816379498E+04  0.25500000920E-02 0.  1.
       -2   -1    0    0    0  501  0.00000000000E+00  0.00000000000E+00 -0.52707337923E+03  0.52707337924E+03  0.25500000920E-02 0. -1.
    10030    2    1    2    0    0  0.00000000000E+00  0.00000000000E+00  0.65456457058E+03  0.17087113291E+04  0.15783661264E+04 0.  0.
        4    1    3    3  502    0  0.24252818539E+02 -0.78695968166E+03  0.38572724236E+03  0.87674446571E+03  0.12699999809E+01 0.  1.
       -4    1    3    3    0  502 -0.24252818539E+02  0.78695968166E+03  0.26883732822E+03  0.83196686335E+03  0.12699999809E+01 0. -1.
</event>
<event>
 5   0  0.2689675E-04  0.1592747E+04  0.7818609E-02  0.8825016E-01
       -1   -1    0    0    0  501  0.00000000000E+00  0.00000000000E+00  0.35016005567E+03  0.35016005571E+03  0.50400001928E-02 0. -1.
        1   -1    0    0  501    0  0.00000000000E+00  0.00000000000E+00 -0.18112031501E+04  0.18112031501E+04  0.50400001928E-02 0.  1.
    10030    2    1    2    0    0  0.00000000000E+00  0.00000000000E+00 -0.14610430944E+04  0.21613632058E+04  0.15927473069E+04 0.  0.
        1    1    3    3  502    0 -0.17034603829E+03  0.34407742574E+02  0.32411471097E+03  0.36776624560E+03  0.50400001928E-02 0. -1.
       -1    1    3    3    0  502  0.17034603829E+03 -0.34407742574E+02 -0.17851578054E+04  0.17935969602E+04  0.50400001928E-02 0.  1.
</event>
<event>
 5   0  0.2649086E-04  0.1599539E+04  0.7818609E-02  0.8820831E-01
        1   -1    0    0  501    0  0.00000000000E+00  0.00000000000E+00  0.66954342906E+03  0.66954342908E+03  0.50400001928E-02 0.  1.
       -1   -1    0    0    0  501  0.00000000000E+00  0.00000000000E+00 -0.95532461506E+03  0.95532461507E+03  0.50400001928E-02 0. -1.
    10030    2    1    2    0    0  0.00000000000E+00  0.00000000000E+00 -0.28578118599E+03  0.16248680441E+04  0.15995390819E+04 0.  0.
        2    1    3    3  502    0  0.34537724273E+02  0.20381378319E+03  0.64193553229E+03  0.67439909567E+03  0.25500000920E-02 0.  1.
       -2    1    3    3    0  502 -0.34537724273E+02 -0.20381378319E+03 -0.92771671829E+03  0.95046894847E+03  0.25500000920E-02 0. -1.
</event>
<event>
 5   0  0.2730707E-04  0.1697117E+04  0.7818609E-02  0.8763010E-01
       -1   -1    0    0    0  501  0.00000000000E+00  0.00000000000E+00  0.92608420354E+03  0.92608420356E+03  0.50400001928E-02 0.  1.
        1   -1    0    0  501    0  0.00000000000E+00  0.00000000000E+00 -0.77752253094E+03  0.77752253096E+03  0.50400001928E-02 0. -1.
    10030    2    1    2    0    0  0.00000000000E+00  0.00000000000E+00  0.14856167260E+03  0.17036067345E+04  0.16971167713E+04 0.  0.
        5    1    3    3  502    0 -0.65068528098E+03  0.56861584611E+01  0.62097857681E+03  0.89947770963E+03  0.46999998093E+01 0.  1.
       -5    1    3    3    0  502  0.65068528098E+03 -0.56861584611E+01 -0.47241690420E+03  0.80412902488E+03  0.46999998093E+01 0. -1.
</event>
<event>
 5   0  0.1908125E-04  0.1608057E+04  0.7818609E-02  0.8815613E-01
       -3   -1    0    0    0  501  0.00000000000E+00  0.00000000000E+00  0.15819113740E+04  0.15819113772E+04  0.10100000352E+00 0.  1.
        3   -1    0    0  501    0  0.00000000000E+00  0.00000000000E+00 -0.40865870725E+03  0.40865871973E+03  0.10100000352E+00 0. -1.
    10030    2    1    2    0    0  0.00000000000E+00  0.00000000000E+00  0.11732526668E+04  0.19905700970E+04  0.16080570546E+04 0.  0.
        3    1    3    3  502    0 -0.24494380024E+03 -0.74982246286E+03  0.77931614242E+03  0.11088574530E+04  0.10100000352E+00 0.  1.
       -3    1    3    3    0  502  0.24494380024E+03  0.74982246286E+03  0.39393652434E+03  0.88171264395E+03  0.10100000352E+00 0. -1.
</event>
<event>
 5   0  0.2796994E-04  0.1567487E+04  0.7818609E-02  0.8840774E-01
        1   -1    0    0  501    0  0.00000000000E+00  0.00000000000E+00  0.68438477454E+03  0.68438477455E+03  0.50400001928E-02 0.  1.
       -1   -1    0    0    0  501  0.00000000000E+00  0.00000000000E+00 -0.89752755013E+03  0.89752755014E+03  0.50400001928E-02 0. -1.
    10030    2    1    2    0    0  0.00000000000E+00  0.00000000000E+00 -0.21314277559E+03  0.15819123247E+04  0.15674874035E+04 0.  0.
        3    1    3    3  502    0 -0.59398146906E+03  0.48133241647E+03 -0.28066775123E+03  0.81441345612E+03  0.10100000352E+00 0. -1.
       -3    1    3    3    0  502  0.59398146906E+03 -0.48133241647E+03  0.67524975637E+02  0.76749886858E+03  0.10100000352E+00 0.  1.
</event>
<event>
 5   0  0.5083831E-04  0.1773068E+04  0.7818609E-02  0.8720754E-01
       -2   -1    0    0    0  501  0.00000000000E+00  0.00000000000E+00  0.46799107013E+03  0.46799107013E+03  0.25500000920E-02 0.  1.
        2   -1    0    0  501    0  0.00000000000E+00  0.00000000000E+00 -0.16793968481E+04  0.16793968481E+04  0.25500000920E-02 0. -1.
    10030    2    1    2    0    0  0.00000000000E+00  0.00000000000E+00 -0.12114057779E+04  0.21473879182E+04  0.17730682199E+04 0.  0.
        4    1    3    3  502    0 -0.63958034206E+03  0.98235394466E+02 -0.13396299469E+04  0.14877241727E+04  0.12699999809E+01 0. -1.
       -4    1    3    3    0  502  0.63958034206E+03 -0.98235394466E+02  0.12822416894E+03  0.65966374546E+03  0.12699999809E+01 0.  1.
</event>
<event>
 5   0  0.2689675E-04  0.1592433E+04  0.7818609E-02  0.8825210E-01
       -1   -1    0    0    0  501  0.00000000000E+00  0.00000000000E+00  0.72104463444E+03  0.72104463446E+03  0.50400001928E-02 0.  1.
        1   -1    0    0  501    0  0.00000000000E+00  0.00000000000E+00 -0.87922548642E+03  0.87922548643E+03  0.50400001928E-02 0. -1.
    10030    2    1    2    0    0  0.00000000000E+00  0.00000000000E+00 -0.15818085198E+03  0.16002701209E+04  0.15924331314E+04 0.  0.
        1    1    3    3  502    0 -0.42356053263E+03  0.47393276784E+03  0.40279534394E+03  0.75250241352E+03  0.50400001928E-02 0.  1.
       -1    1    3    3    0  502  0.42356053263E+03 -0.47393276784E+03 -0.56097619592E+03  0.84776770736E+03  0.50400001928E-02 0. -1.
</event>
<event>
 5   0  0.5381164E-04  0.1693719E+04  0.7818609E-02  0.8764955E-01
       -2   -1    0    0    0  501  0.00000000000E+00  0.00000000000E+00  0.52826119152E+03  0.52826119153E+03  0.25500000920E-02 0. -1.
        2   -1    0    0  501    0  0.00000000000E+00  0.00000000000E+00 -0.13576072089E+04  0.13576072089E+04  0.25500000920E-02 0.  1.
    10030    2    1    2    0    0  0.00000000000E+00  0.00000000000E+00 -0.82934601737E+03  0.18858684004E+04  0.16937192232E+04 0.  0.
        5    1    3    3  502    0 -0.56279327452E+03 -0.46452284530E+03  0.63761735488E+02  0.73253354364E+03  0.46999998093E+01 0. -1.
       -5    1    3    3    0  502  0.56279327452E+03  0.46452284530E+03 -0.89310775286E+03  0.11533348568E+04  0.46999998093E+01 0.  1.
</event>
<event>
 5   0  0.5381164E-04  0.1622405E+04  0.7818609E-02  0.8806901E-01
       -2   -1    0    0    0  501  0.00000000000E+00  0.00000000000E+00  0.68478393470E+03  0.68478393470E+03  0.25500000920E-02 0. -1.
        2   -1    0    0  501    0  0.00000000000E+00  0.00000000000E+00 -0.96095980407E+03  0.96095980407E+03  0.25500000920E-02 0.  1.
    10030    2    1    2    0    0  0.00000000000E+00  0.00000000000E+00 -0.27617586937E+03  0.16457437388E+04  0.16224054188E+04 0.  0.
        5    1    3    3  502    0  0.29738804130E+03 -0.40843684520E+03 -0.78185684854E+03  0.93090414395E+03  0.46999998093E+01 0.  1.
       -5    1    3    3    0  502 -0.29738804130E+03  0.40843684520E+03  0.50568097917E+03  0.71483959482E+03  0.46999998093E+01 0. -1.
</event>
<event>
 5   0  0.5381164E-04  0.1596379E+04  0.7818609E-02  0.8822775E-01
       -2   -1    0    0    0  501  0.00000000000E+00  0.00000000000E+00  0.13862959250E+04  0.13862959251E+04  0.25500000920E-02 0.  1.
        2   -1    0    0  501    0  0.00000000000E+00  0.00000000000E+00 -0.45957486602E+03  0.45957486603E+03  0.25500000920E-02 0. -1.
    10030    2    1    2    0    0  0.00000000000E+00  0.00000000000E+00  0.92672105903E+03  0.18458707911E+04  0.15963793585E+04 0.  0.
        5    1    3    3  502    0  0.42118331110E+03  0.17227050414E+03  0.12215985637E+04  0.13036094695E+04  0.46999998093E+01 0.  1.
       -5    1    3    3    0  502 -0.42118331110E+03 -0.17227050414E+03 -0.29487750466E+03  0.54226132159E+03  0.46999998093E+01 0. -1.
</event>
<event>
 5   0  0.5315984E-04  0.1607274E+04  0.7818609E-02  0.8816092E-01
        2   -1    0    0  501    0  0.00000000000E+00  0.00000000000E+00  0.95002369131E+03  0.95002369132E+03  0.25500000920E-02 0. -1.
       -2   -1    0    0    0  501  0.00000000000E+00  0.00000000000E+00 -0.67980668473E+03  0.67980668474E+03  0.25500000920E-02 0.  1.
    10030    2    1    2    0    0  0.00000000000E+00  0.00000000000E+00  0.27021700658E+03  0.16298303761E+04  0.16072740351E+04 0.  0.
        2    1    3    3  502    0  0.18363282569E+03 -0.35971509780E+03  0.83963697091E+03  0.93172217381E+03  0.25500000920E-02 0. -1.
       -2    1    3    3    0  502 -0.18363282569E+03  0.35971509780E+03 -0.56941996433E+03  0.69810820224E+03  0.25500000920E-02 0.  1.
</event>
<event>
 5   0  0.2763895E-04  0.1613259E+04  0.7818609E-02  0.8812444E-01
       -1   -1    0    0    0  501  0.00000000000E+00  0.00000000000E+00  0.39078609078E+03  0.39078609082E+03  0.50400001928E-02 0.  1.
        1   -1    0    0  501    0  0.00000000000E+00  0.00000000000E+00 -0.16649807377E+04  0.16649807377E+04  0.50400001928E-02 0. -1.
    10030    2    1    2    0    0  0.00000000000E+00  0.00000000000E+00 -0.12741946469E+04  0.20557668285E+04  0.16132592027E+04 0.  0.
        4    1    3    3  502    0 -0.27654186889E+03 -0.63845365723E+03 -0.11571455458E+04  0.13502169843E+04  0.12699999809E+01 0. -1.
       -4    1    3    3    0  502  0.27654186889E+03  0.63845365723E+03 -0.11704910111E+03  0.70554984420E+03  0.12699999809E+01 0.  1.
</event>
<event>
 5   0  0.5131239E-04  0.1421555E+04  0.7818609E-02  0.8938362E-01
       -2   -1    0    0    0  501  0.00000000000E+00  0.00000000000E+00  0.72979203917E+03  0.72979203918E+03  0.25500000920E-02 0. -1.
        2   -1    0    0  501    0  0.00000000000E+00  0.00000000000E+00 -0.69225879984E+03  0.69225879984E+03  0.25500000920E-02 0.  1.
    10030    2    1    2    0    0  0.00000000000E+00  0.00000000000E+00  0.37533239336E+02  0.14220508390E+04  0.14215554315E+04 0.  0.
        1    1    3    3  502    0  0.14235121383E+03 -0.57142457573E+02  0.71303718373E+03  0.72934981589E+03  0.50400001928E-02 0. -1.
       -1    1    3    3    0  502 -0.14235121383E+03  0.57142457573E+02 -0.67550394439E+03  0.69270102313E+03  0.50400001928E-02 0.  1.
</event>
<event>
 5   0  0.5381164E-04  0.1590254E+04  0.7818609E-02  0.8826558E-01
       -2   -1    0    0    0  501  0.00000000000E+00  0.00000000000E+00  0.61348087155E+03  0.61348087155E+03  0.25500000920E-02 0. -1.
        2   -1    0    0  501    0  0.00000000000E+00  0.00000000000E+00 -0.10305575042E+04  0.10305575042E+04  0.25500000920E-02 0.  1.
    10030    2    1    2    0    0  0.00000000000E+00  0.00000000000E+00 -0.41707663266E+03  0.16440383758E+04  0.15902544650E+04 0.  0.
        5    1    3    3  502    0 -0.26820816001E+03  0.13252263953E+03  0.55306387043E+03  0.62880808030E+03  0.46999998093E+01 0. -1.
       -5    1    3    3    0  502  0.26820816001E+03 -0.13252263953E+03 -0.97014050308E+03  0.10152302955E+04  0.46999998093E+01 0.  1.
</event>
<event>
 5   0  0.5083831E-04  0.1613592E+04  0.7818609E-02  0.8812241E-01
       -2   -1    0    0    0  501  0.00000000000E+00  0.00000000000E+00  0.58017762431E+03  0.58017762432E+03  0.25500000920E-02 0.  1.
        2   -1    0    0  501    0  0.00000000000E+00  0.00000000000E+00 -0.11219316682E+04  0.11219316682E+04  0.25500000920E-02 0. -1.
    10030    2    1    2    0    0  0.00000000000E+00  0.00000000000E+00 -0.54175404392E+03  0.17021092926E+04  0.16135918318E+04 0.  0.
        4    1    3    3  502    0 -0.67180922552E+03  0.20660456932E+03  0.14696496995E+03  0.71806225277E+03  0.12699999809E+01 0.  1.
       -4    1    3    3    0  502  0.67180922552E+03 -0.20660456932E+03 -0.68871901387E+03  0.98404703979E+03  0.12699999809E+01 0. -1.
</event>
<event>
 5   0  0.5264308E-04  0.1611134E+04  0.7818609E-02  0.8813737E-01
       -2   -1    0    0    0  501  0.00000000000E+00  0.00000000000E+00  0.44170899054E+03  0.44170899055E+03  0.25500000920E-02 0. -1.
        2   -1    0    0  501    0  0.00000000000E+00  0.00000000000E+00 -0.14691533048E+04  0.14691533048E+04  0.25500000920E-02 0.  1.
    10030    2    1    2    0    0  0.00000000000E+00  0.00000000000E+00 -0.10274443143E+04  0.19108622954E+04  0.16111340394E+04 0.  0.
        3    1    3    3  502    0  0.47492693947E+03  0.43853130652E+03  0.56405662464E+02  0.64888127851E+03  0.10100000352E+00 0. -1.
       -3    1    3    3    0  502 -0.47492693947E+03 -0.43853130652E+03 -0.10838499767E+04  0.12619810168E+04  0.10100000352E+00 0.  1.
</event>
<event>
 5   0  0.5381164E-04  0.1578469E+04  0.7818609E-02  0.8833885E-01
        2   -1    0    0  501    0  0.00000000000E+00  0.00000000000E+00  0.17717950845E+04  0.17717950845E+04  0.25500000920E-02 0. -1.
       -2   -1    0    0    0  501  0.00000000000E+00  0.00000000000E+00 -0.35155948787E+03  0.35155948788E+03  0.25500000920E-02 0.  1.
    10030    2    1    2    0    0  0.00000000000E+00  0.00000000000E+00  0.14202355966E+04  0.21233545723E+04  0.15784693504E+04 0.  0.
        5    1    3    3  502    0  0.50604443794E+03  0.32837289867E+03  0.25572277557E+02  0.60380937814E+03  0.46999998093E+01 0.  1.
       -5    1    3    3    0  502 -0.50604443794E+03 -0.32837289867E+03  0.13946633190E+04  0.15195451942E+04  0.46999998093E+01 0. -1.
</event>
<event>
 5   0  0.2763895E-04  0.1617227E+04  0.7818609E-02  0.8810034E-01
        1   -1    0    0  501    0  0.00000000000E+00  0.00000000000E+00  0.22115516790E+04  0.22115516790E+04  0.50400001928E-02 0.  1.
       -1   -1    0    0    0  501  0.00000000000E+00  0.00000000000E+00 -0.29565458867E+03  0.29565458871E+03  0.50400001928E-02 0. -1.
    10030    2    1    2    0    0  0.00000000000E+00  0.00000000000E+00  0.19158970904E+04  0.25072062678E+04  0.16172265173E+04 0.  0.
        4    1    3    3  502    0  0.30087422910E+03 -0.68745520122E+03  0.49096256573E+03  0.89675292543E+03  0.12699999809E+01 0. -1.
       -4    1    3    3    0  502 -0.30087422910E+03  0.68745520122E+03  0.14249345246E+04  0.16104533423E+04  0.12699999809E+01 0.  1.
</event>
<event>
 5   0  0.2796994E-04  0.1492180E+04  0.7818609E-02  0.8889670E-01
       -1   -1    0    0    0  501  0.00000000000E+00  0.00000000000E+00  0.29553043891E+03  0.29553043895E+03  0.50400001928E-02 0. -1.
        1   -1    0    0  501    0  0.00000000000E+00  0.00000000000E+00 -0.18835639859E+04  0.18835639859E+04  0.50400001928E-02 0.  1.
    10030    2    1    2    0    0  0.00000000000E+00  0.00000000000E+00 -0.15880335470E+04  0.21790944248E+04  0.14921802726E+04 0.  0.
        3    1    3    3  502    0  0.73088599150E+03 -0.20813715563E+02 -0.10107334757E+04  0.12474813475E+04  0.10100000352E+00 0.  1.
       -3    1    3    3    0  502 -0.73088599150E+03  0.20813715563E+02 -0.57730007130E+03  0.93161307733E+03  0.10100000352E+00 0. -1.
</event>
<event>
 5   0  0.2730707E-04  0.1600742E+04  0.7818609E-02  0.8820092E-01
        1   -1    0    0  501    0  0.00000000000E+00  0.00000000000E+00  0.13024890361E+04  0.13024890361E+04  0.50400001928E-02 0.  1.
       -1   -1    0    0    0  501  0.00000000000E+00  0.00000000000E+00 -0.49182272142E+03  0.49182272145E+03  0.50400001928E-02 0. -1.
    10030    2    1    2    0    0  0.00000000000E+00  0.00000000000E+00  0.81066631467E+03  0.17943117575E+04  0.16007419559E+04 0.  0.
        5    1    3    3  502    0 -0.50222388963E+03 -0.50788249689E+03  0.81010685475E+03  0.10800317922E+04  0.46999998093E+01 0.  1.
       -5    1    3    3    0  502  0.50222388963E+03  0.50788249689E+03  0.55945992508E+00  0.71427996539E+03  0.46999998093E+01 0. -1.
</event>
<event>
 5   0  0.5131239E-04  0.1593367E+04  0.7818609E-02  0.8824633E-01
        2   -1    0    0  501    0  0.00000000000E+00  0.00000000000E+00  0.20884189514E+04  0.20884189514E+04  0.25500000920E-02 0.  1.
       -2   -1    0    0    0  501  0.00000000000E+00  0.00000000000E+00 -0.30391627165E+03  0.30391627166E+03  0.25500000920E-02 0. -1.
    10030    2    1    2    0    0  0.00000000000E+00  0.00000000000E+00  0.17845026798E+04  0.23923352231E+04  0.15933668773E+04 0.  0.
        1    1    3    3  502    0 -0.39849534828E+03  0.33799601903E+03  0.17951921465E+04  0.18696937435E+04  0.50400001928E-02 0.  1.
       -1    1    3    3    0  502  0.39849534828E+03 -0.33799601903E+03 -0.10689466740E+02  0.52264147961E+03  0.50400001928E-02 0. -1.
</event>
<event>
 5   0  0.5381164E-04  0.1578173E+04  0.7818609E-02  0.8834071E-01
        2   -1    0    0  501    0  0.00000000000E+00  0.00000000000E+00  0.13307990038E+04  0.13307990038E+04  0.25500000920E-02 0.  1.
       -2   -1    0    0    0  501  0.00000000000E+00  0.00000000000E+00 -0.46788225121E+03  0.46788225122E+03  0.25500000920E-02 0. -1.
    10030    2    1    2    0    0  0.00000000000E+00  0.00000000000E+00  0.86291675259E+03  0.17986812550E+04  0.15781726570E+04 0.  0.
        5    1    3    3  502    0 -0.28901832819E+01  0.51732563659E+03  0.11105282562E+04  0.12251241836E+04  0.46999998093E+01 0.  1.
       -5    1    3    3    0  502  0.28901832819E+01 -0.51732563659E+03 -0.24761150363E+03  0.57355707140E+03  0.46999998093E+01 0. -1.
</event>
<event>
 5   0  0.2730707E-04  0.1607004E+04  0.7818609E-02  0.8816257E-01
        1   -1    0    0  501    0  0.00000000000E+00  0.00000000000E+00  0.14728461245E+04  0.14728461245E+04  0.50400001928E-02 0.  1.
       -1   -1    0    0    0  501  0.00000000000E+00  0.00000000000E+00 -0.43834552360E+03  0.43834552363E+03  0.50400001928E-02 0. -1.
    10030    2    1    2    0    0  0.00000000000E+00  0.00000000000E+00  0.10345006009E+04  0.19111916481E+04  0.16070040518E+04 0.  0.
        5    1    3    3  502    0  0.42826040825E+03  0.67283459282E+03  0.63304603449E+03  0.10182743925E+04  0.46999998093E+01 0.  1.
       -5    1    3    3    0  502 -0.42826040825E+03 -0.67283459282E+03  0.40145456639E+03  0.89291725565E+03  0.46999998093E+01 0. -1.
</event>
<event>
 5   0  0.2689675E-04  0.1605877E+04  0.7818609E-02  0.8816945E-01
        1   -1    0    0  501    0  0.00000000000E+00  0.00000000000E+00  0.10826636229E+04  0.10826636229E+04  0.50400001928E-02 0. -1.
       -1   -1    0    0    0  501  0.00000000000E+00  0.00000000000E+00 -0.59548550609E+03  0.59548550611E+03  0.50400001928E-02 0.  1.
    10030    2    1    2    0    0  0.00000000000E+00  0.00000000000E+00  0.48717811683E+03  0.16781491290E+04  0.16058773246E+04 0.  0.
        1    1    3    3  502    0 -0.76146612373E+03 -0.75346298203E+02 -0.10677480404E+02  0.76525925728E+03  0.50400001928E-02 0. -1.
       -1    1    3    3    0  502  0.76146612373E+03  0.75346298203E+02  0.49785559723E+03  0.91288987176E+03  0.50400001928E-02 0.  1.
</event>
<event>
 5   0  0.5083831E-04  0.1600079E+04  0.7818609E-02  0.8820499E-01
       -2   -1    0    0    0  501  0.00000000000E+00  0.00000000000E+00  0.74057111070E+03  0.74057111071E+03  0.25500000920E-02 0.  1.
        2   -1    0    0  501    0  0.00000000000E+00  0.00000000000E+00 -0.86428336165E+03  0.86428336165E+03  0.25500000920E-02 0. -1.
    10030    2    1    2    0    0  0.00000000000E+00  0.00000000000E+00 -0.12371225095E+03  0.16048544724E+04  0.16000791094E+04 0.  0.
        4    1    3    3  502    0 -0.37287340245E+03  0.66563182628E+03  0.17961407185E+03  0.78381319848E+03  0.12699999809E+01 0.  1.
       -4    1    3    3    0  502  0.37287340245E+03 -0.66563182628E+03 -0.30332632280E+03  0.82104127388E+03  0.12699999809E+01 0. -1.
</event>
<event>
 5   0  0.2689675E-04  0.1594070E+04  0.7818609E-02  0.8824199E-01
       -1   -1    0    0    0  501  0.00000000000E+00  0.00000000000E+00  0.11634119711E+04  0.11634119711E+04  0.50400001928E-02 0. -1.
        1   -1    0    0  501    0  0.00000000000E+00  0.00000000000E+00 -0.54603580258E+03  0.54603580260E+03  0.50400001928E-02 0.  1.
    10030    2    1    2    0    0  0.00000000000E+00  0.00000000000E+00  0.61737616854E+03  0.17094477737E+04  0.15940697468E+04 0.  0.
        1    1    3    3  502    0  0.40759024543E+03 -0.11748734137E+03  0.10323110942E+04  0.11160641911E+04  0.50400001928E-02 0. -1.
       -1    1    3    3    0  502 -0.40759024543E+03  0.11748734137E+03 -0.41493492564E+03  0.59338358260E+03  0.50400001928E-02 0.  1.
</event>
<event>
 5   0  0.5083831E-04  0.1576919E+04  0.7818609E-02  0.8834854E-01
        2   -1    0    0  501    0  0.00000000000E+00  0.00000000000E+00  0.91529237708E+03  0.91529237708E+03  0.25500000920E-02 0. -1.
       -2   -1    0    0    0  501  0.00000000000E+00  0.00000000000E+00 -0.67920237925E+03  0.67920237925E+03  0.25500000920E-02 0.  1.
    10030    2    1    2    0    0  0.00000000000E+00  0.00000000000E+00  0.23608999783E+03  0.15944947563E+04  0.15769194783E+04 0.  0.
        4    1    3    3  502    0 -0.18398930720E+03  0.14701658985E+03 -0.64280487355E+03  0.68459160177E+03  0.12699999809E+01 0.  1.
       -4    1    3    3    0  502  0.18398930720E+03 -0.14701658985E+03  0.87889487138E+03  0.90990315456E+03  0.12699999809E+01 0. -1.
</event>
<event>
 5   0  0.5131239E-04  0.1587164E+04  0.7818609E-02  0.8828473E-01
        2   -1    0    0  501    0  0.00000000000E+00  0.00000000000E+00  0.26161419296E+04  0.26161419296E+04  0.25500000920E-02 0.  1.
       -2   -1    0    0    0  501  0.00000000000E+00  0.00000000000E+00 -0.24072552254E+03  0.24072552256E+03  0.25500000920E-02 0. -1.
    10030    2    1    2    0    0  0.00000000000E+00  0.00000000000E+00  0.23754164070E+04  0.28568674521E+04  0.15871636753E+04 0.  0.
        1    1    3    3  502    0 -0.39899927711E+03  0.68360551012E+03  0.10850110725E+04  0.13430435377E+04  0.50400001928E-02 0. -1.
       -1    1    3    3    0  502  0.39899927711E+03 -0.68360551012E+03  0.12904053345E+04  0.15138239145E+04  0.50400001928E-02 0.  1.
</event>
<event>
 5   0  0.1908125E-04  0.1612620E+04  0.7818609E-02  0.8812832E-01
        4   -1    0    0  501    0  0.00000000000E+00  0.00000000000E+00  0.68713132623E+03  0.68713249988E+03  0.12699999809E+01 0. -1.
       -4   -1    0    0    0  501  0.00000000000E+00  0.00000000000E+00 -0.94615750144E+03  0.94615835378E+03  0.12699999809E+01 0.  1.
    10030    2    1    2    0    0  0.00000000000E+00  0.00000000000E+00 -0.25902617521E+03  0.16332908537E+04  0.16126203686E+04 0.  0.
        5    1    3    3  502    0 -0.22967139489E+03 -0.26009533381E+03 -0.86665775120E+03  0.93355036287E+03  0.46999998093E+01 0.  1.
       -5    1    3    3    0  502  0.22967139489E+03  0.26009533381E+03  0.60763157600E+03  0.69974049078E+03  0.46999998093E+01 0. -1.
</event>
<event>
 5   0  0.2689675E-04  0.1590271E+04  0.7818609E-02  0.8826547E-01
       -1   -1    0    0    0  501  0.00000000000E+00  0.00000000000E+00  0.36661665453E+03  0.36661665457E+03  0.50400001928E-02 0. -1.
        1   -1    0    0  501    0  0.00000000000E+00  0.00000000000E+00 -0.17245266575E+04  0.17245266575E+04  0.50400001928E-02 0.  1.
    10030    2    1    2    0    0  0.00000000000E+00  0.00000000000E+00 -0.13579100029E+04  0.20911433120E+04  0.15902706611E+04 0.  0.
        1    1    3    3  502    0  0.36410936723E+03  0.24587832902E+03 -0.15504162384E+04  0.16114658843E+04  0.50400001928E-02 0.  1.
       -1    1    3    3    0  502 -0.36410936723E+03 -0.24587832902E+03  0.19250623544E+03  0.47967742775E+03  0.50400001928E-02 0. -1.
</event>
<event>
 5   0  0.1908125E-04  0.1602077E+04  0.7818609E-02  0.8819273E-01
        3   -1    0    0  501    0  0.00000000000E+00  0.00000000000E+00  0.25745480341E+03  0.25745482322E+03  0.10100000352E+00 0.  1.
       -3   -1    0    0    0  501  0.00000000000E+00  0.00000000000E+00 -0.24923303463E+04  0.24923303483E+04  0.10100000352E+00 0. -1.
    10030    2    1    2    0    0  0.00000000000E+00  0.00000000000E+00 -0.22348755429E+04  0.27497851716E+04  0.16020767140E+04 0.  0.
        1    1    3    3  502    0 -0.49875305640E+03  0.14506821568E+03 -0.70774531101E+02  0.52422174005E+03  0.50400001928E-02 0.  1.
       -1    1    3    3    0  502  0.49875305640E+03 -0.14506821568E+03 -0.21641010118E+04  0.22255634315E+04  0.50400001928E-02 0. -1.
</event>
<event>
 5   0  0.5083831E-04  0.1622053E+04  0.7818609E-02  0.8807114E-01
       -2   -1    0    0    0  501  0.00000000000E+00  0.00000000000E+00  0.89027911878E+03  0.89027911878E+03  0.25500000920E-02 0. -1.
        2   -1    0    0  501    0  0.00000000000E+00  0.00000000000E+00 -0.73882849834E+03  0.73882849835E+03  0.25500000920E-02 0.  1.
    10030    2    1    2    0    0  0.00000000000E+00  0.00000000000E+00  0.15145062043E+03  0.16291076171E+04  0.16220525077E+04 0.  0.
        4    1    3    3  502    0  0.75392095040E+03 -0.21140716143E+03 -0.13655194291E+03  0.79481937153E+03  0.12699999809E+01 0.  1.
       -4    1    3    3    0  502 -0.75392095040E+03  0.21140716143E+03  0.28800256334E+03  0.83428824560E+03  0.12699999809E+01 0. -1.
</event>
<event>
 5   0  0.2763895E-04  0.1525025E+04  0.7818609E-02  0.8867980E-01
        1   -1    0    0  501    0  0.00000000000E+00  0.00000000000E+00  0.21346997781E+04  0.21346997781E+04  0.50400001928E-02 0.  1.
       -1   -1    0    0    0  501  0.00000000000E+00  0.00000000000E+00 -0.27236872254E+03  0.27236872259E+03  0.50400001928E-02 0. -1.
    10030    2    1    2    0    0  0.00000000000E+00  0.00000000000E+00  0.18623310556E+04  0.24070685007E+04  0.15250251823E+04 0.  0.
        4    1    3    3  502    0  0.56066863250E+03  0.51639702114E+03  0.89925883540E+03  0.11788482790E+04  0.12699999809E+01 0.  1.
       -4    1    3    3    0  502 -0.56066863250E+03 -0.51639702114E+03  0.96307222018E+03  0.12282202217E+04  0.12699999809E+01 0. -1.
</event>
<event>
 5   0  0.5083831E-04  0.1607175E+04  0.7818609E-02  0.8816152E-01
       -2   -1    0    0    0  501  0.00000000000E+00  0.00000000000E+00  0.11167389723E+04  0.11167389723E+04  0.25500000920E-02 0. -1.
        2   -1    0    0  501    0  0.00000000000E+00  0.00000000000E+00 -0.57824854164E+03  0.57824854165E+03  0.25500000920E-02 0.  1.
    10030    2    1    2    0    0  0.00000000000E+00  0.00000000000E+00  0.53849043068E+03  0.16949875140E+04  0.16071747660E+04 0.  0.
        4    1    3    3  502    0 -0.30471823405E+03 -0.28451270235E+03  0.99376720760E+03  0.10776713580E+04  0.12699999809E+01 0. -1.
       -4    1    3    3    0  502  0.30471823405E+03  0.28451270235E+03 -0.45527677693E+03  0.61731615601E+03  0.12699999809E+01 0.  1.
</event>
<event>
 5   0  0.2649086E-04  0.1611647E+04  0.7818609E-02  0.8813424E-01
        1   -1    0    0  501    0  0.00000000000E+00  0.00000000000E+00  0.89110735337E+03  0.89110735338E+03  0.50400001928E-02 0. -1.
       -1   -1    0    0    0  501  0.00000000000E+00  0.00000000000E+00 -0.72870207713E+03  0.72870207715E+03  0.50400001928E-02 0.  1.
    10030    2    1    2    0    0  0.00000000000E+00  0.00000000000E+00  0.16240527624E+03  0.16198094305E+04  0.16116473304E+04 0.  0.
        2    1    3    3  502    0  0.62961902644E+03  0.16179487883E+03  0.55980128144E+03  0.85788995564E+03  0.25500000920E-02 0. -1.
       -2    1    3    3    0  502 -0.62961902644E+03 -0.16179487883E+03 -0.39739600520E+03  0.76191947490E+03  0.25500000920E-02 0.  1.
</event>
<event>
 5   0  0.5131239E-04  0.1602958E+04  0.7818609E-02  0.8818733E-01
        2   -1    0    0  501    0  0.00000000000E+00  0.00000000000E+00  0.13496019869E+04  0.13496019869E+04  0.25500000920E-02 0. -1.
       -2   -1    0    0    0  501  0.00000000000E+00  0.00000000000E+00 -0.47596918854E+03  0.47596918854E+03  0.25500000920E-02 0.  1.
    10030    2    1    2    0    0  0.00000000000E+00  0.00000000000E+00  0.87363279839E+03  0.18255711755E+04  0.16029584680E+04 0.  0.
        1    1    3    3  502    0 -0.52607170469E+03  0.67088276032E+02 -0.24756827986E+03  0.58527115807E+03  0.50400001928E-02 0.  1.
       -1    1    3    3    0  502  0.52607170469E+03 -0.67088276032E+02  0.11212010782E+04  0.12403000174E+04  0.50400001928E-02 0. -1.
</event>
<event>
 5   0  0.2796994E-04  0.1571448E+04  0.7818609E-02  0.8838283E-01
        1   -1    0    0  501    0  0.00000000000E+00  0.00000000000E+00  0.67759614162E+03  0.67759614164E+03  0.50400001928E-02 0. -1.
       -1   -1    0    0    0  501  0.00000000000E+00  0.00000000000E+00 -0.91110664484E+03  0.91110664485E+03  0.50400001928E-02 0.  1.
    10030    2    1    2    0    0  0.00000000000E+00  0.00000000000E+00 -0.23351050322E+03  0.15887027865E+04  0.15714481820E+04 0.  0.
        3    1    3    3  502    0 -0.20096647777E+03  0.75740225564E+03 -0.58532674100E+02  0.78579373004E+03  0.10100000352E+00 0.  1.
       -3    1    3    3    0  502  0.20096647777E+03 -0.75740225564E+03 -0.17497782912E+03  0.80290905645E+03  0.10100000352E+00 0. -1.
</event>
<event>
 5   0  0.2689675E-04  0.1593773E+04  0.7818609E-02  0.8824383E-01
       -1   -1    0    0    0  501  0.00000000000E+00  0.00000000000E+00  0.67276589149E+03  0.67276589151E+03  0.50400001928E-02 0.  1.
        1   -1    0    0  501    0  0.00000000000E+00  0.00000000000E+00 -0.94390647962E+03  0.94390647964E+03  0.50400001928E-02 0. -1.
    10030    2    1    2    0    0  0.00000000000E+00  0.00000000000E+00 -0.27114058813E+03  0.16166723711E+04  0.15937729879E+04 0.  0.
        1    1    3    3  502    0 -0.28325065822E+03  0.30142157731E+03 -0.82648984896E+03  0.92421392172E+03  0.50400001928E-02 0. -1.
       -1    1    3    3    0  502  0.28325065822E+03 -0.30142157731E+03  0.55534926082E+03  0.69245844942E+03  0.50400001928E-02 0.  1.
</event>
<event>
 5   0  0.2796994E-04  0.1596413E+04  0.7818609E-02  0.8822754E-01
        1   -1    0    0  501    0  0.00000000000E+00  0.00000000000E+00  0.92765823358E+03  0.92765823359E+03  0.50400001928E-02 0.  1.
       -1   -1    0    0    0  501  0.00000000000E+00  0.00000000000E+00 -0.68681970314E+03  0.68681970316E+03  0.50400001928E-02 0. -1.
    10030    2    1    2    0    0  0.00000000000E+00  0.00000000000E+00  0.24083853043E+03  0.16144779368E+04  0.15964134209E+04 0.  0.
        3    1    3    3  502    0 -0.27202019085E+03 -0.56783728748E+02  0.87716089703E+03  0.92012533144E+03  0.10100000352E+00 0.  1.
       -3    1    3    3    0  502  0.27202019085E+03  0.56783728748E+02 -0.63632236659E+03  0.69435260532E+03  0.10100000352E+00 0. -1.
</event>
<event>
 5   0  0.5264308E-04  0.1599769E+04  0.7818609E-02  0.8820690E-01
       -2   -1    0    0    0  501  0.00000000000E+00  0.00000000000E+00  0.15718967267E+04  0.15718967267E+04  0.25500000920E-02 0.  1.
        2   -1    0    0  501    0  0.00000000000E+00  0.00000000000E+00 -0.40703390210E+03  0.40703390211E+03  0.25500000920E-02 0. -1.
    10030    2    1    2    0    0  0.00000000000E+00  0.00000000000E+00  0.11648628246E+04  0.19789306288E+04  0.15997690563E+04 0.  0.
        3    1    3    3  502    0  0.30348163055E+03 -0.50114818383E+03  0.12560793220E+04  0.13859963476E+04  0.10100000352E+00 0.  1.
       -3    1    3    3    0  502 -0.30348163055E+03  0.50114818383E+03 -0.91216497392E+02  0.59293428121E+03  0.10100000352E+00 0. -1.
</event>
<event>
 5   0  0.5315984E-04  0.1617529E+04  0.7818609E-02  0.8809851E-01
       -2   -1    0    0    0  501  0.00000000000E+00  0.00000000000E+00  0.74423089267E+03  0.74423089268E+03  0.25500000920E-02 0. -1.
        2   -1    0    0  501    0  0.00000000000E+00  0.00000000000E+00 -0.87889372016E+03  0.87889372017E+03  0.25500000920E-02 0.  1.
    10030    2    1    2    0    0  0.00000000000E+00  0.00000000000E+00 -0.13466282749E+03  0.16231246128E+04  0.16175288040E+04 0.  0.
        2    1    3    3  502    0 -0.65743952198E+02 -0.19304581063E+02  0.74131307108E+03  0.74447297027E+03  0.25500000920E-02 0. -1.
       -2    1    3    3    0  502  0.65743952198E+02  0.19304581063E+02 -0.87597589858E+03  0.87865164257E+03  0.25500000920E-02 0.  1.
</event>
<event>
 5   0  0.2763895E-04  0.1584493E+04  0.7818609E-02  0.8830131E-01
       -1   -1    0    0    0  501  0.00000000000E+00  0.00000000000E+00  0.12062698551E+04  0.12062698551E+04  0.50400001928E-02 0.  1.
        1   -1    0    0  501    0  0.00000000000E+00  0.00000000000E+00 -0.52032700612E+03  0.52032700615E+03  0.50400001928E-02 0. -1.
    10030    2    1    2    0    0  0.00000000000E+00  0.00000000000E+00  0.68594284901E+03  0.17265968613E+04  0.15844933352E+04 0.  0.
        4    1    3    3  502    0 -0.27499889573E+03 -0.40957948182E+03 -0.33252134680E+03  0.59493848721E+03  0.12699999809E+01 0. -1.
       -4    1    3    3    0  502  0.27499889573E+03  0.40957948182E+03  0.10184641958E+04  0.11316583741E+04  0.12699999809E+01 0.  1.
</event>
<event>
 5   0  0.5131239E-04  0.1587029E+04  0.7818609E-02  0.8828556E-01
       -2   -1    0    0    0  501  0.00000000000E+00  0.00000000000E+00  0.54143910592E+03  0.54143910593E+03  0.25500000920E-02 0. -1.
        2   -1    0    0  501    0  0.00000000000E+00  0.00000000000E+00 -0.11629476125E+04  0.11629476125E+04  0.25500000920E-02 0.  1.
    10030    2    1    2    0    0  0.00000000000E+00  0.00000000000E+00 -0.62150850661E+03  0.17043867185E+04  0.15870290679E+04 0.  0.
        1    1    3    3  502    0  0.19301292052E+03  0.68674795932E+03  0.62492618859E+02  0.71608803548E+03  0.50400001928E-02 0. -1.
       -1    1    3    3    0  502 -0.19301292052E+03 -0.68674795932E+03 -0.68400112547E+03  0.98829868299E+03  0.50400001928E-02 0.  1.
</event>
<event>
 5   0  0.1908125E-04  0.1584641E+04  0.7818609E-02  0.8830040E-01
       -4   -1    0    0    0  501  0.00000000000E+00  0.00000000000E+00  0.97118969373E+03  0.97119052410E+03  0.12699999809E+01 0. -1.
        4   -1    0    0  501    0  0.00000000000E+00  0.00000000000E+00 -0.64639270120E+03  0.64639394882E+03  0.12699999809E+01 0.  1.
    10030    2    1    2    0    0  0.00000000000E+00  0.00000000000E+00  0.32479699253E+03  0.16175844729E+04  0.15846407923E+04 0.  0.
        2    1    3    3  502    0 -0.78674559925E+03 -0.73981956080E+02  0.22130115984E+03  0.82061938262E+03  0.25500000920E-02 0. -1.
       -2    1    3    3    0  502  0.78674559925E+03  0.73981956080E+02  0.10349583269E+03  0.79696509030E+03  0.25500000920E-02 0.  1.
</event>
<event>
 5   0  0.2763895E-04  0.1597349E+04  0.7818609E-02  0.8822178E-01
       -1   -1    0    0    0  501  0.00000000000E+00  0.00000000000E+00  0.11172122853E+04  0.11172122853E+04  0.50400001928E-02 0.  1.
        1   -1    0    0  501    0  0.00000000000E+00  0.00000000000E+00 -0.57095784463E+03  0.57095784465E+03  0.50400001928E-02 0. -1.
    10030    2    1    2    0    0  0.00000000000E+00  0.00000000000E+00  0.54625444068E+03  0.16881701300E+04  0.15973492022E+04 0.  0.
        4    1    3    3  502    0 -0.43957979930E+03 -0.44236523470E+03 -0.25420337067E+03  0.67345257248E+03  0.12699999809E+01 0. -1.
       -4    1    3    3    0  502  0.43957979930E+03  0.44236523470E+03  0.80045781135E+03  0.10147175575E+04  0.12699999809E+01 0.  1.
</event>
<event>
 5   0  0.5131239E-04  0.1663050E+04  0.7818609E-02  0.8782723E-01
        2   -1    0    0  501    0  0.00000000000E+00  0.00000000000E+00  0.97412627309E+03  0.97412627310E+03  0.25500000920E-02 0. -1.
       -2   -1    0    0    0  501  0.00000000000E+00  0.00000000000E+00 -0.70979920045E+03  0.70979920045E+03  0.25500000920E-02 0.  1.
    10030    2    1    2    0    0  0.00000000000E+00  0.00000000000E+00  0.26432707265E+03  0.16839254735E+04  0.16630502696E+04 0.  0.
        1    1    3    3  502    0 -0.68719726763E+03 -0.89011254860E+02  0.59757534080E+03  0.91501878455E+03  0.50400001928E-02 0. -1.
       -1    1    3    3    0  502  0.68719726763E+03  0.89011254860E+02 -0.33324826815E+03  0.76890668899E+03  0.50400001928E-02 0.  1.
</event>
<event>
 5   0  0.2689675E-04  0.1612434E+04  0.7818609E-02  0.8812945E-01
       -1   -1    0    0    0  501  0.00000000000E+00  0.00000000000E+00  0.25369542362E+04  0.25369542362E+04  0.50400001928E-02 0.  1.
        1   -1    0    0  501    0  0.00000000000E+00  0.00000000000E+00 -0.25620728164E+03  0.25620728169E+03  0.50400001928E-02 0. -1.
    10030    2    1    2    0    0  0.00000000000E+00  0.00000000000E+00  0.22807469545E+04  0.27931615179E+04  0.16124343690E+04 0.  0.
        1    1    3    3  502    0  0.59537436263E+03  0.32181510780E+03  0.18993156523E+04  0.20162925240E+04  0.50400001928E-02 0.  1.
       -1    1    3    3    0  502 -0.59537436263E+03 -0.32181510780E+03  0.38143130225E+03  0.77686899388E+03  0.50400001928E-02 0. -1.
</event>
<event>
 5   0  0.5131239E-04  0.1556877E+04  0.7818609E-02  0.8847487E-01
        2   -1    0    0  501    0  0.00000000000E+00  0.00000000000E+00  0.85940419610E+03  0.85940419610E+03  0.25500000920E-02 0.  1.
       -2   -1    0    0    0  501  0.00000000000E+00  0.00000000000E+00 -0.70510086268E+03  0.70510086269E+03  0.25500000920E-02 0. -1.
    10030    2    1    2    0    0  0.00000000000E+00  0.00000000000E+00  0.15430333341E+03  0.15645050588E+04  0.15568771821E+04 0.  0.
        1    1    3    3  502    0 -0.41892367791E+02  0.74242843475E+03  0.30852240810E+03  0.80507206357E+03  0.50400001928E-02 0.  1.
       -1    1    3    3    0  502  0.41892367791E+02 -0.74242843475E+03 -0.15421907469E+03  0.75943299522E+03  0.50400001928E-02 0. -1.
</event>
<event>
 5   0  0.2763895E-04  0.1597790E+04  0.7818609E-02  0.8821907E-01
       -1   -1    0    0    0  501  0.00000000000E+00  0.00000000000E+00  0.26497047208E+03  0.26497047213E+03  0.50400001928E-02 0. -1.
        1   -1    0    0  501    0  0.00000000000E+00  0.00000000000E+00 -0.24086964628E+04  0.24086964628E+04  0.50400001928E-02 0.  1.
    10030    2    1    2    0    0  0.00000000000E+00  0.00000000000E+00 -0.21437259907E+04  0.26736669349E+04  0.15977902727E+04 0.  0.
        4    1    3    3  502    0  0.52728186285E+03 -0.60011896579E+03 -0.10585927671E+04  0.13261934985E+04  0.12699999809E+01 0.  1.
       -4    1    3    3    0  502 -0.52728186285E+03  0.60011896579E+03 -0.10851332237E+04  0.13474734365E+04  0.12699999809E+01 0. -1.
</event>
<event>
 5   0  0.5315984E-04  0.1617226E+04  0.7818609E-02  0.8810035E-01
        2   -1    0    0  501    0  0.00000000000E+00  0.00000000000E+00  0.83808479032E+03  0.83808479033E+03  0.25500000920E-02 0.  1.
       -2   -1    0    0    0  501  0.00000000000E+00  0.00000000000E+00 -0.78017748005E+03  0.78017748005E+03  0.25500000920E-02 0. -1.
    10030    2    1    2    0    0  0.00000000000E+00  0.00000000000E+00  0.57907310278E+02  0.16182622704E+04  0.16172258714E+04 0.  0.
        2    1    3    3  502    0  0.19969321337E+02  0.80836396699E+03  0.27002316002E+02  0.80906130918E+03  0.25500000920E-02 0. -1.
       -2    1    3    3    0  502 -0.19969321337E+02 -0.80836396699E+03  0.30904994277E+02  0.80920096120E+03  0.25500000920E-02 0.  1.
</event>
<event>
 5   0  0.5315984E-04  0.1613845E+04  0.7818609E-02  0.8812087E-01
       -2   -1    0    0    0  501  0.00000000000E+00  0.00000000000E+00  0.51595756064E+03  0.51595756064E+03  0.25500000920E-02 0. -1.
        2   -1    0    0  501    0  0.00000000000E+00  0.00000000000E+00 -0.12619719853E+04  0.12619719853E+04  0.25500000920E-02 0.  1.
    10030    2    1    2    0    0  0.00000000000E+00  0.00000000000E+00 -0.74601442466E+03  0.17779295459E+04  0.16138450820E+04 0.  0.
        2    1    3    3  502    0  0.19269932416E+03 -0.21303734178E+03  0.45772000900E+03  0.54039387966E+03  0.25500000920E-02 0. -1.
       -2    1    3    3    0  502 -0.19269932416E+03  0.21303734178E+03 -0.12037344337E+04  0.12375356663E+04  0.25500000920E-02 0.  1.
</event>
<event>
 5   0  0.2763895E-04  0.1598246E+04  0.7818609E-02  0.8821627E-01
       -1   -1    0    0    0  501  0.00000000000E+00  0.00000000000E+00  0.99070625844E+03  0.99070625845E+03  0.50400001928E-02 0. -1.
        1   -1    0    0  501    0  0.00000000000E+00  0.00000000000E+00 -0.64458786058E+03  0.64458786060E+03  0.50400001928E-02 0.  1.
    10030    2    1    2    0    0  0.00000000000E+00  0.00000000000E+00  0.34611839786E+03  0.16352941190E+04  0.15982455726E+04 0.  0.
        4    1    3    3  502    0 -0.28668054938E+03  0.61855926837E+03  0.59960938938E+03  0.90792859775E+03  0.12699999809E+01 0. -1.
       -4    1    3    3    0  502  0.28668054938E+03 -0.61855926837E+03 -0.25349099152E+03  0.72736552129E+03  0.12699999809E+01 0.  1.
</event>
<event>
 5   0  0.2730707E-04  0.1610097E+04  0.7818609E-02  0.8814369E-01
       -1   -1    0    0    0  501  0.00000000000E+00  0.00000000000E+00  0.26097754079E+03  0.26097754084E+03  0.50400001928E-02 0. -1.
        1   -1    0    0  501    0  0.00000000000E+00  0.00000000000E+00 -0.24833670428E+04  0.24833670428E+04  0.50400001928E-02 0.  1.
    10030    2    1    2    0    0  0.00000000000E+00  0.00000000000E+00 -0.22223895020E+04  0.27443445836E+04  0.16100969210E+04 0.  0.
        5    1    3    3  502    0  0.60890664548E+03  0.75457677726E+02 -0.19995103939E+04  0.20915365331E+04  0.46999998093E+01 0.  1.
       -5    1    3    3    0  502 -0.60890664548E+03 -0.75457677726E+02 -0.22287910814E+03  0.65280805056E+03  0.46999998093E+01 0. -1.
</event>
<event>
 5   0  0.2649086E-04  0.1608720E+04  0.7818609E-02  0.8815209E-01
        1   -1    0    0  501    0  0.00000000000E+00  0.00000000000E+00  0.52197814535E+03  0.52197814537E+03  0.50400001928E-02 0. -1.
       -1   -1    0    0    0  501  0.00000000000E+00  0.00000000000E+00 -0.12395055063E+04  0.12395055064E+04  0.50400001928E-02 0.  1.
    10030    2    1    2    0    0  0.00000000000E+00  0.00000000000E+00 -0.71752736100E+03  0.17614836517E+04  0.16087197213E+04 0.  0.
        2    1    3    3  502    0  0.22496492478E+03 -0.47043207546E+03 -0.10293577975E+04  0.11539033886E+04  0.25500000920E-02 0.  1.
       -2    1    3    3    0  502 -0.22496492478E+03  0.47043207546E+03  0.31183043649E+03  0.60758026312E+03  0.25500000920E-02 0. -1.
</event>
<event>
 5   0  0.5264308E-04  0.1601174E+04  0.7818609E-02  0.8819827E-01
       -2   -1    0    0    0  501  0.00000000000E+00  0.00000000000E+00  0.84934168151E+03  0.84934168151E+03  0.25500000920E-02 0. -1.
        2   -1    0    0  501    0  0.00000000000E+00  0.00000000000E+00 -0.75463114298E+03  0.75463114298E+03  0.25500000920E-02 0.  1.
    10030    2    1    2    0    0  0.00000000000E+00  0.00000000000E+00  0.94710538530E+02  0.16039728245E+04  0.16011741740E+04 0.  0.
        3    1    3    3  502    0  0.48349260193E+03 -0.24326672393E+03 -0.54358757699E+03  0.76709273178E+03  0.10100000352E+00 0.  1.
       -3    1    3    3    0  502 -0.48349260193E+03  0.24326672393E+03  0.63829811552E+03  0.83688009271E+03  0.10100000352E+00 0. -1.
</event>
<event>
 5   0  0.2649086E-04  0.1571888E+04  0.7818609E-02  0.8838007E-01
       -1   -1    0    0    0  501  0.00000000000E+00  0.00000000000E+00  0.97219182738E+03  0.97219182740E+03  0.50400001928E-02 0. -1.
        1   -1    0    0  501    0  0.00000000000E+00  0.00000000000E+00 -0.63537661840E+03  0.63537661842E+03  0.50400001928E-02 0.  1.
    10030    2    1    2    0    0  0.00000000000E+00  0.00000000000E+00  0.33681520899E+03  0.16075684458E+04  0.15718879804E+04 0.  0.
        2    1    3    3  502    0 -0.30178004124E+03  0.15956457513E+03 -0.55559974241E+03  0.65209134383E+03  0.25500000920E-02 0.  1.
       -2    1    3    3    0  502  0.30178004124E+03 -0.15956457513E+03  0.89241495140E+03  0.95547710198E+03  0.25500000920E-02 0. -1.
</event>
<event>
 5   0  0.2689675E-04  0.1620658E+04  0.7818609E-02  0.8807956E-01
       -1   -1    0    0    0  501  0.00000000000E+00  0.00000000000E+00  0.39846322402E+03  0.39846322405E+03  0.50400001928E-02 0.  1.
        1   -1    0    0  501    0  0.00000000000E+00  0.00000000000E+00 -0.16479142840E+04  0.16479142840E+04  0.50400001928E-02 0. -1.
    10030    2    1    2    0    0  0.00000000000E+00  0.00000000000E+00 -0.12494510599E+04  0.20463775080E+04  0.16206581855E+04 0.  0.
        1    1    3    3  502    0 -0.19407164770E+03 -0.67804544256E+03 -0.11285721334E+04  0.13308209823E+04  0.50400001928E-02 0. -1.
       -1    1    3    3    0  502  0.19407164770E+03  0.67804544256E+03 -0.12087892658E+03  0.71555652575E+03  0.50400001928E-02 0.  1.
</event>
<event>
 5   0  0.5131239E-04  0.1625007E+04  0.7818609E-02  0.8805331E-01
        2   -1    0    0  501    0  0.00000000000E+00  0.00000000000E+00  0.20941304933E+04  0.20941304933E+04  0.25500000920E-02 0. -1.
       -2   -1    0    0    0  501  0.00000000000E+00  0.00000000000E+00 -0.31524405744E+03  0.31524405745E+03  0.25500000920E-02 0.  1.
    10030    2    1    2    0    0  0.00000000000E+00  0.00000000000E+00  0.17788864359E+04  0.24093745507E+04  0.16250073151E+04 0.  0.
        1    1    3    3  502    0  0.11651084032E+03  0.37286542833E+03  0.19457551244E+04  0.19845821746E+04  0.50400001928E-02 0. -1.
       -1    1    3    3    0  502 -0.11651084032E+03 -0.37286542833E+03 -0.16686868857E+03  0.42479237612E+03  0.50400001928E-02 0.  1.
</event>
<event>
 5   0  0.1908125E-04  0.1589366E+04  0.7818609E-02  0.8827107E-01
       -3   -1    0    0    0  501  0.00000000000E+00  0.00000000000E+00  0.79622470907E+03  0.79622471548E+03  0.10100000352E+00 0. -1.
        3   -1    0    0  501    0  0.00000000000E+00  0.00000000000E+00 -0.79314453494E+03  0.79314454137E+03  0.10100000352E+00 0.  1.
    10030    2    1    2    0    0  0.00000000000E+00  0.00000000000E+00  0.30801741335E+01  0.15893692569E+04  0.15893662722E+04 0.  0.
        2    1    3    3  502    0  0.44260968327E+03  0.64938885889E+03 -0.11640955157E+03  0.79445604377E+03  0.25500000920E-02 0.  1.
       -2    1    3    3    0  502 -0.44260968327E+03 -0.64938885889E+03  0.11948972570E+03  0.79491321308E+03  0.25500000920E-02 0. -1.
</event>
<event>
 5   0  0.2730707E-04  0.1577485E+04  0.7818609E-02  0.8834500E-01
        1   -1    0    0  501    0  0.00000000000E+00  0.00000000000E+00  0.13023242708E+04  0.13023242708E+04  0.50400001928E-02 0. -1.
       -1   -1    0    0    0  501  0.00000000000E+00  0.00000000000E+00 -0.47769576079E+03  0.47769576081E+03  0.50400001928E-02 0.  1.
    10030    2    1    2    0    0  0.00000000000E+00  0.00000000000E+00  0.82462851003E+03  0.17800200316E+04  0.15774850660E+04 0.  0.
        5    1    3    3  502    0 -0.38339654273E+03  0.99601547013E+02 -0.35729420168E+03  0.53347409843E+03  0.46999998093E+01 0.  1.
       -5    1    3    3    0  502  0.38339654273E+03 -0.99601547013E+02  0.11819227117E+04  0.12465459332E+04  0.46999998093E+01 0. -1.
</event>
<event>
 5   0  0.5315984E-04  0.1598903E+04  0.7818609E-02  0.8821222E-01
       -2   -1    0    0    0  501  0.00000000000E+00  0.00000000000E+00  0.25221906689E+03  0.25221906690E+03  0.25500000920E-02 0.  1.
        2   -1    0    0  501    0  0.00000000000E+00  0.00000000000E+00 -0.25339985498E+04  0.25339985498E+04  0.25500000920E-02 0. -1.
    10030    2    1    2    0    0  0.00000000000E+00  0.00000000000E+00 -0.22817794829E+04  0.27862176167E+04  0.15989030612E+04 0.  0.
        2    1    3    3  502    0 -0.17107139712E+03  0.14136022042E+03 -0.24792491406E+04  0.24891613922E+04  0.25500000920E-02 0. -1.
       -2    1    3    3    0  502  0.17107139712E+03 -0.14136022042E+03  0.19746965772E+03  0.29705622456E+03  0.25500000920E-02 0.  1.
</event>
<event>
 5   0  0.5315984E-04  0.1606023E+04  0.7818609E-02  0.8816856E-01
        2   -1    0    0  501    0  0.00000000000E+00  0.00000000000E+00  0.88587614279E+03  0.88587614279E+03  0.25500000920E-02 0. -1.
       -2   -1    0    0    0  501  0.00000000000E+00  0.00000000000E+00 -0.72789804790E+03  0.72789804790E+03  0.25500000920E-02 0.  1.
    10030    2    1    2    0    0  0.00000000000E+00  0.00000000000E+00  0.15797809489E+03  0.16137741907E+04  0.16060230571E+04 0.  0.
        2    1    3    3  502    0  0.61393555962E+03 -0.51743630997E+03  0.92102271883E+02  0.80817079552E+03  0.25500000920E-02 0.  1.
       -2    1    3    3    0  502 -0.61393555962E+03  0.51743630997E+03  0.65875823009E+02  0.80560339517E+03  0.25500000920E-02 0. -1.
</event>
<event>
 5   0  0.2796994E-04  0.1592282E+04  0.7818609E-02  0.8825304E-01
        1   -1    0    0  501    0  0.00000000000E+00  0.00000000000E+00  0.90956338192E+03  0.90956338193E+03  0.50400001928E-02 0. -1.
       -1   -1    0    0    0  501  0.00000000000E+00  0.00000000000E+00 -0.69686207108E+03  0.69686207110E+03  0.50400001928E-02 0.  1.
    10030    2    1    2    0    0  0.00000000000E+00  0.00000000000E+00  0.21270131084E+03  0.16064254530E+04  0.15922816612E+04 0.  0.
        3    1    3    3  502    0 -0.51784789585E+03 -0.56197212306E+03  0.33163012665E+03  0.83304121233E+03  0.10100000352E+00 0. -1.
       -3    1    3    3    0  502  0.51784789585E+03  0.56197212306E+03 -0.11892881581E+03  0.77338424070E+03  0.10100000352E+00 0.  1.
</event>
<event>
 5   0  0.5381164E-04  0.1506269E+04  0.7818609E-02  0.8880295E-01
       -2   -1    0    0    0  501  0.00000000000E+00  0.00000000000E+00  0.20051524412E+03  0.20051524414E+03  0.25500000920E-02 0. -1.
        2   -1    0    0  501    0  0.00000000000E+00  0.00000000000E+00 -0.28287704984E+04  0.28287704984E+04  0.25500000920E-02 0.  1.
    10030    2    1    2    0    0  0.00000000000E+00  0.00000000000E+00 -0.26282552542E+04  0.30292857425E+04  0.15062690425E+04 0.  0.
        5    1    3    3  502    0 -0.70640753122E+03  0.23245297178E+03 -0.15533031003E+04  0.17221552182E+04  0.46999998093E+01 0.  1.
       -5    1    3    3    0  502  0.70640753122E+03 -0.23245297178E+03 -0.10749521540E+04  0.13071305243E+04  0.46999998093E+01 0. -1.
</event>
<event>
 5   0  0.2763895E-04  0.1592635E+04  0.7818609E-02  0.8825086E-01
        1   -1    0    0  501    0  0.00000000000E+00  0.00000000000E+00  0.13726132433E+04  0.13726132433E+04  0.50400001928E-02 0.  1.
       -1   -1    0    0    0  501  0.00000000000E+00  0.00000000000E+00 -0.46198111374E+03  0.46198111377E+03  0.50400001928E-02 0. -1.
    10030    2    1    2    0    0  0.00000000000E+00  0.00000000000E+00  0.91063212952E+03  0.18345943570E+04  0.15926347916E+04 0.  0.
        4    1    3    3  502    0 -0.36746926058E+03  0.52925608453E+02 -0.35618562975E+03  0.51449450263E+03  0.12699999809E+01 0. -1.
       -4    1    3    3    0  502  0.36746926058E+03 -0.52925608453E+02  0.12668177593E+04  0.13200998544E+04  0.12699999809E+01 0.  1.
</event>
<event>
 5   0  0.5315984E-04  0.1573904E+04  0.7818609E-02  0.8836742E-01
        2   -1    0    0  501    0  0.00000000000E+00  0.00000000000E+00  0.17256226685E+04  0.17256226685E+04  0.25500000920E-02 0. -1.
       -2   -1    0    0    0  501  0.00000000000E+00  0.00000000000E+00 -0.35888109215E+03  0.35888109216E+03  0.25500000920E-02 0.  1.
    10030    2    1    2    0    0  0.00000000000E+00  0.00000000000E+00  0.13667415764E+04  0.20845037607E+04  0.15739038699E+04 0.  0.
        2    1    3    3  502    0  0.63383081667E+03  0.15417455516E+03  0.12663878347E+04  0.14245172676E+04  0.25500000920E-02 0. -1.
       -2    1    3    3    0  502 -0.63383081667E+03 -0.15417455516E+03  0.10035374162E+03  0.65998649311E+03  0.25500000920E-02 0.  1.
</event>
<event>
 5   0  0.2730707E-04  0.1622661E+04  0.7818609E-02  0.8806746E-01
       -1   -1    0    0    0  501  0.00000000000E+00  0.00000000000E+00  0.39208299444E+03  0.39208299448E+03  0.50400001928E-02 0.  1.
        1   -1    0    0  501    0  0.00000000000E+00  0.00000000000E+00 -0.16788719147E+04  0.16788719147E+04  0.50400001928E-02 0. -1.
    10030    2    1    2    0    0  0.00000000000E+00  0.00000000000E+00 -0.12867889203E+04  0.20709549092E+04  0.16226609352E+04 0.  0.
        5    1    3    3  502    0 -0.67284027271E+03 -0.32285500133E+03 -0.10495728642E+04  0.12878566192E+04  0.46999998093E+01 0. -1.
       -5    1    3    3    0  502  0.67284027271E+03  0.32285500133E+03 -0.23721605606E+03  0.78309828995E+03  0.46999998093E+01 0.  1.
</event>
<event>
 5   0  0.1908125E-04  0.1635709E+04  0.7818609E-02  0.8798906E-01
       -3   -1    0    0    0  501  0.00000000000E+00  0.00000000000E+00  0.33348211249E+03  0.33348212778E+03  0.10100000352E+00 0. -1.
        3   -1    0    0  501    0  0.00000000000E+00  0.00000000000E+00 -0.20057632393E+04  0.20057632418E+04  0.10100000352E+00 0.  1.
    10030    2    1    2    0    0  0.00000000000E+00  0.00000000000E+00 -0.16722811268E+04  0.23392453696E+04  0.16357092444E+04 0.  0.
        2    1    3    3  502    0 -0.36098877100E+03  0.69025772861E+03 -0.47970842296E+03  0.91481626339E+03  0.25500000920E-02 0. -1.
       -2    1    3    3    0  502  0.36098877100E+03 -0.69025772861E+03 -0.11925727038E+04  0.14244291062E+04  0.25500000920E-02 0.  1.
</event>
<event>
 5   0  0.2649086E-04  0.1621921E+04  0.7818609E-02  0.8807193E-01
       -1   -1    0    0    0  501  0.00000000000E+00  0.00000000000E+00  0.57061771380E+03  0.57061771382E+03  0.50400001928E-02 0. -1.
        1   -1    0    0  501    0  0.00000000000E+00  0.00000000000E+00 -0.11525355461E+04  0.11525355461E+04  0.50400001928E-02 0.  1.
    10030    2    1    2    0    0  0.00000000000E+00  0.00000000000E+00 -0.58191783234E+03  0.17231532600E+04  0.16219213279E+04 0.  0.
        2    1    3    3  502    0  0.52979669765E+03 -0.79700298833E+02 -0.93774229651E+03  0.10799987468E+04  0.25500000920E-02 0.  1.
       -2    1    3    3    0  502 -0.52979669765E+03  0.79700298833E+02  0.35582446417E+03  0.64315451315E+03  0.25500000920E-02 0. -1.
</event>
<event>
 5   0  0.2730707E-04  0.1578815E+04  0.7818609E-02  0.8833669E-01
       -1   -1    0    0    0  501  0.00000000000E+00  0.00000000000E+00  0.74841362469E+03  0.74841362471E+03  0.50400001928E-02 0.  1.
        1   -1    0    0  501    0  0.00000000000E+00  0.00000000000E+00 -0.83264676386E+03  0.83264676388E+03  0.50400001928E-02 0. -1.
    10030    2    1    2    0    0  0.00000000000E+00  0.00000000000E+00 -0.84233139168E+02  0.15810603886E+04  0.15788149767E+04 0.  0.
        5    1    3    3  502    0  0.59015348155E+03  0.19088902658E+03 -0.53109611679E+03  0.81658124367E+03  0.46999998093E+01 0. -1.
       -5    1    3    3    0  502 -0.59015348155E+03 -0.19088902658E+03  0.44686297762E+03  0.76447914492E+03  0.46999998093E+01 0.  1.
</event>
<event>
 5   0  0.5315984E-04  0.1600907E+04  0.7818609E-02  0.8819991E-01
        2   -1    0    0  501    0  0.00000000000E+00  0.00000000000E+00  0.55470804722E+03  0.55470804723E+03  0.25500000920E-02 0.  1.
       -2   -1    0    0    0  501  0.00000000000E+00  0.00000000000E+00 -0.11550678141E+04  0.11550678141E+04  0.25500000920E-02 0. -1.
    10030    2    1    2    0    0  0.00000000000E+00  0.00000000000E+00 -0.60035976684E+03  0.17097758613E+04  0.16009065076E+04 0.  0.
        2    1    3    3  502    0 -0.27142731792E+03  0.65742934262E+03 -0.69235625777E+03  0.99259423590E+03  0.25500000920E-02 0. -1.
       -2    1    3    3    0  502  0.27142731792E+03 -0.65742934262E+03  0.91996490930E+02  0.71718162539E+03  0.25500000920E-02 0.  1.
</event>
<event>
 5   0  0.5315984E-04  0.1612319E+04  0.7818609E-02  0.8813015E-01
        2   -1    0    0  501    0  0.00000000000E+00  0.00000000000E+00  0.10608868787E+04  0.10608868787E+04  0.25500000920E-02 0.  1.
       -2   -1    0    0    0  501  0.00000000000E+00  0.00000000000E+00 -0.61259455397E+03  0.61259455397E+03  0.25500000920E-02 0. -1.
    10030    2    1    2    0    0  0.00000000000E+00  0.00000000000E+00  0.44829232477E+03  0.16734814327E+04  0.16123194774E+04 0.  0.
        2    1    3    3  502    0  0.55695573390E+03  0.58277608829E+03  0.23256979429E+03  0.83899723946E+03  0.25500000920E-02 0.  1.
       -2    1    3    3    0  502 -0.55695573390E+03 -0.58277608829E+03  0.21572253048E+03  0.83448419324E+03  0.25500000920E-02 0. -1.
</event>
<event>
 5   0  0.2763895E-04  0.1590273E+04  0.7818609E-02  0.8826546E-01
        1   -1    0    0  501    0  0.00000000000E+00  0.00000000000E+00  0.13067917138E+04  0.13067917138E+04  0.50400001928E-02 0. -1.
       -1   -1    0    0    0  501  0.00000000000E+00  0.00000000000E+00 -0.48381248471E+03  0.48381248474E+03  0.50400001928E-02 0.  1.
    10030    2    1    2    0    0  0.00000000000E+00  0.00000000000E+00  0.82297922911E+03  0.17906041986E+04  0.15902731163E+04 0.  0.
        4    1    3    3  502    0 -0.15506824542E+03  0.60591520047E+03  0.96431946667E+03  0.11493881144E+04  0.12699999809E+01 0. -1.
       -4    1    3    3    0  502  0.15506824542E+03 -0.60591520047E+03 -0.14134023756E+03  0.64121608414E+03  0.12699999809E+01 0.  1.
</event>
<event>
 5   0  0.5083831E-04  0.1590871E+04  0.7818609E-02  0.8826176E-01
        2   -1    0    0  501    0  0.00000000000E+00  0.00000000000E+00  0.10231493245E+04  0.10231493245E+04  0.25500000920E-02 0. -1.
       -2   -1    0    0    0  501  0.00000000000E+00  0.00000000000E+00 -0.61840203616E+03  0.61840203617E+03  0.25500000920E-02 0.  1.
    10030    2    1    2    0    0  0.00000000000E+00  0.00000000000E+00  0.40474728831E+03  0.16415513606E+04  0.15908709886E+04 0.  0.
        4    1    3    3  502    0 -0.36682079451E+03 -0.91243779940E+02  0.92455051201E+03  0.99883841777E+03  0.12699999809E+01 0. -1.
       -4    1    3    3    0  502  0.36682079451E+03  0.91243779940E+02 -0.51980322370E+03  0.64271294287E+03  0.12699999809E+01 0.  1.
</event>
<event>
 5   0  0.1908125E-04  0.1602871E+04  0.7818609E-02  0.8818786E-01
       -3   -1    0    0    0  501  0.00000000000E+00  0.00000000000E+00  0.82303037806E+03  0.82303038426E+03  0.10100000352E+00 0. -1.
        3   -1    0    0  501    0  0.00000000000E+00  0.00000000000E+00 -0.78040682474E+03  0.78040683127E+03  0.10100000352E+00 0.  1.
    10030    2    1    2    0    0  0.00000000000E+00  0.00000000000E+00  0.42623553321E+02  0.16034372155E+04  0.16028705927E+04 0.  0.
        3    1    3    3  502    0  0.27950585002E+03  0.40941367218E+02 -0.72895255736E+03  0.78177462023E+03  0.10100000352E+00 0.  1.
       -3    1    3    3    0  502 -0.27950585002E+03 -0.40941367218E+02  0.77157611068E+03  0.82166259530E+03  0.10100000352E+00 0. -1.
</event>
<event>
 5   0  0.1908125E-04  0.1588470E+04  0.7818609E-02  0.8827663E-01
        3   -1    0    0  501    0  0.00000000000E+00  0.00000000000E+00  0.24535139053E+04  0.24535139074E+04  0.10100000352E+00 0. -1.
       -3   -1    0    0    0  501  0.00000000000E+00  0.00000000000E+00 -0.25710432588E+03  0.25710434572E+03  0.10100000352E+00 0.  1.
    10030    2    1    2    0    0  0.00000000000E+00  0.00000000000E+00  0.21964095794E+04  0.27106182531E+04  0.15884697899E+04 0.  0.
        2    1    3    3  502    0 -0.19757798889E+03  0.29491207679E+03  0.23106122148E+04  0.23377208991E+04  0.25500000920E-02 0. -1.
       -2    1    3    3    0  502  0.19757798889E+03 -0.29491207679E+03 -0.11420263536E+03  0.37289735405E+03  0.25500000920E-02 0.  1.
</event>
<event>
 5   0  0.2796994E-04  0.1611967E+04  0.7818609E-02  0.8813230E-01
       -1   -1    0    0    0  501  0.00000000000E+00  0.00000000000E+00  0.64659148681E+03  0.64659148683E+03  0.50400001928E-02 0.  1.
        1   -1    0    0  501    0  0.00000000000E+00  0.00000000000E+00 -0.10046678136E+04  0.10046678136E+04  0.50400001928E-02 0. -1.
    10030    2    1    2    0    0  0.00000000000E+00  0.00000000000E+00 -0.35807632677E+03  0.16512593004E+04  0.16119673140E+04 0.  0.
        3    1    3    3  502    0 -0.77961071627E+03  0.19191708886E+03 -0.25136084440E+03  0.84131285633E+03  0.10100000352E+00 0. -1.
       -3    1    3    3    0  502  0.77961071627E+03 -0.19191708886E+03 -0.10671548237E+03  0.80994644409E+03  0.10100000352E+00 0.  1.
</event>
<event>
 5   0  0.5315984E-04  0.1602212E+04  0.7818609E-02  0.8819191E-01
        2   -1    0    0  501    0  0.00000000000E+00  0.00000000000E+00  0.12345168729E+04  0.12345168729E+04  0.25500000920E-02 0.  1.
       -2   -1    0    0    0  501  0.00000000000E+00  0.00000000000E+00 -0.51985557255E+03  0.51985557255E+03  0.25500000920E-02 0. -1.
    10030    2    1    2    0    0  0.00000000000E+00  0.00000000000E+00  0.71466130035E+03  0.17543724455E+04  0.16022115663E+04 0.  0.
        2    1    3    3  502    0 -0.46367064804E+03 -0.13781704278E+03  0.10565578926E+04  0.11620234884E+04  0.25500000920E-02 0.  1.
       -2    1    3    3    0  502  0.46367064804E+03  0.13781704278E+03 -0.34189659226E+03  0.59234895706E+03  0.25500000920E-02 0. -1.
</event>
<event>
 5   0  0.2689675E-04  0.1590582E+04  0.7818609E-02  0.8826355E-01
        1   -1    0    0  501    0  0.00000000000E+00  0.00000000000E+00  0.97333774683E+03  0.97333774684E+03  0.50400001928E-02 0. -1.
       -1   -1    0    0    0  501  0.00000000000E+00  0.00000000000E+00 -0.64981314251E+03  0.64981314253E+03  0.50400001928E-02 0.  1.
    10030    2    1    2    0    0  0.00000000000E+00  0.00000000000E+00  0.32352460432E+03  0.16231508894E+04  0.15905818558E+04 0.  0.
        1    1    3    3  502    0  0.39426654528E+03  0.17041288756E+03 -0.52127175881E+03  0.67543386614E+03  0.50400001928E-02 0.  1.
       -1    1    3    3    0  502 -0.39426654528E+03 -0.17041288756E+03  0.84479636312E+03  0.94771702324E+03  0.50400001928E-02 0. -1.
</event>
<event>
 5   0  0.5315984E-04  0.1524464E+04  0.7818609E-02  0.8868345E-01
       -2   -1    0    0    0  501  0.00000000000E+00  0.00000000000E+00  0.87972767983E+03  0.87972767983E+03  0.25500000920E-02 0.  1.
        2   -1    0    0  501    0  0.00000000000E+00  0.00000000000E+00 -0.66042932778E+03  0.66042932778E+03  0.25500000920E-02 0. -1.
    10030    2    1    2    0    0  0.00000000000E+00  0.00000000000E+00  0.21929835205E+03  0.15401570076E+04  0.15244644440E+04 0.  0.
        2    1    3    3  502    0  0.15512160905E+03 -0.73483166765E+03  0.24121126057E+03  0.78881123573E+03  0.25500000920E-02 0.  1.
       -2    1    3    3    0  502 -0.15512160905E+03  0.73483166765E+03 -0.21912908525E+02  0.75134577189E+03  0.25500000920E-02 0. -1.
</event>
<event>
 5   0  0.5315984E-04  0.1596605E+04  0.7818609E-02  0.8822637E-01
        2   -1    0    0  501    0  0.00000000000E+00  0.00000000000E+00  0.84447555204E+03  0.84447555204E+03  0.25500000920E-02 0.  1.
       -2   -1    0    0    0  501  0.00000000000E+00  0.00000000000E+00 -0.75465358790E+03  0.75465358790E+03  0.25500000920E-02 0. -1.
    10030    2    1    2    0    0  0.00000000000E+00  0.00000000000E+00  0.89821964139E+02  0.15991291399E+04  0.15966045287E+04 0.  0.
        2    1    3    3  502    0 -0.15692527674E+03  0.28390363405E+03  0.77548859282E+03  0.84060060284E+03  0.25500000920E-02 0.  1.
       -2    1    3    3    0  502  0.15692527674E+03 -0.28390363405E+03 -0.68566662868E+03  0.75852853710E+03  0.25500000920E-02 0. -1.
</event>
<event>
 5   0  0.2796994E-04  0.1591134E+04  0.7818609E-02  0.8826013E-01
       -1   -1    0    0    0  501  0.00000000000E+00  0.00000000000E+00  0.69896508389E+03  0.69896508391E+03  0.50400001928E-02 0. -1.
        1   -1    0    0  501    0  0.00000000000E+00  0.00000000000E+00 -0.90552011189E+03  0.90552011190E+03  0.50400001928E-02 0.  1.
    10030    2    1    2    0    0  0.00000000000E+00  0.00000000000E+00 -0.20655502799E+03  0.16044851958E+04  0.15911341125E+04 0.  0.
        3    1    3    3  502    0 -0.31818839204E+03 -0.44877295616E+03 -0.68280488481E+03  0.87684864140E+03  0.10100000352E+00 0.  1.
       -3    1    3    3    0  502  0.31818839204E+03  0.44877295616E+03  0.47624985681E+03  0.72763655442E+03  0.10100000352E+00 0. -1.
</event>
<event>
 5   0  0.2689675E-04  0.1734963E+04  0.7818609E-02  0.8741671E-01
        1   -1    0    0  501    0  0.00000000000E+00  0.00000000000E+00  0.10126188635E+04  0.10126188635E+04  0.50400001928E-02 0. -1.
       -1   -1    0    0    0  501  0.00000000000E+00  0.00000000000E+00 -0.74314660493E+03  0.74314660495E+03  0.50400001928E-02 0.  1.
    10030    2    1    2    0    0  0.00000000000E+00  0.00000000000E+00  0.26947225857E+03  0.17557654685E+04  0.17349631357E+04 0.  0.
        1    1    3    3  502    0 -0.75941972564E+03  0.35066632409E+03 -0.97887525900E+02  0.84218000349E+03  0.50400001928E-02 0.  1.
       -1    1    3    3    0  502  0.75941972564E+03 -0.35066632409E+03  0.36735978448E+03  0.91358546497E+03  0.50400001928E-02 0. -1.
</event>
<event>
 5   0  0.2796994E-04  0.1594228E+04  0.7818609E-02  0.8824102E-01
       -1   -1    0    0    0  501  0.00000000000E+00  0.00000000000E+00  0.90817406041E+03  0.90817406042E+03  0.50400001928E-02 0. -1.
        1   -1    0    0  501    0  0.00000000000E+00  0.00000000000E+00 -0.69963549357E+03  0.69963549359E+03  0.50400001928E-02 0.  1.
    10030    2    1    2    0    0  0.00000000000E+00  0.00000000000E+00  0.20853856683E+03  0.16078095540E+04  0.15942280979E+04 0.  0.
        3    1    3    3  502    0  0.54969159224E+03 -0.57699214801E+03  0.12202642136E+03  0.80620794039E+03  0.10100000352E+00 0.  1.
       -3    1    3    3    0  502 -0.54969159224E+03  0.57699214801E+03  0.86512145468E+02  0.80160161362E+03  0.10100000352E+00 0. -1.
</event>
<event>
 5   0  0.1908125E-04  0.1625609E+04  0.7818609E-02  0.8804968E-01
       -3   -1    0    0    0  501  0.00000000000E+00  0.00000000000E+00  0.71271277611E+03  0.71271278326E+03  0.10100000352E+00 0.  1.
        3   -1    0    0  501    0  0.00000000000E+00  0.00000000000E+00 -0.92695340729E+03  0.92695341279E+03  0.10100000352E+00 0. -1.
    10030    2    1    2    0    0  0.00000000000E+00  0.00000000000E+00 -0.21424063118E+03  0.16396661961E+04  0.16256094815E+04 0.  0.
        1    1    3    3  502    0  0.78423216823E+02  0.28277181336E+03  0.65741913745E+03  0.71993751234E+03  0.50400001928E-02 0.  1.
       -1    1    3    3    0  502 -0.78423216823E+02 -0.28277181336E+03 -0.87165976863E+03  0.91972868371E+03  0.50400001928E-02 0. -1.
</event>
<event>
 5   0  0.2763895E-04  0.1591082E+04  0.7818609E-02  0.8826045E-01
        1   -1    0    0  501    0  0.00000000000E+00  0.00000000000E+00  0.31473891465E+03  0.31473891469E+03  0.50400001928E-02 0. -1.
       -1   -1    0    0    0  501  0.00000000000E+00  0.00000000000E+00 -0.20108280247E+04  0.20108280247E+04  0.50400001928E-02 0.  1.
    10030    2    1    2    0    0  0.00000000000E+00  0.00000000000E+00 -0.16960891100E+04  0.23255669394E+04  0.15910824367E+04 0.  0.
        4    1    3    3  502    0 -0.54843153584E+03  0.14170385187E+03 -0.31589446562E+02  0.56732410241E+03  0.12699999809E+01 0. -1.
       -4    1    3    3    0  502  0.54843153584E+03 -0.14170385187E+03 -0.16644996635E+04  0.17582428370E+04  0.12699999809E+01 0.  1.
</event>
<event>
 5   0  0.2763895E-04  0.1605917E+04  0.7818609E-02  0.8816921E-01
       -1   -1    0    0    0  501  0.00000000000E+00  0.00000000000E+00  0.88511240216E+03  0.88511240217E+03  0.50400001928E-02 0. -1.
        1   -1    0    0  501    0  0.00000000000E+00  0.00000000000E+00 -0.72843018228E+03  0.72843018230E+03  0.50400001928E-02 0.  1.
    10030    2    1    2    0    0  0.00000000000E+00  0.00000000000E+00  0.15668221988E+03  0.16135425845E+04  0.16059172936E+04 0.  0.
        4    1    3    3  502    0 -0.75016642459E+02  0.79943784658E+03  0.81908797295E+02  0.80711773068E+03  0.12699999809E+01 0.  1.
       -4    1    3    3    0  502  0.75016642459E+02 -0.79943784658E+03  0.74773422581E+02  0.80642485380E+03  0.12699999809E+01 0. -1.
</event>
<event>
 5   0  0.5131239E-04  0.1599094E+04  0.7818609E-02  0.8821105E-01
        2   -1    0    0  501    0  0.00000000000E+00  0.00000000000E+00  0.11264673600E+04  0.11264673600E+04  0.25500000920E-02 0. -1.
       -2   -1    0    0    0  501  0.00000000000E+00  0.00000000000E+00 -0.56750465224E+03  0.56750465224E+03  0.25500000920E-02 0.  1.
    10030    2    1    2    0    0  0.00000000000E+00  0.00000000000E+00  0.55896270774E+03  0.16939720122E+04  0.15990940778E+04 0.  0.
        1    1    3    3  502    0  0.62674312714E+03  0.12505806185E+03 -0.22947132179E+03  0.67904606162E+03  0.50400001928E-02 0.  1.
       -1    1    3    3    0  502 -0.62674312714E+03 -0.12505806185E+03  0.78843402953E+03  0.10149259506E+04  0.50400001928E-02 0. -1.
</event>
<event>
 5   0  0.5264308E-04  0.1593578E+04  0.7818609E-02  0.8824503E-01
        2   -1    0    0  501    0  0.00000000000E+00  0.00000000000E+00  0.13621627312E+04  0.13621627312E+04  0.25500000920E-02 0. -1.
       -2   -1    0    0    0  501  0.00000000000E+00  0.00000000000E+00 -0.46607699275E+03  0.46607699275E+03  0.25500000920E-02 0.  1.
    10030    2    1    2    0    0  0.00000000000E+00  0.00000000000E+00  0.89608573849E+03  0.18282397240E+04  0.15935779986E+04 0.  0.
        3    1    3    3  502    0  0.11798824631E+03  0.39413702801E+03 -0.33479132685E+03  0.53042479755E+03  0.10100000352E+00 0.  1.
       -3    1    3    3    0  502 -0.11798824631E+03 -0.39413702801E+03  0.12308770653E+04  0.12978149264E+04  0.10100000352E+00 0. -1.
</event>
<event>
 5   0  0.1908125E-04  0.1615509E+04  0.7818609E-02  0.8811077E-01
       -3   -1    0    0    0  501  0.00000000000E+00  0.00000000000E+00  0.70944564249E+03  0.70944564968E+03  0.10100000352E+00 0. -1.
        3   -1    0    0  501    0  0.00000000000E+00  0.00000000000E+00 -0.91968560757E+03  0.91968561311E+03  0.10100000352E+00 0.  1.
    10030    2    1    2    0    0  0.00000000000E+00  0.00000000000E+00 -0.21023996508E+03  0.16291312628E+04  0.16155085356E+04 0.  0.
        2    1    3    3  502    0  0.81311199548E+01 -0.51973015824E+03 -0.72862278147E+03  0.89502888790E+03  0.25500000920E-02 0.  1.
       -2    1    3    3    0  502 -0.81311199548E+01  0.51973015824E+03  0.51838281638E+03  0.73410237489E+03  0.25500000920E-02 0. -1.
</event>
<event>
 5   0  0.5315984E-04  0.1583952E+04  0.7818609E-02  0.8830468E-01
       -2   -1    0    0    0  501  0.00000000000E+00  0.00000000000E+00  0.48992675887E+03  0.48992675888E+03  0.25500000920E-02 0. -1.
        2   -1    0    0  501    0  0.00000000000E+00  0.00000000000E+00 -0.12802441269E+04  0.12802441269E+04  0.25500000920E-02 0.  1.
    10030    2    1    2    0    0  0.00000000000E+00  0.00000000000E+00 -0.79031736801E+03  0.17701708858E+04  0.15839518372E+04 0.  0.
        2    1    3    3  502    0 -0.65091217948E+03  0.20871767539E+03 -0.84215176867E+03  0.10846517113E+04  0.25500000920E-02 0.  1.
       -2    1    3    3    0  502  0.65091217948E+03 -0.20871767539E+03  0.51834400653E+02  0.68551917443E+03  0.25500000920E-02 0. -1.
</event>
<event>
 5   0  0.5083831E-04  0.1598156E+04  0.7818609E-02  0.8821682E-01
        2   -1    0    0  501    0  0.00000000000E+00  0.00000000000E+00  0.94326359817E+03  0.94326359818E+03  0.25500000920E-02 0.  1.
       -2   -1    0    0    0  501  0.00000000000E+00  0.00000000000E+00 -0.67693228772E+03  0.67693228772E+03  0.25500000920E-02 0. -1.
    10030    2    1    2    0    0  0.00000000000E+00  0.00000000000E+00  0.26633131046E+03  0.16201958859E+04  0.15981559191E+04 0.  0.
        4    1    3    3  502    0 -0.32973602158E+03 -0.13085145945E+03 -0.59272278657E+03  0.69077482799E+03  0.12699999809E+01 0. -1.
       -4    1    3    3    0  502  0.32973602158E+03  0.13085145945E+03  0.85905409703E+03  0.92942105791E+03  0.12699999809E+01 0.  1.
</event>
<event>
 5   0  0.2763895E-04  0.1607768E+04  0.7818609E-02  0.8815790E-01
       -1   -1    0    0    0  501  0.00000000000E+00  0.00000000000E+00  0.36372009410E+03  0.36372009414E+03  0.50400001928E-02 0. -1.
        1   -1    0    0  501    0  0.00000000000E+00  0.00000000000E+00 -0.17767220494E+04  0.17767220494E+04  0.50400001928E-02 0.  1.
    10030    2    1    2    0    0  0.00000000000E+00  0.00000000000E+00 -0.14130019553E+04  0.21404421436E+04  0.16077680318E+04 0.  0.
        4    1    3    3  502    0 -0.61736428561E+03 -0.35315241786E+03 -0.12052950534E+04  0.13994974348E+04  0.12699999809E+01 0. -1.
       -4    1    3    3    0  502  0.61736428561E+03  0.35315241786E+03 -0.20770690189E+03  0.74094470873E+03  0.12699999809E+01 0.  1.
</event>
<event>
 5   0  0.5381164E-04  0.1590136E+04  0.7818609E-02  0.8826631E-01
        2   -1    0    0  501    0  0.00000000000E+00  0.00000000000E+00  0.92442603539E+03  0.92442603539E+03  0.25500000920E-02 0. -1.
       -2   -1    0    0    0  501  0.00000000000E+00  0.00000000000E+00 -0.68381146216E+03  0.68381146217E+03  0.25500000920E-02 0.  1.
    10030    2    1    2    0    0  0.00000000000E+00  0.00000000000E+00  0.24061457322E+03  0.16082374976E+04  0.15901359928E+04 0.  0.
        5    1    3    3  502    0  0.77635647191E+03 -0.98570895810E+02 -0.21522583500E+02  0.78289903856E+03  0.46999998093E+01 0. -1.
       -5    1    3    3    0  502 -0.77635647191E+03  0.98570895810E+02  0.26213715672E+03  0.82533845900E+03  0.46999998093E+01 0.  1.
</event>
<event>
 5   0  0.5264308E-04  0.1543864E+04  0.7818609E-02  0.8855797E-01
       -2   -1    0    0    0  501  0.00000000000E+00  0.00000000000E+00  0.53281458759E+03  0.53281458759E+03  0.25500000920E-02 0.  1.
        2   -1    0    0  501    0  0.00000000000E+00  0.00000000000E+00 -0.11183605839E+04  0.11183605839E+04  0.25500000920E-02 0. -1.
    10030    2    1    2    0    0  0.00000000000E+00  0.00000000000E+00 -0.58554599628E+03  0.16511751715E+04  0.15438637677E+04 0.  0.
        3    1    3    3  502    0  0.50872851312E+03  0.56947281245E+03 -0.41365506873E+03  0.86845524368E+03  0.10100000352E+00 0. -1.
       -3    1    3    3    0  502 -0.50872851312E+03 -0.56947281245E+03 -0.17189092755E+03  0.78271992779E+03  0.10100000352E+00 0.  1.
</event>
<event>
 5   0  0.2763895E-04  0.1612142E+04  0.7818609E-02  0.8813123E-01
       -1   -1    0    0    0  501  0.00000000000E+00  0.00000000000E+00  0.51783937719E+03  0.51783937722E+03  0.50400001928E-02 0. -1.
        1   -1    0    0  501    0  0.00000000000E+00  0.00000000000E+00 -0.12547340611E+04  0.12547340611E+04  0.50400001928E-02 0.  1.
    10030    2    1    2    0    0  0.00000000000E+00  0.00000000000E+00 -0.73689468395E+03  0.17725734384E+04  0.16121423074E+04 0.  0.
        4    1    3    3  502    0  0.20819906313E+03 -0.54220599225E+03  0.24611611664E+03  0.63080024071E+03  0.12699999809E+01 0. -1.
       -4    1    3    3    0  502 -0.20819906313E+03  0.54220599225E+03 -0.98301080058E+03  0.11417731977E+04  0.12699999809E+01 0.  1.
</event>
<event>
 5   0  0.2796994E-04  0.1635970E+04  0.7818609E-02  0.8798750E-01
        1   -1    0    0  501    0  0.00000000000E+00  0.00000000000E+00  0.83197366139E+03  0.83197366140E+03  0.50400001928E-02 0. -1.
       -1   -1    0    0    0  501  0.00000000000E+00  0.00000000000E+00 -0.80423159543E+03  0.80423159545E+03  0.50400001928E-02 0.  1.
    10030    2    1    2    0    0  0.00000000000E+00  0.00000000000E+00  0.27742065957E+02  0.16362052569E+04  0.16359700548E+04 0.  0.
        3    1    3    3  502    0 -0.30957866830E+03  0.21185087324E+02  0.77082311352E+03  0.83093684617E+03  0.10100000352E+00 0. -1.
       -3    1    3    3    0  502  0.30957866830E+03 -0.21185087324E+02 -0.74308104756E+03  0.80526841068E+03  0.10100000352E+00 0.  1.
</event>
<event>
 5   0  0.5083831E-04  0.1585437E+04  0.7818609E-02  0.8829545E-01
       -2   -1    0    0    0  501  0.00000000000E+00  0.00000000000E+00  0.56667856316E+03  0.56667856317E+03  0.25500000920E-02 0. -1.
        2   -1    0    0  501    0  0.00000000000E+00  0.00000000000E+00 -0.11089222848E+04  0.11089222848E+04  0.25500000920E-02 0.  1.
    10030    2    1    2    0    0  0.00000000000E+00  0.00000000000E+00 -0.54224372163E+03  0.16756008480E+04  0.15854368319E+04 0.  0.
        4    1    3    3  502    0 -0.33059856905E+03  0.72045426298E+03 -0.27867794274E+03  0.84024565906E+03  0.12699999809E+01 0. -1.
       -4    1    3    3    0  502  0.33059856905E+03 -0.72045426298E+03 -0.26356577889E+03  0.83535518889E+03  0.12699999809E+01 0.  1.
</event>
<event>
 5   0  0.5264308E-04  0.1596204E+04  0.7818609E-02  0.8822884E-01
       -2   -1    0    0    0  501  0.00000000000E+00  0.00000000000E+00  0.39203993465E+03  0.39203993466E+03  0.25500000920E-02 0.  1.
        2   -1    0    0  501    0  0.00000000000E+00  0.00000000000E+00 -0.16247489217E+04  0.16247489217E+04  0.25500000920E-02 0. -1.
    10030    2    1    2    0    0  0.00000000000E+00  0.00000000000E+00 -0.12327089870E+04  0.20167888563E+04  0.15962035723E+04 0.  0.
        3    1    3    3  502    0  0.48562739590E+03  0.57900072667E+03 -0.29202680767E+03  0.81015768572E+03  0.10100000352E+00 0.  1.
       -3    1    3    3    0  502 -0.48562739590E+03 -0.57900072667E+03 -0.94068217935E+03  0.12066311706E+04  0.10100000352E+00 0. -1.
</event>
<event>
 5   0  0.5315984E-04  0.1564740E+04  0.7818609E-02  0.8842507E-01
        2   -1    0    0  501    0  0.00000000000E+00  0.00000000000E+00  0.10660174153E+04  0.10660174153E+04  0.25500000920E-02 0.  1.
       -2   -1    0    0    0  501  0.00000000000E+00  0.00000000000E+00 -0.57419574860E+03  0.57419574860E+03  0.25500000920E-02 0. -1.
    10030    2    1    2    0    0  0.00000000000E+00  0.00000000000E+00  0.49182166668E+03  0.16402131639E+04  0.15647398094E+04 0.  0.
        2    1    3    3  502    0  0.78132443863E+03  0.30453110809E+02  0.27379064913E+03  0.82846640844E+03  0.25500000920E-02 0.  1.
       -2    1    3    3    0  502 -0.78132443863E+03 -0.30453110809E+02  0.21803101755E+03  0.81174675545E+03  0.25500000920E-02 0. -1.
</event>
<event>
 5   0  0.5315984E-04  0.1608335E+04  0.7818609E-02  0.8815444E-01
        2   -1    0    0  501    0  0.00000000000E+00  0.00000000000E+00  0.14927793595E+04  0.14927793595E+04  0.25500000920E-02 0.  1.
       -2   -1    0    0    0  501  0.00000000000E+00  0.00000000000E+00 -0.43320901457E+03  0.43320901458E+03  0.25500000920E-02 0. -1.
    10030    2    1    2    0    0  0.00000000000E+00  0.00000000000E+00  0.10595703449E+04  0.19259883741E+04  0.16083351334E+04 0.  0.
        2    1    3    3  502    0  0.65331764908E+02 -0.43417388277E+03 -0.27700782347E+03  0.51914211374E+03  0.25500000920E-02 0. -1.
       -2    1    3    3    0  502 -0.65331764908E+02  0.43417388277E+03  0.13365781684E+04  0.14068462603E+04  0.25500000920E-02 0.  1.
</event>
<event>
 5   0  0.5083831E-04  0.1575261E+04  0.7818609E-02  0.8835892E-01
       -2   -1    0    0    0  501  0.00000000000E+00  0.00000000000E+00  0.58603896308E+03  0.58603896309E+03  0.25500000920E-02 0.  1.
        2   -1    0    0  501    0  0.00000000000E+00  0.00000000000E+00 -0.10585680678E+04  0.10585680678E+04  0.25500000920E-02 0. -1.
    10030    2    1    2    0    0  0.00000000000E+00  0.00000000000E+00 -0.47252910475E+03  0.16446070309E+04  0.15752614168E+04 0.  0.
        4    1    3    3  502    0 -0.33141444975E+02 -0.27191473921E+03 -0.10072337502E+04  0.10438186726E+04  0.12699999809E+01 0. -1.
       -4    1    3    3    0  502  0.33141444975E+02  0.27191473921E+03  0.53470464545E+03  0.60078835836E+03  0.12699999809E+01 0.  1.
</event>
<event>
 5   0  0.5381164E-04  0.1631232E+04  0.7818609E-02  0.8801587E-01
        2   -1    0    0  501    0  0.00000000000E+00  0.00000000000E+00  0.57079431083E+03  0.57079431083E+03  0.25500000920E-02 0.  1.
       -2   -1    0    0    0  501  0.00000000000E+00  0.00000000000E+00 -0.11654451169E+04  0.11654451169E+04  0.25500000920E-02 0. -1.
    10030    2    1    2    0    0  0.00000000000E+00  0.00000000000E+00 -0.59465080607E+03  0.17362394277E+04  0.16312319790E+04 0.  0.
        5    1    3    3  502    0  0.23040682830E+03 -0.18889093534E+03  0.51078563756E+03  0.59134689440E+03  0.46999998093E+01 0.  1.
       -5    1    3    3    0  502 -0.23040682830E+03  0.18889093534E+03 -0.11054364436E+04  0.11448925333E+04  0.46999998093E+01 0. -1.
</event>
<event>
 5   0  0.5381164E-04  0.1566733E+04  0.7818609E-02  0.8841250E-01
       -2   -1    0    0    0  501  0.00000000000E+00  0.00000000000E+00  0.10470975319E+04  0.10470975319E+04  0.25500000920E-02 0. -1.
        2   -1    0    0  501    0  0.00000000000E+00  0.00000000000E+00 -0.58606103275E+03  0.58606103276E+03  0.25500000920E-02 0.  1.
    10030    2    1    2    0    0  0.00000000000E+00  0.00000000000E+00  0.46103649916E+03  0.16331585647E+04  0.15667329842E+04 0.  0.
        5    1    3    3  502    0 -0.22017949298E+03 -0.56595393149E+03 -0.28529276518E+03  0.67096714790E+03  0.46999998093E+01 0.  1.
       -5    1    3    3    0  502  0.22017949298E+03  0.56595393149E+03  0.74632926434E+03  0.96219141678E+03  0.46999998093E+01 0. -1.
</event>
<event>
 5   0  0.5264308E-04  0.1591728E+04  0.7818609E-02  0.8825646E-01
       -2   -1    0    0    0  501  0.00000000000E+00  0.00000000000E+00  0.39781269425E+03  0.39781269426E+03  0.25500000920E-02 0. -1.
        2   -1    0    0  501    0  0.00000000000E+00  0.00000000000E+00 -0.15922044484E+04  0.15922044484E+04  0.25500000920E-02 0.  1.
    10030    2    1    2    0    0  0.00000000000E+00  0.00000000000E+00 -0.11943917541E+04  0.19900171426E+04  0.15917275413E+04 0.  0.
        3    1    3    3  502    0 -0.42224739685E+03 -0.50966905382E+03 -0.11497665311E+04  0.13266568866E+04  0.10100000352E+00 0.  1.
       -3    1    3    3    0  502  0.42224739685E+03  0.50966905382E+03 -0.44625223059E+02  0.66336025604E+03  0.10100000352E+00 0. -1.
</event>
<event>
 5   0  0.2689675E-04  0.1598340E+04  0.7818609E-02  0.8821568E-01
        1   -1    0    0  501    0  0.00000000000E+00  0.00000000000E+00  0.10771683647E+04  0.10771683647E+04  0.50400001928E-02 0.  1.
       -1   -1    0    0    0  501  0.00000000000E+00  0.00000000000E+00 -0.59291843764E+03  0.59291843766E+03  0.50400001928E-02 0. -1.
    10030    2    1    2    0    0  0.00000000000E+00  0.00000000000E+00  0.48424992704E+03  0.16700868023E+04  0.15983403691E+04 0.  0.
        1    1    3    3  502    0 -0.34709624692E+03 -0.40065963291E+03  0.86702485426E+03  0.10162362147E+04  0.50400001928E-02 0.  1.
       -1    1    3    3    0  502  0.34709624692E+03  0.40065963291E+03 -0.38277492722E+03  0.65385058768E+03  0.50400001928E-02 0. -1.
</event>
<event>
 5   0  0.2689675E-04  0.1584450E+04  0.7818609E-02  0.8830159E-01
       -1   -1    0    0    0  501  0.00000000000E+00  0.00000000000E+00  0.78502439605E+03  0.78502439607E+03  0.50400001928E-02 0.  1.
        1   -1    0    0  501    0  0.00000000000E+00  0.00000000000E+00 -0.79949130762E+03  0.79949130764E+03  0.50400001928E-02 0. -1.
    10030    2    1    2    0    0  0.00000000000E+00  0.00000000000E+00 -0.14466911567E+02  0.15845157037E+04  0.15844496596E+04 0.  0.
        1    1    3    3  502    0  0.15670789550E+02 -0.46605068221E+03  0.63323946611E+03  0.78641021961E+03  0.50400001928E-02 0.  1.
       -1    1    3    3    0  502 -0.15670789550E+02  0.46605068221E+03 -0.64770637768E+03  0.79810548410E+03  0.50400001928E-02 0. -1.
</event>
<event>
 5   0  0.5315984E-04  0.1603254E+04  0.7818609E-02  0.8818551E-01
        2   -1    0    0  501    0  0.00000000000E+00  0.00000000000E+00  0.79301894736E+03  0.79301894736E+03  0.25500000920E-02 0. -1.
       -2   -1    0    0    0  501  0.00000000000E+00  0.00000000000E+00 -0.81032844405E+03  0.81032844406E+03  0.25500000920E-02 0.  1.
    10030    2    1    2    0    0  0.00000000000E+00  0.00000000000E+00 -0.17309496694E+02  0.16033473914E+04  0.16032539533E+04 0.  0.
        2    1    3    3  502    0  0.18243918147E+03 -0.69556081450E+03 -0.36295905097E+03  0.80549871154E+03  0.25500000920E-02 0.  1.
       -2    1    3    3    0  502 -0.18243918147E+03  0.69556081450E+03  0.34564955428E+03  0.79784867988E+03  0.25500000920E-02 0. -1.
</event>
<event>
 5   0  0.5083831E-04  0.1608487E+04  0.7818609E-02  0.8815351E-01
       -2   -1    0    0    0  501  0.00000000000E+00  0.00000000000E+00  0.39749358673E+03  0.39749358674E+03  0.25500000920E-02 0.  1.
        2   -1    0    0  501    0  0.00000000000E+00  0.00000000000E+00 -0.16272152176E+04  0.16272152176E+04  0.25500000920E-02 0. -1.
    10030    2    1    2    0    0  0.00000000000E+00  0.00000000000E+00 -0.12297216309E+04  0.20247088044E+04  0.16084870074E+04 0.  0.
        4    1    3    3  502    0  0.24694832969E+03 -0.18184249933E+03  0.32100089572E+03  0.44395197944E+03  0.12699999809E+01 0.  1.
       -4    1    3    3    0  502 -0.24694832969E+03  0.18184249933E+03 -0.15507225266E+04  0.15807568249E+04  0.12699999809E+01 0. -1.
</event>
<event>
 5   0  0.2730707E-04  0.1596465E+04  0.7818609E-02  0.8822723E-01
       -1   -1    0    0    0  501  0.00000000000E+00  0.00000000000E+00  0.51695849731E+03  0.51695849733E+03  0.50400001928E-02 0.  1.
        1   -1    0    0  501    0  0.00000000000E+00  0.00000000000E+00 -0.12325457100E+04  0.12325457100E+04  0.50400001928E-02 0. -1.
    10030    2    1    2    0    0  0.00000000000E+00  0.00000000000E+00 -0.71558721271E+03  0.17495042074E+04  0.15964648172E+04 0.  0.
        5    1    3    3  502    0  0.60748269763E+03 -0.10761210634E+03 -0.91284205686E+03  0.11017796078E+04  0.46999998093E+01 0. -1.
       -5    1    3    3    0  502 -0.60748269763E+03  0.10761210634E+03  0.19725484415E+03  0.64772459957E+03  0.46999998093E+01 0.  1.
</event>
<event>
 5   0  0.5131239E-04  0.1591053E+04  0.7818609E-02  0.8826063E-01
       -2   -1    0    0    0  501  0.00000000000E+00  0.00000000000E+00  0.31869135675E+03  0.31869135676E+03  0.25500000920E-02 0.  1.
        2   -1    0    0  501    0  0.00000000000E+00  0.00000000000E+00 -0.19858172614E+04  0.19858172614E+04  0.25500000920E-02 0. -1.
    10030    2    1    2    0    0  0.00000000000E+00  0.00000000000E+00 -0.16671259047E+04  0.23045086182E+04  0.15910534841E+04 0.  0.
        1    1    3    3  502    0 -0.99774435049E+02  0.28065521338E+02 -0.19759958595E+04  0.19787122702E+04  0.50400001928E-02 0. -1.
       -1    1    3    3    0  502  0.99774435049E+02 -0.28065521338E+02  0.30886995481E+03  0.32579634803E+03  0.50400001928E-02 0.  1.
</event>
<event>
 5   0  0.2730707E-04  0.1634803E+04  0.7818609E-02  0.8799448E-01
        1   -1    0    0  501    0  0.00000000000E+00  0.00000000000E+00  0.13651130395E+04  0.13651130395E+04  0.50400001928E-02 0.  1.
       -1   -1    0    0    0  501  0.00000000000E+00  0.00000000000E+00 -0.48944308653E+03  0.48944308655E+03  0.50400001928E-02 0. -1.
    10030    2    1    2    0    0  0.00000000000E+00  0.00000000000E+00  0.87566995300E+03  0.18545561261E+04  0.16348029111E+04 0.  0.
        5    1    3    3  502    0  0.65046184362E+03 -0.30198123033E+03 -0.70981924941E+01  0.71719296414E+03  0.46999998093E+01 0. -1.
       -5    1    3    3    0  502 -0.65046184362E+03  0.30198123033E+03  0.88276814550E+03  0.11373631620E+04  0.46999998093E+01 0.  1.
</event>
<event>
 5   0  0.2763895E-04  0.1598480E+04  0.7818609E-02  0.8821482E-01
       -1   -1    0    0    0  501  0.00000000000E+00  0.00000000000E+00  0.42306051318E+03  0.42306051321E+03  0.50400001928E-02 0. -1.
        1   -1    0    0  501    0  0.00000000000E+00  0.00000000000E+00 -0.15099136557E+04  0.15099136557E+04  0.50400001928E-02 0.  1.
    10030    2    1    2    0    0  0.00000000000E+00  0.00000000000E+00 -0.10868531426E+04  0.19329741690E+04  0.15984803359E+04 0.  0.
        4    1    3    3  502    0  0.50521083193E+03  0.85573615900E+02 -0.12851484333E+04  0.13835349424E+04  0.12699999809E+01 0.  1.
       -4    1    3    3    0  502 -0.50521083193E+03 -0.85573615900E+02  0.19829529071E+03  0.54943922654E+03  0.12699999809E+01 0. -1.
</event>
<event>
 5   0  0.2689675E-04  0.1580828E+04  0.7818609E-02  0.8832413E-01
        1   -1    0    0  501    0  0.00000000000E+00  0.00000000000E+00  0.60311937291E+03  0.60311937293E+03  0.50400001928E-02 0.  1.
       -1   -1    0    0    0  501  0.00000000000E+00  0.00000000000E+00 -0.10358716932E+04  0.10358716932E+04  0.50400001928E-02 0. -1.
    10030    2    1    2    0    0  0.00000000000E+00  0.00000000000E+00 -0.43275232028E+03  0.16389910661E+04  0.15808279932E+04 0.  0.
        1    1    3    3  502    0  0.24482648624E+02 -0.57936425312E+03  0.34050024440E+03  0.67246022510E+03  0.50400001928E-02 0.  1.
       -1    1    3    3    0  502 -0.24482648624E+02  0.57936425312E+03 -0.77325256468E+03  0.96653084104E+03  0.50400001928E-02 0. -1.
</event>
<event>
 5   0  0.2689675E-04  0.1583830E+04  0.7818609E-02  0.8830544E-01
        1   -1    0    0  501    0  0.00000000000E+00  0.00000000000E+00  0.69950754900E+03  0.69950754902E+03  0.50400001928E-02 0.  1.
       -1   -1    0    0    0  501  0.00000000000E+00  0.00000000000E+00 -0.89652968513E+03  0.89652968515E+03  0.50400001928E-02 0. -1.
    10030    2    1    2    0    0  0.00000000000E+00  0.00000000000E+00 -0.19702213614E+03  0.15960372342E+04  0.15838298932E+04 0.  0.
        1    1    3    3  502    0 -0.42594541785E+03 -0.66187069712E+03 -0.10505463571E+02  0.78715480274E+03  0.50400001928E-02 0. -1.
       -1    1    3    3    0  502  0.42594541785E+03  0.66187069712E+03 -0.18651667256E+03  0.80888243142E+03  0.50400001928E-02 0.  1.
</event>
<event>
 5   0  0.2689675E-04  0.1383167E+04  0.7818609E-02  0.8966094E-01
        1   -1    0    0  501    0  0.00000000000E+00  0.00000000000E+00  0.13983689649E+04  0.13983689649E+04  0.50400001928E-02 0. -1.
       -1   -1    0    0    0  501  0.00000000000E+00  0.00000000000E+00 -0.34203279203E+03  0.34203279207E+03  0.50400001928E-02 0.  1.
    10030    2    1    2    0    0  0.00000000000E+00  0.00000000000E+00  0.10563361728E+04  0.17404017569E+04  0.13831674394E+04 0.  0.
        1    1    3    3  502    0  0.82883650800E+02  0.41959223468E+03  0.12120027467E+04  0.12852540609E+04  0.50400001928E-02 0. -1.
       -1    1    3    3    0  502 -0.82883650800E+02 -0.41959223468E+03 -0.15566657387E+03  0.45514769605E+03  0.50400001928E-02 0.  1.
</event>
<event>
 5   0  0.2649086E-04  0.1606144E+04  0.7818609E-02  0.8816782E-01
        1   -1    0    0  501    0  0.00000000000E+00  0.00000000000E+00  0.22014003822E+04  0.22014003822E+04  0.50400001928E-02 0. -1.
       -1   -1    0    0    0  501  0.00000000000E+00  0.00000000000E+00 -0.29296102251E+03  0.29296102256E+03  0.50400001928E-02 0.  1.
    10030    2    1    2    0    0  0.00000000000E+00  0.00000000000E+00  0.19084393597E+04  0.24943614048E+04  0.16061438379E+04 0.  0.
        2    1    3    3  502    0  0.21396710636E+03  0.73975210298E+03  0.13080523997E+04  0.15178986056E+04  0.25500000920E-02 0. -1.
       -2    1    3    3    0  502 -0.21396710636E+03 -0.73975210298E+03  0.60038696001E+03  0.97646279920E+03  0.25500000920E-02 0.  1.
</event>
<event>
 5   0  0.2730707E-04  0.1647588E+04  0.7818609E-02  0.8791835E-01
       -1   -1    0    0    0  501  0.00000000000E+00  0.00000000000E+00  0.94678102774E+03  0.94678102775E+03  0.50400001928E-02 0. -1.
        1   -1    0    0  501    0  0.00000000000E+00  0.00000000000E+00 -0.71678263550E+03  0.71678263552E+03  0.50400001928E-02 0.  1.
    10030    2    1    2    0    0  0.00000000000E+00  0.00000000000E+00  0.22999839223E+03  0.16635636633E+04  0.16475875702E+04 0.  0.
        5    1    3    3  502    0  0.81225038350E+03  0.12197344893E+03  0.17874539000E+03  0.84059515356E+03  0.46999998093E+01 0. -1.
       -5    1    3    3    0  502 -0.81225038350E+03 -0.12197344893E+03  0.51253002235E+02  0.82296850971E+03  0.46999998093E+01 0.  1.
</event>
<event>
 5   0  0.5264308E-04  0.1587568E+04  0.7818609E-02  0.8828222E-01
        2   -1    0    0  501    0  0.00000000000E+00  0.00000000000E+00  0.22506015508E+04  0.22506015508E+04  0.25500000920E-02 0. -1.
       -2   -1    0    0    0  501  0.00000000000E+00  0.00000000000E+00 -0.27996654290E+03  0.27996654291E+03  0.25500000920E-02 0.  1.
    10030    2    1    2    0    0  0.00000000000E+00  0.00000000000E+00  0.19706350079E+04  0.25305680937E+04  0.15875681222E+04 0.  0.
        3    1    3    3  502    0 -0.71730749513E+03  0.77450356605E+02  0.15129367616E+04  0.16761581832E+04  0.10100000352E+00 0. -1.
       -3    1    3    3    0  502  0.71730749513E+03 -0.77450356605E+02  0.45769824630E+03  0.85440991051E+03  0.10100000352E+00 0.  1.
</event>
<event>
 5   0  0.2796994E-04  0.1595649E+04  0.7818609E-02  0.8823225E-01
        1   -1    0    0  501    0  0.00000000000E+00  0.00000000000E+00  0.62025288735E+03  0.62025288737E+03  0.50400001928E-02 0. -1.
       -1   -1    0    0    0  501  0.00000000000E+00  0.00000000000E+00 -0.10262329513E+04  0.10262329513E+04  0.50400001928E-02 0.  1.
    10030    2    1    2    0    0  0.00000000000E+00  0.00000000000E+00 -0.40598006396E+03  0.16464858387E+04  0.15956490230E+04 0.  0.
        3    1    3    3  502    0 -0.63556310293E+03  0.26239558934E+03 -0.62051981778E+03  0.92619477302E+03  0.10100000352E+00 0. -1.
       -3    1    3    3    0  502  0.63556310293E+03 -0.26239558934E+03  0.21453975383E+03  0.72029106567E+03  0.10100000352E+00 0.  1.
</event>
<event>
 5   0  0.2649086E-04  0.1606596E+04  0.7818609E-02  0.8816506E-01
       -1   -1    0    0    0  501  0.00000000000E+00  0.00000000000E+00  0.93953689057E+03  0.93953689059E+03  0.50400001928E-02 0.  1.
        1   -1    0    0  501    0  0.00000000000E+00  0.00000000000E+00 -0.68681481048E+03  0.68681481050E+03  0.50400001928E-02 0. -1.
    10030    2    1    2    0    0  0.00000000000E+00  0.00000000000E+00  0.25272208009E+03  0.16263517011E+04  0.16065962174E+04 0.  0.
        2    1    3    3  502    0  0.55684563348E+03 -0.65978632191E+02 -0.45591416044E+03  0.72269492950E+03  0.25500000920E-02 0. -1.
       -2    1    3    3    0  502 -0.55684563348E+03  0.65978632191E+02  0.70863624053E+03  0.90365677158E+03  0.25500000920E-02 0.  1.
</event>
<event>
 5   0  0.5381164E-04  0.1593960E+04  0.7818609E-02  0.8824267E-01
        2   -1    0    0  501    0  0.00000000000E+00  0.00000000000E+00  0.18371073665E+04  0.18371073665E+04  0.25500000920E-02 0.  1.
       -2   -1    0    0    0  501  0.00000000000E+00  0.00000000000E+00 -0.34574852561E+03  0.34574852562E+03  0.25500000920E-02 0. -1.
    10030    2    1    2    0    0  0.00000000000E+00  0.00000000000E+00  0.14913588409E+04  0.21828558921E+04  0.15939600539E+04 0.  0.
        5    1    3    3  502    0 -0.48870702194E+03 -0.43079601720E+03  0.13743400873E+04  0.15209380419E+04  0.46999998093E+01 0.  1.
       -5    1    3    3    0  502  0.48870702194E+03  0.43079601720E+03  0.11701875356E+03  0.66191785020E+03  0.46999998093E+01 0. -1.
</event>
<event>
 5   0  0.5264308E-04  0.1619098E+04  0.7818609E-02  0.8808900E-01
       -2   -1    0    0    0  501  0.00000000000E+00  0.00000000000E+00  0.39830000987E+03  0.39830000988E+03  0.25500000920E-02 0. -1.
        2   -1    0    0  501    0  0.00000000000E+00  0.00000000000E+00 -0.16454178522E+04  0.16454178522E+04  0.25500000920E-02 0.  1.
    10030    2    1    2    0    0  0.00000000000E+00  0.00000000000E+00 -0.12471178423E+04  0.20437178621E+04  0.16190984489E+04 0.  0.
        3    1    3    3  502    0  0.41396544457E+03 -0.68133709717E+03 -0.80109480880E+03  0.11301949089E+04  0.10100000352E+00 0.  1.
       -3    1    3    3    0  502 -0.41396544457E+03  0.68133709717E+03 -0.44602303353E+03  0.91352295315E+03  0.10100000352E+00 0. -1.
</event>
<event>
 5   0  0.2689675E-04  0.1621618E+04  0.7818609E-02  0.8807376E-01
        1   -1    0    0  501    0  0.00000000000E+00  0.00000000000E+00  0.20613393821E+04  0.20613393821E+04  0.50400001928E-02 0.  1.
       -1   -1    0    0    0  501  0.00000000000E+00  0.00000000000E+00 -0.31892414887E+03  0.31892414891E+03  0.50400001928E-02 0. -1.
    10030    2    1    2    0    0  0.00000000000E+00  0.00000000000E+00  0.17424152332E+04  0.23802635310E+04  0.16216175973E+04 0.  0.
        1    1    3    3  502    0  0.29581825645E+03 -0.21583657797E+03  0.19330474951E+04  0.19674263614E+04  0.50400001928E-02 0.  1.
       -1    1    3    3    0  502 -0.29581825645E+03  0.21583657797E+03 -0.19063226193E+03  0.41283716954E+03  0.50400001928E-02 0. -1.
</event>
<event>
 5   0  0.5083831E-04  0.1594591E+04  0.7818609E-02  0.8823878E-01
       -2   -1    0    0    0  501  0.00000000000E+00  0.00000000000E+00  0.98495090811E+03  0.98495090811E+03  0.25500000920E-02 0.  1.
        2   -1    0    0  501    0  0.00000000000E+00  0.00000000000E+00 -0.64539255842E+03  0.64539255843E+03  0.25500000920E-02 0. -1.
    10030    2    1    2    0    0  0.00000000000E+00  0.00000000000E+00  0.33955834969E+03  0.16303434665E+04  0.15945908397E+04 0.  0.
        4    1    3    3  502    0  0.70351857226E+03  0.11554642978E+03 -0.19513928372E+03  0.73916866269E+03  0.12699999809E+01 0. -1.
       -4    1    3    3    0  502 -0.70351857226E+03 -0.11554642978E+03  0.53469763341E+03  0.89117480385E+03  0.12699999809E+01 0.  1.
</event>
<event>
 5   0  0.5131239E-04  0.1606537E+04  0.7818609E-02  0.8816542E-01
       -2   -1    0    0    0  501  0.00000000000E+00  0.00000000000E+00  0.58002536520E+03  0.58002536520E+03  0.25500000920E-02 0.  1.
        2   -1    0    0  501    0  0.00000000000E+00  0.00000000000E+00 -0.11124352863E+04  0.11124352863E+04  0.25500000920E-02 0. -1.
    10030    2    1    2    0    0  0.00000000000E+00  0.00000000000E+00 -0.53240992106E+03  0.16924606515E+04  0.16065374981E+04 0.  0.
        1    1    3    3  502    0 -0.53982314771E+03  0.59434686053E+03 -0.24075811827E+03  0.83822532351E+03  0.50400001928E-02 0.  1.
       -1    1    3    3    0  502  0.53982314771E+03 -0.59434686053E+03 -0.29165180279E+03  0.85423532796E+03  0.50400001928E-02 0. -1.
</event>
<event>
 5   0  0.5264308E-04  0.1584532E+04  0.7818609E-02  0.8830107E-01
       -2   -1    0    0    0  501  0.00000000000E+00  0.00000000000E+00  0.65834611949E+03  0.65834611949E+03  0.25500000920E-02 0. -1.
        2   -1    0    0  501    0  0.00000000000E+00  0.00000000000E+00 -0.95342801421E+03  0.95342801422E+03  0.25500000920E-02 0.  1.
    10030    2    1    2    0    0  0.00000000000E+00  0.00000000000E+00 -0.29508189473E+03  0.16117741337E+04  0.15845322759E+04 0.  0.
        3    1    3    3  502    0 -0.17081759548E+03  0.59160410441E+03  0.35953894103E+03  0.71305142003E+03  0.10100000352E+00 0. -1.
       -3    1    3    3    0  502  0.17081759548E+03 -0.59160410441E+03 -0.65462083576E+03  0.89872271368E+03  0.10100000352E+00 0.  1.
</event>
<event>
 5   0  0.2730707E-04  0.1521092E+04  0.7818609E-02  0.8870547E-01
       -1   -1    0    0    0  501  0.00000000000E+00  0.00000000000E+00  0.10128923335E+04  0.10128923335E+04  0.50400001928E-02 0.  1.
        1   -1    0    0  501    0  0.00000000000E+00  0.00000000000E+00 -0.57106765382E+03  0.57106765384E+03  0.50400001928E-02 0. -1.
    10030    2    1    2    0    0  0.00000000000E+00  0.00000000000E+00  0.44182467967E+03  0.15839599873E+04  0.15210917770E+04 0.  0.
        5    1    3    3  502    0  0.44420344064E+03 -0.35188228075E+03 -0.30726949941E+03  0.64465065846E+03  0.46999998093E+01 0. -1.
       -5    1    3    3    0  502 -0.44420344064E+03  0.35188228075E+03  0.74909417908E+03  0.93930932888E+03  0.46999998093E+01 0.  1.
</event>
<event>
 5   0  0.2649086E-04  0.1607550E+04  0.7818609E-02  0.8815923E-01
       -1   -1    0    0    0  501  0.00000000000E+00  0.00000000000E+00  0.10247539731E+04  0.10247539731E+04  0.50400001928E-02 0. -1.
        1   -1    0    0  501    0  0.00000000000E+00  0.00000000000E+00 -0.63044778562E+03  0.63044778564E+03  0.50400001928E-02 0.  1.
    10030    2    1    2    0    0  0.00000000000E+00  0.00000000000E+00  0.39430618745E+03  0.16552017587E+04  0.16075495304E+04 0.  0.
        2    1    3    3  502    0 -0.55552187522E+03 -0.48288776277E+03  0.52963162984E+03  0.90680472463E+03  0.25500000920E-02 0. -1.
       -2    1    3    3    0  502  0.55552187522E+03  0.48288776277E+03 -0.13532544239E+03  0.74839703409E+03  0.25500000920E-02 0.  1.
</event>
<event>
 5   0  0.2796994E-04  0.1588734E+04  0.7818609E-02  0.8827499E-01
       -1   -1    0    0    0  501  0.00000000000E+00  0.00000000000E+00  0.68237884396E+03  0.68237884398E+03  0.50400001928E-02 0.  1.
        1   -1    0    0  501    0  0.00000000000E+00  0.00000000000E+00 -0.92473399690E+03  0.92473399691E+03  0.50400001928E-02 0. -1.
    10030    2    1    2    0    0  0.00000000000E+00  0.00000000000E+00 -0.24235515294E+03  0.16071128409E+04  0.15887339813E+04 0.  0.
        3    1    3    3  502    0  0.41240249208E+03 -0.99378767943E+02  0.55820701111E+03  0.70110415236E+03  0.10100000352E+00 0.  1.
       -3    1    3    3    0  502 -0.41240249208E+03  0.99378767943E+02 -0.80056216405E+03  0.90600868854E+03  0.10100000352E+00 0. -1.
</event>
<event>
 5   0  0.5315984E-04  0.1586634E+04  0.7818609E-02  0.8828802E-01
        2   -1    0    0  501    0  0.00000000000E+00  0.00000000000E+00  0.96248118427E+03  0.96248118427E+03  0.25500000920E-02 0. -1.
       -2   -1    0    0    0  501  0.00000000000E+00  0.00000000000E+00 -0.65388478997E+03  0.65388478998E+03  0.25500000920E-02 0.  1.
    10030    2    1    2    0    0  0.00000000000E+00  0.00000000000E+00  0.30859639429E+03  0.16163659743E+04  0.15866339301E+04 0.  0.
        2    1    3    3  502    0 -0.43110571411E+03 -0.25289494483E+03 -0.47331768162E+03  0.68835864024E+03  0.25500000920E-02 0.  1.
       -2    1    3    3    0  502  0.43110571411E+03  0.25289494483E+03  0.78191407591E+03  0.92800733401E+03  0.25500000920E-02 0. -1.
</event>
<event>
 5   0  0.5083831E-04  0.1599152E+04  0.7818609E-02  0.8821069E-01
       -2   -1    0    0    0  501  0.00000000000E+00  0.00000000000E+00  0.58386263856E+03  0.58386263857E+03  0.25500000920E-02 0.  1.
        2   -1    0    0  501    0  0.00000000000E+00  0.00000000000E+00 -0.10949863775E+04  0.10949863775E+04  0.25500000920E-02 0. -1.
    10030    2    1    2    0    0  0.00000000000E+00  0.00000000000E+00 -0.51112373894E+03  0.16788490161E+04  0.15991518196E+04 0.  0.
        4    1    3    3  502    0  0.37988460352E+03 -0.54277726705E+03 -0.72553323440E+03  0.98250677389E+03  0.12699999809E+01 0.  1.
       -4    1    3    3    0  502 -0.37988460352E+03  0.54277726705E+03  0.21440949545E+03  0.69634224219E+03  0.12699999809E+01 0. -1.
</event>
<event>
 5   0  0.2649086E-04  0.1621703E+04  0.7818609E-02  0.8807325E-01
       -1   -1    0    0    0  501  0.00000000000E+00  0.00000000000E+00  0.59117131018E+03  0.59117131020E+03  0.50400001928E-02 0.  1.
        1   -1    0    0  501    0  0.00000000000E+00  0.00000000000E+00 -0.11121656045E+04  0.11121656045E+04  0.50400001928E-02 0. -1.
    10030    2    1    2    0    0  0.00000000000E+00  0.00000000000E+00 -0.52099429434E+03  0.17033369147E+04  0.16217032991E+04 0.  0.
        2    1    3    3  502    0 -0.52309870321E+03 -0.45951227010E+03 -0.69698390698E+03  0.98517528708E+03  0.25500000920E-02 0. -1.
       -2    1    3    3    0  502  0.52309870321E+03  0.45951227010E+03  0.17598961264E+03  0.71816162766E+03  0.25500000920E-02 0.  1.
</event>
<event>
 5   0  0.2730707E-04  0.1491333E+04  0.7818609E-02  0.8890237E-01
        1   -1    0    0  501    0  0.00000000000E+00  0.00000000000E+00  0.73151964408E+03  0.73151964410E+03  0.50400001928E-02 0.  1.
       -1   -1    0    0    0  501  0.00000000000E+00  0.00000000000E+00 -0.76008690657E+03  0.76008690659E+03  0.50400001928E-02 0. -1.
    10030    2    1    2    0    0  0.00000000000E+00  0.00000000000E+00 -0.28567262490E+02  0.14916065507E+04  0.14913329654E+04 0.  0.
        5    1    3    3  502    0 -0.82509118129E+02  0.52137649827E+03 -0.54102548163E+03  0.75589144015E+03  0.46999998093E+01 0.  1.
       -5    1    3    3    0  502  0.82509118129E+02 -0.52137649827E+03  0.51245821914E+03  0.73571511054E+03  0.46999998093E+01 0. -1.
</event>
<event>
 5   0  0.2649086E-04  0.1603153E+04  0.7818609E-02  0.8818613E-01
        1   -1    0    0  501    0  0.00000000000E+00  0.00000000000E+00  0.97138593856E+03  0.97138593857E+03  0.50400001928E-02 0. -1.
       -1   -1    0    0    0  501  0.00000000000E+00  0.00000000000E+00 -0.66145157868E+03  0.66145157870E+03  0.50400001928E-02 0.  1.
    10030    2    1    2    0    0  0.00000000000E+00  0.00000000000E+00  0.30993435988E+03  0.16328375173E+04  0.16031528469E+04 0.  0.
        2    1    3    3  502    0 -0.18303693851E+03  0.38249451725E+03  0.84779810232E+03  0.94792731730E+03  0.25500000920E-02 0. -1.
       -2    1    3    3    0  502  0.18303693851E+03 -0.38249451725E+03 -0.53786374244E+03  0.68491019997E+03  0.25500000920E-02 0.  1.
</event>
<event>
 5   0  0.5315984E-04  0.1608232E+04  0.7818609E-02  0.8815507E-01
        2   -1    0    0  501    0  0.00000000000E+00  0.00000000000E+00  0.11652695777E+04  0.11652695777E+04  0.25500000920E-02 0.  1.
       -2   -1    0    0    0  501  0.00000000000E+00  0.00000000000E+00 -0.55489525602E+03  0.55489525603E+03  0.25500000920E-02 0. -1.
    10030    2    1    2    0    0  0.00000000000E+00  0.00000000000E+00  0.61037432163E+03  0.17201648337E+04  0.16082320239E+04 0.  0.
        2    1    3    3  502    0 -0.32542352720E+03 -0.74616967702E+02 -0.47725598882E+03  0.58244436884E+03  0.25500000920E-02 0. -1.
       -2    1    3    3    0  502  0.32542352720E+03  0.74616967702E+02  0.10876303104E+04  0.11377204648E+04  0.25500000920E-02 0.  1.
</event>
<event>
 5   0  0.5264308E-04  0.1563795E+04  0.7818609E-02  0.8843104E-01
        2   -1    0    0  501    0  0.00000000000E+00  0.00000000000E+00  0.39762757284E+03  0.39762757285E+03  0.25500000920E-02 0.  1.
       -2   -1    0    0    0  501  0.00000000000E+00  0.00000000000E+00 -0.15375283171E+04  0.15375283171E+04  0.25500000920E-02 0. -1.
    10030    2    1    2    0    0  0.00000000000E+00  0.00000000000E+00 -0.11399007442E+04  0.19351558899E+04  0.15637949391E+04 0.  0.
        3    1    3    3  502    0  0.24660625076E+03  0.31683153498E+03 -0.14002271162E+04  0.14566512457E+04  0.10100000352E+00 0. -1.
       -3    1    3    3    0  502 -0.24660625076E+03 -0.31683153498E+03  0.26032637192E+03  0.47850464427E+03  0.10100000352E+00 0.  1.
</event>
<event>
 5   0  0.5315984E-04  0.1593999E+04  0.7818609E-02  0.8824243E-01
        2   -1    0    0  501    0  0.00000000000E+00  0.00000000000E+00  0.74844432777E+03  0.74844432777E+03  0.25500000920E-02 0. -1.
       -2   -1    0    0    0  501  0.00000000000E+00  0.00000000000E+00 -0.84870460944E+03  0.84870460945E+03  0.25500000920E-02 0.  1.
    10030    2    1    2    0    0  0.00000000000E+00  0.00000000000E+00 -0.10026028168E+03  0.15971489372E+04  0.15939989346E+04 0.  0.
        2    1    3    3  502    0 -0.32748480763E+03 -0.15488223679E+03  0.66118355931E+03  0.75392208192E+03  0.25500000920E-02 0. -1.
       -2    1    3    3    0  502  0.32748480763E+03  0.15488223679E+03 -0.76144384099E+03  0.84322685529E+03  0.25500000920E-02 0.  1.
</event>
<event>
 5   0  0.2796994E-04  0.1588685E+04  0.7818609E-02  0.8827530E-01
        1   -1    0    0  501    0  0.00000000000E+00  0.00000000000E+00  0.17714447264E+04  0.17714447264E+04  0.50400001928E-02 0. -1.
       -1   -1    0    0    0  501  0.00000000000E+00  0.00000000000E+00 -0.35619507813E+03  0.35619507816E+03  0.50400001928E-02 0.  1.
    10030    2    1    2    0    0  0.00000000000E+00  0.00000000000E+00  0.14152496483E+04  0.21276398046E+04  0.15886848558E+04 0.  0.
        3    1    3    3  502    0 -0.18163504691E+03 -0.16427548830E+03 -0.30437217602E+03  0.39066630013E+03  0.10100000352E+00 0.  1.
       -3    1    3    3    0  502  0.18163504691E+03  0.16427548830E+03  0.17196218243E+04  0.17369735044E+04  0.10100000352E+00 0. -1.
</event>
<event>
 5   0  0.2730707E-04  0.1662767E+04  0.7818609E-02  0.8782889E-01
        1   -1    0    0  501    0  0.00000000000E+00  0.00000000000E+00  0.12508908864E+04  0.12508908864E+04  0.50400001928E-02 0.  1.
       -1   -1    0    0    0  501  0.00000000000E+00  0.00000000000E+00 -0.55256517104E+03  0.55256517107E+03  0.50400001928E-02 0. -1.
    10030    2    1    2    0    0  0.00000000000E+00  0.00000000000E+00  0.69832571535E+03  0.18034560575E+04  0.16627672557E+04 0.  0.
        5    1    3    3  502    0 -0.48901043866E+03  0.51283490138E+03  0.82074529162E+03  0.10843319459E+04  0.46999998093E+01 0.  1.
       -5    1    3    3    0  502  0.48901043866E+03 -0.51283490138E+03 -0.12241957626E+03  0.71912411157E+03  0.46999998093E+01 0. -1.
</event>
<event>
 5   0  0.5381164E-04  0.1589483E+04  0.7818609E-02  0.8827035E-01
       -2   -1    0    0    0  501  0.00000000000E+00  0.00000000000E+00  0.73535534312E+03  0.73535534312E+03  0.25500000920E-02 0. -1.
        2   -1    0    0  501    0  0.00000000000E+00  0.00000000000E+00 -0.85892374116E+03  0.85892374116E+03  0.25500000920E-02 0.  1.
    10030    2    1    2    0    0  0.00000000000E+00  0.00000000000E+00 -0.12356839805E+03  0.15942790843E+04  0.15894831391E+04 0.  0.
        5    1    3    3  502    0  0.51157706301E+03  0.16985872081E+03 -0.64752311126E+03  0.84253863178E+03  0.46999998093E+01 0.  1.
       -5    1    3    3    0  502 -0.51157706301E+03 -0.16985872081E+03  0.52395471321E+03  0.75174045250E+03  0.46999998093E+01 0. -1.
</event>
<event>
 5   0  0.2730707E-04  0.1578654E+04  0.7818609E-02  0.8833770E-01
        1   -1    0    0  501    0  0.00000000000E+00  0.00000000000E+00  0.18098467548E+04  0.18098467548E+04  0.50400001928E-02 0. -1.
       -1   -1    0    0    0  501  0.00000000000E+00  0.00000000000E+00 -0.34424842494E+03  0.34424842497E+03  0.50400001928E-02 0.  1.
    10030    2    1    2    0    0  0.00000000000E+00  0.00000000000E+00  0.14655983299E+04  0.21540951798E+04  0.15786537236E+04 0.  0.
        5    1    3    3  502    0 -0.26907751120E+03 -0.55485677004E+03  0.60513102684E+02  0.61963914329E+03  0.46999998093E+01 0.  1.
       -5    1    3    3    0  502  0.26907751120E+03  0.55485677004E+03  0.14050852272E+04  0.15344560365E+04  0.46999998093E+01 0. -1.
</event>
<event>
 5   0  0.2649086E-04  0.1595761E+04  0.7818609E-02  0.8823157E-01
       -1   -1    0    0    0  501  0.00000000000E+00  0.00000000000E+00  0.32884128002E+03  0.32884128006E+03  0.50400001928E-02 0. -1.
        1   -1    0    0  501    0  0.00000000000E+00  0.00000000000E+00 -0.19359278819E+04  0.19359278819E+04  0.50400001928E-02 0.  1.
    10030    2    1    2    0    0  0.00000000000E+00  0.00000000000E+00 -0.16070866019E+04  0.22647691620E+04  0.15957606371E+04 0.  0.
        2    1    3    3  502    0 -0.63786082761E+03 -0.14481579922E+03 -0.15506508635E+03  0.67222260608E+03  0.25500000920E-02 0. -1.
       -2    1    3    3    0  502  0.63786082761E+03  0.14481579922E+03 -0.14520215156E+04  0.15925465559E+04  0.25500000920E-02 0.  1.
</event>
<event>
 5   0  0.5381164E-04  0.1408751E+04  0.7818609E-02  0.8947509E-01
        2   -1    0    0  501    0  0.00000000000E+00  0.00000000000E+00  0.65755681314E+03  0.65755681314E+03  0.25500000920E-02 0. -1.
       -2   -1    0    0    0  501  0.00000000000E+00  0.00000000000E+00 -0.75452733192E+03  0.75452733192E+03  0.25500000920E-02 0.  1.
    10030    2    1    2    0    0  0.00000000000E+00  0.00000000000E+00 -0.96970518780E+02  0.14120841451E+04  0.14087506349E+04 0.  0.
        5    1    3    3  502    0 -0.55815821726E+03  0.37580125393E+03  0.16022685091E+03  0.69170941277E+03  0.46999998093E+01 0. -1.
       -5    1    3    3    0  502  0.55815821726E+03 -0.37580125393E+03 -0.25719736969E+03  0.72037473230E+03  0.46999998093E+01 0.  1.
</event>
<event>
 5   0  0.2689675E-04  0.1563462E+04  0.7818609E-02  0.8843315E-01
       -1   -1    0    0    0  501  0.00000000000E+00  0.00000000000E+00  0.51819708799E+03  0.51819708801E+03  0.50400001928E-02 0. -1.
        1   -1    0    0  501    0  0.00000000000E+00  0.00000000000E+00 -0.11792869944E+04  0.11792869944E+04  0.50400001928E-02 0.  1.
    10030    2    1    2    0    0  0.00000000000E+00  0.00000000000E+00 -0.66108990644E+03  0.16974840824E+04  0.15634616547E+04 0.  0.
        1    1    3    3  502    0 -0.44318086383E+03 -0.15020434664E+03 -0.10104290375E+04  0.11135247925E+04  0.50400001928E-02 0.  1.
       -1    1    3    3    0  502  0.44318086383E+03  0.15020434664E+03  0.34933913101E+03  0.58395928993E+03  0.50400001928E-02 0. -1.
</event>
<event>
 5   0  0.5264308E-04  0.1598854E+04  0.7818609E-02  0.8821252E-01
        2   -1    0    0  501    0  0.00000000000E+00  0.00000000000E+00  0.11315002278E+04  0.11315002278E+04  0.25500000920E-02 0. -1.
       -2   -1    0    0    0  501  0.00000000000E+00  0.00000000000E+00 -0.56481069696E+03  0.56481069696E+03  0.25500000920E-02 0.  1.
    10030    2    1    2    0    0  0.00000000000E+00  0.00000000000E+00  0.56668953088E+03  0.16963109248E+04  0.15988538799E+04 0.  0.
        3    1    3    3  502    0  0.54109990902E+03  0.50238943141E+03 -0.41763162489E+02  0.73954609341E+03  0.10100000352E+00 0.  1.
       -3    1    3    3    0  502 -0.54109990902E+03 -0.50238943141E+03  0.60845269337E+03  0.95676483140E+03  0.10100000352E+00 0. -1.
</event>
<event>
 5   0  0.5131239E-04  0.1619981E+04  0.7818609E-02  0.8808366E-01
       -2   -1    0    0    0  501  0.00000000000E+00  0.00000000000E+00  0.61123706019E+03  0.61123706020E+03  0.25500000920E-02 0.  1.
        2   -1    0    0  501    0  0.00000000000E+00  0.00000000000E+00 -0.10733715229E+04  0.10733715229E+04  0.25500000920E-02 0. -1.
    10030    2    1    2    0    0  0.00000000000E+00  0.00000000000E+00 -0.46213446271E+03  0.16846085831E+04  0.16199808075E+04 0.  0.
        1    1    3    3  502    0 -0.47471804145E+03  0.63302956803E+03 -0.41118458882E+03  0.89171543610E+03  0.50400001928E-02 0.  1.
       -1    1    3    3    0  502  0.47471804145E+03 -0.63302956803E+03 -0.50949873890E+02  0.79289314700E+03  0.50400001928E-02 0. -1.
</event>
<event>
 5   0  0.5264308E-04  0.1572821E+04  0.7818609E-02  0.8837421E-01
        2   -1    0    0  501    0  0.00000000000E+00  0.00000000000E+00  0.11644107034E+04  0.11644107034E+04  0.25500000920E-02 0. -1.
       -2   -1    0    0    0  501  0.00000000000E+00  0.00000000000E+00 -0.53112004158E+03  0.53112004158E+03  0.25500000920E-02 0.  1.
    10030    2    1    2    0    0  0.00000000000E+00  0.00000000000E+00  0.63329066178E+03  0.16955307449E+04  0.15728214917E+04 0.  0.
        3    1    3    3  502    0  0.54432413437E+03  0.34564913845E+03  0.80196894815E+03  0.10290365854E+04  0.10100000352E+00 0. -1.
       -3    1    3    3    0  502 -0.54432413437E+03 -0.34564913845E+03 -0.16867828636E+03  0.66649415951E+03  0.10100000352E+00 0.  1.
</event>
<event>
 5   0  0.2649086E-04  0.1610947E+04  0.7818609E-02  0.8813851E-01
       -1   -1    0    0    0  501  0.00000000000E+00  0.00000000000E+00  0.36980223752E+03  0.36980223755E+03  0.50400001928E-02 0. -1.
        1   -1    0    0  501    0  0.00000000000E+00  0.00000000000E+00 -0.17544167488E+04  0.17544167489E+04  0.50400001928E-02 0.  1.
    10030    2    1    2    0    0  0.00000000000E+00  0.00000000000E+00 -0.13846145113E+04  0.21242189864E+04  0.16109466028E+04 0.  0.
        2    1    3    3  502    0  0.57936257392E+03  0.16357969710E+03  0.13328096967E+02  0.60216023411E+03  0.25500000920E-02 0. -1.
       -2    1    3    3    0  502 -0.57936257392E+03 -0.16357969710E+03 -0.13979426083E+04  0.15220587523E+04  0.25500000920E-02 0.  1.
</event>
<event>
 5   0  0.5083831E-04  0.1565451E+04  0.7818609E-02  0.8842058E-01
       -2   -1    0    0    0  501  0.00000000000E+00  0.00000000000E+00  0.45963935643E+03  0.45963935643E+03  0.25500000920E-02 0.  1.
        2   -1    0    0  501    0  0.00000000000E+00  0.00000000000E+00 -0.13329134604E+04  0.13329134604E+04  0.25500000920E-02 0. -1.
    10030    2    1    2    0    0  0.00000000000E+00  0.00000000000E+00 -0.87327410401E+03  0.17925528169E+04  0.15654513536E+04 0.  0.
        4    1    3    3  502    0 -0.72936383982E+03 -0.19783613141E+03 -0.67003814239E+03  0.10099819161E+04  0.12699999809E+01 0.  1.
       -4    1    3    3    0  502  0.72936383982E+03  0.19783613141E+03 -0.20323596163E+03  0.78257090076E+03  0.12699999809E+01 0. -1.
</event>
<event>
 5   0  0.2730707E-04  0.1600157E+04  0.7818609E-02  0.8820451E-01
        1   -1    0    0  501    0  0.00000000000E+00  0.00000000000E+00  0.67696263724E+03  0.67696263726E+03  0.50400001928E-02 0.  1.
       -1   -1    0    0    0  501  0.00000000000E+00  0.00000000000E+00 -0.94558508558E+03  0.94558508559E+03  0.50400001928E-02 0. -1.
    10030    2    1    2    0    0  0.00000000000E+00  0.00000000000E+00 -0.26862244833E+03  0.16225477228E+04  0.16001572089E+04 0.  0.
        5    1    3    3  502    0 -0.53495799343E+03  0.56778696422E+03 -0.31439584692E+03  0.84108794429E+03  0.46999998093E+01 0. -1.
       -5    1    3    3    0  502  0.53495799343E+03 -0.56778696422E+03  0.45773398583E+02  0.78145977855E+03  0.46999998093E+01 0.  1.
</event>
<event>
 5   0  0.2649086E-04  0.1587176E+04  0.7818609E-02  0.8828465E-01
       -1   -1    0    0    0  501  0.00000000000E+00  0.00000000000E+00  0.21670128706E+03  0.21670128711E+03  0.50400001928E-02 0.  1.
        1   -1    0    0  501    0  0.00000000000E+00  0.00000000000E+00 -0.29062214199E+04  0.29062214199E+04  0.50400001928E-02 0. -1.
    10030    2    1    2    0    0  0.00000000000E+00  0.00000000000E+00 -0.26895201328E+04  0.31229227070E+04  0.15871760107E+04 0.  0.
        2    1    3    3  502    0  0.22349998293E+03  0.61535840737E+03 -0.22272524450E+04  0.23214804901E+04  0.25500000920E-02 0. -1.
       -2    1    3    3    0  502 -0.22349998293E+03 -0.61535840737E+03 -0.46226768779E+03  0.80144221693E+03  0.25500000920E-02 0.  1.
</event>
<event>
 5   0  0.1908125E-04  0.1599842E+04  0.7818609E-02  0.8820645E-01
       -3   -1    0    0    0  501  0.00000000000E+00  0.00000000000E+00  0.72512453252E+03  0.72512453956E+03  0.10100000352E+00 0.  1.
        3   -1    0    0  501    0  0.00000000000E+00  0.00000000000E+00 -0.88243319581E+03  0.88243320159E+03  0.10100000352E+00 0. -1.
    10030    2    1    2    0    0  0.00000000000E+00  0.00000000000E+00 -0.15730866328E+03  0.16075577411E+04  0.15998424534E+04 0.  0.
        5    1    3    3  502    0 -0.55816562390E+03 -0.91134781457E+02 -0.64706554151E+03  0.85940113864E+03  0.46999998093E+01 0. -1.
       -5    1    3    3    0  502  0.55816562390E+03  0.91134781457E+02  0.48975687822E+03  0.74815660250E+03  0.46999998093E+01 0.  1.
</event>
<event>
 5   0  0.2649086E-04  0.1606539E+04  0.7818609E-02  0.8816541E-01
       -1   -1    0    0    0  501  0.00000000000E+00  0.00000000000E+00  0.32025992532E+03  0.32025992536E+03  0.50400001928E-02 0. -1.
        1   -1    0    0  501    0  0.00000000000E+00  0.00000000000E+00 -0.20147443278E+04  0.20147443278E+04  0.50400001928E-02 0.  1.
    10030    2    1    2    0    0  0.00000000000E+00  0.00000000000E+00 -0.16944844025E+04  0.23350042532E+04  0.16065389731E+04 0.  0.
        2    1    3    3  502    0  0.56724873206E+03 -0.33341891027E+03 -0.15169325505E+04  0.16534883297E+04  0.25500000920E-02 0.  1.
       -2    1    3    3    0  502 -0.56724873206E+03  0.33341891027E+03 -0.17755185198E+03  0.68151592344E+03  0.25500000920E-02 0. -1.
</event>
<event>
 5   0  0.2796994E-04  0.1430290E+04  0.7818609E-02  0.8932180E-01
        1   -1    0    0  501    0  0.00000000000E+00  0.00000000000E+00  0.17729581948E+04  0.17729581948E+04  0.50400001928E-02 0.  1.
       -1   -1    0    0    0  501  0.00000000000E+00  0.00000000000E+00 -0.28846291358E+03  0.28846291363E+03  0.50400001928E-02 0. -1.
    10030    2    1    2    0    0  0.00000000000E+00  0.00000000000E+00  0.14844952812E+04  0.20614211084E+04  0.14302904412E+04 0.  0.
        3    1    3    3  502    0  0.13108082941E+03  0.35669168904E+03 -0.13090114463E+03  0.40192818356E+03  0.10100000352E+00 0. -1.
       -3    1    3    3    0  502 -0.13108082941E+03 -0.35669168904E+03  0.16153964258E+04  0.16594929249E+04  0.10100000352E+00 0.  1.
</event>
<event>
 5   0  0.2730707E-04  0.1586111E+04  0.7818609E-02  0.8829126E-01
       -1   -1    0    0    0  501  0.00000000000E+00  0.00000000000E+00  0.45225721034E+03  0.45225721037E+03  0.50400001928E-02 0. -1.
        1   -1    0    0  501    0  0.00000000000E+00  0.00000000000E+00 -0.13906620291E+04  0.13906620291E+04  0.50400001928E-02 0.  1.
    10030    2    1    2    0    0  0.00000000000E+00  0.00000000000E+00 -0.93840481874E+03  0.18429192395E+04  0.15861108786E+04 0.  0.
        5    1    3    3  502    0  0.46837720488E+02 -0.75945558815E+03 -0.72887912978E+03  0.10536856449E+04  0.46999998093E+01 0. -1.
       -5    1    3    3    0  502 -0.46837720488E+02  0.75945558815E+03 -0.20952568895E+03  0.78923359455E+03  0.46999998093E+01 0.  1.
</event>
<event>
 5   0  0.5381164E-04  0.1599360E+04  0.7818609E-02  0.8820941E-01
        2   -1    0    0  501    0  0.00000000000E+00  0.00000000000E+00  0.16746256020E+04  0.16746256020E+04  0.25500000920E-02 0. -1.
       -2   -1    0    0    0  501  0.00000000000E+00  0.00000000000E+00 -0.38186916884E+03  0.38186916885E+03  0.25500000920E-02 0.  1.
    10030    2    1    2    0    0  0.00000000000E+00  0.00000000000E+00  0.12927564332E+04  0.20564947709E+04  0.15993597304E+04 0.  0.
        5    1    3    3  502    0 -0.32859416422E+03 -0.18754629318E+03 -0.25948263640E+03  0.45880395098E+03  0.46999998093E+01 0.  1.
       -5    1    3    3    0  502  0.32859416422E+03  0.18754629318E+03  0.15522390696E+04  0.15976908199E+04  0.46999998093E+01 0. -1.
</event>
<event>
 5   0  0.2689675E-04  0.1522059E+04  0.7818609E-02  0.8869915E-01
       -1   -1    0    0    0  501  0.00000000000E+00  0.00000000000E+00  0.32662291013E+03  0.32662291017E+03  0.50400001928E-02 0.  1.
        1   -1    0    0  501    0  0.00000000000E+00  0.00000000000E+00 -0.17731932490E+04  0.17731932490E+04  0.50400001928E-02 0. -1.
    10030    2    1    2    0    0  0.00000000000E+00  0.00000000000E+00 -0.14465703389E+04  0.20998161592E+04  0.15220585262E+04 0.  0.
        1    1    3    3  502    0 -0.12315976522E+03  0.71450124202E+03 -0.10423409953E+04  0.12697066996E+04  0.50400001928E-02 0. -1.
       -1    1    3    3    0  502  0.12315976522E+03 -0.71450124202E+03 -0.40422934362E+03  0.83010945958E+03  0.50400001928E-02 0.  1.
</event>
<event>
 5   0  0.2730707E-04  0.1594201E+04  0.7818609E-02  0.8824118E-01
        1   -1    0    0  501    0  0.00000000000E+00  0.00000000000E+00  0.10190689610E+04  0.10190689610E+04  0.50400001928E-02 0. -1.
       -1   -1    0    0    0  501  0.00000000000E+00  0.00000000000E+00 -0.62348035901E+03  0.62348035903E+03  0.50400001928E-02 0.  1.
    10030    2    1    2    0    0  0.00000000000E+00  0.00000000000E+00  0.39558860199E+03  0.16425493200E+04  0.15942013445E+04 0.  0.
        5    1    3    3  502    0  0.20502169732E+03 -0.35200300257E+03 -0.50811711450E+03  0.65126423381E+03  0.46999998093E+01 0.  1.
       -5    1    3    3    0  502 -0.20502169732E+03  0.35200300257E+03  0.90370571649E+03  0.99128508624E+03  0.46999998093E+01 0. -1.
</event>
<event>
 5   0  0.2763895E-04  0.1602956E+04  0.7818609E-02  0.8818734E-01
       -1   -1    0    0    0  501  0.00000000000E+00  0.00000000000E+00  0.39641805531E+03  0.39641805534E+03  0.50400001928E-02 0.  1.
        1   -1    0    0  501    0  0.00000000000E+00  0.00000000000E+00 -0.16204273173E+04  0.16204273174E+04  0.50400001928E-02 0. -1.
    10030    2    1    2    0    0  0.00000000000E+00  0.00000000000E+00 -0.12240092620E+04  0.20168453727E+04  0.16029555776E+04 0.  0.
        4    1    3    3  502    0 -0.62714487391E+02 -0.16466736943E+03 -0.15957534063E+04  0.16054528944E+04  0.12699999809E+01 0. -1.
       -4    1    3    3    0  502  0.62714487391E+02  0.16466736943E+03  0.37174414428E+03  0.41139247829E+03  0.12699999809E+01 0.  1.
</event>
<event>
 5   0  0.2649086E-04  0.1610569E+04  0.7818609E-02  0.8814081E-01
       -1   -1    0    0    0  501  0.00000000000E+00  0.00000000000E+00  0.15431988587E+04  0.15431988587E+04  0.50400001928E-02 0. -1.
        1   -1    0    0  501    0  0.00000000000E+00  0.00000000000E+00 -0.42022029268E+03  0.42022029271E+03  0.50400001928E-02 0.  1.
    10030    2    1    2    0    0  0.00000000000E+00  0.00000000000E+00  0.11229785660E+04  0.19634191514E+04  0.16105694348E+04 0.  0.
        2    1    3    3  502    0 -0.36454942241E+03  0.12106559246E+03  0.14243133059E+04  0.14752022073E+04  0.25500000920E-02 0. -1.
       -2    1    3    3    0  502  0.36454942241E+03 -0.12106559246E+03 -0.30133473988E+03  0.48821694411E+03  0.25500000920E-02 0.  1.
</event>
<event>
 5   0  0.5315984E-04  0.1603516E+04  0.7818609E-02  0.8818391E-01
       -2   -1    0    0    0  501  0.00000000000E+00  0.00000000000E+00  0.63916930433E+03  0.63916930434E+03  0.25500000920E-02 0. -1.
        2   -1    0    0  501    0  0.00000000000E+00  0.00000000000E+00 -0.10057048349E+04  0.10057048350E+04  0.25500000920E-02 0.  1.
    10030    2    1    2    0    0  0.00000000000E+00  0.00000000000E+00 -0.36653553062E+03  0.16448741393E+04  0.16035157121E+04 0.  0.
        2    1    3    3  502    0  0.67060049049E+03  0.25865986317E+02  0.26672851527E+03  0.72216214797E+03  0.25500000920E-02 0. -1.
       -2    1    3    3    0  502 -0.67060049049E+03 -0.25865986317E+02 -0.63326404588E+03  0.92271199131E+03  0.25500000920E-02 0.  1.
</event>
<event>
 5   0  0.5264308E-04  0.1586311E+04  0.7818609E-02  0.8829002E-01
       -2   -1    0    0    0  501  0.00000000000E+00  0.00000000000E+00  0.11892781526E+04  0.11892781526E+04  0.25500000920E-02 0. -1.
        2   -1    0    0  501    0  0.00000000000E+00  0.00000000000E+00 -0.52897240441E+03  0.52897240442E+03  0.25500000920E-02 0.  1.
    10030    2    1    2    0    0  0.00000000000E+00  0.00000000000E+00  0.66030574819E+03  0.17182505570E+04  0.15863105924E+04 0.  0.
        3    1    3    3  502    0 -0.40437590524E+03  0.27006734382E+03 -0.34857396942E+03  0.59829763938E+03  0.10100000352E+00 0.  1.
       -3    1    3    3    0  502  0.40437590524E+03 -0.27006734382E+03  0.10088797176E+04  0.11199529176E+04  0.10100000352E+00 0. -1.
</event>
<event>
 5   0  0.5083831E-04  0.1576389E+04  0.7818609E-02  0.8835186E-01
        2   -1    0    0  501    0  0.00000000000E+00  0.00000000000E+00  0.76148565878E+03  0.76148565878E+03  0.25500000920E-02 0.  1.
       -2   -1    0    0    0  501  0.00000000000E+00  0.00000000000E+00 -0.81584040026E+03  0.81584040027E+03  0.25500000920E-02 0. -1.
    10030    2    1    2    0    0  0.00000000000E+00  0.00000000000E+00 -0.54354741485E+02  0.15773260591E+04  0.15763892472E+04 0.  0.
        4    1    3    3  502    0  0.30159544750E+03  0.33479985013E+03 -0.67424428941E+03  0.81096099061E+03  0.12699999809E+01 0. -1.
       -4    1    3    3    0  502 -0.30159544750E+03 -0.33479985013E+03  0.61988954792E+03  0.76636506844E+03  0.12699999809E+01 0.  1.
</event>
<event>
 5   0  0.2730707E-04  0.1621587E+04  0.7818609E-02  0.8807395E-01
        1   -1    0    0  501    0  0.00000000000E+00  0.00000000000E+00  0.23549061050E+04  0.23549061050E+04  0.50400001928E-02 0. -1.
       -1   -1    0    0    0  501  0.00000000000E+00  0.00000000000E+00 -0.27915606487E+03  0.27915606491E+03  0.50400001928E-02 0.  1.
    10030    2    1    2    0    0  0.00000000000E+00  0.00000000000E+00  0.20757500401E+04  0.26340621699E+04  0.16215872736E+04 0.  0.
        5    1    3    3  502    0 -0.53627893657E+03 -0.60168748964E+03  0.89495515428E+03  0.12044043138E+04  0.46999998093E+01 0.  1.
       -5    1    3    3    0  502  0.53627893657E+03  0.60168748964E+03  0.11807948858E+04  0.14296578560E+04  0.46999998093E+01 0. -1.
</event>
<event>
 5   0  0.5131239E-04  0.1555931E+04  0.7818609E-02  0.8848088E-01
        2   -1    0    0  501    0  0.00000000000E+00  0.00000000000E+00  0.13466842027E+04  0.13466842028E+04  0.25500000920E-02 0. -1.
       -2   -1    0    0    0  501  0.00000000000E+00  0.00000000000E+00 -0.44942258097E+03  0.44942258098E+03  0.25500000920E-02 0.  1.
    10030    2    1    2    0    0  0.00000000000E+00  0.00000000000E+00  0.89726162178E+03  0.17961067837E+04  0.15559309627E+04 0.  0.
        1    1    3    3  502    0 -0.56816402552E+02 -0.38757685447E+03 -0.32727390484E+03  0.51044307276E+03  0.50400001928E-02 0.  1.
       -1    1    3    3    0  502  0.56816402552E+02  0.38757685447E+03  0.12245355266E+04  0.12856637110E+04  0.50400001928E-02 0. -1.
</event>
<event>
 5   0  0.5381164E-04  0.1611068E+04  0.7818609E-02  0.8813777E-01
       -2   -1    0    0    0  501  0.00000000000E+00  0.00000000000E+00  0.11157387431E+04  0.11157387431E+04  0.25500000920E-02 0.  1.
        2   -1    0    0  501    0  0.00000000000E+00  0.00000000000E+00 -0.58157449747E+03  0.58157449747E+03  0.25500000920E-02 0. -1.
    10030    2    1    2    0    0  0.00000000000E+00  0.00000000000E+00  0.53416424562E+03  0.16973132406E+04  0.16110682156E+04 0.  0.
        5    1    3    3  502    0 -0.28312463234E+03  0.62640836260E+02 -0.52466701633E+03  0.59948394459E+03  0.46999998093E+01 0. -1.
       -5    1    3    3    0  502  0.28312463234E+03 -0.62640836260E+02  0.10588312620E+04  0.10978292960E+04  0.46999998093E+01 0.  1.
</event>
<event>
 5   0  0.2763895E-04  0.1652983E+04  0.7818609E-02  0.8788644E-01
        1   -1    0    0  501    0  0.00000000000E+00  0.00000000000E+00  0.13787087017E+04  0.13787087017E+04  0.50400001928E-02 0. -1.
       -1   -1    0    0    0  501  0.00000000000E+00  0.00000000000E+00 -0.49545508056E+03  0.49545508059E+03  0.50400001928E-02 0.  1.
    10030    2    1    2    0    0  0.00000000000E+00  0.00000000000E+00  0.88325362115E+03  0.18741637823E+04  0.16529830379E+04 0.  0.
        4    1    3    3  502    0  0.20116996151E+03 -0.40960739564E+03  0.12229169728E+04  0.13052873657E+04  0.12699999809E+01 0. -1.
       -4    1    3    3    0  502 -0.20116996151E+03  0.40960739564E+03 -0.33966335163E+03  0.56887641656E+03  0.12699999809E+01 0.  1.
</event>
<event>
 5   0  0.2649086E-04  0.1594534E+04  0.7818609E-02  0.8823913E-01
       -1   -1    0    0    0  501  0.00000000000E+00  0.00000000000E+00  0.10364483516E+04  0.10364483516E+04  0.50400001928E-02 0.  1.
        1   -1    0    0  501    0  0.00000000000E+00  0.00000000000E+00 -0.61328124958E+03  0.61328124960E+03  0.50400001928E-02 0. -1.
    10030    2    1    2    0    0  0.00000000000E+00  0.00000000000E+00  0.42316710202E+03  0.16497296012E+04  0.15945335873E+04 0.  0.
        2    1    3    3  502    0  0.21780957846E+03 -0.45015357115E+03  0.85400837756E+03  0.98965123101E+03  0.25500000920E-02 0.  1.
       -2    1    3    3    0  502 -0.21780957846E+03  0.45015357115E+03 -0.43084127555E+03  0.66007837020E+03  0.25500000920E-02 0. -1.
</event>
<event>
 5   0  0.2649086E-04  0.1602840E+04  0.7818609E-02  0.8818805E-01
       -1   -1    0    0    0  501  0.00000000000E+00  0.00000000000E+00  0.10757065179E+04  0.10757065179E+04  0.50400001928E-02 0.  1.
        1   -1    0    0  501    0  0.00000000000E+00  0.00000000000E+00 -0.59707212713E+03  0.59707212715E+03  0.50400001928E-02 0. -1.
    10030    2    1    2    0    0  0.00000000000E+00  0.00000000000E+00  0.47863439076E+03  0.16727786451E+04  0.16028404522E+04 0.  0.
        2    1    3    3  502    0 -0.13889529634E+03  0.36071303041E+03  0.97199620525E+03  0.10460317475E+04  0.25500000920E-02 0.  1.
       -2    1    3    3    0  502  0.13889529634E+03 -0.36071303041E+03 -0.49336181449E+03  0.62674689761E+03  0.25500000920E-02 0. -1.
</event>
<event>
 5   0  0.2730707E-04  0.1601169E+04  0.7818609E-02  0.8819830E-01
       -1   -1    0    0    0  501  0.00000000000E+00  0.00000000000E+00  0.49866269404E+03  0.49866269406E+03  0.50400001928E-02 0. -1.
        1   -1    0    0  501    0  0.00000000000E+00  0.00000000000E+00 -0.12853087455E+04  0.12853087455E+04  0.50400001928E-02 0.  1.
    10030    2    1    2    0    0  0.00000000000E+00  0.00000000000E+00 -0.78664605146E+03  0.17839714396E+04  0.16011689751E+04 0.  0.
        5    1    3    3  502    0  0.77612733149E+03  0.37149562829E+02 -0.60809958042E+03  0.98669190451E+03  0.46999998093E+01 0. -1.
       -5    1    3    3    0  502 -0.77612733149E+03 -0.37149562829E+02 -0.17854647103E+03  0.79727953506E+03  0.46999998093E+01 0.  1.
</event>
<event>
 5   0  0.2649086E-04  0.1583262E+04  0.7818609E-02  0.8830897E-01
        1   -1    0    0  501    0  0.00000000000E+00  0.00000000000E+00  0.22739549174E+04  0.22739549174E+04  0.50400001928E-02 0.  1.
       -1   -1    0    0    0  501  0.00000000000E+00  0.00000000000E+00 -0.27559030550E+03  0.27559030554E+03  0.50400001928E-02 0. -1.
    10030    2    1    2    0    0  0.00000000000E+00  0.00000000000E+00  0.19983646119E+04  0.25495452230E+04  0.15832623667E+04 0.  0.
        2    1    3    3  502    0 -0.66571721767E+03 -0.42796022495E+03  0.96903194656E+03  0.12511403924E+04  0.25500000920E-02 0. -1.
       -2    1    3    3    0  502  0.66571721767E+03  0.42796022495E+03  0.10293326654E+04  0.12984048306E+04  0.25500000920E-02 0.  1.
</event>
<event>
 5   0  0.5315984E-04  0.1587092E+04  0.7818609E-02  0.8828517E-01
        2   -1    0    0  501    0  0.00000000000E+00  0.00000000000E+00  0.29557749136E+04  0.29557749136E+04  0.25500000920E-02 0.  1.
       -2   -1    0    0    0  501  0.00000000000E+00  0.00000000000E+00 -0.21304578052E+03  0.21304578054E+03  0.25500000920E-02 0. -1.
    10030    2    1    2    0    0  0.00000000000E+00  0.00000000000E+00  0.27427291331E+04  0.31688206941E+04  0.15870921505E+04 0.  0.
        2    1    3    3  502    0 -0.50229659363E+03 -0.61429824232E+03  0.13570813954E+04  0.15720477449E+04  0.25500000920E-02 0. -1.
       -2    1    3    3    0  502  0.50229659363E+03  0.61429824232E+03  0.13856477376E+04  0.15967729492E+04  0.25500000920E-02 0.  1.
</event>
<event>
 5   0  0.5315984E-04  0.1459613E+04  0.7818609E-02  0.8911763E-01
       -2   -1    0    0    0  501  0.00000000000E+00  0.00000000000E+00  0.15418589360E+04  0.15418589360E+04  0.25500000920E-02 0.  1.
        2   -1    0    0  501    0  0.00000000000E+00  0.00000000000E+00 -0.34543859594E+03  0.34543859595E+03  0.25500000920E-02 0. -1.
    10030    2    1    2    0    0  0.00000000000E+00  0.00000000000E+00  0.11964203401E+04  0.18872975320E+04  0.14596130802E+04 0.  0.
        2    1    3    3  502    0 -0.17964929889E+03 -0.31557394989E+03 -0.22033579894E+03  0.42474539756E+03  0.25500000920E-02 0. -1.
       -2    1    3    3    0  502  0.17964929889E+03  0.31557394989E+03  0.14167561390E+04  0.14625521344E+04  0.25500000920E-02 0.  1.
</event>
<event>
 5   0  0.5264308E-04  0.1600631E+04  0.7818609E-02  0.8820161E-01
        2   -1    0    0  501    0  0.00000000000E+00  0.00000000000E+00  0.22797725152E+04  0.22797725152E+04  0.25500000920E-02 0.  1.
       -2   -1    0    0    0  501  0.00000000000E+00  0.00000000000E+00 -0.28095120028E+03  0.28095120029E+03  0.25500000920E-02 0. -1.
    10030    2    1    2    0    0  0.00000000000E+00  0.00000000000E+00  0.19988213149E+04  0.25607237155E+04  0.16006309063E+04 0.  0.
        3    1    3    3  502    0 -0.16020876734E+03 -0.31705238556E+03  0.21467356056E+04  0.21759280399E+04  0.10100000352E+00 0.  1.
       -3    1    3    3    0  502  0.16020876734E+03  0.31705238556E+03 -0.14791429071E+03  0.38479567555E+03  0.10100000352E+00 0. -1.
</event>
<event>
 5   0  0.2689675E-04  0.1599264E+04  0.7818609E-02  0.8821001E-01
        1   -1    0    0  501    0  0.00000000000E+00  0.00000000000E+00  0.65389967842E+03  0.65389967844E+03  0.50400001928E-02 0. -1.
       -1   -1    0    0    0  501  0.00000000000E+00  0.00000000000E+00 -0.97784260643E+03  0.97784260645E+03  0.50400001928E-02 0.  1.
    10030    2    1    2    0    0  0.00000000000E+00  0.00000000000E+00 -0.32394292801E+03  0.16317422849E+04  0.15992635379E+04 0.  0.
        1    1    3    3  502    0  0.26141864858E+03 -0.45993776068E+02  0.60763872304E+03  0.66308367121E+03  0.50400001928E-02 0. -1.
       -1    1    3    3    0  502 -0.26141864858E+03  0.45993776068E+02 -0.93158165105E+03  0.96865861368E+03  0.50400001928E-02 0.  1.
</event>
<event>
 5   0  0.2649086E-04  0.1615148E+04  0.7818609E-02  0.8811295E-01
        1   -1    0    0  501    0  0.00000000000E+00  0.00000000000E+00  0.68927714897E+03  0.68927714898E+03  0.50400001928E-02 0.  1.
       -1   -1    0    0    0  501  0.00000000000E+00  0.00000000000E+00 -0.94617407340E+03  0.94617407341E+03  0.50400001928E-02 0. -1.
    10030    2    1    2    0    0  0.00000000000E+00  0.00000000000E+00 -0.25689692444E+03  0.16354512224E+04  0.16151484981E+04 0.  0.
        2    1    3    3  502    0  0.72154208845E+03  0.10777636085E+03 -0.47912161854E+03  0.87280940343E+03  0.25500000920E-02 0. -1.
       -2    1    3    3    0  502 -0.72154208845E+03 -0.10777636085E+03  0.22222469410E+03  0.76264181897E+03  0.25500000920E-02 0.  1.
</event>
<event>
 5   0  0.2649086E-04  0.1610356E+04  0.7818609E-02  0.8814211E-01
        1   -1    0    0  501    0  0.00000000000E+00  0.00000000000E+00  0.97254163675E+03  0.97254163676E+03  0.50400001928E-02 0.  1.
       -1   -1    0    0    0  501  0.00000000000E+00  0.00000000000E+00 -0.66661610984E+03  0.66661610986E+03  0.50400001928E-02 0. -1.
    10030    2    1    2    0    0  0.00000000000E+00  0.00000000000E+00  0.30592552691E+03  0.16391577466E+04  0.16103563861E+04 0.  0.
        2    1    3    3  502    0 -0.17952309499E+03  0.75854033687E+03  0.35831319784E+03  0.85790461711E+03  0.25500000920E-02 0.  1.
       -2    1    3    3    0  502  0.17952309499E+03 -0.75854033687E+03 -0.52387670935E+02  0.78125312951E+03  0.25500000920E-02 0. -1.
</event>
<event>
 5   0  0.5264308E-04  0.1602136E+04  0.7818609E-02  0.8819237E-01
       -2   -1    0    0    0  501  0.00000000000E+00  0.00000000000E+00  0.42634784197E+03  0.42634784198E+03  0.25500000920E-02 0. -1.
        2   -1    0    0  501    0  0.00000000000E+00  0.00000000000E+00 -0.15051317668E+04  0.15051317668E+04  0.25500000920E-02 0.  1.
    10030    2    1    2    0    0  0.00000000000E+00  0.00000000000E+00 -0.10787839249E+04  0.19314796088E+04  0.16021356755E+04 0.  0.
        3    1    3    3  502    0  0.28702183617E+03 -0.63883428775E+03 -0.10081987140E+04  0.12275811333E+04  0.10100000352E+00 0.  1.
       -3    1    3    3    0  502 -0.28702183617E+03  0.63883428775E+03 -0.70585210826E+02  0.70389847552E+03  0.10100000352E+00 0. -1.
</event>
<event>
 5   0  0.5315984E-04  0.1657800E+04  0.7818609E-02  0.8785806E-01
       -2   -1    0    0    0  501  0.00000000000E+00  0.00000000000E+00  0.43178723728E+03  0.43178723729E+03  0.25500000920E-02 0.  1.
        2   -1    0    0  501    0  0.00000000000E+00  0.00000000000E+00 -0.15912351795E+04  0.15912351795E+04  0.25500000920E-02 0. -1.
    10030    2    1    2    0    0  0.00000000000E+00  0.00000000000E+00 -0.11594479422E+04  0.20230224168E+04  0.16577997974E+04 0.  0.
        2    1    3    3  502    0  0.82425514158E+03 -0.53966398322E+02 -0.49547751874E+03  0.96322732631E+03  0.25500000920E-02 0.  1.
       -2    1    3    3    0  502 -0.82425514158E+03  0.53966398322E+02 -0.66397042351E+03  0.10597950905E+04  0.25500000920E-02 0. -1.
</event>
<event>
 5   0  0.5315984E-04  0.1559900E+04  0.7818609E-02  0.8845569E-01
        2   -1    0    0  501    0  0.00000000000E+00  0.00000000000E+00  0.63805371053E+03  0.63805371054E+03  0.25500000920E-02 0.  1.
       -2   -1    0    0    0  501  0.00000000000E+00  0.00000000000E+00 -0.95340204836E+03  0.95340204836E+03  0.25500000920E-02 0. -1.
    10030    2    1    2    0    0  0.00000000000E+00  0.00000000000E+00 -0.31534833783E+03  0.15914557589E+04  0.15598996309E+04 0.  0.
        2    1    3    3  502    0  0.12894093655E+02 -0.58959069384E+03  0.36308110617E+03  0.69253977039E+03  0.25500000920E-02 0.  1.
       -2    1    3    3    0  502 -0.12894093655E+02  0.58959069384E+03 -0.67842944400E+03  0.89891598851E+03  0.25500000920E-02 0. -1.
</event>
<event>
 5   0  0.2763895E-04  0.1605952E+04  0.7818609E-02  0.8816900E-01
       -1   -1    0    0    0  501  0.00000000000E+00  0.00000000000E+00  0.43583629838E+03  0.43583629841E+03  0.50400001928E-02 0.  1.
        1   -1    0    0  501    0  0.00000000000E+00  0.00000000000E+00 -0.14793863853E+04  0.14793863854E+04  0.50400001928E-02 0. -1.
    10030    2    1    2    0    0  0.00000000000E+00  0.00000000000E+00 -0.10435500870E+04  0.19152226838E+04  0.16059517877E+04 0.  0.
        4    1    3    3  502    0 -0.40501057925E+03  0.69196976973E+03 -0.46961503687E+03  0.92919084546E+03  0.12699999809E+01 0.  1.
       -4    1    3    3    0  502  0.40501057925E+03 -0.69196976973E+03 -0.57393505009E+03  0.98603183831E+03  0.12699999809E+01 0. -1.
</event>
<event>
 5   0  0.1908125E-04  0.1572091E+04  0.7818609E-02  0.8837879E-01
        3   -1    0    0  501    0  0.00000000000E+00  0.00000000000E+00  0.17322069186E+04  0.17322069215E+04  0.10100000352E+00 0.  1.
       -3   -1    0    0    0  501  0.00000000000E+00  0.00000000000E+00 -0.35669382504E+03  0.35669383934E+03  0.10100000352E+00 0. -1.
    10030    2    1    2    0    0  0.00000000000E+00  0.00000000000E+00  0.13755130936E+04  0.20889007609E+04  0.15720910019E+04 0.  0.
        1    1    3    3  502    0  0.47282488501E+03 -0.23707884104E+03  0.14603682568E+04  0.15532048140E+04  0.50400001928E-02 0.  1.
       -1    1    3    3    0  502 -0.47282488501E+03  0.23707884104E+03 -0.84855163237E+02  0.53569594688E+03  0.50400001928E-02 0. -1.
</event>
<event>
 5   0  0.5131239E-04  0.1503348E+04  0.7818609E-02  0.8882230E-01
       -2   -1    0    0    0  501  0.00000000000E+00  0.00000000000E+00  0.46431097996E+03  0.46431097996E+03  0.25500000920E-02 0. -1.
        2   -1    0    0  501    0  0.00000000000E+00  0.00000000000E+00 -0.12168862504E+04  0.12168862504E+04  0.25500000920E-02 0.  1.
    10030    2    1    2    0    0  0.00000000000E+00  0.00000000000E+00 -0.75257527041E+03  0.16811972303E+04  0.15033477940E+04 0.  0.
        1    1    3    3  502    0  0.17536473287E+03 -0.43206642448E+03  0.28301719120E+03  0.54546577824E+03  0.50400001928E-02 0. -1.
       -1    1    3    3    0  502 -0.17536473287E+03  0.43206642448E+03 -0.10355924616E+04  0.11357314521E+04  0.50400001928E-02 0.  1.
</event>
<event>
 5   0  0.5264308E-04  0.1584960E+04  0.7818609E-02  0.8829842E-01
        2   -1    0    0  501    0  0.00000000000E+00  0.00000000000E+00  0.23107462259E+04  0.23107462259E+04  0.25500000920E-02 0.  1.
       -2   -1    0    0    0  501  0.00000000000E+00  0.00000000000E+00 -0.27178417314E+03  0.27178417315E+03  0.25500000920E-02 0. -1.
    10030    2    1    2    0    0  0.00000000000E+00  0.00000000000E+00  0.20389620528E+04  0.25825303991E+04  0.15849596239E+04 0.  0.
        3    1    3    3  502    0 -0.14839834995E+03  0.36229008683E+03  0.21421684060E+04  0.21776504924E+04  0.10100000352E+00 0.  1.
       -3    1    3    3    0  502  0.14839834995E+03 -0.36229008683E+03 -0.10320635320E+03  0.40487990667E+03  0.10100000352E+00 0. -1.
</event>
<event>
 5   0  0.2649086E-04  0.1592545E+04  0.7818609E-02  0.8825141E-01
       -1   -1    0    0    0  501  0.00000000000E+00  0.00000000000E+00  0.32071149487E+03  0.32071149491E+03  0.50400001928E-02 0.  1.
        1   -1    0    0  501    0  0.00000000000E+00  0.00000000000E+00 -0.19770109719E+04  0.19770109719E+04  0.50400001928E-02 0. -1.
    10030    2    1    2    0    0  0.00000000000E+00  0.00000000000E+00 -0.16562994770E+04  0.22977224668E+04  0.15925453139E+04 0.  0.
        2    1    3    3  502    0 -0.28219956097E+03 -0.62517942508E+03 -0.14116619513E+04  0.15694825168E+04  0.25500000920E-02 0. -1.
       -2    1    3    3    0  502  0.28219956097E+03  0.62517942508E+03 -0.24463752565E+03  0.72823994996E+03  0.25500000920E-02 0.  1.
</event>
<event>
 5   0  0.5264308E-04  0.1574926E+04  0.7818609E-02  0.8836102E-01
       -2   -1    0    0    0  501  0.00000000000E+00  0.00000000000E+00  0.42796423304E+03  0.42796423305E+03  0.25500000920E-02 0.  1.
        2   -1    0    0  501    0  0.00000000000E+00  0.00000000000E+00 -0.14489478273E+04  0.14489478273E+04  0.25500000920E-02 0. -1.
    10030    2    1    2    0    0  0.00000000000E+00  0.00000000000E+00 -0.10209835943E+04  0.18769120604E+04  0.15749258340E+04 0.  0.
        3    1    3    3  502    0 -0.34119016259E+03  0.70466775832E+03 -0.40985830244E+03  0.88371444197E+03  0.10100000352E+00 0. -1.
       -3    1    3    3    0  502  0.34119016259E+03 -0.70466775832E+03 -0.61112529184E+03  0.99319761840E+03  0.10100000352E+00 0.  1.
</event>
<event>
 5   0  0.5315984E-04  0.1506463E+04  0.7818609E-02  0.8880166E-01
       -2   -1    0    0    0  501  0.00000000000E+00  0.00000000000E+00  0.80690111539E+03  0.80690111539E+03  0.25500000920E-02 0. -1.
        2   -1    0    0  501    0  0.00000000000E+00  0.00000000000E+00 -0.70313195737E+03  0.70313195738E+03  0.25500000920E-02 0.  1.
    10030    2    1    2    0    0  0.00000000000E+00  0.00000000000E+00  0.10376915802E+03  0.15100330728E+04  0.15064633559E+04 0.  0.
        2    1    3    3  502    0  0.57591367893E+03  0.32455519497E+03 -0.31000461005E+03  0.73014758674E+03  0.25500000920E-02 0.  1.
       -2    1    3    3    0  502 -0.57591367893E+03 -0.32455519497E+03  0.41377376807E+03  0.77988548603E+03  0.25500000920E-02 0. -1.
</event>
<event>
 5   0  0.5381164E-04  0.1579747E+04  0.7818609E-02  0.8833088E-01
        2   -1    0    0  501    0  0.00000000000E+00  0.00000000000E+00  0.11935793057E+04  0.11935793057E+04  0.25500000920E-02 0. -1.
       -2   -1    0    0    0  501  0.00000000000E+00  0.00000000000E+00 -0.52271328017E+03  0.52271328017E+03  0.25500000920E-02 0.  1.
    10030    2    1    2    0    0  0.00000000000E+00  0.00000000000E+00  0.67086602551E+03  0.17162925858E+04  0.15797465037E+04 0.  0.
        5    1    3    3  502    0  0.38621390772E+03 -0.59227263002E+03  0.71789781231E+03  0.10076444858E+04  0.46999998093E+01 0. -1.
       -5    1    3    3    0  502 -0.38621390772E+03  0.59227263002E+03 -0.47031786798E+02  0.70864810008E+03  0.46999998093E+01 0.  1.
</event>
<event>
 5   0  0.2730707E-04  0.1613542E+04  0.7818609E-02  0.8812272E-01
       -1   -1    0    0    0  501  0.00000000000E+00  0.00000000000E+00  0.74125210388E+03  0.74125210389E+03  0.50400001928E-02 0.  1.
        1   -1    0    0  501    0  0.00000000000E+00  0.00000000000E+00 -0.87808107252E+03  0.87808107253E+03  0.50400001928E-02 0. -1.
    10030    2    1    2    0    0  0.00000000000E+00  0.00000000000E+00 -0.13682896864E+03  0.16193331764E+04  0.16135419950E+04 0.  0.
        5    1    3    3  502    0  0.70308569209E+03  0.10968705964E+03  0.31307693245E+03  0.77743166716E+03  0.46999998093E+01 0. -1.
       -5    1    3    3    0  502 -0.70308569209E+03 -0.10968705964E+03 -0.44990590109E+03  0.84190150927E+03  0.46999998093E+01 0.  1.
</event>
<event>
 5   0  0.2730707E-04  0.1613943E+04  0.7818609E-02  0.8812028E-01
        1   -1    0    0  501    0  0.00000000000E+00  0.00000000000E+00  0.10034880608E+04  0.10034880608E+04  0.50400001928E-02 0. -1.
       -1   -1    0    0    0  501  0.00000000000E+00  0.00000000000E+00 -0.64893971520E+03  0.64893971522E+03  0.50400001928E-02 0.  1.
    10030    2    1    2    0    0  0.00000000000E+00  0.00000000000E+00  0.35454834562E+03  0.16524277761E+04  0.16139433155E+04 0.  0.
        5    1    3    3  502    0  0.65423670375E+03 -0.41161802132E+03  0.41459010363E+03  0.87713288847E+03  0.46999998093E+01 0.  1.
       -5    1    3    3    0  502 -0.65423670375E+03  0.41161802132E+03 -0.60041758016E+02  0.77529488758E+03  0.46999998093E+01 0. -1.
</event>
<event>
 5   0  0.5131239E-04  0.1606715E+04  0.7818609E-02  0.8816433E-01
       -2   -1    0    0    0  501  0.00000000000E+00  0.00000000000E+00  0.49806631584E+03  0.49806631585E+03  0.25500000920E-02 0. -1.
        2   -1    0    0  501    0  0.00000000000E+00  0.00000000000E+00 -0.12957784387E+04  0.12957784387E+04  0.25500000920E-02 0.  1.
    10030    2    1    2    0    0  0.00000000000E+00  0.00000000000E+00 -0.79771212282E+03  0.17938447545E+04  0.16067153987E+04 0.  0.
        1    1    3    3  502    0 -0.35807908323E+02 -0.47440421783E+03 -0.11215837425E+04  0.12183150904E+04  0.50400001928E-02 0.  1.
       -1    1    3    3    0  502  0.35807908323E+02  0.47440421783E+03  0.32387161964E+03  0.57552966408E+03  0.50400001928E-02 0. -1.
</event>
<event>
 5   0  0.2763895E-04  0.1573575E+04  0.7818609E-02  0.8836948E-01
       -1   -1    0    0    0  501  0.00000000000E+00  0.00000000000E+00  0.57850590591E+03  0.57850590593E+03  0.50400001928E-02 0. -1.
        1   -1    0    0  501    0  0.00000000000E+00  0.00000000000E+00 -0.10700573372E+04  0.10700573372E+04  0.50400001928E-02 0.  1.
    10030    2    1    2    0    0  0.00000000000E+00  0.00000000000E+00 -0.49155143126E+03  0.16485632431E+04  0.15735748971E+04 0.  0.
        4    1    3    3  502    0 -0.53623001065E+03  0.30382116904E+03  0.26659382280E+03  0.67150860480E+03  0.12699999809E+01 0. -1.
       -4    1    3    3    0  502  0.53623001065E+03 -0.30382116904E+03 -0.75814525405E+03  0.97705463830E+03  0.12699999809E+01 0.  1.
</event>
<event>
 5   0  0.5315984E-04  0.1608662E+04  0.7818609E-02  0.8815244E-01
        2   -1    0    0  501    0  0.00000000000E+00  0.00000000000E+00  0.93320032237E+03  0.93320032237E+03  0.25500000920E-02 0. -1.
       -2   -1    0    0    0  501  0.00000000000E+00  0.00000000000E+00 -0.69325768647E+03  0.69325768647E+03  0.25500000920E-02 0.  1.
    10030    2    1    2    0    0  0.00000000000E+00  0.00000000000E+00  0.23994263590E+03  0.16264580088E+04  0.16086619241E+04 0.  0.
        2    1    3    3  502    0 -0.13518578300E+03  0.30127440624E+03  0.86150623092E+03  0.92262367718E+03  0.25500000920E-02 0. -1.
       -2    1    3    3    0  502  0.13518578300E+03 -0.30127440624E+03 -0.62156359502E+03  0.70383433167E+03  0.25500000920E-02 0.  1.
</event>
<event>
 5   0  0.2689675E-04  0.1597966E+04  0.7818609E-02  0.8821798E-01
        1   -1    0    0  501    0  0.00000000000E+00  0.00000000000E+00  0.23324343002E+04  0.23324343002E+04  0.50400001928E-02 0.  1.
       -1   -1    0    0    0  501  0.00000000000E+00  0.00000000000E+00 -0.27369431642E+03  0.27369431647E+03  0.50400001928E-02 0. -1.
    10030    2    1    2    0    0  0.00000000000E+00  0.00000000000E+00  0.20587399838E+04  0.26061286167E+04  0.15979662217E+04 0.  0.
        1    1    3    3  502    0 -0.43002772728E+03  0.20434474767E+03 -0.17072091844E+02  0.47641586715E+03  0.50400001928E-02 0. -1.
       -1    1    3    3    0  502  0.43002772728E+03 -0.20434474767E+03  0.20758120756E+04  0.21297127495E+04  0.50400001928E-02 0.  1.
</event>
<event>
 5   0  0.5083831E-04  0.1628353E+04  0.7818609E-02  0.8803317E-01
       -2   -1    0    0    0  501  0.00000000000E+00  0.00000000000E+00  0.45815869303E+03  0.45815869303E+03  0.25500000920E-02 0. -1.
        2   -1    0    0  501    0  0.00000000000E+00  0.00000000000E+00 -0.14468415667E+04  0.14468415667E+04  0.25500000920E-02 0.  1.
    10030    2    1    2    0    0  0.00000000000E+00  0.00000000000E+00 -0.98868287367E+03  0.19050002597E+04  0.16283525923E+04 0.  0.
        4    1    3    3  502    0  0.16402947032E+02 -0.43922523655E+03 -0.12961189904E+04  0.13686175197E+04  0.12699999809E+01 0.  1.
       -4    1    3    3    0  502 -0.16402947032E+02  0.43922523655E+03  0.30743611669E+03  0.53638274006E+03  0.12699999809E+01 0. -1.
</event>
<event>
 5   0  0.2763895E-04  0.1605428E+04  0.7818609E-02  0.8817220E-01
        1   -1    0    0  501    0  0.00000000000E+00  0.00000000000E+00  0.50601647732E+03  0.50601647734E+03  0.50400001928E-02 0.  1.
       -1   -1    0    0    0  501  0.00000000000E+00  0.00000000000E+00 -0.12733773530E+04  0.12733773530E+04  0.50400001928E-02 0. -1.
    10030    2    1    2    0    0  0.00000000000E+00  0.00000000000E+00 -0.76736087565E+03  0.17793938303E+04  0.16054281952E+04 0.  0.
        4    1    3    3  502    0 -0.86418635469E+02  0.41136198692E+03 -0.11416416435E+04  0.12165665292E+04  0.12699999809E+01 0. -1.
       -4    1    3    3    0  502  0.86418635469E+02 -0.41136198692E+03  0.37428076784E+03  0.56282730115E+03  0.12699999809E+01 0.  1.
</event>
<event>
 5   0  0.1908125E-04  0.1370201E+04  0.7818609E-02  0.8975675E-01
       -4   -1    0    0    0  501  0.00000000000E+00  0.00000000000E+00  0.14224319652E+04  0.14224325321E+04  0.12699999809E+01 0.  1.
        4   -1    0    0  501    0  0.00000000000E+00  0.00000000000E+00 -0.32997033157E+03  0.32997277557E+03  0.12699999809E+01 0. -1.
    10030    2    1    2    0    0  0.00000000000E+00  0.00000000000E+00  0.10924616336E+04  0.17524053077E+04  0.13702014237E+04 0.  0.
        4    1    3    3  502    0 -0.11213614773E+03  0.82233589276E+02  0.14041931497E+04  0.14110623279E+04  0.12699999809E+01 0.  1.
       -4    1    3    3    0  502  0.11213614773E+03 -0.82233589276E+02 -0.31173151606E+03  0.34134297977E+03  0.12699999809E+01 0. -1.
</event>
<event>
 5   0  0.2763895E-04  0.1597945E+04  0.7818609E-02  0.8821811E-01
        1   -1    0    0  501    0  0.00000000000E+00  0.00000000000E+00  0.18217875640E+04  0.18217875640E+04  0.50400001928E-02 0. -1.
       -1   -1    0    0    0  501  0.00000000000E+00  0.00000000000E+00 -0.35040145519E+03  0.35040145523E+03  0.50400001928E-02 0.  1.
    10030    2    1    2    0    0  0.00000000000E+00  0.00000000000E+00  0.14713861088E+04  0.21721890192E+04  0.15979449471E+04 0.  0.
        4    1    3    3  502    0 -0.15597607630E+03 -0.20612912895E+03 -0.29198769694E+03  0.38996946322E+03  0.12699999809E+01 0.  1.
       -4    1    3    3    0  502  0.15597607630E+03  0.20612912895E+03  0.17633738057E+04  0.17822195560E+04  0.12699999809E+01 0. -1.
</event>
<event>
 5   0  0.2730707E-04  0.1600908E+04  0.7818609E-02  0.8819990E-01
       -1   -1    0    0    0  501  0.00000000000E+00  0.00000000000E+00  0.53461782662E+03  0.53461782665E+03  0.50400001928E-02 0. -1.
        1   -1    0    0  501    0  0.00000000000E+00  0.00000000000E+00 -0.11984762678E+04  0.11984762678E+04  0.50400001928E-02 0.  1.
    10030    2    1    2    0    0  0.00000000000E+00  0.00000000000E+00 -0.66385844122E+03  0.17330940945E+04  0.16009082142E+04 0.  0.
        5    1    3    3  502    0 -0.50161146051E+03  0.56676824736E+03 -0.49911326484E+02  0.75852062203E+03  0.46999998093E+01 0. -1.
       -5    1    3    3    0  502  0.50161146051E+03 -0.56676824736E+03 -0.61394711473E+03  0.97457347246E+03  0.46999998093E+01 0.  1.
</event>
<event>
 5   0  0.5131239E-04  0.1604096E+04  0.7818609E-02  0.8818036E-01
        2   -1    0    0  501    0  0.00000000000E+00  0.00000000000E+00  0.77542084488E+03  0.77542084489E+03  0.25500000920E-02 0. -1.
       -2   -1    0    0    0  501  0.00000000000E+00  0.00000000000E+00 -0.82958927450E+03  0.82958927451E+03  0.25500000920E-02 0.  1.
    10030    2    1    2    0    0  0.00000000000E+00  0.00000000000E+00 -0.54168429621E+02  0.16050101194E+04  0.16040957779E+04 0.  0.
        1    1    3    3  502    0 -0.57719315710E+01  0.16473739242E+03  0.75828936657E+03  0.77599902521E+03  0.50400001928E-02 0. -1.
       -1    1    3    3    0  502  0.57719315710E+01 -0.16473739242E+03 -0.81245779619E+03  0.82901109418E+03  0.50400001928E-02 0.  1.
</event>
<event>
 5   0  0.2730707E-04  0.1614588E+04  0.7818609E-02  0.8811636E-01
       -1   -1    0    0    0  501  0.00000000000E+00  0.00000000000E+00  0.15912864919E+04  0.15912864919E+04  0.50400001928E-02 0. -1.
        1   -1    0    0  501    0  0.00000000000E+00  0.00000000000E+00 -0.40955750879E+03  0.40955750882E+03  0.50400001928E-02 0.  1.
    10030    2    1    2    0    0  0.00000000000E+00  0.00000000000E+00  0.11817289831E+04  0.20008440007E+04  0.16145876643E+04 0.  0.
        5    1    3    3  502    0 -0.42433408390E+02 -0.50168947288E+03 -0.19113552864E+03  0.53856086160E+03  0.46999998093E+01 0.  1.
       -5    1    3    3    0  502  0.42433408390E+02  0.50168947288E+03  0.13728645118E+04  0.14622831391E+04  0.46999998093E+01 0. -1.
</event>
<event>
 5   0  0.5131239E-04  0.1476358E+04  0.7818609E-02  0.8900329E-01
        2   -1    0    0  501    0  0.00000000000E+00  0.00000000000E+00  0.16916933811E+04  0.16916933811E+04  0.25500000920E-02 0. -1.
       -2   -1    0    0    0  501  0.00000000000E+00  0.00000000000E+00 -0.32210797679E+03  0.32210797680E+03  0.25500000920E-02 0.  1.
    10030    2    1    2    0    0  0.00000000000E+00  0.00000000000E+00  0.13695854044E+04  0.20138013579E+04  0.14763575886E+04 0.  0.
        1    1    3    3  502    0  0.50533229860E+03 -0.37170180195E+03  0.12155139183E+04  0.13678439411E+04  0.50400001928E-02 0.  1.
       -1    1    3    3    0  502 -0.50533229860E+03  0.37170180195E+03  0.15407148608E+03  0.64595741688E+03  0.50400001928E-02 0. -1.
</event>
<event>
 5   0  0.2796994E-04  0.1657799E+04  0.7818609E-02  0.8785806E-01
       -1   -1    0    0    0  501  0.00000000000E+00  0.00000000000E+00  0.11637300734E+04  0.11637300735E+04  0.50400001928E-02 0. -1.
        1   -1    0    0  501    0  0.00000000000E+00  0.00000000000E+00 -0.59040690347E+03  0.59040690349E+03  0.50400001928E-02 0.  1.
    10030    2    1    2    0    0  0.00000000000E+00  0.00000000000E+00  0.57332316997E+03  0.17541369769E+04  0.16577988650E+04 0.  0.
        3    1    3    3  502    0  0.27360026126E+03 -0.77890739860E+03  0.20804435425E+03  0.85137318615E+03  0.10100000352E+00 0.  1.
       -3    1    3    3    0  502 -0.27360026126E+03  0.77890739860E+03  0.36527881572E+03  0.90276379080E+03  0.10100000352E+00 0. -1.
</event>
<event>
 5   0  0.2730707E-04  0.1600569E+04  0.7818609E-02  0.8820198E-01
        1   -1    0    0  501    0  0.00000000000E+00  0.00000000000E+00  0.13739859166E+04  0.13739859166E+04  0.50400001928E-02 0. -1.
       -1   -1    0    0    0  501  0.00000000000E+00  0.00000000000E+00 -0.46612963072E+03  0.46612963075E+03  0.50400001928E-02 0.  1.
    10030    2    1    2    0    0  0.00000000000E+00  0.00000000000E+00  0.90785628586E+03  0.18401155473E+04  0.16005693336E+04 0.  0.
        5    1    3    3  502    0  0.18334701247E+03  0.60548718259E+02 -0.43893253182E+03  0.47954784094E+03  0.46999998093E+01 0.  1.
       -5    1    3    3    0  502 -0.18334701247E+03 -0.60548718259E+02  0.13467888177E+04  0.13605677064E+04  0.46999998093E+01 0. -1.
</event>
<event>
 5   0  0.5083831E-04  0.1572214E+04  0.7818609E-02  0.8837802E-01
        2   -1    0    0  501    0  0.00000000000E+00  0.00000000000E+00  0.51130697075E+03  0.51130697075E+03  0.25500000920E-02 0.  1.
       -2   -1    0    0    0  501  0.00000000000E+00  0.00000000000E+00 -0.12085977431E+04  0.12085977431E+04  0.25500000920E-02 0. -1.
    10030    2    1    2    0    0  0.00000000000E+00  0.00000000000E+00 -0.69729077239E+03  0.17199047139E+04  0.15722142995E+04 0.  0.
        4    1    3    3  502    0  0.48327520822E+02 -0.11256721319E+03 -0.11980906975E+04  0.12043379339E+04  0.12699999809E+01 0. -1.
       -4    1    3    3    0  502 -0.48327520822E+02  0.11256721319E+03  0.50079992509E+03  0.51556677999E+03  0.12699999809E+01 0.  1.
</event>
<event>
 5   0  0.5315984E-04  0.1608698E+04  0.7818609E-02  0.8815222E-01
       -2   -1    0    0    0  501  0.00000000000E+00  0.00000000000E+00  0.84516088891E+03  0.84516088891E+03  0.25500000920E-02 0. -1.
        2   -1    0    0  501    0  0.00000000000E+00  0.00000000000E+00 -0.76550801086E+03  0.76550801087E+03  0.25500000920E-02 0.  1.
    10030    2    1    2    0    0  0.00000000000E+00  0.00000000000E+00  0.79652878044E+02  0.16106688998E+04  0.16086981456E+04 0.  0.
        2    1    3    3  502    0 -0.17870454123E+03 -0.35234846028E+03  0.74132210157E+03  0.84002571913E+03  0.25500000920E-02 0. -1.
       -2    1    3    3    0  502  0.17870454123E+03  0.35234846028E+03 -0.66166922352E+03  0.77064318065E+03  0.25500000920E-02 0.  1.
</event>
<event>
 5   0  0.2763895E-04  0.1588787E+04  0.7818609E-02  0.8827466E-01
       -1   -1    0    0    0  501  0.00000000000E+00  0.00000000000E+00  0.47378791618E+03  0.47378791621E+03  0.50400001928E-02 0.  1.
        1   -1    0    0  501    0  0.00000000000E+00  0.00000000000E+00 -0.13319489811E+04  0.13319489811E+04  0.50400001928E-02 0. -1.
    10030    2    1    2    0    0  0.00000000000E+00  0.00000000000E+00 -0.85816106494E+03  0.18057368973E+04  0.15887873769E+04 0.  0.
        4    1    3    3  502    0 -0.39366504153E+03 -0.42954748770E+03 -0.10427930176E+04  0.11945300748E+04  0.12699999809E+01 0. -1.
       -4    1    3    3    0  502  0.39366504153E+03  0.42954748770E+03  0.18463195265E+03  0.61120682257E+03  0.12699999809E+01 0.  1.
</event>
<event>
 5   0  0.5381164E-04  0.1636892E+04  0.7818609E-02  0.8798199E-01
        2   -1    0    0  501    0  0.00000000000E+00  0.00000000000E+00  0.10646769732E+04  0.10646769732E+04  0.25500000920E-02 0. -1.
       -2   -1    0    0    0  501  0.00000000000E+00  0.00000000000E+00 -0.62916191868E+03  0.62916191869E+03  0.25500000920E-02 0.  1.
    10030    2    1    2    0    0  0.00000000000E+00  0.00000000000E+00  0.43551505449E+03  0.16938388919E+04  0.16368924305E+04 0.  0.
        5    1    3    3  502    0 -0.73859652866E+03 -0.33795134289E+02  0.58091578368E+03  0.94029366741E+03  0.46999998093E+01 0. -1.
       -5    1    3    3    0  502  0.73859652866E+03  0.33795134289E+02 -0.14540072919E+03  0.75354522445E+03  0.46999998093E+01 0.  1.
</event>
<event>
 5   0  0.2689675E-04  0.1686292E+04  0.7818609E-02  0.8769221E-01
        1   -1    0    0  501    0  0.00000000000E+00  0.00000000000E+00  0.10354519087E+04  0.10354519088E+04  0.50400001928E-02 0.  1.
       -1   -1    0    0    0  501  0.00000000000E+00  0.00000000000E+00 -0.68655532420E+03  0.68655532422E+03  0.50400001928E-02 0. -1.
    10030    2    1    2    0    0  0.00000000000E+00  0.00000000000E+00  0.34889658454E+03  0.17220072330E+04  0.16862918145E+04 0.  0.
        1    1    3    3  502    0  0.80029892977E+03 -0.16429419732E+03 -0.38349665466E+02  0.81788853588E+03  0.50400001928E-02 0.  1.
       -1    1    3    3    0  502 -0.80029892977E+03  0.16429419732E+03  0.38724625001E+03  0.90411869709E+03  0.50400001928E-02 0. -1.
</event>
<event>
 5   0  0.5083831E-04  0.1635807E+04  0.7818609E-02  0.8798847E-01
       -2   -1    0    0    0  501  0.00000000000E+00  0.00000000000E+00  0.12497758924E+04  0.12497758924E+04  0.25500000920E-02 0.  1.
        2   -1    0    0  501    0  0.00000000000E+00  0.00000000000E+00 -0.53526888921E+03  0.53526888922E+03  0.25500000920E-02 0. -1.
    10030    2    1    2    0    0  0.00000000000E+00  0.00000000000E+00  0.71450700317E+03  0.17850447816E+04  0.16358070225E+04 0.  0.
        4    1    3    3  502    0  0.32225323956E+03 -0.37216193716E+03  0.10699982574E+04  0.11778155805E+04  0.12699999809E+01 0.  1.
       -4    1    3    3    0  502 -0.32225323956E+03  0.37216193716E+03 -0.35549125428E+03  0.60722920108E+03  0.12699999809E+01 0. -1.
</event>
<event>
 5   0  0.2649086E-04  0.1558263E+04  0.7818609E-02  0.8846607E-01
        1   -1    0    0  501    0  0.00000000000E+00  0.00000000000E+00  0.11701490098E+04  0.11701490098E+04  0.50400001928E-02 0.  1.
       -1   -1    0    0    0  501  0.00000000000E+00  0.00000000000E+00 -0.51877664959E+03  0.51877664961E+03  0.50400001928E-02 0. -1.
    10030    2    1    2    0    0  0.00000000000E+00  0.00000000000E+00  0.65137236017E+03  0.16889256594E+04  0.15582631136E+04 0.  0.
        2    1    3    3  502    0 -0.33130331546E+03  0.15515594723E+03  0.10712709608E+04  0.11320144550E+04  0.25500000920E-02 0.  1.
       -2    1    3    3    0  502  0.33130331546E+03 -0.15515594723E+03 -0.41989860062E+03  0.55691120442E+03  0.25500000920E-02 0. -1.
</event>
<event>
 5   0  0.2649086E-04  0.1601463E+04  0.7818609E-02  0.8819650E-01
       -1   -1    0    0    0  501  0.00000000000E+00  0.00000000000E+00  0.84988305393E+03  0.84988305394E+03  0.50400001928E-02 0. -1.
        1   -1    0    0  501    0  0.00000000000E+00  0.00000000000E+00 -0.75442267484E+03  0.75442267486E+03  0.50400001928E-02 0.  1.
    10030    2    1    2    0    0  0.00000000000E+00  0.00000000000E+00  0.95460379089E+02  0.16043057288E+04  0.16014631396E+04 0.  0.
        2    1    3    3  502    0  0.31169838175E+02  0.76349579352E+03 -0.19201376286E+03  0.78788747335E+03  0.25500000920E-02 0.  1.
       -2    1    3    3    0  502 -0.31169838175E+02 -0.76349579352E+03  0.28747414195E+03  0.81641825545E+03  0.25500000920E-02 0. -1.
</event>
<event>
 5   0  0.5315984E-04  0.1629836E+04  0.7818609E-02  0.8802425E-01
       -2   -1    0    0    0  501  0.00000000000E+00  0.00000000000E+00  0.34954369800E+03  0.34954369801E+03  0.25500000920E-02 0.  1.
        2   -1    0    0  501    0  0.00000000000E+00  0.00000000000E+00 -0.18998818374E+04  0.18998818374E+04  0.25500000920E-02 0. -1.
    10030    2    1    2    0    0  0.00000000000E+00  0.00000000000E+00 -0.15503381394E+04  0.22494255354E+04  0.16298364620E+04 0.  0.
        2    1    3    3  502    0  0.35913186635E+03  0.33152229192E+03  0.12480254819E+03  0.50443870144E+03  0.25500000920E-02 0.  1.
       -2    1    3    3    0  502 -0.35913186635E+03 -0.33152229192E+03 -0.16751406876E+04  0.17449868340E+04  0.25500000920E-02 0. -1.
</event>
<event>
 5   0  0.2730707E-04  0.1576040E+04  0.7818609E-02  0.8835404E-01
        1   -1    0    0  501    0  0.00000000000E+00  0.00000000000E+00  0.19745312575E+04  0.19745312575E+04  0.50400001928E-02 0.  1.
       -1   -1    0    0    0  501  0.00000000000E+00  0.00000000000E+00 -0.31449256937E+03  0.31449256941E+03  0.50400001928E-02 0. -1.
    10030    2    1    2    0    0  0.00000000000E+00  0.00000000000E+00  0.16600386881E+04  0.22890238269E+04  0.15760398580E+04 0.  0.
        5    1    3    3  502    0 -0.36024824261E+03 -0.34123841392E+03  0.17191034587E+04  0.17892907095E+04  0.46999998093E+01 0.  1.
       -5    1    3    3    0  502  0.36024824261E+03  0.34123841392E+03 -0.59064770638E+02  0.49973311733E+03  0.46999998093E+01 0. -1.
</event>
<event>
 5   0  0.2763895E-04  0.1596737E+04  0.7818609E-02  0.8822555E-01
       -1   -1    0    0    0  501  0.00000000000E+00  0.00000000000E+00  0.69030807068E+03  0.69030807069E+03  0.50400001928E-02 0. -1.
        1   -1    0    0  501    0  0.00000000000E+00  0.00000000000E+00 -0.92334501091E+03  0.92334501093E+03  0.50400001928E-02 0.  1.
    10030    2    1    2    0    0  0.00000000000E+00  0.00000000000E+00 -0.23303694024E+03  0.16136530816E+04  0.15967373147E+04 0.  0.
        4    1    3    3  502    0  0.50267295125E+03 -0.47152550051E+03 -0.52374458348E+03  0.86563641049E+03  0.12699999809E+01 0.  1.
       -4    1    3    3    0  502 -0.50267295125E+03  0.47152550051E+03  0.29070764324E+03  0.74801667113E+03  0.12699999809E+01 0. -1.
</event>
<event>
 5   0  0.2730707E-04  0.1602083E+04  0.7818609E-02  0.8819269E-01
       -1   -1    0    0    0  501  0.00000000000E+00  0.00000000000E+00  0.33286524687E+03  0.33286524691E+03  0.50400001928E-02 0. -1.
        1   -1    0    0  501    0  0.00000000000E+00  0.00000000000E+00 -0.19277100943E+04  0.19277100943E+04  0.50400001928E-02 0.  1.
    10030    2    1    2    0    0  0.00000000000E+00  0.00000000000E+00 -0.15948448474E+04  0.22605753412E+04  0.16020832643E+04 0.  0.
        5    1    3    3  502    0 -0.62865926578E+03  0.29727061440E+03 -0.23643975215E+03  0.73451217623E+03  0.46999998093E+01 0. -1.
       -5    1    3    3    0  502  0.62865926578E+03 -0.29727061440E+03 -0.13584050952E+04  0.15260631649E+04  0.46999998093E+01 0.  1.
</event>
<event>
 5   0  0.5315984E-04  0.1613284E+04  0.7818609E-02  0.8812429E-01
       -2   -1    0    0    0  501  0.00000000000E+00  0.00000000000E+00  0.36160595685E+03  0.36160595686E+03  0.25500000920E-02 0.  1.
        2   -1    0    0  501    0  0.00000000000E+00  0.00000000000E+00 -0.17993928651E+04  0.17993928651E+04  0.25500000920E-02 0. -1.
    10030    2    1    2    0    0  0.00000000000E+00  0.00000000000E+00 -0.14377869082E+04  0.21609988219E+04  0.16132838296E+04 0.  0.
        2    1    3    3  502    0  0.33319337252E+03 -0.36680957428E+03  0.13367069061E+03  0.51325913612E+03  0.25500000920E-02 0.  1.
       -2    1    3    3    0  502 -0.33319337252E+03  0.36680957428E+03 -0.15714575988E+04  0.16477396858E+04  0.25500000920E-02 0. -1.
</event>
<event>
 5   0  0.5315984E-04  0.1600239E+04  0.7818609E-02  0.8820401E-01
        2   -1    0    0  501    0  0.00000000000E+00  0.00000000000E+00  0.18247417245E+04  0.18247417245E+04  0.25500000920E-02 0. -1.
       -2   -1    0    0    0  501  0.00000000000E+00  0.00000000000E+00 -0.35083914358E+03  0.35083914359E+03  0.25500000920E-02 0.  1.
    10030    2    1    2    0    0  0.00000000000E+00  0.00000000000E+00  0.14739025809E+04  0.21755808681E+04  0.16002385121E+04 0.  0.
        2    1    3    3  502    0 -0.16485429016E+03  0.11953704343E+03 -0.31502058769E+03  0.37510533509E+03  0.25500000920E-02 0.  1.
       -2    1    3    3    0  502  0.16485429016E+03 -0.11953704343E+03  0.17889231686E+04  0.18004755330E+04  0.25500000920E-02 0. -1.
</event>
<event>
 5   0  0.2689675E-04  0.1613071E+04  0.7818609E-02  0.8812558E-01
        1   -1    0    0  501    0  0.00000000000E+00  0.00000000000E+00  0.12438424365E+04  0.12438424365E+04  0.50400001928E-02 0. -1.
       -1   -1    0    0    0  501  0.00000000000E+00  0.00000000000E+00 -0.52297576742E+03  0.52297576745E+03  0.50400001928E-02 0.  1.
    10030    2    1    2    0    0  0.00000000000E+00  0.00000000000E+00  0.72086666910E+03  0.17668182040E+04  0.16130709257E+04 0.  0.
        1    1    3    3  502    0 -0.32716134631E+03  0.58998101917E+03 -0.12372406223E+03  0.68587155729E+03  0.50400001928E-02 0.  1.
       -1    1    3    3    0  502  0.32716134631E+03 -0.58998101917E+03  0.84459073133E+03  0.10809466467E+04  0.50400001928E-02 0. -1.
</event>
<event>
 5   0  0.5264308E-04  0.1531988E+04  0.7818609E-02  0.8863455E-01
       -2   -1    0    0    0  501  0.00000000000E+00  0.00000000000E+00  0.10271287330E+04  0.10271287330E+04  0.25500000920E-02 0.  1.
        2   -1    0    0  501    0  0.00000000000E+00  0.00000000000E+00 -0.57124976888E+03  0.57124976888E+03  0.25500000920E-02 0. -1.
    10030    2    1    2    0    0  0.00000000000E+00  0.00000000000E+00  0.45587896412E+03  0.15983785019E+04  0.15319883176E+04 0.  0.
        3    1    3    3  502    0  0.58033011207E+03  0.49559006186E+03  0.29678774096E+03  0.81882569682E+03  0.10100000352E+00 0.  1.
       -3    1    3    3    0  502 -0.58033011207E+03 -0.49559006186E+03  0.15909122316E+03  0.77955280506E+03  0.10100000352E+00 0. -1.
</event>
<event>
 5   0  0.5264308E-04  0.1602113E+04  0.7818609E-02  0.8819251E-01
        2   -1    0    0  501    0  0.00000000000E+00  0.00000000000E+00  0.14664212779E+04  0.14664212779E+04  0.25500000920E-02 0. -1.
       -2   -1    0    0    0  501  0.00000000000E+00  0.00000000000E+00 -0.43759041862E+03  0.43759041863E+03  0.25500000920E-02 0.  1.
    10030    2    1    2    0    0  0.00000000000E+00  0.00000000000E+00  0.10288308593E+04  0.19040116965E+04  0.16021134802E+04 0.  0.
        3    1    3    3  502    0  0.36123969851E+03  0.15284299522E+03  0.13444833154E+04  0.14005322191E+04  0.10100000352E+00 0. -1.
       -3    1    3    3    0  502 -0.36123969851E+03 -0.15284299522E+03 -0.31565245615E+03  0.50347947747E+03  0.10100000352E+00 0.  1.
</event>
<event>
 5   0  0.5083831E-04  0.1371500E+04  0.7818609E-02  0.8974711E-01
        2   -1    0    0  501    0  0.00000000000E+00  0.00000000000E+00  0.95963369240E+03  0.95963369241E+03  0.25500000920E-02 0.  1.
       -2   -1    0    0    0  501  0.00000000000E+00  0.00000000000E+00 -0.49003362524E+03  0.49003362524E+03  0.25500000920E-02 0. -1.
    10030    2    1    2    0    0  0.00000000000E+00  0.00000000000E+00  0.46960006717E+03  0.14496673177E+04  0.13714995840E+04 0.  0.
        4    1    3    3  502    0  0.40724692854E+03  0.54601555716E+03  0.31848378481E+03  0.75194187512E+03  0.12699999809E+01 0.  1.
       -4    1    3    3    0  502 -0.40724692854E+03 -0.54601555716E+03  0.15111628236E+03  0.69772544253E+03  0.12699999809E+01 0. -1.
</event>
<event>
 5   0  0.2763895E-04  0.1590724E+04  0.7818609E-02  0.8826267E-01
        1   -1    0    0  501    0  0.00000000000E+00  0.00000000000E+00  0.54076156488E+03  0.54076156490E+03  0.50400001928E-02 0.  1.
       -1   -1    0    0    0  501  0.00000000000E+00  0.00000000000E+00 -0.11698336217E+04  0.11698336217E+04  0.50400001928E-02 0. -1.
    10030    2    1    2    0    0  0.00000000000E+00  0.00000000000E+00 -0.62907205684E+03  0.17105951866E+04  0.15907244387E+04 0.  0.
        4    1    3    3  502    0 -0.18215849999E+03  0.76901302360E+03 -0.41093915126E+03  0.89074987989E+03  0.12699999809E+01 0. -1.
       -4    1    3    3    0  502  0.18215849999E+03 -0.76901302360E+03 -0.21813290558E+03  0.81984530674E+03  0.12699999809E+01 0.  1.
</event>
<event>
 5   0  0.2763895E-04  0.1585814E+04  0.7818609E-02  0.8829310E-01
        1   -1    0    0  501    0  0.00000000000E+00  0.00000000000E+00  0.13878737968E+04  0.13878737968E+04  0.50400001928E-02 0.  1.
       -1   -1    0    0    0  501  0.00000000000E+00  0.00000000000E+00 -0.45299644217E+03  0.45299644220E+03  0.50400001928E-02 0. -1.
    10030    2    1    2    0    0  0.00000000000E+00  0.00000000000E+00  0.93487735460E+03  0.18408702390E+04  0.15858144811E+04 0.  0.
        4    1    3    3  502    0  0.72981028416E+03  0.27971298601E+03  0.62247817094E+03  0.99917120235E+03  0.12699999809E+01 0. -1.
       -4    1    3    3    0  502 -0.72981028416E+03 -0.27971298601E+03  0.31239918366E+03  0.84169903663E+03  0.12699999809E+01 0.  1.
</event>
<event>
 5   0  0.5381164E-04  0.1594759E+04  0.7818609E-02  0.8823774E-01
       -2   -1    0    0    0  501  0.00000000000E+00  0.00000000000E+00  0.25326084689E+03  0.25326084691E+03  0.25500000920E-02 0.  1.
        2   -1    0    0  501    0  0.00000000000E+00  0.00000000000E+00 -0.25105101909E+04  0.25105101909E+04  0.25500000920E-02 0. -1.
    10030    2    1    2    0    0  0.00000000000E+00  0.00000000000E+00 -0.22572493440E+04  0.27637710378E+04  0.15947588371E+04 0.  0.
        5    1    3    3  502    0  0.32814909629E+03 -0.66136433860E+03 -0.60667576217E+03  0.95559520100E+03  0.46999998093E+01 0.  1.
       -5    1    3    3    0  502 -0.32814909629E+03  0.66136433860E+03 -0.16505735818E+04  0.18081758368E+04  0.46999998093E+01 0. -1.
</event>
<event>
 5   0  0.2763895E-04  0.1593130E+04  0.7818609E-02  0.8824779E-01
        1   -1    0    0  501    0  0.00000000000E+00  0.00000000000E+00  0.69295375772E+03  0.69295375773E+03  0.50400001928E-02 0. -1.
       -1   -1    0    0    0  501  0.00000000000E+00  0.00000000000E+00 -0.91566861123E+03  0.91566861125E+03  0.50400001928E-02 0.  1.
    10030    2    1    2    0    0  0.00000000000E+00  0.00000000000E+00 -0.22271485352E+03  0.16086223690E+04  0.15931302583E+04 0.  0.
        4    1    3    3  502    0 -0.10096378792E+03  0.56955070216E+03  0.44162932685E+03  0.72774979494E+03  0.12699999809E+01 0. -1.
       -4    1    3    3    0  502  0.10096378792E+03 -0.56955070216E+03 -0.66434418037E+03  0.88087257404E+03  0.12699999809E+01 0.  1.
</event>
<event>
 5   0  0.5264308E-04  0.1601117E+04  0.7818609E-02  0.8819862E-01
        2   -1    0    0  501    0  0.00000000000E+00  0.00000000000E+00  0.12450454028E+04  0.12450454028E+04  0.25500000920E-02 0.  1.
       -2   -1    0    0    0  501  0.00000000000E+00  0.00000000000E+00 -0.51475539447E+03  0.51475539447E+03  0.25500000920E-02 0. -1.
    10030    2    1    2    0    0  0.00000000000E+00  0.00000000000E+00  0.73029000838E+03  0.17598007973E+04  0.16011169070E+04 0.  0.
        3    1    3    3  502    0 -0.79313786034E+02 -0.59949372380E+03  0.94174270690E+03  0.11191794931E+04  0.10100000352E+00 0.  1.
       -3    1    3    3    0  502  0.79313786034E+02  0.59949372380E+03 -0.21145269852E+03  0.64062130424E+03  0.10100000352E+00 0. -1.
</event>
<event>
 5   0  0.5381164E-04  0.1610589E+04  0.7818609E-02  0.8814069E-01
        2   -1    0    0  501    0  0.00000000000E+00  0.00000000000E+00  0.16331869430E+04  0.16331869430E+04  0.25500000920E-02 0.  1.
       -2   -1    0    0    0  501  0.00000000000E+00  0.00000000000E+00 -0.39707611527E+03  0.39707611528E+03  0.25500000920E-02 0. -1.
    10030    2    1    2    0    0  0.00000000000E+00  0.00000000000E+00  0.12361108277E+04  0.20302630583E+04  0.16105893665E+04 0.  0.
        5    1    3    3  502    0 -0.48572773883E+03  0.11072159645E+03  0.14155965282E+04  0.15007086089E+04  0.46999998093E+01 0.  1.
       -5    1    3    3    0  502  0.48572773883E+03 -0.11072159645E+03 -0.17948570046E+03  0.52955444938E+03  0.46999998093E+01 0. -1.
</event>
<event>
 5   0  0.2763895E-04  0.1595178E+04  0.7818609E-02  0.8823516E-01
       -1   -1    0    0    0  501  0.00000000000E+00  0.00000000000E+00  0.64406924837E+03  0.64406924839E+03  0.50400001928E-02 0. -1.
        1   -1    0    0  501    0  0.00000000000E+00  0.00000000000E+00 -0.98770160380E+03  0.98770160381E+03  0.50400001928E-02 0.  1.
    10030    2    1    2    0    0  0.00000000000E+00  0.00000000000E+00 -0.34363235542E+03  0.16317708522E+04  0.15951780209E+04 0.  0.
        4    1    3    3  502    0 -0.15744104889E+03 -0.71553918860E+03  0.15063316268E+03  0.74798126775E+03  0.12699999809E+01 0. -1.
       -4    1    3    3    0  502  0.15744104889E+03  0.71553918860E+03 -0.49426551810E+03  0.88378958445E+03  0.12699999809E+01 0.  1.
</event>
<event>
 5   0  0.2796994E-04  0.1589578E+04  0.7818609E-02  0.8826976E-01
        1   -1    0    0  501    0  0.00000000000E+00  0.00000000000E+00  0.10964498483E+04  0.10964498483E+04  0.50400001928E-02 0.  1.
       -1   -1    0    0    0  501  0.00000000000E+00  0.00000000000E+00 -0.57612249675E+03  0.57612249678E+03  0.50400001928E-02 0. -1.
    10030    2    1    2    0    0  0.00000000000E+00  0.00000000000E+00  0.52032735153E+03  0.16725723451E+04  0.15895778360E+04 0.  0.
        3    1    3    3  502    0  0.12801430885E+03  0.59753980463E+03 -0.27455030548E+03  0.66993981956E+03  0.10100000352E+00 0. -1.
       -3    1    3    3    0  502 -0.12801430885E+03 -0.59753980463E+03  0.79487765701E+03  0.10026325255E+04  0.10100000352E+00 0.  1.
</event>
<event>
 5   0  0.2763895E-04  0.1575096E+04  0.7818609E-02  0.8835995E-01
       -1   -1    0    0    0  501  0.00000000000E+00  0.00000000000E+00  0.82554323481E+03  0.82554323483E+03  0.50400001928E-02 0.  1.
        1   -1    0    0  501    0  0.00000000000E+00  0.00000000000E+00 -0.75130112505E+03  0.75130112507E+03  0.50400001928E-02 0. -1.
    10030    2    1    2    0    0  0.00000000000E+00  0.00000000000E+00  0.74242109760E+02  0.15768443599E+04  0.15750956303E+04 0.  0.
        4    1    3    3  502    0 -0.19062525680E+03 -0.56715237610E+03  0.54977370578E+03  0.81255925736E+03  0.12699999809E+01 0.  1.
       -4    1    3    3    0  502  0.19062525680E+03  0.56715237610E+03 -0.47553159602E+03  0.76428510254E+03  0.12699999809E+01 0. -1.
</event>
<event>
 5   0  0.5381164E-04  0.1591087E+04  0.7818609E-02  0.8826042E-01
        2   -1    0    0  501    0  0.00000000000E+00  0.00000000000E+00  0.82157320663E+03  0.82157320663E+03  0.25500000920E-02 0.  1.
       -2   -1    0    0    0  501  0.00000000000E+00  0.00000000000E+00 -0.77033844913E+03  0.77033844914E+03  0.25500000920E-02 0. -1.
    10030    2    1    2    0    0  0.00000000000E+00  0.00000000000E+00  0.51234757494E+02  0.15919116558E+04  0.15910869616E+04 0.  0.
        5    1    3    3  502    0 -0.12268990664E+03 -0.28565562487E+03 -0.70702946547E+03  0.77237601222E+03  0.46999998093E+01 0. -1.
       -5    1    3    3    0  502  0.12268990664E+03  0.28565562487E+03  0.75826422297E+03  0.81953564354E+03  0.46999998093E+01 0.  1.
</event>
<event>
 5   0  0.2763895E-04  0.1587681E+04  0.7818609E-02  0.8828152E-01
       -1   -1    0    0    0  501  0.00000000000E+00  0.00000000000E+00  0.11990879763E+04  0.11990879763E+04  0.50400001928E-02 0.  1.
        1   -1    0    0  501    0  0.00000000000E+00  0.00000000000E+00 -0.52555203888E+03  0.52555203890E+03  0.50400001928E-02 0. -1.
    10030    2    1    2    0    0  0.00000000000E+00  0.00000000000E+00  0.67353593745E+03  0.17246400152E+04  0.15876814930E+04 0.  0.
        4    1    3    3  502    0 -0.59462798324E+03  0.45708556101E+03  0.54189437951E+02  0.75196260321E+03  0.12699999809E+01 0. -1.
       -4    1    3    3    0  502  0.59462798324E+03 -0.45708556101E+03  0.61934649950E+03  0.97267741203E+03  0.12699999809E+01 0.  1.
</event>
<event>
 5   0  0.2649086E-04  0.1598825E+04  0.7818609E-02  0.8821270E-01
       -1   -1    0    0    0  501  0.00000000000E+00  0.00000000000E+00  0.49607688694E+03  0.49607688696E+03  0.50400001928E-02 0.  1.
        1   -1    0    0  501    0  0.00000000000E+00  0.00000000000E+00 -0.12882291243E+04  0.12882291243E+04  0.50400001928E-02 0. -1.
    10030    2    1    2    0    0  0.00000000000E+00  0.00000000000E+00 -0.79215223738E+03  0.17843060113E+04  0.15988254360E+04 0.  0.
        2    1    3    3  502    0  0.88170565027E+01 -0.22635588062E+03 -0.12516610343E+04  0.12719945244E+04  0.25500000920E-02 0. -1.
       -2    1    3    3    0  502 -0.88170565027E+01  0.22635588062E+03  0.45950879693E+03  0.51231148693E+03  0.25500000920E-02 0.  1.
</event>
<event>
 5   0  0.2730707E-04  0.1600300E+04  0.7818609E-02  0.8820364E-01
        1   -1    0    0  501    0  0.00000000000E+00  0.00000000000E+00  0.78513063548E+03  0.78513063549E+03  0.50400001928E-02 0.  1.
       -1   -1    0    0    0  501  0.00000000000E+00  0.00000000000E+00 -0.81545658327E+03  0.81545658329E+03  0.50400001928E-02 0. -1.
    10030    2    1    2    0    0  0.00000000000E+00  0.00000000000E+00 -0.30325947798E+02  0.16005872188E+04  0.16002999037E+04 0.  0.
        5    1    3    3  502    0  0.21099468099E+03  0.27443303713E+03 -0.73667006549E+03  0.81396383375E+03  0.46999998093E+01 0. -1.
       -5    1    3    3    0  502 -0.21099468099E+03 -0.27443303713E+03  0.70634411769E+03  0.78662338503E+03  0.46999998093E+01 0.  1.
</event>
<event>
 5   0  0.5315984E-04  0.1594000E+04  0.7818609E-02  0.8824243E-01
        2   -1    0    0  501    0  0.00000000000E+00  0.00000000000E+00  0.10378316728E+04  0.10378316728E+04  0.25500000920E-02 0.  1.
       -2   -1    0    0    0  501  0.00000000000E+00  0.00000000000E+00 -0.61205359659E+03  0.61205359659E+03  0.25500000920E-02 0. -1.
    10030    2    1    2    0    0  0.00000000000E+00  0.00000000000E+00  0.42577807624E+03  0.16498852694E+04  0.15939995082E+04 0.  0.
        2    1    3    3  502    0  0.20727941145E+03 -0.24459417365E+03  0.96814078907E+03  0.10198468766E+04  0.25500000920E-02 0.  1.
       -2    1    3    3    0  502 -0.20727941145E+03  0.24459417365E+03 -0.54236271283E+03  0.63003839285E+03  0.25500000920E-02 0. -1.
</event>
<event>
 5   0  0.5083831E-04  0.1581076E+04  0.7818609E-02  0.8832259E-01
        2   -1    0    0  501    0  0.00000000000E+00  0.00000000000E+00  0.97031223201E+03  0.97031223201E+03  0.25500000920E-02 0.  1.
       -2   -1    0    0    0  501  0.00000000000E+00  0.00000000000E+00 -0.64407097232E+03  0.64407097232E+03  0.25500000920E-02 0. -1.
    10030    2    1    2    0    0  0.00000000000E+00  0.00000000000E+00  0.32624125969E+03  0.16143832043E+04  0.15810755108E+04 0.  0.
        4    1    3    3  502    0  0.41099880061E+03 -0.43384851460E+03 -0.36527883818E+03  0.70041044413E+03  0.12699999809E+01 0. -1.
       -4    1    3    3    0  502 -0.41099880061E+03  0.43384851460E+03  0.69152009787E+03  0.91397276020E+03  0.12699999809E+01 0.  1.
</event>
<event>
 5   0  0.5264308E-04  0.1596101E+04  0.7818609E-02  0.8822947E-01
       -2   -1    0    0    0  501  0.00000000000E+00  0.00000000000E+00  0.10814395794E+04  0.10814395794E+04  0.25500000920E-02 0. -1.
        2   -1    0    0  501    0  0.00000000000E+00  0.00000000000E+00 -0.58892267082E+03  0.58892267082E+03  0.25500000920E-02 0.  1.
    10030    2    1    2    0    0  0.00000000000E+00  0.00000000000E+00  0.49251690858E+03  0.16703622502E+04  0.15961006051E+04 0.  0.
        3    1    3    3  502    0  0.57192282621E+03  0.55605379693E+03  0.27173726941E+03  0.84269371542E+03  0.10100000352E+00 0.  1.
       -3    1    3    3    0  502 -0.57192282621E+03 -0.55605379693E+03  0.22077963918E+03  0.82766853480E+03  0.10100000352E+00 0. -1.
</event>
<event>
 5   0  0.2689675E-04  0.1700076E+04  0.7818609E-02  0.8761321E-01
       -1   -1    0    0    0  501  0.00000000000E+00  0.00000000000E+00  0.97386682121E+03  0.97386682122E+03  0.50400001928E-02 0.  1.
        1   -1    0    0  501    0  0.00000000000E+00  0.00000000000E+00 -0.74195450722E+03  0.74195450723E+03  0.50400001928E-02 0. -1.
    10030    2    1    2    0    0  0.00000000000E+00  0.00000000000E+00  0.23191231399E+03  0.17158213285E+04  0.17000763247E+04 0.  0.
        1    1    3    3  502    0 -0.41355806305E+03 -0.38196385961E+03 -0.52683970827E+03  0.77102966207E+03  0.50400001928E-02 0. -1.
       -1    1    3    3    0  502  0.41355806305E+03  0.38196385961E+03  0.75875202226E+03  0.94479166639E+03  0.50400001928E-02 0.  1.
</event>
<event>
 5   0  0.2796994E-04  0.1611477E+04  0.7818609E-02  0.8813528E-01
        1   -1    0    0  501    0  0.00000000000E+00  0.00000000000E+00  0.14437890763E+04  0.14437890763E+04  0.50400001928E-02 0. -1.
       -1   -1    0    0    0  501  0.00000000000E+00  0.00000000000E+00 -0.44966008097E+03  0.44966008100E+03  0.50400001928E-02 0.  1.
    10030    2    1    2    0    0  0.00000000000E+00  0.00000000000E+00  0.99412899536E+03  0.18934491573E+04  0.16114767302E+04 0.  0.
        3    1    3    3  502    0 -0.67405108914E+02  0.73257098139E+02  0.14365355561E+04  0.14399807170E+04  0.10100000352E+00 0. -1.
       -3    1    3    3    0  502  0.67405108914E+02 -0.73257098139E+02 -0.44240656078E+03  0.45346844031E+03  0.10100000352E+00 0.  1.
</event>
<event>
 5   0  0.2730707E-04  0.1636338E+04  0.7818609E-02  0.8798530E-01
       -1   -1    0    0    0  501  0.00000000000E+00  0.00000000000E+00  0.76384048574E+03  0.76384048576E+03  0.50400001928E-02 0.  1.
        1   -1    0    0  501    0  0.00000000000E+00  0.00000000000E+00 -0.87636174787E+03  0.87636174788E+03  0.50400001928E-02 0. -1.
    10030    2    1    2    0    0  0.00000000000E+00  0.00000000000E+00 -0.11252126213E+03  0.16402022336E+04  0.16363380863E+04 0.  0.
        5    1    3    3  502    0 -0.77522414112E+03  0.13943219274E+02  0.20552964619E+03  0.80214176290E+03  0.46999998093E+01 0. -1.
       -5    1    3    3    0  502  0.77522414112E+03 -0.13943219274E+02 -0.31805090831E+03  0.83806047074E+03  0.46999998093E+01 0.  1.
</event>
<event>
 5   0  0.2730707E-04  0.1555102E+04  0.7818609E-02  0.8848616E-01
        1   -1    0    0  501    0  0.00000000000E+00  0.00000000000E+00  0.26050676878E+04  0.26050676878E+04  0.50400001928E-02 0. -1.
       -1   -1    0    0    0  501  0.00000000000E+00  0.00000000000E+00 -0.23208042351E+03  0.23208042356E+03  0.50400001928E-02 0.  1.
    10030    2    1    2    0    0  0.00000000000E+00  0.00000000000E+00  0.23729872643E+04  0.28371481114E+04  0.15551015560E+04 0.  0.
        5    1    3    3  502    0  0.56930072508E+03  0.22292027367E+03  0.20629080245E+04  0.21516059982E+04  0.46999998093E+01 0. -1.
       -5    1    3    3    0  502 -0.56930072508E+03 -0.22292027367E+03  0.31007923983E+03  0.68554211319E+03  0.46999998093E+01 0.  1.
</event>
<event>
 5   0  0.5315984E-04  0.1594546E+04  0.7818609E-02  0.8823906E-01
        2   -1    0    0  501    0  0.00000000000E+00  0.00000000000E+00  0.79985556454E+03  0.79985556455E+03  0.25500000920E-02 0.  1.
       -2   -1    0    0    0  501  0.00000000000E+00  0.00000000000E+00 -0.79469868243E+03  0.79469868243E+03  0.25500000920E-02 0. -1.
    10030    2    1    2    0    0  0.00000000000E+00  0.00000000000E+00  0.51568821141E+01  0.15945542470E+04  0.15945459081E+04 0.  0.
        2    1    3    3  502    0 -0.27761359169E+03  0.11746752917E+03 -0.73551500460E+03  0.79489008592E+03  0.25500000920E-02 0. -1.
       -2    1    3    3    0  502  0.27761359169E+03 -0.11746752917E+03  0.74067188671E+03  0.79966416105E+03  0.25500000920E-02 0.  1.
</event>
<event>
 5   0  0.5315984E-04  0.1476752E+04  0.7818609E-02  0.8900061E-01
        2   -1    0    0  501    0  0.00000000000E+00  0.00000000000E+00  0.89803683675E+03  0.89803683675E+03  0.25500000920E-02 0.  1.
       -2   -1    0    0    0  501  0.00000000000E+00  0.00000000000E+00 -0.60710122553E+03  0.60710122554E+03  0.25500000920E-02 0. -1.
    10030    2    1    2    0    0  0.00000000000E+00  0.00000000000E+00  0.29093561122E+03  0.15051380623E+04  0.14767521988E+04 0.  0.
        2    1    3    3  502    0 -0.56581458830E+02  0.33885251674E+03 -0.52068295543E+03  0.62380544216E+03  0.25500000920E-02 0. -1.
       -2    1    3    3    0  502  0.56581458830E+02 -0.33885251674E+03  0.81161856665E+03  0.88133262014E+03  0.25500000920E-02 0.  1.
</event>
<event>
 5   0  0.2796994E-04  0.1597795E+04  0.7818609E-02  0.8821904E-01
        1   -1    0    0  501    0  0.00000000000E+00  0.00000000000E+00  0.98547314994E+03  0.98547314995E+03  0.50400001928E-02 0.  1.
       -1   -1    0    0    0  501  0.00000000000E+00  0.00000000000E+00 -0.64764541385E+03  0.64764541387E+03  0.50400001928E-02 0. -1.
    10030    2    1    2    0    0  0.00000000000E+00  0.00000000000E+00  0.33782773609E+03  0.16331185638E+04  0.15977949381E+04 0.  0.
        3    1    3    3  502    0  0.14922964486E+03  0.69881524997E+02  0.96791467274E+03  0.98184099444E+03  0.10100000352E+00 0.  1.
       -3    1    3    3    0  502 -0.14922964486E+03 -0.69881524997E+02 -0.63008693665E+03  0.65127756939E+03  0.10100000352E+00 0. -1.
</event>
<event>
 5   0  0.2689675E-04  0.1599313E+04  0.7818609E-02  0.8820970E-01
        1   -1    0    0  501    0  0.00000000000E+00  0.00000000000E+00  0.12158465666E+04  0.12158465666E+04  0.50400001928E-02 0. -1.
       -1   -1    0    0    0  501  0.00000000000E+00  0.00000000000E+00 -0.52593015369E+03  0.52593015371E+03  0.50400001928E-02 0.  1.
    10030    2    1    2    0    0  0.00000000000E+00  0.00000000000E+00  0.68991641287E+03  0.17417767203E+04  0.15993128170E+04 0.  0.
        1    1    3    3  502    0  0.78366388113E+03 -0.73236281367E+02  0.19110209727E+03  0.80994607420E+03  0.50400001928E-02 0.  1.
       -1    1    3    3    0  502 -0.78366388113E+03  0.73236281367E+02  0.49881431560E+03  0.93183064608E+03  0.50400001928E-02 0. -1.
</event>
<event>
 5   0  0.5131239E-04  0.1589939E+04  0.7818609E-02  0.8826753E-01
       -2   -1    0    0    0  501  0.00000000000E+00  0.00000000000E+00  0.13163696994E+04  0.13163696994E+04  0.25500000920E-02 0. -1.
        2   -1    0    0  501    0  0.00000000000E+00  0.00000000000E+00 -0.48009042732E+03  0.48009042732E+03  0.25500000920E-02 0.  1.
    10030    2    1    2    0    0  0.00000000000E+00  0.00000000000E+00  0.83627927207E+03  0.17964601267E+04  0.15899389818E+04 0.  0.
        1    1    3    3  502    0  0.67716964959E+01 -0.44299560316E+03  0.11639418935E+04  0.12454122578E+04  0.50400001928E-02 0. -1.
       -1    1    3    3    0  502 -0.67716964959E+01  0.44299560316E+03 -0.32766262148E+03  0.55104786891E+03  0.50400001928E-02 0.  1.
</event>
<event>
 5   0  0.5381164E-04  0.1530646E+04  0.7818609E-02  0.8864326E-01
       -2   -1    0    0    0  501  0.00000000000E+00  0.00000000000E+00  0.65832384981E+03  0.65832384982E+03  0.25500000920E-02 0.  1.
        2   -1    0    0  501    0  0.00000000000E+00  0.00000000000E+00 -0.88971280851E+03  0.88971280851E+03  0.25500000920E-02 0. -1.
    10030    2    1    2    0    0  0.00000000000E+00  0.00000000000E+00 -0.23138895869E+03  0.15480366583E+04  0.15306458262E+04 0.  0.
        5    1    3    3  502    0 -0.94655250259E+02  0.32549390804E+03 -0.80963250149E+03  0.87774300227E+03  0.46999998093E+01 0. -1.
       -5    1    3    3    0  502  0.94655250259E+02 -0.32549390804E+03  0.57824354279E+03  0.67029365606E+03  0.46999998093E+01 0.  1.
</event>
<event>
 5   0  0.2649086E-04  0.1607087E+04  0.7818609E-02  0.8816206E-01
        1   -1    0    0  501    0  0.00000000000E+00  0.00000000000E+00  0.51026990208E+03  0.51026990210E+03  0.50400001928E-02 0.  1.
       -1   -1    0    0    0  501  0.00000000000E+00  0.00000000000E+00 -0.12653733015E+04  0.12653733015E+04  0.50400001928E-02 0. -1.
    10030    2    1    2    0    0  0.00000000000E+00  0.00000000000E+00 -0.75510339942E+03  0.17756432036E+04  0.16070866942E+04 0.  0.
        2    1    3    3  502    0 -0.80180195425E+03 -0.40998782099E+02 -0.41443952626E+03  0.90350838121E+03  0.25500000920E-02 0. -1.
       -2    1    3    3    0  502  0.80180195425E+03  0.40998782099E+02 -0.34066387316E+03  0.87213482241E+03  0.25500000920E-02 0.  1.
</event>
<event>
 5   0  0.2649086E-04  0.1594415E+04  0.7818609E-02  0.8823987E-01
        1   -1    0    0  501    0  0.00000000000E+00  0.00000000000E+00  0.24042291846E+04  0.24042291847E+04  0.50400001928E-02 0.  1.
       -1   -1    0    0    0  501  0.00000000000E+00  0.00000000000E+00 -0.26434233714E+03  0.26434233719E+03  0.50400001928E-02 0. -1.
    10030    2    1    2    0    0  0.00000000000E+00  0.00000000000E+00  0.21398868475E+04  0.26685715218E+04  0.15944147036E+04 0.  0.
        2    1    3    3  502    0  0.93350495791E+02 -0.76280839389E+03  0.71510091144E+03  0.10497429563E+04  0.25500000920E-02 0. -1.
       -2    1    3    3    0  502 -0.93350495791E+02  0.76280839389E+03  0.14247859361E+04  0.16188285655E+04  0.25500000920E-02 0.  1.
</event>
<event>
 5   0  0.2796994E-04  0.1602195E+04  0.7818609E-02  0.8819201E-01
       -1   -1    0    0    0  501  0.00000000000E+00  0.00000000000E+00  0.61084694832E+03  0.61084694834E+03  0.50400001928E-02 0.  1.
        1   -1    0    0  501    0  0.00000000000E+00  0.00000000000E+00 -0.10506023341E+04  0.10506023341E+04  0.50400001928E-02 0. -1.
    10030    2    1    2    0    0  0.00000000000E+00  0.00000000000E+00 -0.43975538574E+03  0.16614492824E+04  0.16021950314E+04 0.  0.
        3    1    3    3  502    0 -0.59652396818E+03 -0.96461021945E+02 -0.76526740125E+03  0.97507937061E+03  0.10100000352E+00 0. -1.
       -3    1    3    3    0  502  0.59652396818E+03  0.96461021945E+02  0.32551201551E+03  0.68636991179E+03  0.10100000352E+00 0.  1.
</event>
<event>
 5   0  0.5264308E-04  0.1585952E+04  0.7818609E-02  0.8829225E-01
        2   -1    0    0  501    0  0.00000000000E+00  0.00000000000E+00  0.11306448887E+04  0.11306448887E+04  0.25500000920E-02 0.  1.
       -2   -1    0    0    0  501  0.00000000000E+00  0.00000000000E+00 -0.55615271625E+03  0.55615271625E+03  0.25500000920E-02 0. -1.
    10030    2    1    2    0    0  0.00000000000E+00  0.00000000000E+00  0.57449217244E+03  0.16867976049E+04  0.15859523649E+04 0.  0.
        3    1    3    3  502    0 -0.52355199297E+03 -0.53492453918E+03  0.87564250542E+01  0.74855035712E+03  0.10100000352E+00 0. -1.
       -3    1    3    3    0  502  0.52355199297E+03  0.53492453918E+03  0.56573574738E+03  0.93824724781E+03  0.10100000352E+00 0.  1.
</event>
<event>
 5   0  0.2730707E-04  0.1612367E+04  0.7818609E-02  0.8812986E-01
       -1   -1    0    0    0  501  0.00000000000E+00  0.00000000000E+00  0.59415398163E+03  0.59415398165E+03  0.50400001928E-02 0. -1.
        1   -1    0    0  501    0  0.00000000000E+00  0.00000000000E+00 -0.10938779442E+04  0.10938779442E+04  0.50400001928E-02 0.  1.
    10030    2    1    2    0    0  0.00000000000E+00  0.00000000000E+00 -0.49972396258E+03  0.16880319259E+04  0.16123671244E+04 0.  0.
        5    1    3    3  502    0 -0.14602170027E+03  0.22773511527E+02  0.57983662016E+03  0.59839248479E+03  0.46999998093E+01 0. -1.
       -5    1    3    3    0  502  0.14602170027E+03 -0.22773511527E+02 -0.10795605827E+04  0.10896394411E+04  0.46999998093E+01 0.  1.
</event>
<event>
 5   0  0.2649086E-04  0.1613686E+04  0.7818609E-02  0.8812184E-01
       -1   -1    0    0    0  501  0.00000000000E+00  0.00000000000E+00  0.76428811368E+03  0.76428811370E+03  0.50400001928E-02 0. -1.
        1   -1    0    0  501    0  0.00000000000E+00  0.00000000000E+00 -0.85176758936E+03  0.85176758937E+03  0.50400001928E-02 0.  1.
    10030    2    1    2    0    0  0.00000000000E+00  0.00000000000E+00 -0.87479475676E+02  0.16160557031E+04  0.16136862696E+04 0.  0.
        2    1    3    3  502    0  0.78503841394E+03 -0.10237191177E+03  0.11215039604E+03  0.79958928896E+03  0.25500000920E-02 0.  1.
       -2    1    3    3    0  502 -0.78503841394E+03  0.10237191177E+03 -0.19962987171E+03  0.81646641411E+03  0.25500000920E-02 0. -1.
</event>
<event>
 5   0  0.5264308E-04  0.1596777E+04  0.7818609E-02  0.8822530E-01
       -2   -1    0    0    0  501  0.00000000000E+00  0.00000000000E+00  0.50974139090E+03  0.50974139091E+03  0.25500000920E-02 0. -1.
        2   -1    0    0  501    0  0.00000000000E+00  0.00000000000E+00 -0.12504856667E+04  0.12504856667E+04  0.25500000920E-02 0.  1.
    10030    2    1    2    0    0  0.00000000000E+00  0.00000000000E+00 -0.74074427582E+03  0.17602270576E+04  0.15967771329E+04 0.  0.
        3    1    3    3  502    0  0.38934539447E+02 -0.12268481228E+03 -0.12389727279E+04  0.12456407557E+04  0.10100000352E+00 0.  1.
       -3    1    3    3    0  502 -0.38934539447E+02  0.12268481228E+03  0.49822845207E+03  0.51458630197E+03  0.10100000352E+00 0. -1.
</event>
<event>
 5   0  0.5381164E-04  0.1616255E+04  0.7818609E-02  0.8810624E-01
        2   -1    0    0  501    0  0.00000000000E+00  0.00000000000E+00  0.75288360255E+03  0.75288360256E+03  0.25500000920E-02 0. -1.
       -2   -1    0    0    0  501  0.00000000000E+00  0.00000000000E+00 -0.86742504801E+03  0.86742504801E+03  0.25500000920E-02 0.  1.
    10030    2    1    2    0    0  0.00000000000E+00  0.00000000000E+00 -0.11454144546E+03  0.16203086506E+04  0.16162550481E+04 0.  0.
        5    1    3    3  502    0  0.52345191913E+03  0.29478096738E+03  0.48459415967E+03  0.77184928578E+03  0.46999998093E+01 0. -1.
       -5    1    3    3    0  502 -0.52345191913E+03 -0.29478096738E+03 -0.59913560513E+03  0.84845936479E+03  0.46999998093E+01 0.  1.
</event>
<event>
 5   0  0.5381164E-04  0.1602916E+04  0.7818609E-02  0.8818759E-01
        2   -1    0    0  501    0  0.00000000000E+00  0.00000000000E+00  0.77935272697E+03  0.77935272698E+03  0.25500000920E-02 0. -1.
       -2   -1    0    0    0  501  0.00000000000E+00  0.00000000000E+00 -0.82419038024E+03  0.82419038024E+03  0.25500000920E-02 0.  1.
    10030    2    1    2    0    0  0.00000000000E+00  0.00000000000E+00 -0.44837653266E+02  0.16035431072E+04  0.16029161181E+04 0.  0.
        5    1    3    3  502    0  0.13807024903E+03  0.60439657741E+03 -0.53050952110E+03  0.81597858944E+03  0.46999998093E+01 0.  1.
       -5    1    3    3    0  502 -0.13807024903E+03 -0.60439657741E+03  0.48567186783E+03  0.78756451777E+03  0.46999998093E+01 0. -1.
</event>
<event>
 5   0  0.5381164E-04  0.1599656E+04  0.7818609E-02  0.8820759E-01
        2   -1    0    0  501    0  0.00000000000E+00  0.00000000000E+00  0.20180037540E+04  0.20180037540E+04  0.25500000920E-02 0.  1.
       -2   -1    0    0    0  501  0.00000000000E+00  0.00000000000E+00 -0.31700880133E+03  0.31700880134E+03  0.25500000920E-02 0. -1.
    10030    2    1    2    0    0  0.00000000000E+00  0.00000000000E+00  0.17009949527E+04  0.23350125553E+04  0.15996561520E+04 0.  0.
        5    1    3    3  502    0 -0.48301996092E+03  0.10332896340E+02  0.17809184152E+04  0.18452933488E+04  0.46999998093E+01 0.  1.
       -5    1    3    3    0  502  0.48301996092E+03 -0.10332896340E+02 -0.79923462566E+02  0.48971920655E+03  0.46999998093E+01 0. -1.
</event>
<event>
 5   0  0.5315984E-04  0.1596689E+04  0.7818609E-02  0.8822585E-01
       -2   -1    0    0    0  501  0.00000000000E+00  0.00000000000E+00  0.62487697680E+03  0.62487697680E+03  0.25500000920E-02 0.  1.
        2   -1    0    0  501    0  0.00000000000E+00  0.00000000000E+00 -0.10199672376E+04  0.10199672376E+04  0.25500000920E-02 0. -1.
    10030    2    1    2    0    0  0.00000000000E+00  0.00000000000E+00 -0.39509026079E+03  0.16448442144E+04  0.15966891293E+04 0.  0.
        2    1    3    3  502    0  0.81093358666E+01  0.32899905914E+03  0.55174825915E+03  0.64244243612E+03  0.25500000920E-02 0.  1.
       -2    1    3    3    0  502 -0.81093358666E+01 -0.32899905914E+03 -0.94683851994E+03  0.10024017783E+04  0.25500000920E-02 0. -1.
</event>
<event>
 5   0  0.5083831E-04  0.1603692E+04  0.7818609E-02  0.8818283E-01
       -2   -1    0    0    0  501  0.00000000000E+00  0.00000000000E+00  0.10800820876E+04  0.10800820876E+04  0.25500000920E-02 0.  1.
        2   -1    0    0  501    0  0.00000000000E+00  0.00000000000E+00 -0.59528534210E+03  0.59528534211E+03  0.25500000920E-02 0. -1.
    10030    2    1    2    0    0  0.00000000000E+00  0.00000000000E+00  0.48479674545E+03  0.16753674297E+04  0.16036920340E+04 0.  0.
        4    1    3    3  502    0 -0.11095512266E+03 -0.65244653851E+03 -0.23055837355E+03  0.70082544287E+03  0.12699999809E+01 0. -1.
       -4    1    3    3    0  502  0.11095512266E+03  0.65244653851E+03  0.71535511900E+03  0.97454198680E+03  0.12699999809E+01 0.  1.
</event>
<event>
 5   0  0.5381164E-04  0.1625198E+04  0.7818609E-02  0.8805216E-01
       -2   -1    0    0    0  501  0.00000000000E+00  0.00000000000E+00  0.42185337743E+03  0.42185337744E+03  0.25500000920E-02 0. -1.
        2   -1    0    0  501    0  0.00000000000E+00  0.00000000000E+00 -0.15652762025E+04  0.15652762025E+04  0.25500000920E-02 0.  1.
    10030    2    1    2    0    0  0.00000000000E+00  0.00000000000E+00 -0.11434228250E+04  0.19871295799E+04  0.16251978989E+04 0.  0.
        5    1    3    3  502    0 -0.51705485538E+03  0.59068411767E+03 -0.31511472380E+03  0.84591537963E+03  0.46999998093E+01 0.  1.
       -5    1    3    3    0  502  0.51705485538E+03 -0.59068411767E+03 -0.82830810123E+03  0.11412142003E+04  0.46999998093E+01 0. -1.
</event>
<event>
 5   0  0.5381164E-04  0.1607725E+04  0.7818609E-02  0.8815817E-01
        2   -1    0    0  501    0  0.00000000000E+00  0.00000000000E+00  0.16905710039E+04  0.16905710039E+04  0.25500000920E-02 0.  1.
       -2   -1    0    0    0  501  0.00000000000E+00  0.00000000000E+00 -0.38223449884E+03  0.38223449885E+03  0.25500000920E-02 0. -1.
    10030    2    1    2    0    0  0.00000000000E+00  0.00000000000E+00  0.13083365050E+04  0.20728055027E+04  0.16077245541E+04 0.  0.
        5    1    3    3  502    0  0.44510031990E+03  0.66461012994E+03  0.55141707731E+03  0.97154711813E+03  0.46999998093E+01 0. -1.
       -5    1    3    3    0  502 -0.44510031990E+03 -0.66461012994E+03  0.75691942773E+03  0.11012583846E+04  0.46999998093E+01 0.  1.
</event>
<event>
 5   0  0.5131239E-04  0.1591536E+04  0.7818609E-02  0.8825764E-01
        2   -1    0    0  501    0  0.00000000000E+00  0.00000000000E+00  0.68183019337E+03  0.68183019338E+03  0.25500000920E-02 0.  1.
       -2   -1    0    0    0  501  0.00000000000E+00  0.00000000000E+00 -0.92874601536E+03  0.92874601537E+03  0.25500000920E-02 0. -1.
    10030    2    1    2    0    0  0.00000000000E+00  0.00000000000E+00 -0.24691582199E+03  0.16105762087E+04  0.15915364592E+04 0.  0.
        1    1    3    3  502    0 -0.61004565374E+03 -0.14930077832E+03 -0.61797629645E+03  0.88110222169E+03  0.50400001928E-02 0. -1.
       -1    1    3    3    0  502  0.61004565374E+03  0.14930077832E+03  0.37106047446E+03  0.72947398706E+03  0.50400001928E-02 0.  1.
</event>
<event>
 5   0  0.1908125E-04  0.1518218E+04  0.7818609E-02  0.8872428E-01
        3   -1    0    0  501    0  0.00000000000E+00  0.00000000000E+00  0.63034041079E+03  0.63034041888E+03  0.10100000352E+00 0.  1.
       -3   -1    0    0    0  501  0.00000000000E+00  0.00000000000E+00 -0.91418284157E+03  0.91418284715E+03  0.10100000352E+00 0. -1.
    10030    2    1    2    0    0  0.00000000000E+00  0.00000000000E+00 -0.28384243078E+03  0.15445232660E+04  0.15182179006E+04 0.  0.
        3    1    3    3  502    0 -0.23217143114E+03  0.60652680851E+03  0.25791273933E+03  0.69878275179E+03  0.10100000352E+00 0.  1.
       -3    1    3    3    0  502  0.23217143114E+03 -0.60652680851E+03 -0.54175517012E+03  0.84574051424E+03  0.10100000352E+00 0. -1.
</event>
<event>
 5   0  0.5131239E-04  0.1636759E+04  0.7818609E-02  0.8798279E-01
        2   -1    0    0  501    0  0.00000000000E+00  0.00000000000E+00  0.14336597310E+04  0.14336597310E+04  0.25500000920E-02 0.  1.
       -2   -1    0    0    0  501  0.00000000000E+00  0.00000000000E+00 -0.46715739152E+03  0.46715739153E+03  0.25500000920E-02 0. -1.
    10030    2    1    2    0    0  0.00000000000E+00  0.00000000000E+00  0.96650233948E+03  0.19008171225E+04  0.16367586753E+04 0.  0.
        1    1    3    3  502    0 -0.26265010826E+03  0.12627367337E+02  0.13832634267E+04  0.14080348850E+04  0.50400001928E-02 0.  1.
       -1    1    3    3    0  502  0.26265010826E+03 -0.12627367337E+02 -0.41676108721E+03  0.49278223752E+03  0.50400001928E-02 0. -1.
</event>
<event>
 5   0  0.2649086E-04  0.1358553E+04  0.7818609E-02  0.8984378E-01
       -1   -1    0    0    0  501  0.00000000000E+00  0.00000000000E+00  0.10007460584E+04  0.10007460584E+04  0.50400001928E-02 0. -1.
        1   -1    0    0  501    0  0.00000000000E+00  0.00000000000E+00 -0.46107289406E+03  0.46107289409E+03  0.50400001928E-02 0.  1.
    10030    2    1    2    0    0  0.00000000000E+00  0.00000000000E+00  0.53967316435E+03  0.14618189525E+04  0.13585534681E+04 0.  0.
        2    1    3    3  502    0  0.54933871217E+03  0.24245920947E+03 -0.71883671952E+02  0.60475346320E+03  0.25500000920E-02 0.  1.
       -2    1    3    3    0  502 -0.54933871217E+03 -0.24245920947E+03  0.61155683630E+03  0.85706548932E+03  0.25500000920E-02 0. -1.
</event>
<event>
 5   0  0.5264308E-04  0.1750434E+04  0.7818609E-02  0.8733111E-01
       -2   -1    0    0    0  501  0.00000000000E+00  0.00000000000E+00  0.64323196231E+03  0.64323196231E+03  0.25500000920E-02 0.  1.
        2   -1    0    0  501    0  0.00000000000E+00  0.00000000000E+00 -0.11908687389E+04  0.11908687389E+04  0.25500000920E-02 0. -1.
    10030    2    1    2    0    0  0.00000000000E+00  0.00000000000E+00 -0.54763677664E+03  0.18341007013E+04  0.17504340442E+04 0.  0.
        3    1    3    3  502    0  0.22510110512E+03 -0.65805829364E+03 -0.83052700312E+03  0.10832757444E+04  0.10100000352E+00 0. -1.
       -3    1    3    3    0  502 -0.22510110512E+03  0.65805829364E+03  0.28289022648E+03  0.75082495683E+03  0.10100000352E+00 0.  1.
</event>
<event>
 5   0  0.2763895E-04  0.1647221E+04  0.7818609E-02  0.8792052E-01
        1   -1    0    0  501    0  0.00000000000E+00  0.00000000000E+00  0.21568450090E+04  0.21568450090E+04  0.50400001928E-02 0.  1.
       -1   -1    0    0    0  501  0.00000000000E+00  0.00000000000E+00 -0.31450307525E+03  0.31450307529E+03  0.50400001928E-02 0. -1.
    10030    2    1    2    0    0  0.00000000000E+00  0.00000000000E+00  0.18423419337E+04  0.24713480842E+04  0.16472211609E+04 0.  0.
        4    1    3    3  502    0  0.78176835705E+03 -0.25301125633E+03  0.10054602194E+04  0.12985100406E+04  0.12699999809E+01 0. -1.
       -4    1    3    3    0  502 -0.78176835705E+03  0.25301125633E+03  0.83688171433E+03  0.11728380436E+04  0.12699999809E+01 0.  1.
</event>
<event>
 5   0  0.2689675E-04  0.1573843E+04  0.7818609E-02  0.8836780E-01
       -1   -1    0    0    0  501  0.00000000000E+00  0.00000000000E+00  0.68682801097E+03  0.68682801099E+03  0.50400001928E-02 0.  1.
        1   -1    0    0  501    0  0.00000000000E+00  0.00000000000E+00 -0.90160222019E+03  0.90160222020E+03  0.50400001928E-02 0. -1.
    10030    2    1    2    0    0  0.00000000000E+00  0.00000000000E+00 -0.21477420922E+03  0.15884302312E+04  0.15738432700E+04 0.  0.
        1    1    3    3  502    0  0.67849069862E+03  0.39861099757E+03 -0.10506270108E+03  0.79390082925E+03  0.50400001928E-02 0. -1.
       -1    1    3    3    0  502 -0.67849069862E+03 -0.39861099757E+03 -0.10971150815E+03  0.79452940194E+03  0.50400001928E-02 0.  1.
</event>
<event>
 5   0  0.2730707E-04  0.1621768E+04  0.7818609E-02  0.8807286E-01
        1   -1    0    0  501    0  0.00000000000E+00  0.00000000000E+00  0.47094754247E+03  0.47094754249E+03  0.50400001928E-02 0. -1.
       -1   -1    0    0    0  501  0.00000000000E+00  0.00000000000E+00 -0.13961909441E+04  0.13961909441E+04  0.50400001928E-02 0.  1.
    10030    2    1    2    0    0  0.00000000000E+00  0.00000000000E+00 -0.92524340162E+03  0.18671384866E+04  0.16217677934E+04 0.  0.
        5    1    3    3  502    0  0.61673525363E+03  0.51023506250E+03 -0.31335903274E+03  0.85960349318E+03  0.46999998093E+01 0. -1.
       -5    1    3    3    0  502 -0.61673525363E+03 -0.51023506250E+03 -0.61188436888E+03  0.10075349934E+04  0.46999998093E+01 0.  1.
</event>
<event>
 5   0  0.5083831E-04  0.1607755E+04  0.7818609E-02  0.8815798E-01
       -2   -1    0    0    0  501  0.00000000000E+00  0.00000000000E+00  0.92640628389E+03  0.92640628389E+03  0.25500000920E-02 0. -1.
        2   -1    0    0  501    0  0.00000000000E+00  0.00000000000E+00 -0.69755458818E+03  0.69755458818E+03  0.25500000920E-02 0.  1.
    10030    2    1    2    0    0  0.00000000000E+00  0.00000000000E+00  0.22885169571E+03  0.16239608721E+04  0.16077548990E+04 0.  0.
        4    1    3    3  502    0 -0.59035298393E+03 -0.50309496141E+03 -0.98880818363E+02  0.78192084956E+03  0.12699999809E+01 0.  1.
       -4    1    3    3    0  502  0.59035298393E+03  0.50309496141E+03  0.32773251407E+03  0.84204002251E+03  0.12699999809E+01 0. -1.
</event>
<event>
 5   0  0.2649086E-04  0.1544582E+04  0.7818609E-02  0.8855336E-01
       -1   -1    0    0    0  501  0.00000000000E+00  0.00000000000E+00  0.84337714157E+03  0.84337714158E+03  0.50400001928E-02 0.  1.
        1   -1    0    0  501    0  0.00000000000E+00  0.00000000000E+00 -0.70719692865E+03  0.70719692867E+03  0.50400001928E-02 0. -1.
    10030    2    1    2    0    0  0.00000000000E+00  0.00000000000E+00  0.13618021291E+03  0.15505740703E+04  0.15445824345E+04 0.  0.
        2    1    3    3  502    0 -0.44574439063E+03 -0.91204815487E+02 -0.55837176987E+03  0.72026759856E+03  0.25500000920E-02 0. -1.
       -2    1    3    3    0  502  0.44574439063E+03  0.91204815487E+02  0.69455198278E+03  0.83030647170E+03  0.25500000920E-02 0.  1.
</event>
<event>
 5   0  0.5315984E-04  0.1598069E+04  0.7818609E-02  0.8821735E-01
       -2   -1    0    0    0  501  0.00000000000E+00  0.00000000000E+00  0.62978459067E+03  0.62978459068E+03  0.25500000920E-02 0. -1.
        2   -1    0    0  501    0  0.00000000000E+00  0.00000000000E+00 -0.10137695235E+04  0.10137695235E+04  0.25500000920E-02 0.  1.
    10030    2    1    2    0    0  0.00000000000E+00  0.00000000000E+00 -0.38398493281E+03  0.16435541142E+04  0.15980693657E+04 0.  0.
        2    1    3    3  502    0  0.19921593847E+03  0.36853960102E+03  0.50777619021E+03  0.65828951610E+03  0.25500000920E-02 0. -1.
       -2    1    3    3    0  502 -0.19921593847E+03 -0.36853960102E+03 -0.89176112302E+03  0.98526459807E+03  0.25500000920E-02 0.  1.
</event>
<event>
 5   0  0.5131239E-04  0.1567586E+04  0.7818609E-02  0.8840712E-01
       -2   -1    0    0    0  501  0.00000000000E+00  0.00000000000E+00  0.32280980397E+03  0.32280980398E+03  0.25500000920E-02 0.  1.
        2   -1    0    0  501    0  0.00000000000E+00  0.00000000000E+00 -0.19030768164E+04  0.19030768165E+04  0.25500000920E-02 0. -1.
    10030    2    1    2    0    0  0.00000000000E+00  0.00000000000E+00 -0.15802670125E+04  0.22258866204E+04  0.15675864940E+04 0.  0.
        1    1    3    3  502    0 -0.27173003840E+03 -0.40224809920E+03 -0.16639376083E+04  0.17333000639E+04  0.50400001928E-02 0. -1.
       -1    1    3    3    0  502  0.27173003840E+03  0.40224809920E+03  0.83670595813E+02  0.49258655656E+03  0.50400001928E-02 0.  1.
</event>
<event>
 5   0  0.5381164E-04  0.1596959E+04  0.7818609E-02  0.8822418E-01
        2   -1    0    0  501    0  0.00000000000E+00  0.00000000000E+00  0.23954694695E+04  0.23954694695E+04  0.25500000920E-02 0.  1.
       -2   -1    0    0    0  501  0.00000000000E+00  0.00000000000E+00 -0.26615634714E+03  0.26615634715E+03  0.25500000920E-02 0. -1.
    10030    2    1    2    0    0  0.00000000000E+00  0.00000000000E+00  0.21293131224E+04  0.26616258167E+04  0.15969588645E+04 0.  0.
        5    1    3    3  502    0  0.54415571858E+03  0.26539869821E+03  0.19701121409E+03  0.63669256596E+03  0.46999998093E+01 0. -1.
       -5    1    3    3    0  502 -0.54415571858E+03 -0.26539869821E+03  0.19323019083E+04  0.20249332507E+04  0.46999998093E+01 0.  1.
</event>
<event>
 5   0  0.2649086E-04  0.1607130E+04  0.7818609E-02  0.8816180E-01
       -1   -1    0    0    0  501  0.00000000000E+00  0.00000000000E+00  0.48212393375E+03  0.48212393378E+03  0.50400001928E-02 0. -1.
        1   -1    0    0  501    0  0.00000000000E+00  0.00000000000E+00 -0.13393171117E+04  0.13393171117E+04  0.50400001928E-02 0.  1.
    10030    2    1    2    0    0  0.00000000000E+00  0.00000000000E+00 -0.85719317792E+03  0.18214410455E+04  0.16071301558E+04 0.  0.
        2    1    3    3  502    0  0.59199624087E+03 -0.52079005917E+03 -0.60430240112E+03  0.99340989875E+03  0.25500000920E-02 0.  1.
       -2    1    3    3    0  502 -0.59199624087E+03  0.52079005917E+03 -0.25289077680E+03  0.82803114671E+03  0.25500000920E-02 0. -1.
</event>
<event>
 5   0  0.2763895E-04  0.1591783E+04  0.7818609E-02  0.8825612E-01
       -1   -1    0    0    0  501  0.00000000000E+00  0.00000000000E+00  0.22426069318E+03  0.22426069323E+03  0.50400001928E-02 0.  1.
        1   -1    0    0  501    0  0.00000000000E+00  0.00000000000E+00 -0.28245860767E+04  0.28245860767E+04  0.50400001928E-02 0. -1.
    10030    2    1    2    0    0  0.00000000000E+00  0.00000000000E+00 -0.26003253835E+04  0.30488467699E+04  0.15917834420E+04 0.  0.
        4    1    3    3  502    0 -0.46074505616E+02 -0.58749944114E+03 -0.23247731494E+04  0.23983015370E+04  0.12699999809E+01 0. -1.
       -4    1    3    3    0  502  0.46074505616E+02  0.58749944114E+03 -0.27555223409E+03  0.65054523288E+03  0.12699999809E+01 0.  1.
</event>
<event>
 5   0  0.5083831E-04  0.1580671E+04  0.7818609E-02  0.8832511E-01
        2   -1    0    0  501    0  0.00000000000E+00  0.00000000000E+00  0.21946477940E+04  0.21946477940E+04  0.25500000920E-02 0.  1.
       -2   -1    0    0    0  501  0.00000000000E+00  0.00000000000E+00 -0.28461513322E+03  0.28461513323E+03  0.25500000920E-02 0. -1.
    10030    2    1    2    0    0  0.00000000000E+00  0.00000000000E+00  0.19100326607E+04  0.24792629272E+04  0.15806707111E+04 0.  0.
        4    1    3    3  502    0  0.51263254169E+03 -0.45469951893E+03  0.33733354506E+03  0.76376652770E+03  0.12699999809E+01 0. -1.
       -4    1    3    3    0  502 -0.51263254169E+03  0.45469951893E+03  0.15726991157E+04  0.17154963995E+04  0.12699999809E+01 0.  1.
</event>
<event>
 5   0  0.5264308E-04  0.1549089E+04  0.7818609E-02  0.8852450E-01
       -2   -1    0    0    0  501  0.00000000000E+00  0.00000000000E+00  0.95735163484E+03  0.95735163485E+03  0.25500000920E-02 0. -1.
        2   -1    0    0  501    0  0.00000000000E+00  0.00000000000E+00 -0.62664414399E+03  0.62664414400E+03  0.25500000920E-02 0.  1.
    10030    2    1    2    0    0  0.00000000000E+00  0.00000000000E+00  0.33070749085E+03  0.15839957788E+04  0.15490885007E+04 0.  0.
        3    1    3    3  502    0 -0.12935446042E+03  0.74957830399E+03  0.16054752376E+02  0.76082716534E+03  0.10100000352E+00 0.  1.
       -3    1    3    3    0  502  0.12935446042E+03 -0.74957830399E+03  0.31465273847E+03  0.82316861351E+03  0.10100000352E+00 0. -1.
</event>
<event>
 5   0  0.2689675E-04  0.1601498E+04  0.7818609E-02  0.8819628E-01
       -1   -1    0    0    0  501  0.00000000000E+00  0.00000000000E+00  0.32018127228E+03  0.32018127232E+03  0.50400001928E-02 0.  1.
        1   -1    0    0  501    0  0.00000000000E+00  0.00000000000E+00 -0.20026115749E+04  0.20026115749E+04  0.50400001928E-02 0. -1.
    10030    2    1    2    0    0  0.00000000000E+00  0.00000000000E+00 -0.16824303026E+04  0.23227928472E+04  0.16014977015E+04 0.  0.
        1    1    3    3  502    0  0.58804015301E+02  0.59441885363E+03 -0.16147044839E+04  0.17216452178E+04  0.50400001928E-02 0. -1.
       -1    1    3    3    0  502 -0.58804015301E+02 -0.59441885363E+03 -0.67725818726E+02  0.60114762938E+03  0.50400001928E-02 0.  1.
</event>
<event>
 5   0  0.2796994E-04  0.1602030E+04  0.7818609E-02  0.8819302E-01
        1   -1    0    0  501    0  0.00000000000E+00  0.00000000000E+00  0.12632430496E+04  0.12632430496E+04  0.50400001928E-02 0.  1.
       -1   -1    0    0    0  501  0.00000000000E+00  0.00000000000E+00 -0.50791917298E+03  0.50791917300E+03  0.50400001928E-02 0. -1.
    10030    2    1    2    0    0  0.00000000000E+00  0.00000000000E+00  0.75532387658E+03  0.17711622226E+04  0.16020304180E+04 0.  0.
        3    1    3    3  502    0  0.37520485711E+03 -0.59677872463E+03  0.79821866636E+03  0.10649303172E+04  0.10100000352E+00 0. -1.
       -3    1    3    3    0  502 -0.37520485711E+03  0.59677872463E+03 -0.42894789776E+02  0.70623190537E+03  0.10100000352E+00 0.  1.
</event>
<event>
 5   0  0.2649086E-04  0.1601961E+04  0.7818609E-02  0.8819344E-01
       -1   -1    0    0    0  501  0.00000000000E+00  0.00000000000E+00  0.40805387253E+03  0.40805387256E+03  0.50400001928E-02 0.  1.
        1   -1    0    0  501    0  0.00000000000E+00  0.00000000000E+00 -0.15722678161E+04  0.15722678161E+04  0.50400001928E-02 0. -1.
    10030    2    1    2    0    0  0.00000000000E+00  0.00000000000E+00 -0.11642139436E+04  0.19803216887E+04  0.16019612618E+04 0.  0.
        2    1    3    3  502    0 -0.34351358731E+03 -0.71556857287E+03 -0.44936799639E+03  0.91212475207E+03  0.25500000920E-02 0.  1.
       -2    1    3    3    0  502  0.34351358731E+03  0.71556857287E+03 -0.71484594718E+03  0.10681969366E+04  0.25500000920E-02 0. -1.
</event>
<event>
 5   0  0.2649086E-04  0.1602692E+04  0.7818609E-02  0.8818896E-01
        1   -1    0    0  501    0  0.00000000000E+00  0.00000000000E+00  0.10701194506E+04  0.10701194506E+04  0.50400001928E-02 0.  1.
       -1   -1    0    0    0  501  0.00000000000E+00  0.00000000000E+00 -0.60007841786E+03  0.60007841788E+03  0.50400001928E-02 0. -1.
    10030    2    1    2    0    0  0.00000000000E+00  0.00000000000E+00  0.47004103271E+03  0.16701978685E+04  0.16026922185E+04 0.  0.
        2    1    3    3  502    0 -0.57915278616E+03 -0.54101864571E+03  0.35848630243E+03  0.86984570687E+03  0.25500000920E-02 0. -1.
       -2    1    3    3    0  502  0.57915278616E+03  0.54101864571E+03  0.11155473027E+03  0.80035216160E+03  0.25500000920E-02 0.  1.
</event>
<event>
 5   0  0.5381164E-04  0.1626640E+04  0.7818609E-02  0.8804347E-01
        2   -1    0    0  501    0  0.00000000000E+00  0.00000000000E+00  0.55690607394E+03  0.55690607395E+03  0.25500000920E-02 0. -1.
       -2   -1    0    0    0  501  0.00000000000E+00  0.00000000000E+00 -0.11877932388E+04  0.11877932388E+04  0.25500000920E-02 0.  1.
    10030    2    1    2    0    0  0.00000000000E+00  0.00000000000E+00 -0.63088716485E+03  0.17446993127E+04  0.16266398117E+04 0.  0.
        5    1    3    3  502    0  0.54357640820E+03 -0.29557592238E+03 -0.88160541828E+03  0.10770750396E+04  0.46999998093E+01 0.  1.
       -5    1    3    3    0  502 -0.54357640820E+03  0.29557592238E+03  0.25071825343E+03  0.66762427311E+03  0.46999998093E+01 0. -1.
</event>
<event>
 5   0  0.2730707E-04  0.1440508E+04  0.7818609E-02  0.8925008E-01
       -1   -1    0    0    0  501  0.00000000000E+00  0.00000000000E+00  0.11593299788E+04  0.11593299788E+04  0.50400001928E-02 0.  1.
        1   -1    0    0  501    0  0.00000000000E+00  0.00000000000E+00 -0.44747042520E+03  0.44747042523E+03  0.50400001928E-02 0. -1.
    10030    2    1    2    0    0  0.00000000000E+00  0.00000000000E+00  0.71185955356E+03  0.16068004040E+04  0.14405080751E+04 0.  0.
        5    1    3    3  502    0  0.48462286262E+02  0.40596490870E+03 -0.30546850828E+03  0.51038142583E+03  0.46999998093E+01 0. -1.
       -5    1    3    3    0  502 -0.48462286262E+02 -0.40596490870E+03  0.10173280618E+04  0.10964189782E+04  0.46999998093E+01 0.  1.
</event>
<event>
 5   0  0.2796994E-04  0.1601269E+04  0.7818609E-02  0.8819769E-01
       -1   -1    0    0    0  501  0.00000000000E+00  0.00000000000E+00  0.51188785591E+03  0.51188785593E+03  0.50400001928E-02 0. -1.
        1   -1    0    0  501    0  0.00000000000E+00  0.00000000000E+00 -0.12522581710E+04  0.12522581710E+04  0.50400001928E-02 0.  1.
    10030    2    1    2    0    0  0.00000000000E+00  0.00000000000E+00 -0.74037031505E+03  0.17641460269E+04  0.16012691844E+04 0.  0.
        3    1    3    3  502    0 -0.36566089825E+03  0.13030051842E+03  0.40127633043E+03  0.55830889405E+03  0.10100000352E+00 0. -1.
       -3    1    3    3    0  502  0.36566089825E+03 -0.13030051842E+03 -0.11416466455E+04  0.12058371328E+04  0.10100000352E+00 0.  1.
</event>
<event>
 5   0  0.2730707E-04  0.1608804E+04  0.7818609E-02  0.8815157E-01
        1   -1    0    0  501    0  0.00000000000E+00  0.00000000000E+00  0.40662967115E+03  0.40662967118E+03  0.50400001928E-02 0.  1.
       -1   -1    0    0    0  501  0.00000000000E+00  0.00000000000E+00 -0.15912829032E+04  0.15912829032E+04  0.50400001928E-02 0. -1.
    10030    2    1    2    0    0  0.00000000000E+00  0.00000000000E+00 -0.11846532321E+04  0.19979125744E+04  0.16088043308E+04 0.  0.
        5    1    3    3  502    0  0.29003189076E+03 -0.74670939036E+03 -0.50151482323E+03  0.94510984506E+03  0.46999998093E+01 0.  1.
       -5    1    3    3    0  502 -0.29003189076E+03  0.74670939036E+03 -0.68313840883E+03  0.10528027293E+04  0.46999998093E+01 0. -1.
</event>
<event>
 5   0  0.2689675E-04  0.1599333E+04  0.7818609E-02  0.8820958E-01
       -1   -1    0    0    0  501  0.00000000000E+00  0.00000000000E+00  0.46855863275E+03  0.46855863278E+03  0.50400001928E-02 0.  1.
        1   -1    0    0  501    0  0.00000000000E+00  0.00000000000E+00 -0.13647521627E+04  0.13647521627E+04  0.50400001928E-02 0. -1.
    10030    2    1    2    0    0  0.00000000000E+00  0.00000000000E+00 -0.89619352996E+03  0.18333107955E+04  0.15993328702E+04 0.  0.
        1    1    3    3  502    0  0.11767552778E+03 -0.18265293167E+03  0.43407317428E+03  0.48541646443E+03  0.50400001928E-02 0.  1.
       -1    1    3    3    0  502 -0.11767552778E+03  0.18265293167E+03 -0.13302667042E+04  0.13478943311E+04  0.50400001928E-02 0. -1.
</event>
<event>
 5   0  0.5315984E-04  0.1314517E+04  0.7818609E-02  0.9018131E-01
        2   -1    0    0  501    0  0.00000000000E+00  0.00000000000E+00  0.56765254087E+03  0.56765254088E+03  0.25500000920E-02 0. -1.
       -2   -1    0    0    0  501  0.00000000000E+00  0.00000000000E+00 -0.76100931463E+03  0.76100931464E+03  0.25500000920E-02 0.  1.
    10030    2    1    2    0    0  0.00000000000E+00  0.00000000000E+00 -0.19335677376E+03  0.13286618555E+04  0.13145172058E+04 0.  0.
        2    1    3    3  502    0  0.24178224871E+03  0.49979266476E+03 -0.45222690584E+03  0.71607299761E+03  0.25500000920E-02 0.  1.
       -2    1    3    3    0  502 -0.24178224871E+03 -0.49979266476E+03  0.25887013208E+03  0.61258885790E+03  0.25500000920E-02 0. -1.
</event>
<event>
 5   0  0.5131239E-04  0.1605380E+04  0.7818609E-02  0.8817249E-01
        2   -1    0    0  501    0  0.00000000000E+00  0.00000000000E+00  0.12452743353E+04  0.12452743353E+04  0.25500000920E-02 0. -1.
       -2   -1    0    0    0  501  0.00000000000E+00  0.00000000000E+00 -0.51740528672E+03  0.51740528673E+03  0.25500000920E-02 0.  1.
    10030    2    1    2    0    0  0.00000000000E+00  0.00000000000E+00  0.72786904857E+03  0.17626796220E+04  0.16053803593E+04 0.  0.
        1    1    3    3  502    0  0.22892415321E+03 -0.34385184190E+03 -0.39173848963E+03  0.56929728735E+03  0.50400001928E-02 0.  1.
       -1    1    3    3    0  502 -0.22892415321E+03  0.34385184190E+03  0.11196075382E+04  0.11933823347E+04  0.50400001928E-02 0. -1.
</event>
<event>
 5   0  0.1908125E-04  0.1606812E+04  0.7818609E-02  0.8816374E-01
       -3   -1    0    0    0  501  0.00000000000E+00  0.00000000000E+00  0.76376806321E+03  0.76376806989E+03  0.10100000352E+00 0.  1.
        3   -1    0    0  501    0  0.00000000000E+00  0.00000000000E+00 -0.84510154390E+03  0.84510154994E+03  0.10100000352E+00 0. -1.
    10030    2    1    2    0    0  0.00000000000E+00  0.00000000000E+00 -0.81333480692E+02  0.16088696198E+04  0.16068124715E+04 0.  0.
        2    1    3    3  502    0 -0.30720057943E+03 -0.74177896932E+03 -0.69916196902E+02  0.80591346305E+03  0.25500000920E-02 0. -1.
       -2    1    3    3    0  502  0.30720057943E+03  0.74177896932E+03 -0.11417283790E+02  0.80295615678E+03  0.25500000920E-02 0.  1.
</event>
<event>
 5   0  0.2649086E-04  0.1606448E+04  0.7818609E-02  0.8816597E-01
       -1   -1    0    0    0  501  0.00000000000E+00  0.00000000000E+00  0.75199144936E+03  0.75199144938E+03  0.50400001928E-02 0. -1.
        1   -1    0    0  501    0  0.00000000000E+00  0.00000000000E+00 -0.85794645199E+03  0.85794645201E+03  0.50400001928E-02 0.  1.
    10030    2    1    2    0    0  0.00000000000E+00  0.00000000000E+00 -0.10595500263E+03  0.16099379014E+04  0.16064475042E+04 0.  0.
        2    1    3    3  502    0 -0.48936191901E+03  0.36756148418E+03  0.46833717711E+03  0.77065961611E+03  0.25500000920E-02 0. -1.
       -2    1    3    3    0  502  0.48936191901E+03 -0.36756148418E+03 -0.57429217974E+03  0.83927828528E+03  0.25500000920E-02 0.  1.
</event>
<event>
 5   0  0.2796994E-04  0.1596439E+04  0.7818609E-02  0.8822738E-01
       -1   -1    0    0    0  501  0.00000000000E+00  0.00000000000E+00  0.10998772489E+04  0.10998772489E+04  0.50400001928E-02 0. -1.
        1   -1    0    0  501    0  0.00000000000E+00  0.00000000000E+00 -0.57929614962E+03  0.57929614964E+03  0.50400001928E-02 0.  1.
    10030    2    1    2    0    0  0.00000000000E+00  0.00000000000E+00  0.52058109927E+03  0.16791733985E+04  0.15964393573E+04 0.  0.
        3    1    3    3  502    0  0.43008505371E+03 -0.13811917923E+03 -0.43192206549E+03  0.62498539340E+03  0.10100000352E+00 0.  1.
       -3    1    3    3    0  502 -0.43008505371E+03  0.13811917923E+03  0.95250316476E+03  0.10541880051E+04  0.10100000352E+00 0. -1.
</event>
<event>
 5   0  0.5315984E-04  0.1630104E+04  0.7818609E-02  0.8802264E-01
       -2   -1    0    0    0  501  0.00000000000E+00  0.00000000000E+00  0.47364026095E+03  0.47364026096E+03  0.25500000920E-02 0.  1.
        2   -1    0    0  501    0  0.00000000000E+00  0.00000000000E+00 -0.14025619870E+04  0.14025619870E+04  0.25500000920E-02 0. -1.
    10030    2    1    2    0    0  0.00000000000E+00  0.00000000000E+00 -0.92892172609E+03  0.18762022480E+04  0.16301040771E+04 0.  0.
        2    1    3    3  502    0  0.64659573495E+03 -0.33495843120E+03 -0.43094495862E+02  0.72947949297E+03  0.25500000920E-02 0.  1.
       -2    1    3    3    0  502 -0.64659573495E+03  0.33495843120E+03 -0.88582723023E+03  0.11467227550E+04  0.25500000920E-02 0. -1.
</event>
<event>
 5   0  0.5131239E-04  0.1588622E+04  0.7818609E-02  0.8827568E-01
        2   -1    0    0  501    0  0.00000000000E+00  0.00000000000E+00  0.47525830703E+03  0.47525830704E+03  0.25500000920E-02 0.  1.
       -2   -1    0    0    0  501  0.00000000000E+00  0.00000000000E+00 -0.13275522281E+04  0.13275522281E+04  0.25500000920E-02 0. -1.
    10030    2    1    2    0    0  0.00000000000E+00  0.00000000000E+00 -0.85229392108E+03  0.18028105352E+04  0.15886223270E+04 0.  0.
        1    1    3    3  502    0  0.48814116412E+03 -0.41148190228E+03  0.11014835196E+03  0.64786712486E+03  0.50400001928E-02 0.  1.
       -1    1    3    3    0  502 -0.48814116412E+03  0.41148190228E+03 -0.96244227304E+03  0.11549434103E+04  0.50400001928E-02 0. -1.
</event>
<event>
 5   0  0.2689675E-04  0.1598678E+04  0.7818609E-02  0.8821361E-01
        1   -1    0    0  501    0  0.00000000000E+00  0.00000000000E+00  0.55555473054E+03  0.55555473056E+03  0.50400001928E-02 0. -1.
       -1   -1    0    0    0  501  0.00000000000E+00  0.00000000000E+00 -0.11500986469E+04  0.11500986469E+04  0.50400001928E-02 0.  1.
    10030    2    1    2    0    0  0.00000000000E+00  0.00000000000E+00 -0.59454391638E+03  0.17056533775E+04  0.15986778836E+04 0.  0.
        1    1    3    3  502    0  0.19482565987E+03 -0.51309841783E+03 -0.91729160280E+03  0.10689485061E+04  0.50400001928E-02 0.  1.
       -1    1    3    3    0  502 -0.19482565987E+03  0.51309841783E+03  0.32274768642E+03  0.63670487138E+03  0.50400001928E-02 0. -1.
</event>
<event>
 5   0  0.5315984E-04  0.1591344E+04  0.7818609E-02  0.8825884E-01
       -2   -1    0    0    0  501  0.00000000000E+00  0.00000000000E+00  0.40555429858E+03  0.40555429859E+03  0.25500000920E-02 0.  1.
        2   -1    0    0  501    0  0.00000000000E+00  0.00000000000E+00 -0.15610580430E+04  0.15610580430E+04  0.25500000920E-02 0. -1.
    10030    2    1    2    0    0  0.00000000000E+00  0.00000000000E+00 -0.11555037445E+04  0.19666123416E+04  0.15913438342E+04 0.  0.
        2    1    3    3  502    0 -0.23763084758E+03  0.59365981195E+02  0.35780531709E+03  0.43360971436E+03  0.25500000920E-02 0.  1.
       -2    1    3    3    0  502  0.23763084758E+03 -0.59365981195E+02 -0.15133090615E+04  0.15330026273E+04  0.25500000920E-02 0. -1.
</event>
<event>
 5   0  0.2763895E-04  0.1603368E+04  0.7818609E-02  0.8818481E-01
       -1   -1    0    0    0  501  0.00000000000E+00  0.00000000000E+00  0.59773068536E+03  0.59773068538E+03  0.50400001928E-02 0. -1.
        1   -1    0    0  501    0  0.00000000000E+00  0.00000000000E+00 -0.10752290001E+04  0.10752290002E+04  0.50400001928E-02 0.  1.
    10030    2    1    2    0    0  0.00000000000E+00  0.00000000000E+00 -0.47749831479E+03  0.16729596855E+04  0.16033681638E+04 0.  0.
        4    1    3    3  502    0 -0.28124848551E+03 -0.68022156713E+03 -0.57017331798E+03  0.93107535486E+03  0.12699999809E+01 0. -1.
       -4    1    3    3    0  502  0.28124848551E+03  0.68022156713E+03  0.92675003198E+02  0.74188433068E+03  0.12699999809E+01 0.  1.
</event>
<event>
 5   0  0.2796994E-04  0.1601669E+04  0.7818609E-02  0.8819523E-01
       -1   -1    0    0    0  501  0.00000000000E+00  0.00000000000E+00  0.64503803816E+03  0.64503803818E+03  0.50400001928E-02 0. -1.
        1   -1    0    0  501    0  0.00000000000E+00  0.00000000000E+00 -0.99426065390E+03  0.99426065391E+03  0.50400001928E-02 0.  1.
    10030    2    1    2    0    0  0.00000000000E+00  0.00000000000E+00 -0.34922261574E+03  0.16392986921E+04  0.16016690565E+04 0.  0.
        3    1    3    3  502    0  0.37985879097E+03 -0.36496901965E+03 -0.79197492664E+03  0.95116737803E+03  0.10100000352E+00 0.  1.
       -3    1    3    3    0  502 -0.37985879097E+03  0.36496901965E+03  0.44275231091E+03  0.68813131407E+03  0.10100000352E+00 0. -1.
</event>
<event>
 5   0  0.5381164E-04  0.1620032E+04  0.7818609E-02  0.8808335E-01
       -2   -1    0    0    0  501  0.00000000000E+00  0.00000000000E+00  0.54371081374E+03  0.54371081374E+03  0.25500000920E-02 0.  1.
        2   -1    0    0  501    0  0.00000000000E+00  0.00000000000E+00 -0.12067556000E+04  0.12067556000E+04  0.25500000920E-02 0. -1.
    10030    2    1    2    0    0  0.00000000000E+00  0.00000000000E+00 -0.66304478629E+03  0.17504664138E+04  0.16200321840E+04 0.  0.
        5    1    3    3  502    0 -0.10019549932E+02  0.44361497112E+02 -0.12053602371E+04  0.12062270620E+04  0.46999998093E+01 0. -1.
       -5    1    3    3    0  502  0.10019549932E+02 -0.44361497112E+02  0.54231545085E+03  0.54423935179E+03  0.46999998093E+01 0.  1.
</event>
<event>
 5   0  0.5315984E-04  0.1559403E+04  0.7818609E-02  0.8845884E-01
       -2   -1    0    0    0  501  0.00000000000E+00  0.00000000000E+00  0.62728055499E+03  0.62728055499E+03  0.25500000920E-02 0. -1.
        2   -1    0    0  501    0  0.00000000000E+00  0.00000000000E+00 -0.96915899644E+03  0.96915899645E+03  0.25500000920E-02 0.  1.
    10030    2    1    2    0    0  0.00000000000E+00  0.00000000000E+00 -0.34187844146E+03  0.15964395514E+04  0.15594032104E+04 0.  0.
        2    1    3    3  502    0  0.46400996360E+03 -0.15209013184E+03  0.45136115722E+03  0.66495379447E+03  0.25500000920E-02 0. -1.
       -2    1    3    3    0  502 -0.46400996360E+03  0.15209013184E+03 -0.79323959868E+03  0.93148575697E+03  0.25500000920E-02 0.  1.
</event>
<event>
 5   0  0.1908125E-04  0.1537178E+04  0.7818609E-02  0.8860100E-01
       -3   -1    0    0    0  501  0.00000000000E+00  0.00000000000E+00  0.45236064327E+03  0.45236065454E+03  0.10100000352E+00 0. -1.
        3   -1    0    0  501    0  0.00000000000E+00  0.00000000000E+00 -0.13058800051E+04  0.13058800090E+04  0.10100000352E+00 0.  1.
    10030    2    1    2    0    0  0.00000000000E+00  0.00000000000E+00 -0.85351936187E+03  0.17582406636E+04  0.15371775857E+04 0.  0.
        1    1    3    3  502    0  0.61306962932E+03  0.39946329702E+03 -0.15777327272E+03  0.74854372061E+03  0.50400001928E-02 0. -1.
       -1    1    3    3    0  502 -0.61306962932E+03 -0.39946329702E+03 -0.69574608916E+03  0.10096969430E+04  0.50400001928E-02 0.  1.
</event>
<event>
 5   0  0.2730707E-04  0.1546341E+04  0.7818609E-02  0.8854208E-01
       -1   -1    0    0    0  501  0.00000000000E+00  0.00000000000E+00  0.85732175687E+03  0.85732175688E+03  0.50400001928E-02 0.  1.
        1   -1    0    0  501    0  0.00000000000E+00  0.00000000000E+00 -0.69727930316E+03  0.69727930318E+03  0.50400001928E-02 0. -1.
    10030    2    1    2    0    0  0.00000000000E+00  0.00000000000E+00  0.16004245370E+03  0.15546010601E+04  0.15463411231E+04 0.  0.
        5    1    3    3  502    0  0.12851640743E+03 -0.25267419715E+02  0.84607286940E+03  0.85616371087E+03  0.46999998093E+01 0.  1.
       -5    1    3    3    0  502 -0.12851640743E+03  0.25267419715E+02 -0.68603041570E+03  0.69843734919E+03  0.46999998093E+01 0. -1.
</event>
<event>
 5   0  0.2649086E-04  0.1644257E+04  0.7818609E-02  0.8793811E-01
        1   -1    0    0  501    0  0.00000000000E+00  0.00000000000E+00  0.21558554445E+04  0.21558554445E+04  0.50400001928E-02 0.  1.
       -1   -1    0    0    0  501  0.00000000000E+00  0.00000000000E+00 -0.31351593375E+03  0.31351593379E+03  0.50400001928E-02 0. -1.
    10030    2    1    2    0    0  0.00000000000E+00  0.00000000000E+00  0.18423395107E+04  0.24693713782E+04  0.16442567108E+04 0.  0.
        2    1    3    3  502    0  0.64958358195E+02 -0.70883375849E+03  0.30335873167E+03  0.77375151410E+03  0.25500000920E-02 0. -1.
       -2    1    3    3    0  502 -0.64958358195E+02  0.70883375849E+03  0.15389807790E+04  0.16956198642E+04  0.25500000920E-02 0.  1.
</event>
<event>
 5   0  0.2689675E-04  0.1595902E+04  0.7818609E-02  0.8823070E-01
        1   -1    0    0  501    0  0.00000000000E+00  0.00000000000E+00  0.89499350618E+03  0.89499350620E+03  0.50400001928E-02 0. -1.
       -1   -1    0    0    0  501  0.00000000000E+00  0.00000000000E+00 -0.71143052047E+03  0.71143052049E+03  0.50400001928E-02 0.  1.
    10030    2    1    2    0    0  0.00000000000E+00  0.00000000000E+00  0.18356298571E+03  0.16064240267E+04  0.15959018716E+04 0.  0.
        1    1    3    3  502    0 -0.51244058396E+03  0.58295253891E+03 -0.94633163846E+02  0.78191076884E+03  0.50400001928E-02 0. -1.
       -1    1    3    3    0  502  0.51244058396E+03 -0.58295253891E+03  0.27819614956E+03  0.82451325784E+03  0.50400001928E-02 0.  1.
</event>
<event>
 5   0  0.5315984E-04  0.1603663E+04  0.7818609E-02  0.8818301E-01
       -2   -1    0    0    0  501  0.00000000000E+00  0.00000000000E+00  0.66874442665E+03  0.66874442666E+03  0.25500000920E-02 0. -1.
        2   -1    0    0  501    0  0.00000000000E+00  0.00000000000E+00 -0.96140425919E+03  0.96140425919E+03  0.25500000920E-02 0.  1.
    10030    2    1    2    0    0  0.00000000000E+00  0.00000000000E+00 -0.29265983254E+03  0.16301486858E+04  0.16036629822E+04 0.  0.
        2    1    3    3  502    0  0.59112510051E+03  0.51045104526E+03  0.38174234615E+02  0.78195039885E+03  0.25500000920E-02 0. -1.
       -2    1    3    3    0  502 -0.59112510051E+03 -0.51045104526E+03 -0.33083406715E+03  0.84819828700E+03  0.25500000920E-02 0.  1.
</event>
<event>
 5   0  0.2689675E-04  0.1606993E+04  0.7818609E-02  0.8816264E-01
        1   -1    0    0  501    0  0.00000000000E+00  0.00000000000E+00  0.11367656434E+04  0.11367656434E+04  0.50400001928E-02 0. -1.
       -1   -1    0    0    0  501  0.00000000000E+00  0.00000000000E+00 -0.56793262905E+03  0.56793262907E+03  0.50400001928E-02 0.  1.
    10030    2    1    2    0    0  0.00000000000E+00  0.00000000000E+00  0.56883301438E+03  0.17046982725E+04  0.16069925955E+04 0.  0.
        1    1    3    3  502    0 -0.59223609575E+03 -0.52914268589E+03  0.41377642225E+03  0.89551465804E+03  0.50400001928E-02 0. -1.
       -1    1    3    3    0  502  0.59223609575E+03  0.52914268589E+03  0.15505659212E+03  0.80918361446E+03  0.50400001928E-02 0.  1.
</event>
<event>
 5   0  0.1908125E-04  0.1636745E+04  0.7818609E-02  0.8798287E-01
       -4   -1    0    0    0  501  0.00000000000E+00  0.00000000000E+00  0.78273303714E+03  0.78273406744E+03  0.12699999809E+01 0.  1.
        4   -1    0    0  501    0  0.00000000000E+00  0.00000000000E+00 -0.85563238081E+03  0.85563332333E+03  0.12699999809E+01 0. -1.
    10030    2    1    2    0    0  0.00000000000E+00  0.00000000000E+00 -0.72899343677E+02  0.16383673908E+04  0.16367447549E+04 0.  0.
        2    1    3    3  502    0 -0.76697063634E+03  0.10130332098E+03 -0.30359817818E+03  0.83107049861E+03  0.25500000920E-02 0. -1.
       -2    1    3    3    0  502  0.76697063634E+03 -0.10130332098E+03  0.23069883451E+03  0.80729689216E+03  0.25500000920E-02 0.  1.
</event>
<event>
 5   0  0.2796994E-04  0.1602090E+04  0.7818609E-02  0.8819265E-01
       -1   -1    0    0    0  501  0.00000000000E+00  0.00000000000E+00  0.10108411466E+04  0.10108411466E+04  0.50400001928E-02 0.  1.
        1   -1    0    0  501    0  0.00000000000E+00  0.00000000000E+00 -0.63479139681E+03  0.63479139683E+03  0.50400001928E-02 0. -1.
    10030    2    1    2    0    0  0.00000000000E+00  0.00000000000E+00  0.37604974982E+03  0.16456325435E+04  0.16020902140E+04 0.  0.
        3    1    3    3  502    0  0.34492722996E+03  0.25206195488E+03  0.88405726613E+03  0.98186928003E+03  0.10100000352E+00 0.  1.
       -3    1    3    3    0  502 -0.34492722996E+03 -0.25206195488E+03 -0.50800751631E+03  0.66376326344E+03  0.10100000352E+00 0. -1.
</event>
<event>
 5   0  0.1908125E-04  0.1491440E+04  0.7818609E-02  0.8890165E-01
        3   -1    0    0  501    0  0.00000000000E+00  0.00000000000E+00  0.23919215485E+04  0.23919215506E+04  0.10100000352E+00 0.  1.
       -3   -1    0    0    0  501  0.00000000000E+00  0.00000000000E+00 -0.23249030399E+03  0.23249032593E+03  0.10100000352E+00 0. -1.
    10030    2    1    2    0    0  0.00000000000E+00  0.00000000000E+00  0.21594312445E+04  0.26244118765E+04  0.14914403770E+04 0.  0.
        1    1    3    3  502    0  0.31244784610E+03  0.39225769413E+03  0.10854093904E+03  0.51309929898E+03  0.50400001928E-02 0. -1.
       -1    1    3    3    0  502 -0.31244784610E+03 -0.39225769413E+03  0.20508903054E+04  0.21113125776E+04  0.50400001928E-02 0.  1.
</event>
<event>
 5   0  0.2730707E-04  0.1631746E+04  0.7818609E-02  0.8801279E-01
        1   -1    0    0  501    0  0.00000000000E+00  0.00000000000E+00  0.20035482239E+04  0.20035482239E+04  0.50400001928E-02 0. -1.
       -1   -1    0    0    0  501  0.00000000000E+00  0.00000000000E+00 -0.33223488546E+03  0.33223488550E+03  0.50400001928E-02 0.  1.
    10030    2    1    2    0    0  0.00000000000E+00  0.00000000000E+00  0.16713133385E+04  0.23357831094E+04  0.16317458316E+04 0.  0.
        5    1    3    3  502    0  0.54104106283E+03 -0.49893438196E+03  0.33165665087E+03  0.80726648217E+03  0.46999998093E+01 0.  1.
       -5    1    3    3    0  502 -0.54104106283E+03  0.49893438196E+03  0.13396566876E+04  0.15285166273E+04  0.46999998093E+01 0. -1.
</event>
<event>
 5   0  0.5315984E-04  0.1592232E+04  0.7818609E-02  0.8825334E-01
       -2   -1    0    0    0  501  0.00000000000E+00  0.00000000000E+00  0.43915661302E+03  0.43915661302E+03  0.25500000920E-02 0.  1.
        2   -1    0    0  501    0  0.00000000000E+00  0.00000000000E+00 -0.14432223264E+04  0.14432223264E+04  0.25500000920E-02 0. -1.
    10030    2    1    2    0    0  0.00000000000E+00  0.00000000000E+00 -0.10040657134E+04  0.18823789394E+04  0.15922319287E+04 0.  0.
        2    1    3    3  502    0 -0.60453336388E+03  0.47156243725E+03 -0.75550650872E+03  0.10763929603E+04  0.25500000920E-02 0. -1.
       -2    1    3    3    0  502  0.60453336388E+03 -0.47156243725E+03 -0.24855920463E+03  0.80598597909E+03  0.25500000920E-02 0.  1.
</event>
<event>
 5   0  0.1908125E-04  0.1607395E+04  0.7818609E-02  0.8816018E-01
        3   -1    0    0  501    0  0.00000000000E+00  0.00000000000E+00  0.93218275462E+03  0.93218276009E+03  0.10100000352E+00 0. -1.
       -3   -1    0    0    0  501  0.00000000000E+00  0.00000000000E+00 -0.69292185989E+03  0.69292186725E+03  0.10100000352E+00 0.  1.
    10030    2    1    2    0    0  0.00000000000E+00  0.00000000000E+00  0.23926089473E+03  0.16251046273E+04  0.16073951829E+04 0.  0.
        1    1    3    3  502    0 -0.58251179114E+03  0.18187799763E+03  0.64839377411E+03  0.89040107770E+03  0.50400001928E-02 0. -1.
       -1    1    3    3    0  502  0.58251179114E+03 -0.18187799763E+03 -0.40913287938E+03  0.73470354964E+03  0.50400001928E-02 0.  1.
</event>
<event>
 5   0  0.2689675E-04  0.1593276E+04  0.7818609E-02  0.8824689E-01
        1   -1    0    0  501    0  0.00000000000E+00  0.00000000000E+00  0.15273503499E+04  0.15273503499E+04  0.50400001928E-02 0.  1.
       -1   -1    0    0    0  501  0.00000000000E+00  0.00000000000E+00 -0.41551204708E+03  0.41551204711E+03  0.50400001928E-02 0. -1.
    10030    2    1    2    0    0  0.00000000000E+00  0.00000000000E+00  0.11118383028E+04  0.19428623970E+04  0.15932764613E+04 0.  0.
        1    1    3    3  502    0  0.58782286282E+03  0.19721197622E+03  0.11658747066E+04  0.13204893461E+04  0.50400001928E-02 0.  1.
       -1    1    3    3    0  502 -0.58782286282E+03 -0.19721197622E+03 -0.54036403743E+02  0.62237305097E+03  0.50400001928E-02 0. -1.
</event>
<event>
 5   0  0.5315984E-04  0.1596206E+04  0.7818609E-02  0.8822882E-01
       -2   -1    0    0    0  501  0.00000000000E+00  0.00000000000E+00  0.25136337808E+03  0.25136337809E+03  0.25500000920E-02 0. -1.
        2   -1    0    0  501    0  0.00000000000E+00  0.00000000000E+00 -0.25340533103E+04  0.25340533103E+04  0.25500000920E-02 0.  1.
    10030    2    1    2    0    0  0.00000000000E+00  0.00000000000E+00 -0.22826899322E+04  0.27854166884E+04  0.15962057516E+04 0.  0.
        2    1    3    3  502    0  0.39355168121E+03  0.48015431730E+03 -0.20165349364E+04  0.21099393935E+04  0.25500000920E-02 0.  1.
       -2    1    3    3    0  502 -0.39355168121E+03 -0.48015431730E+03 -0.26615499581E+03  0.67547729495E+03  0.25500000920E-02 0. -1.
</event>
<event>
 5   0  0.2649086E-04  0.1625012E+04  0.7818609E-02  0.8805328E-01
        1   -1    0    0  501    0  0.00000000000E+00  0.00000000000E+00  0.99949722841E+03  0.99949722842E+03  0.50400001928E-02 0.  1.
       -1   -1    0    0    0  501  0.00000000000E+00  0.00000000000E+00 -0.66049822406E+03  0.66049822408E+03  0.50400001928E-02 0. -1.
    10030    2    1    2    0    0  0.00000000000E+00  0.00000000000E+00  0.33899900434E+03  0.16599954525E+04  0.16250121776E+04 0.  0.
        2    1    3    3  502    0 -0.44403928379E+03 -0.67822996870E+03  0.11355399948E+03  0.81857271320E+03  0.25500000920E-02 0.  1.
       -2    1    3    3    0  502  0.44403928379E+03  0.67822996870E+03  0.22544500486E+03  0.84142273930E+03  0.25500000920E-02 0. -1.
</event>
<event>
 5   0  0.2649086E-04  0.1558888E+04  0.7818609E-02  0.8846210E-01
        1   -1    0    0  501    0  0.00000000000E+00  0.00000000000E+00  0.10352853020E+04  0.10352853020E+04  0.50400001928E-02 0. -1.
       -1   -1    0    0    0  501  0.00000000000E+00  0.00000000000E+00 -0.58682678349E+03  0.58682678351E+03  0.50400001928E-02 0.  1.
    10030    2    1    2    0    0  0.00000000000E+00  0.00000000000E+00  0.44845851853E+03  0.16221120855E+04  0.15588882497E+04 0.  0.
        2    1    3    3  502    0  0.54675294644E+03  0.51073374214E+03  0.45159847443E+03  0.87391585517E+03  0.25500000920E-02 0. -1.
       -2    1    3    3    0  502 -0.54675294644E+03 -0.51073374214E+03 -0.31399559047E+01  0.74819623036E+03  0.25500000920E-02 0.  1.
</event>
<event>
 5   0  0.2763895E-04  0.1618411E+04  0.7818609E-02  0.8809317E-01
       -1   -1    0    0    0  501  0.00000000000E+00  0.00000000000E+00  0.65315724023E+03  0.65315724025E+03  0.50400001928E-02 0.  1.
        1   -1    0    0  501    0  0.00000000000E+00  0.00000000000E+00 -0.10025357589E+04  0.10025357589E+04  0.50400001928E-02 0. -1.
    10030    2    1    2    0    0  0.00000000000E+00  0.00000000000E+00 -0.34937851866E+03  0.16556929992E+04  0.16184109361E+04 0.  0.
        4    1    3    3  502    0 -0.23817674235E+03  0.35911405511E+03  0.52601274201E+03  0.67998682549E+03  0.12699999809E+01 0.  1.
       -4    1    3    3    0  502  0.23817674235E+03 -0.35911405511E+03 -0.87539126067E+03  0.97570617367E+03  0.12699999809E+01 0. -1.
</event>
<event>
 5   0  0.2763895E-04  0.1609553E+04  0.7818609E-02  0.8814701E-01
        1   -1    0    0  501    0  0.00000000000E+00  0.00000000000E+00  0.72469144531E+03  0.72469144533E+03  0.50400001928E-02 0. -1.
       -1   -1    0    0    0  501  0.00000000000E+00  0.00000000000E+00 -0.89371181388E+03  0.89371181390E+03  0.50400001928E-02 0.  1.
    10030    2    1    2    0    0  0.00000000000E+00  0.00000000000E+00 -0.16902036857E+03  0.16184032592E+04  0.16095531133E+04 0.  0.
        4    1    3    3  502    0 -0.61962805099E+03  0.29221153687E+03 -0.50913208579E+03  0.85354765393E+03  0.12699999809E+01 0.  1.
       -4    1    3    3    0  502  0.61962805099E+03 -0.29221153687E+03  0.34011171722E+03  0.76485560529E+03  0.12699999809E+01 0. -1.
</event>
<event>
 5   0  0.2730707E-04  0.1389211E+04  0.7818609E-02  0.8961665E-01
       -1   -1    0    0    0  501  0.00000000000E+00  0.00000000000E+00  0.28770471758E+03  0.28770471762E+03  0.50400001928E-02 0.  1.
        1   -1    0    0  501    0  0.00000000000E+00  0.00000000000E+00 -0.16769872263E+04  0.16769872263E+04  0.50400001928E-02 0. -1.
    10030    2    1    2    0    0  0.00000000000E+00  0.00000000000E+00 -0.13892825087E+04  0.19646919439E+04  0.13892114834E+04 0.  0.
        5    1    3    3  502    0 -0.35554094237E+03 -0.15403687706E+03  0.12063209348E+03  0.40584592295E+03  0.46999998093E+01 0.  1.
       -5    1    3    3    0  502  0.35554094237E+03  0.15403687706E+03 -0.15099146022E+04  0.15588460210E+04  0.46999998093E+01 0. -1.
</event>
<event>
 5   0  0.2796994E-04  0.1602512E+04  0.7818609E-02  0.8819006E-01
       -1   -1    0    0    0  501  0.00000000000E+00  0.00000000000E+00  0.93171772836E+03  0.93171772837E+03  0.50400001928E-02 0. -1.
        1   -1    0    0  501    0  0.00000000000E+00  0.00000000000E+00 -0.68906176536E+03  0.68906176538E+03  0.50400001928E-02 0.  1.
    10030    2    1    2    0    0  0.00000000000E+00  0.00000000000E+00  0.24265596299E+03  0.16207794938E+04  0.16025118567E+04 0.  0.
        3    1    3    3  502    0  0.22006403935E+03 -0.12263978296E+03 -0.64796232709E+03  0.69521499215E+03  0.10100000352E+00 0.  1.
       -3    1    3    3    0  502 -0.22006403935E+03  0.12263978296E+03  0.89061829009E+03  0.92556450160E+03  0.10100000352E+00 0. -1.
</event>
<event>
 5   0  0.5381164E-04  0.1615424E+04  0.7818609E-02  0.8811128E-01
        2   -1    0    0  501    0  0.00000000000E+00  0.00000000000E+00  0.17508408881E+04  0.17508408881E+04  0.25500000920E-02 0. -1.
       -2   -1    0    0    0  501  0.00000000000E+00  0.00000000000E+00 -0.37262015433E+03  0.37262015434E+03  0.25500000920E-02 0.  1.
    10030    2    1    2    0    0  0.00000000000E+00  0.00000000000E+00  0.13782207337E+04  0.21234610424E+04  0.16154239096E+04 0.  0.
        5    1    3    3  502    0 -0.53767976726E+03 -0.40585720178E+03  0.12748441802E+04  0.14418978376E+04  0.46999998093E+01 0. -1.
       -5    1    3    3    0  502  0.53767976726E+03  0.40585720178E+03  0.10337655358E+03  0.68156320483E+03  0.46999998093E+01 0.  1.
</event>
<event>
 5   0  0.2730707E-04  0.1601870E+04  0.7818609E-02  0.8819400E-01
        1   -1    0    0  501    0  0.00000000000E+00  0.00000000000E+00  0.11067621904E+04  0.11067621904E+04  0.50400001928E-02 0.  1.
       -1   -1    0    0    0  501  0.00000000000E+00  0.00000000000E+00 -0.57961553408E+03  0.57961553410E+03  0.50400001928E-02 0. -1.
    10030    2    1    2    0    0  0.00000000000E+00  0.00000000000E+00  0.52714665635E+03  0.16863777245E+04  0.16018696053E+04 0.  0.
        5    1    3    3  502    0 -0.22193954014E+03 -0.39313658094E+03 -0.43288733027E+03  0.62548146372E+03  0.46999998093E+01 0. -1.
       -5    1    3    3    0  502  0.22193954014E+03  0.39313658094E+03  0.96003398662E+03  0.10608962608E+04  0.46999998093E+01 0.  1.
</event>
<event>
 5   0  0.5131239E-04  0.1600922E+04  0.7818609E-02  0.8819982E-01
       -2   -1    0    0    0  501  0.00000000000E+00  0.00000000000E+00  0.69786565571E+03  0.69786565571E+03  0.25500000920E-02 0.  1.
        2   -1    0    0  501    0  0.00000000000E+00  0.00000000000E+00 -0.91813951591E+03  0.91813951592E+03  0.25500000920E-02 0. -1.
    10030    2    1    2    0    0  0.00000000000E+00  0.00000000000E+00 -0.22027386021E+03  0.16160051716E+04  0.16009222783E+04 0.  0.
        1    1    3    3  502    0  0.47726183635E+03  0.57697449143E+03  0.17547690188E+03  0.76907123683E+03  0.50400001928E-02 0.  1.
       -1    1    3    3    0  502 -0.47726183635E+03 -0.57697449143E+03 -0.39575076209E+03  0.84693393480E+03  0.50400001928E-02 0. -1.
</event>
<event>
 5   0  0.2796994E-04  0.1518080E+04  0.7818609E-02  0.8872518E-01
       -1   -1    0    0    0  501  0.00000000000E+00  0.00000000000E+00  0.65941357948E+03  0.65941357950E+03  0.50400001928E-02 0. -1.
        1   -1    0    0  501    0  0.00000000000E+00  0.00000000000E+00 -0.87371876214E+03  0.87371876215E+03  0.50400001928E-02 0.  1.
    10030    2    1    2    0    0  0.00000000000E+00  0.00000000000E+00 -0.21430518266E+03  0.15331323416E+04  0.15180803884E+04 0.  0.
        3    1    3    3  502    0  0.66081908341E+03  0.37342131712E+03 -0.11127536523E+03  0.76714246277E+03  0.10100000352E+00 0.  1.
       -3    1    3    3    0  502 -0.66081908341E+03 -0.37342131712E+03 -0.10302981743E+03  0.76598987888E+03  0.10100000352E+00 0. -1.
</event>
<event>
 5   0  0.2763895E-04  0.1616220E+04  0.7818609E-02  0.8810645E-01
       -1   -1    0    0    0  501  0.00000000000E+00  0.00000000000E+00  0.18754312003E+04  0.18754312003E+04  0.50400001928E-02 0. -1.
        1   -1    0    0  501    0  0.00000000000E+00  0.00000000000E+00 -0.34820904966E+03  0.34820904969E+03  0.50400001928E-02 0.  1.
    10030    2    1    2    0    0  0.00000000000E+00  0.00000000000E+00  0.15272221506E+04  0.22236402500E+04  0.16162204255E+04 0.  0.
        4    1    3    3  502    0  0.39356876498E+03  0.39101051042E+03 -0.44803002968E+02  0.55659187382E+03  0.12699999809E+01 0.  1.
       -4    1    3    3    0  502 -0.39356876498E+03 -0.39101051042E+03  0.15720251536E+04  0.16670483761E+04  0.12699999809E+01 0. -1.
</event>
<event>
 5   0  0.5131239E-04  0.1508979E+04  0.7818609E-02  0.8878504E-01
       -2   -1    0    0    0  501  0.00000000000E+00  0.00000000000E+00  0.39866230146E+03  0.39866230147E+03  0.25500000920E-02 0. -1.
        2   -1    0    0  501    0  0.00000000000E+00  0.00000000000E+00 -0.14279120457E+04  0.14279120457E+04  0.25500000920E-02 0.  1.
    10030    2    1    2    0    0  0.00000000000E+00  0.00000000000E+00 -0.10292497443E+04  0.18265743472E+04  0.15089793934E+04 0.  0.
        1    1    3    3  502    0  0.30287847022E+03 -0.43971659366E+02 -0.13493980709E+04  0.13836704913E+04  0.50400001928E-02 0.  1.
       -1    1    3    3    0  502 -0.30287847022E+03  0.43971659366E+02  0.32014832664E+03  0.44290385596E+03  0.50400001928E-02 0. -1.
</event>
<event>
 5   0  0.5264308E-04  0.1596767E+04  0.7818609E-02  0.8822537E-01
       -2   -1    0    0    0  501  0.00000000000E+00  0.00000000000E+00  0.49820515522E+03  0.49820515523E+03  0.25500000920E-02 0. -1.
        2   -1    0    0  501    0  0.00000000000E+00  0.00000000000E+00 -0.12794254179E+04  0.12794254179E+04  0.25500000920E-02 0.  1.
    10030    2    1    2    0    0  0.00000000000E+00  0.00000000000E+00 -0.78122026271E+03  0.17776305732E+04  0.15967671577E+04 0.  0.
        3    1    3    3  502    0 -0.37429201036E+03 -0.28039158426E+03  0.32975491855E+03  0.57223445025E+03  0.10100000352E+00 0. -1.
       -3    1    3    3    0  502  0.37429201036E+03  0.28039158426E+03 -0.11109751813E+04  0.12053961229E+04  0.10100000352E+00 0.  1.
</event>
<event>
 5   0  0.5131239E-04  0.1313357E+04  0.7818609E-02  0.9019039E-01
       -2   -1    0    0    0  501  0.00000000000E+00  0.00000000000E+00  0.64587629932E+03  0.64587629933E+03  0.25500000920E-02 0. -1.
        2   -1    0    0  501    0  0.00000000000E+00  0.00000000000E+00 -0.66766157633E+03  0.66766157634E+03  0.25500000920E-02 0.  1.
    10030    2    1    2    0    0  0.00000000000E+00  0.00000000000E+00 -0.21785277006E+02  0.13135378757E+04  0.13133572067E+04 0.  0.
        1    1    3    3  502    0 -0.20151539490E+03  0.38790189900E+03 -0.50101152866E+03  0.66489765341E+03  0.50400001928E-02 0.  1.
       -1    1    3    3    0  502  0.20151539490E+03 -0.38790189900E+03  0.47922625166E+03  0.64864022226E+03  0.50400001928E-02 0. -1.
</event>
<event>
 5   0  0.5264308E-04  0.1612916E+04  0.7818609E-02  0.8812652E-01
       -2   -1    0    0    0  501  0.00000000000E+00  0.00000000000E+00  0.44251083696E+03  0.44251083697E+03  0.25500000920E-02 0.  1.
        2   -1    0    0  501    0  0.00000000000E+00  0.00000000000E+00 -0.14697375251E+04  0.14697375251E+04  0.25500000920E-02 0. -1.
    10030    2    1    2    0    0  0.00000000000E+00  0.00000000000E+00 -0.10272266881E+04  0.19122483620E+04  0.16129163429E+04 0.  0.
        3    1    3    3  502    0 -0.12882227189E+03  0.28378758969E+02 -0.14568604324E+04  0.14628201740E+04  0.10100000352E+00 0. -1.
       -3    1    3    3    0  502  0.12882227189E+03 -0.28378758969E+02  0.42963374435E+03  0.44942818801E+03  0.10100000352E+00 0.  1.
</event>
<event>
 5   0  0.5315984E-04  0.1595553E+04  0.7818609E-02  0.8823285E-01
        2   -1    0    0  501    0  0.00000000000E+00  0.00000000000E+00  0.11533128501E+04  0.11533128501E+04  0.25500000920E-02 0.  1.
       -2   -1    0    0    0  501  0.00000000000E+00  0.00000000000E+00 -0.55184253824E+03  0.55184253825E+03  0.25500000920E-02 0. -1.
    10030    2    1    2    0    0  0.00000000000E+00  0.00000000000E+00  0.60147031183E+03  0.17051553883E+04  0.15955526824E+04 0.  0.
        2    1    3    3  502    0  0.70064572577E+03 -0.36266409601E+03  0.42726317741E+03  0.89720872842E+03  0.25500000920E-02 0.  1.
       -2    1    3    3    0  502 -0.70064572577E+03  0.36266409601E+03  0.17420713442E+03  0.80794665991E+03  0.25500000920E-02 0. -1.
</event>
<event>
 5   0  0.5131239E-04  0.1600583E+04  0.7818609E-02  0.8820190E-01
        2   -1    0    0  501    0  0.00000000000E+00  0.00000000000E+00  0.78657899701E+03  0.78657899701E+03  0.25500000920E-02 0.  1.
       -2   -1    0    0    0  501  0.00000000000E+00  0.00000000000E+00 -0.81424256034E+03  0.81424256034E+03  0.25500000920E-02 0. -1.
    10030    2    1    2    0    0  0.00000000000E+00  0.00000000000E+00 -0.27663563334E+02  0.16008215574E+04  0.16005825145E+04 0.  0.
        1    1    3    3  502    0 -0.29940091106E+03 -0.29008555859E+03  0.66940680297E+03  0.78860383257E+03  0.50400001928E-02 0.  1.
       -1    1    3    3    0  502  0.29940091106E+03  0.29008555859E+03 -0.69707036631E+03  0.81221772479E+03  0.50400001928E-02 0. -1.
</event>
<event>
 5   0  0.2730707E-04  0.1602431E+04  0.7818609E-02  0.8819056E-01
       -1   -1    0    0    0  501  0.00000000000E+00  0.00000000000E+00  0.16679799334E+04  0.16679799334E+04  0.50400001928E-02 0. -1.
        1   -1    0    0  501    0  0.00000000000E+00  0.00000000000E+00 -0.38486453204E+03  0.38486453208E+03  0.50400001928E-02 0.  1.
    10030    2    1    2    0    0  0.00000000000E+00  0.00000000000E+00  0.12831154014E+04  0.20528444655E+04  0.16024310488E+04 0.  0.
        5    1    3    3  502    0 -0.62506160278E+03  0.38124611072E+03  0.10583988464E+04  0.12869657386E+04  0.46999998093E+01 0. -1.
       -5    1    3    3    0  502  0.62506160278E+03 -0.38124611072E+03  0.22471655490E+03  0.76587872686E+03  0.46999998093E+01 0.  1.
</event>
<event>
 5   0  0.2730707E-04  0.1435477E+04  0.7818609E-02  0.8928531E-01
        1   -1    0    0  501    0  0.00000000000E+00  0.00000000000E+00  0.12953952197E+04  0.12953952197E+04  0.50400001928E-02 0.  1.
       -1   -1    0    0    0  501  0.00000000000E+00  0.00000000000E+00 -0.39767669321E+03  0.39767669324E+03  0.50400001928E-02 0. -1.
    10030    2    1    2    0    0  0.00000000000E+00  0.00000000000E+00  0.89771852646E+03  0.16930719129E+04  0.14354769067E+04 0.  0.
        5    1    3    3  502    0  0.36955414648E+03  0.13299157369E+02 -0.27664982687E+03  0.46184884050E+03  0.46999998093E+01 0. -1.
       -5    1    3    3    0  502 -0.36955414648E+03 -0.13299157369E+02  0.11743683533E+04  0.12312230724E+04  0.46999998093E+01 0.  1.
</event>
<event>
 5   0  0.5315984E-04  0.1610349E+04  0.7818609E-02  0.8814215E-01
       -2   -1    0    0    0  501  0.00000000000E+00  0.00000000000E+00  0.24487864793E+03  0.24487864794E+03  0.25500000920E-02 0.  1.
        2   -1    0    0  501    0  0.00000000000E+00  0.00000000000E+00 -0.26474591003E+04  0.26474591003E+04  0.25500000920E-02 0. -1.
    10030    2    1    2    0    0  0.00000000000E+00  0.00000000000E+00 -0.24025804524E+04  0.28923377482E+04  0.16103492850E+04 0.  0.
        2    1    3    3  502    0 -0.54154830346E+03 -0.49011963744E+02 -0.22678574205E+04  0.23321350770E+04  0.25500000920E-02 0. -1.
       -2    1    3    3    0  502  0.54154830346E+03  0.49011963744E+02 -0.13472303188E+03  0.56020267126E+03  0.25500000920E-02 0.  1.
</event>
<event>
 5   0  0.2796994E-04  0.1584337E+04  0.7818609E-02  0.8830228E-01
       -1   -1    0    0    0  501  0.00000000000E+00  0.00000000000E+00  0.72656653857E+03  0.72656653858E+03  0.50400001928E-02 0. -1.
        1   -1    0    0  501    0  0.00000000000E+00  0.00000000000E+00 -0.86369408453E+03  0.86369408455E+03  0.50400001928E-02 0.  1.
    10030    2    1    2    0    0  0.00000000000E+00  0.00000000000E+00 -0.13712754597E+03  0.15902606231E+04  0.15843373648E+04 0.  0.
        3    1    3    3  502    0  0.75363951120E+02 -0.34737214857E+03 -0.77915406975E+03  0.85640423244E+03  0.10100000352E+00 0.  1.
       -3    1    3    3    0  502 -0.75363951120E+02  0.34737214857E+03  0.64202652378E+03  0.73385639070E+03  0.10100000352E+00 0. -1.
</event>
<event>
 5   0  0.2730707E-04  0.1600314E+04  0.7818609E-02  0.8820355E-01
        1   -1    0    0  501    0  0.00000000000E+00  0.00000000000E+00  0.17246436526E+04  0.17246436526E+04  0.50400001928E-02 0. -1.
       -1   -1    0    0    0  501  0.00000000000E+00  0.00000000000E+00 -0.37123664158E+03  0.37123664162E+03  0.50400001928E-02 0.  1.
    10030    2    1    2    0    0  0.00000000000E+00  0.00000000000E+00  0.13534070110E+04  0.20958802942E+04  0.16003136162E+04 0.  0.
        5    1    3    3  502    0  0.42073317239E+03 -0.15194387309E+03  0.15455631617E+04  0.16090030826E+04  0.46999998093E+01 0. -1.
       -5    1    3    3    0  502 -0.42073317239E+03  0.15194387309E+03 -0.19215615073E+03  0.48687721161E+03  0.46999998093E+01 0.  1.
</event>
<event>
 5   0  0.1908125E-04  0.1595262E+04  0.7818609E-02  0.8823464E-01
        4   -1    0    0  501    0  0.00000000000E+00  0.00000000000E+00  0.15083160287E+04  0.15083165634E+04  0.12699999809E+01 0.  1.
       -4   -1    0    0    0  501  0.00000000000E+00  0.00000000000E+00 -0.42180355118E+03  0.42180546308E+03  0.12699999809E+01 0. -1.
    10030    2    1    2    0    0  0.00000000000E+00  0.00000000000E+00  0.10865124775E+04  0.19301220264E+04  0.15952622584E+04 0.  0.
        1    1    3    3  502    0  0.26365977538E+03 -0.74203776110E+03  0.69667584839E+03  0.10514246306E+04  0.50400001928E-02 0.  1.
       -1    1    3    3    0  502 -0.26365977538E+03  0.74203776110E+03  0.38983662911E+03  0.87869739585E+03  0.50400001928E-02 0. -1.
</event>
<event>
 5   0  0.5264308E-04  0.1565962E+04  0.7818609E-02  0.8841736E-01
        2   -1    0    0  501    0  0.00000000000E+00  0.00000000000E+00  0.12033466706E+04  0.12033466706E+04  0.25500000920E-02 0. -1.
       -2   -1    0    0    0  501  0.00000000000E+00  0.00000000000E+00 -0.50946182985E+03  0.50946182985E+03  0.25500000920E-02 0.  1.
    10030    2    1    2    0    0  0.00000000000E+00  0.00000000000E+00  0.69388484076E+03  0.17128085005E+04  0.15659619366E+04 0.  0.
        3    1    3    3  502    0 -0.89670045776E+02 -0.38236352654E+03  0.10878212253E+04  0.11565455511E+04  0.10100000352E+00 0. -1.
       -3    1    3    3    0  502  0.89670045776E+02  0.38236352654E+03 -0.39393638450E+03  0.55626294931E+03  0.10100000352E+00 0.  1.
</event>
<event>
 5   0  0.2730707E-04  0.1596724E+04  0.7818609E-02  0.8822563E-01
       -1   -1    0    0    0  501  0.00000000000E+00  0.00000000000E+00  0.10664722211E+04  0.10664722211E+04  0.50400001928E-02 0. -1.
        1   -1    0    0  501    0  0.00000000000E+00  0.00000000000E+00 -0.59765436193E+03  0.59765436195E+03  0.50400001928E-02 0.  1.
    10030    2    1    2    0    0  0.00000000000E+00  0.00000000000E+00  0.46881785914E+03  0.16641265830E+04  0.15967238645E+04 0.  0.
        5    1    3    3  502    0 -0.10493321827E+03  0.52515362494E+03  0.85148569300E+03  0.10059062011E+04  0.46999998093E+01 0. -1.
       -5    1    3    3    0  502  0.10493321827E+03 -0.52515362494E+03 -0.38266783386E+03  0.65822038190E+03  0.46999998093E+01 0.  1.
</event>
<event>
 5   0  0.5315984E-04  0.1589119E+04  0.7818609E-02  0.8827261E-01
       -2   -1    0    0    0  501  0.00000000000E+00  0.00000000000E+00  0.51763716524E+03  0.51763716524E+03  0.25500000920E-02 0. -1.
        2   -1    0    0  501    0  0.00000000000E+00  0.00000000000E+00 -0.12196281551E+04  0.12196281551E+04  0.25500000920E-02 0.  1.
    10030    2    1    2    0    0  0.00000000000E+00  0.00000000000E+00 -0.70199098985E+03  0.17372653203E+04  0.15891190778E+04 0.  0.
        2    1    3    3  502    0  0.52293957306E+03  0.70687617646E+02 -0.10003955993E+04  0.11310410654E+04  0.25500000920E-02 0.  1.
       -2    1    3    3    0  502 -0.52293957306E+03 -0.70687617646E+02  0.29840460948E+03  0.60622425498E+03  0.25500000920E-02 0. -1.
</event>
<event>
 5   0  0.2689675E-04  0.1575982E+04  0.7818609E-02  0.8835441E-01
       -1   -1    0    0    0  501  0.00000000000E+00  0.00000000000E+00  0.24949543649E+03  0.24949543654E+03  0.50400001928E-02 0.  1.
        1   -1    0    0  501    0  0.00000000000E+00  0.00000000000E+00 -0.24887419712E+04  0.24887419712E+04  0.50400001928E-02 0. -1.
    10030    2    1    2    0    0  0.00000000000E+00  0.00000000000E+00 -0.22392465347E+04  0.27382374077E+04  0.15759819345E+04 0.  0.
        1    1    3    3  502    0  0.11621266393E+03 -0.32610835798E+02  0.23333831217E+03  0.26270823706E+03  0.50400001928E-02 0.  1.
       -1    1    3    3    0  502 -0.11621266393E+03  0.32610835798E+02 -0.24725848469E+04  0.24755291707E+04  0.50400001928E-02 0. -1.
</event>
<event>
 5   0  0.5264308E-04  0.1523838E+04  0.7818609E-02  0.8868754E-01
        2   -1    0    0  501    0  0.00000000000E+00  0.00000000000E+00  0.80532849828E+03  0.80532849828E+03  0.25500000920E-02 0.  1.
       -2   -1    0    0    0  501  0.00000000000E+00  0.00000000000E+00 -0.72084968645E+03  0.72084968646E+03  0.25500000920E-02 0. -1.
    10030    2    1    2    0    0  0.00000000000E+00  0.00000000000E+00  0.84478811829E+02  0.15261781847E+04  0.15238383057E+04 0.  0.
        3    1    3    3  502    0 -0.10692251124E+03 -0.72019192528E+03  0.26711023165E+03  0.77553640708E+03  0.10100000352E+00 0. -1.
       -3    1    3    3    0  502  0.10692251124E+03  0.72019192528E+03 -0.18263141983E+03  0.75064177766E+03  0.10100000352E+00 0.  1.
</event>
<event>
 5   0  0.2649086E-04  0.1614512E+04  0.7818609E-02  0.8811682E-01
        1   -1    0    0  501    0  0.00000000000E+00  0.00000000000E+00  0.62693588410E+03  0.62693588412E+03  0.50400001928E-02 0.  1.
       -1   -1    0    0    0  501  0.00000000000E+00  0.00000000000E+00 -0.10394403994E+04  0.10394403994E+04  0.50400001928E-02 0. -1.
    10030    2    1    2    0    0  0.00000000000E+00  0.00000000000E+00 -0.41250451530E+03  0.16663762835E+04  0.16145122927E+04 0.  0.
        2    1    3    3  502    0  0.30343447478E+03  0.25272830526E+03 -0.93294235741E+03  0.10130772522E+04  0.25500000920E-02 0. -1.
       -2    1    3    3    0  502 -0.30343447478E+03 -0.25272830526E+03  0.52043784211E+03  0.65329903128E+03  0.25500000920E-02 0.  1.
</event>
<event>
 5   0  0.2796994E-04  0.1635924E+04  0.7818609E-02  0.8798778E-01
       -1   -1    0    0    0  501  0.00000000000E+00  0.00000000000E+00  0.78515987044E+03  0.78515987046E+03  0.50400001928E-02 0.  1.
        1   -1    0    0  501    0  0.00000000000E+00  0.00000000000E+00 -0.85213403160E+03  0.85213403161E+03  0.50400001928E-02 0. -1.
    10030    2    1    2    0    0  0.00000000000E+00  0.00000000000E+00 -0.66974161158E+02  0.16372939021E+04  0.16359235262E+04 0.  0.
        3    1    3    3  502    0  0.32052908176E+03  0.29428196241E+03  0.65971181498E+03  0.79029137328E+03  0.10100000352E+00 0.  1.
       -3    1    3    3    0  502 -0.32052908176E+03 -0.29428196241E+03 -0.72668597614E+03  0.84700252879E+03  0.10100000352E+00 0. -1.
</event>
<event>
 5   0  0.2730707E-04  0.1601899E+04  0.7818609E-02  0.8819382E-01
       -1   -1    0    0    0  501  0.00000000000E+00  0.00000000000E+00  0.78142889598E+03  0.78142889600E+03  0.50400001928E-02 0.  1.
        1   -1    0    0  501    0  0.00000000000E+00  0.00000000000E+00 -0.82095755788E+03  0.82095755789E+03  0.50400001928E-02 0. -1.
    10030    2    1    2    0    0  0.00000000000E+00  0.00000000000E+00 -0.39528661892E+02  0.16023864539E+04  0.16018988209E+04 0.  0.
        5    1    3    3  502    0  0.47598326764E+03 -0.63170821249E+03 -0.14582860973E+03  0.80430305868E+03  0.46999998093E+01 0.  1.
       -5    1    3    3    0  502 -0.47598326764E+03  0.63170821249E+03  0.10629994783E+03  0.79808339521E+03  0.46999998093E+01 0. -1.
</event>
<event>
 5   0  0.2649086E-04  0.1397271E+04  0.7818609E-02  0.8955796E-01
       -1   -1    0    0    0  501  0.00000000000E+00  0.00000000000E+00  0.45040523273E+03  0.45040523276E+03  0.50400001928E-02 0.  1.
        1   -1    0    0  501    0  0.00000000000E+00  0.00000000000E+00 -0.10836721554E+04  0.10836721554E+04  0.50400001928E-02 0. -1.
    10030    2    1    2    0    0  0.00000000000E+00  0.00000000000E+00 -0.63326692264E+03  0.15340773881E+04  0.13972710680E+04 0.  0.
        2    1    3    3  502    0  0.64289233274E+02  0.49694275877E+03  0.21786521903E+03  0.54639771658E+03  0.25500000920E-02 0.  1.
       -2    1    3    3    0  502 -0.64289233274E+02 -0.49694275877E+03 -0.85113214168E+03  0.98767967156E+03  0.25500000920E-02 0. -1.
</event>
<event>
 5   0  0.5083831E-04  0.1619051E+04  0.7818609E-02  0.8808929E-01
        2   -1    0    0  501    0  0.00000000000E+00  0.00000000000E+00  0.14124543647E+04  0.14124543647E+04  0.25500000920E-02 0. -1.
       -2   -1    0    0    0  501  0.00000000000E+00  0.00000000000E+00 -0.46396640861E+03  0.46396640861E+03  0.25500000920E-02 0.  1.
    10030    2    1    2    0    0  0.00000000000E+00  0.00000000000E+00  0.94848795608E+03  0.18764207733E+04  0.16190508070E+04 0.  0.
        4    1    3    3  502    0  0.69755478685E+03 -0.31752764060E+03  0.77629415093E+03  0.10908898684E+04  0.12699999809E+01 0. -1.
       -4    1    3    3    0  502 -0.69755478685E+03  0.31752764060E+03  0.17219380515E+03  0.78553090495E+03  0.12699999809E+01 0.  1.
</event>
<event>
 5   0  0.2763895E-04  0.1347145E+04  0.7818609E-02  0.8992992E-01
       -1   -1    0    0    0  501  0.00000000000E+00  0.00000000000E+00  0.50758970342E+03  0.50758970344E+03  0.50400001928E-02 0. -1.
        1   -1    0    0  501    0  0.00000000000E+00  0.00000000000E+00 -0.89383225600E+03  0.89383225601E+03  0.50400001928E-02 0.  1.
    10030    2    1    2    0    0  0.00000000000E+00  0.00000000000E+00 -0.38624255258E+03  0.14014219595E+04  0.13471452034E+04 0.  0.
        4    1    3    3  502    0 -0.22284592542E+03  0.50222145773E+03 -0.59844981693E+03  0.81242260884E+03  0.12699999809E+01 0.  1.
       -4    1    3    3    0  502  0.22284592542E+03 -0.50222145773E+03  0.21220726434E+03  0.58899935061E+03  0.12699999809E+01 0. -1.
</event>
<event>
 5   0  0.2730707E-04  0.1434057E+04  0.7818609E-02  0.8929529E-01
        1   -1    0    0  501    0  0.00000000000E+00  0.00000000000E+00  0.99836306834E+03  0.99836306835E+03  0.50400001928E-02 0. -1.
       -1   -1    0    0    0  501  0.00000000000E+00  0.00000000000E+00 -0.51497271795E+03  0.51497271797E+03  0.50400001928E-02 0.  1.
    10030    2    1    2    0    0  0.00000000000E+00  0.00000000000E+00  0.48339035039E+03  0.15133357863E+04  0.14340568229E+04 0.  0.
        5    1    3    3  502    0  0.52113802443E+03 -0.34837198952E+03 -0.12562785704E+03  0.63933741644E+03  0.46999998093E+01 0.  1.
       -5    1    3    3    0  502 -0.52113802443E+03  0.34837198952E+03  0.60901820743E+03  0.87399836989E+03  0.46999998093E+01 0. -1.
</event>
<event>
 5   0  0.2649086E-04  0.1652610E+04  0.7818609E-02  0.8788864E-01
        1   -1    0    0  501    0  0.00000000000E+00  0.00000000000E+00  0.12670057945E+04  0.12670057945E+04  0.50400001928E-02 0.  1.
       -1   -1    0    0    0  501  0.00000000000E+00  0.00000000000E+00 -0.53889228595E+03  0.53889228597E+03  0.50400001928E-02 0. -1.
    10030    2    1    2    0    0  0.00000000000E+00  0.00000000000E+00  0.72811350853E+03  0.18058980805E+04  0.16526096320E+04 0.  0.
        2    1    3    3  502    0  0.34874392093E+03 -0.34566194167E+03 -0.36217366936E+03  0.61014282515E+03  0.25500000920E-02 0. -1.
       -2    1    3    3    0  502 -0.34874392093E+03  0.34566194167E+03  0.10902871779E+04  0.11957552553E+04  0.25500000920E-02 0.  1.
</event>
<event>
 5   0  0.5131239E-04  0.1586065E+04  0.7818609E-02  0.8829155E-01
        2   -1    0    0  501    0  0.00000000000E+00  0.00000000000E+00  0.82899553003E+03  0.82899553004E+03  0.25500000920E-02 0.  1.
       -2   -1    0    0    0  501  0.00000000000E+00  0.00000000000E+00 -0.75862961304E+03  0.75862961304E+03  0.25500000920E-02 0. -1.
    10030    2    1    2    0    0  0.00000000000E+00  0.00000000000E+00  0.70365916996E+02  0.15876251431E+04  0.15860650153E+04 0.  0.
        1    1    3    3  502    0  0.71387018751E+03 -0.34452667668E+03  0.59523179819E+02  0.79489136649E+03  0.50400001928E-02 0.  1.
       -1    1    3    3    0  502 -0.71387018751E+03  0.34452667668E+03  0.10842737177E+02  0.79273377659E+03  0.50400001928E-02 0. -1.
</event>
<event>
 5   0  0.5264308E-04  0.1631048E+04  0.7818609E-02  0.8801698E-01
        2   -1    0    0  501    0  0.00000000000E+00  0.00000000000E+00  0.12313828637E+04  0.12313828637E+04  0.25500000920E-02 0.  1.
       -2   -1    0    0    0  501  0.00000000000E+00  0.00000000000E+00 -0.54010752899E+03  0.54010752899E+03  0.25500000920E-02 0. -1.
    10030    2    1    2    0    0  0.00000000000E+00  0.00000000000E+00  0.69127533473E+03  0.17714903927E+04  0.16310477072E+04 0.  0.
        3    1    3    3  502    0 -0.14377950158E+03 -0.45835554368E+03  0.10614108941E+04  0.11650559840E+04  0.10100000352E+00 0.  1.
       -3    1    3    3    0  502  0.14377950158E+03  0.45835554368E+03 -0.37013555942E+03  0.60643440869E+03  0.10100000352E+00 0. -1.
</event>
<event>
 5   0  0.5264308E-04  0.1603854E+04  0.7818609E-02  0.8818184E-01
       -2   -1    0    0    0  501  0.00000000000E+00  0.00000000000E+00  0.86135550315E+03  0.86135550315E+03  0.25500000920E-02 0.  1.
        2   -1    0    0  501    0  0.00000000000E+00  0.00000000000E+00 -0.74659863618E+03  0.74659863619E+03  0.25500000920E-02 0. -1.
    10030    2    1    2    0    0  0.00000000000E+00  0.00000000000E+00  0.11475686697E+03  0.16079541393E+04  0.16038539135E+04 0.  0.
        3    1    3    3  502    0 -0.47337457738E+03  0.49191448810E+03 -0.36443876832E+03  0.77387271574E+03  0.10100000352E+00 0. -1.
       -3    1    3    3    0  502  0.47337457738E+03 -0.49191448810E+03  0.47919563529E+03  0.83408142360E+03  0.10100000352E+00 0.  1.
</event>
<event>
 5   0  0.2763895E-04  0.1589118E+04  0.7818609E-02  0.8827261E-01
        1   -1    0    0  501    0  0.00000000000E+00  0.00000000000E+00  0.12705087653E+04  0.12705087653E+04  0.50400001928E-02 0. -1.
       -1   -1    0    0    0  501  0.00000000000E+00  0.00000000000E+00 -0.49690624891E+03  0.49690624894E+03  0.50400001928E-02 0.  1.
    10030    2    1    2    0    0  0.00000000000E+00  0.00000000000E+00  0.77360251636E+03  0.17674150142E+04  0.15891176732E+04 0.  0.
        4    1    3    3  502    0  0.24212887218E+03 -0.36568387771E+03 -0.35008493370E+03  0.56117035102E+03  0.12699999809E+01 0.  1.
       -4    1    3    3    0  502 -0.24212887218E+03  0.36568387771E+03  0.11236874501E+04  0.12062446632E+04  0.12699999809E+01 0. -1.
</event>
<event>
 5   0  0.5131239E-04  0.1627063E+04  0.7818609E-02  0.8804093E-01
       -2   -1    0    0    0  501  0.00000000000E+00  0.00000000000E+00  0.39273978016E+03  0.39273978017E+03  0.25500000920E-02 0.  1.
        2   -1    0    0  501    0  0.00000000000E+00  0.00000000000E+00 -0.16851706308E+04  0.16851706308E+04  0.25500000920E-02 0. -1.
    10030    2    1    2    0    0  0.00000000000E+00  0.00000000000E+00 -0.12924308507E+04  0.20779104110E+04  0.16270630511E+04 0.  0.
        1    1    3    3  502    0  0.73838122569E+03  0.18118383424E+03 -0.27652161199E+03  0.80901088878E+03  0.50400001928E-02 0. -1.
       -1    1    3    3    0  502 -0.73838122569E+03 -0.18118383424E+03 -0.10159092387E+04  0.12688995222E+04  0.50400001928E-02 0.  1.
</event>
<event>
 5   0  0.2649086E-04  0.1642245E+04  0.7818609E-02  0.8795007E-01
        1   -1    0    0  501    0  0.00000000000E+00  0.00000000000E+00  0.59622272623E+03  0.59622272625E+03  0.50400001928E-02 0. -1.
       -1   -1    0    0    0  501  0.00000000000E+00  0.00000000000E+00 -0.11308566726E+04  0.11308566726E+04  0.50400001928E-02 0.  1.
    10030    2    1    2    0    0  0.00000000000E+00  0.00000000000E+00 -0.53463394632E+03  0.17270793988E+04  0.16422453511E+04 0.  0.
        2    1    3    3  502    0 -0.26539647353E+03 -0.13276070390E+03 -0.10724922130E+04  0.11127893959E+04  0.25500000920E-02 0.  1.
       -2    1    3    3    0  502  0.26539647353E+03  0.13276070390E+03  0.53785826667E+03  0.61429000293E+03  0.25500000920E-02 0. -1.
</event>
<event>
 5   0  0.2689675E-04  0.1574254E+04  0.7818609E-02  0.8836523E-01
       -1   -1    0    0    0  501  0.00000000000E+00  0.00000000000E+00  0.58071824330E+03  0.58071824332E+03  0.50400001928E-02 0. -1.
        1   -1    0    0  501    0  0.00000000000E+00  0.00000000000E+00 -0.10669010983E+04  0.10669010983E+04  0.50400001928E-02 0.  1.
    10030    2    1    2    0    0  0.00000000000E+00  0.00000000000E+00 -0.48618285499E+03  0.16476193416E+04  0.15742540222E+04 0.  0.
        1    1    3    3  502    0 -0.51948065641E+03  0.44017529666E+03 -0.65640627597E+03  0.94577145407E+03  0.50400001928E-02 0.  1.
       -1    1    3    3    0  502  0.51948065641E+03 -0.44017529666E+03  0.17022342099E+03  0.70184788754E+03  0.50400001928E-02 0. -1.
</event>
<event>
 5   0  0.2730707E-04  0.1609678E+04  0.7818609E-02  0.8814624E-01
       -1   -1    0    0    0  501  0.00000000000E+00  0.00000000000E+00  0.13614287336E+04  0.13614287336E+04  0.50400001928E-02 0.  1.
        1   -1    0    0  501    0  0.00000000000E+00  0.00000000000E+00 -0.47579848943E+03  0.47579848945E+03  0.50400001928E-02 0. -1.
    10030    2    1    2    0    0  0.00000000000E+00  0.00000000000E+00  0.88563024416E+03  0.18372272230E+04  0.16096778994E+04 0.  0.
        5    1    3    3  502    0 -0.24094066950E+03  0.31555828416E+03 -0.35623226726E+03  0.53343505242E+03  0.46999998093E+01 0. -1.
       -5    1    3    3    0  502  0.24094066950E+03 -0.31555828416E+03  0.12418625114E+04  0.13037921706E+04  0.46999998093E+01 0.  1.
</event>
<event>
 5   0  0.5315984E-04  0.1568369E+04  0.7818609E-02  0.8840219E-01
       -2   -1    0    0    0  501  0.00000000000E+00  0.00000000000E+00  0.86787306622E+03  0.86787306622E+03  0.25500000920E-02 0.  1.
        2   -1    0    0  501    0  0.00000000000E+00  0.00000000000E+00 -0.70856642696E+03  0.70856642697E+03  0.25500000920E-02 0. -1.
    10030    2    1    2    0    0  0.00000000000E+00  0.00000000000E+00  0.15930663926E+03  0.15764394932E+04  0.15683694942E+04 0.  0.
        2    1    3    3  502    0  0.48829480666E+03 -0.54452686795E+03  0.36395919031E+03  0.81695019453E+03  0.25500000920E-02 0.  1.
       -2    1    3    3    0  502 -0.48829480666E+03  0.54452686795E+03 -0.20465255106E+03  0.75948929866E+03  0.25500000920E-02 0. -1.
</event>
<event>
 5   0  0.5131239E-04  0.1596984E+04  0.7818609E-02  0.8822403E-01
        2   -1    0    0  501    0  0.00000000000E+00  0.00000000000E+00  0.16194794705E+04  0.16194794705E+04  0.25500000920E-02 0.  1.
       -2   -1    0    0    0  501  0.00000000000E+00  0.00000000000E+00 -0.39370012884E+03  0.39370012885E+03  0.25500000920E-02 0. -1.
    10030    2    1    2    0    0  0.00000000000E+00  0.00000000000E+00  0.12257793417E+04  0.20131795994E+04  0.15969837522E+04 0.  0.
        1    1    3    3  502    0 -0.33610304477E+02  0.52591696602E+03  0.13691223306E+04  0.14670426933E+04  0.50400001928E-02 0.  1.
       -1    1    3    3    0  502  0.33610304477E+02 -0.52591696602E+03 -0.14334298891E+03  0.54613690610E+03  0.50400001928E-02 0. -1.
</event>
<event>
 5   0  0.5381164E-04  0.1583551E+04  0.7818609E-02  0.8830717E-01
        2   -1    0    0  501    0  0.00000000000E+00  0.00000000000E+00  0.14212330688E+04  0.14212330688E+04  0.25500000920E-02 0.  1.
       -2   -1    0    0    0  501  0.00000000000E+00  0.00000000000E+00 -0.44110179705E+03  0.44110179706E+03  0.25500000920E-02 0. -1.
    10030    2    1    2    0    0  0.00000000000E+00  0.00000000000E+00  0.98013127178E+03  0.18623348659E+04  0.15835510231E+04 0.  0.
        5    1    3    3  502    0  0.53362193735E+03 -0.52776653767E+03  0.19348536779E+03  0.77507971710E+03  0.46999998093E+01 0. -1.
       -5    1    3    3    0  502 -0.53362193735E+03  0.52776653767E+03  0.78664590400E+03  0.10872551488E+04  0.46999998093E+01 0.  1.
</event>
<event>
 5   0  0.1908125E-04  0.1612364E+04  0.7818609E-02  0.8812988E-01
        3   -1    0    0  501    0  0.00000000000E+00  0.00000000000E+00  0.11835351955E+04  0.11835351998E+04  0.10100000352E+00 0. -1.
       -3   -1    0    0    0  501  0.00000000000E+00  0.00000000000E+00 -0.54914254484E+03  0.54914255413E+03  0.10100000352E+00 0.  1.
    10030    2    1    2    0    0  0.00000000000E+00  0.00000000000E+00  0.63439265069E+03  0.17326777540E+04  0.16123641536E+04 0.  0.
        3    1    3    3  502    0  0.52679467832E+03  0.48538823895E+03  0.71468226313E+03  0.10118720883E+04  0.10100000352E+00 0. -1.
       -3    1    3    3    0  502 -0.52679467832E+03 -0.48538823895E+03 -0.80289612440E+02  0.72080566569E+03  0.10100000352E+00 0.  1.
</event>
<event>
 5   0  0.2649086E-04  0.1605417E+04  0.7818609E-02  0.8817227E-01
       -1   -1    0    0    0  501  0.00000000000E+00  0.00000000000E+00  0.44890875925E+03  0.44890875927E+03  0.50400001928E-02 0.  1.
        1   -1    0    0  501    0  0.00000000000E+00  0.00000000000E+00 -0.14353501783E+04  0.14353501783E+04  0.50400001928E-02 0. -1.
    10030    2    1    2    0    0  0.00000000000E+00  0.00000000000E+00 -0.98644141902E+03  0.18842589375E+04  0.16054174132E+04 0.  0.
        2    1    3    3  502    0  0.57936158793E+03  0.21658436965E+03  0.10728166900E+03  0.62775631837E+03  0.25500000920E-02 0.  1.
       -2    1    3    3    0  502 -0.57936158793E+03 -0.21658436965E+03 -0.10937230880E+04  0.12565026192E+04  0.25500000920E-02 0. -1.
</event>
<event>
 5   0  0.5083831E-04  0.1555031E+04  0.7818609E-02  0.8848661E-01
       -2   -1    0    0    0  501  0.00000000000E+00  0.00000000000E+00  0.49299999065E+03  0.49299999066E+03  0.25500000920E-02 0. -1.
        2   -1    0    0  501    0  0.00000000000E+00  0.00000000000E+00 -0.12262281550E+04  0.12262281550E+04  0.25500000920E-02 0.  1.
    10030    2    1    2    0    0  0.00000000000E+00  0.00000000000E+00 -0.73322816431E+03  0.17192281456E+04  0.15550311495E+04 0.  0.
        4    1    3    3  502    0  0.14883997072E+03  0.33883705742E+03  0.38937478758E+03  0.53719477517E+03  0.12699999809E+01 0. -1.
       -4    1    3    3    0  502 -0.14883997072E+03 -0.33883705742E+03 -0.11226029519E+04  0.11820333705E+04  0.12699999809E+01 0.  1.
</event>
<event>
 5   0  0.5131239E-04  0.1586744E+04  0.7818609E-02  0.8828734E-01
       -2   -1    0    0    0  501  0.00000000000E+00  0.00000000000E+00  0.11847957529E+04  0.11847957529E+04  0.25500000920E-02 0.  1.
        2   -1    0    0  501    0  0.00000000000E+00  0.00000000000E+00 -0.53126353742E+03  0.53126353743E+03  0.25500000920E-02 0. -1.
    10030    2    1    2    0    0  0.00000000000E+00  0.00000000000E+00  0.65353221549E+03  0.17160592903E+04  0.15867435619E+04 0.  0.
        1    1    3    3  502    0  0.18311351677E+03  0.49046877557E+01 -0.50808007721E+03  0.54009256694E+03  0.50400001928E-02 0. -1.
       -1    1    3    3    0  502 -0.18311351677E+03 -0.49046877557E+01  0.11616122927E+04  0.11759667234E+04  0.50400001928E-02 0.  1.
</event>
<event>
 5   0  0.2689675E-04  0.1585984E+04  0.7818609E-02  0.8829205E-01
        1   -1    0    0  501    0  0.00000000000E+00  0.00000000000E+00  0.15599059862E+04  0.15599059862E+04  0.50400001928E-02 0.  1.
       -1   -1    0    0    0  501  0.00000000000E+00  0.00000000000E+00 -0.40312457792E+03  0.40312457795E+03  0.50400001928E-02 0. -1.
    10030    2    1    2    0    0  0.00000000000E+00  0.00000000000E+00  0.11567814083E+04  0.19630305642E+04  0.15859841643E+04 0.  0.
        1    1    3    3  502    0 -0.53300721985E+03 -0.38811679694E+03  0.33076656357E+02  0.66017074284E+03  0.50400001928E-02 0. -1.
       -1    1    3    3    0  502  0.53300721985E+03  0.38811679694E+03  0.11237047519E+04  0.13028598213E+04  0.50400001928E-02 0.  1.
</event>
<event>
 5   0  0.2730707E-04  0.1596916E+04  0.7818609E-02  0.8822445E-01
       -1   -1    0    0    0  501  0.00000000000E+00  0.00000000000E+00  0.13221428665E+04  0.13221428665E+04  0.50400001928E-02 0.  1.
        1   -1    0    0  501    0  0.00000000000E+00  0.00000000000E+00 -0.48219865256E+03  0.48219865259E+03  0.50400001928E-02 0. -1.
    10030    2    1    2    0    0  0.00000000000E+00  0.00000000000E+00  0.83994421395E+03  0.18043415191E+04  0.15969164145E+04 0.  0.
        5    1    3    3  502    0  0.22861648284E+03  0.75615066153E+03  0.28876796861E+03  0.84109354347E+03  0.46999998093E+01 0. -1.
       -5    1    3    3    0  502 -0.22861648284E+03 -0.75615066153E+03  0.55117624534E+03  0.96324797565E+03  0.46999998093E+01 0.  1.
</event>
<event>
 5   0  0.5381164E-04  0.1589086E+04  0.7818609E-02  0.8827281E-01
        2   -1    0    0  501    0  0.00000000000E+00  0.00000000000E+00  0.81457946586E+03  0.81457946586E+03  0.25500000920E-02 0. -1.
       -2   -1    0    0    0  501  0.00000000000E+00  0.00000000000E+00 -0.77499974049E+03  0.77499974050E+03  0.25500000920E-02 0.  1.
    10030    2    1    2    0    0  0.00000000000E+00  0.00000000000E+00  0.39579725363E+02  0.15895792064E+04  0.15890863723E+04 0.  0.
        5    1    3    3  502    0 -0.62806471352E+03  0.42392460021E+03  0.25881884916E+03  0.80074130511E+03  0.46999998093E+01 0. -1.
       -5    1    3    3    0  502  0.62806471352E+03 -0.42392460021E+03 -0.21923912380E+03  0.78883790124E+03  0.46999998093E+01 0.  1.
</event>
<event>
 5   0  0.5381164E-04  0.1598413E+04  0.7818609E-02  0.8821524E-01
       -2   -1    0    0    0  501  0.00000000000E+00  0.00000000000E+00  0.46372606260E+03  0.46372606260E+03  0.25500000920E-02 0.  1.
        2   -1    0    0  501    0  0.00000000000E+00  0.00000000000E+00 -0.13773881071E+04  0.13773881071E+04  0.25500000920E-02 0. -1.
    10030    2    1    2    0    0  0.00000000000E+00  0.00000000000E+00 -0.91366204447E+03  0.18411141697E+04  0.15984126671E+04 0.  0.
        5    1    3    3  502    0 -0.30677530229E+03  0.94801170400E+02  0.38614705093E+03  0.50222503218E+03  0.46999998093E+01 0.  1.
       -5    1    3    3    0  502  0.30677530229E+03 -0.94801170400E+02 -0.12998090954E+04  0.13388891375E+04  0.46999998093E+01 0. -1.
</event>
<event>
 5   0  0.5381164E-04  0.1610055E+04  0.7818609E-02  0.8814395E-01
       -2   -1    0    0    0  501  0.00000000000E+00  0.00000000000E+00  0.43062444455E+03  0.43062444455E+03  0.25500000920E-02 0. -1.
        2   -1    0    0  501    0  0.00000000000E+00  0.00000000000E+00 -0.15049516308E+04  0.15049516308E+04  0.25500000920E-02 0.  1.
    10030    2    1    2    0    0  0.00000000000E+00  0.00000000000E+00 -0.10743271862E+04  0.19355760753E+04  0.16100546079E+04 0.  0.
        5    1    3    3  502    0 -0.53042100701E+03  0.15740528494E+03 -0.12401297757E+04  0.13579642186E+04  0.46999998093E+01 0.  1.
       -5    1    3    3    0  502  0.53042100701E+03 -0.15740528494E+03  0.16580258945E+03  0.57761185676E+03  0.46999998093E+01 0. -1.
</event>
<event>
 5   0  0.5083831E-04  0.1605824E+04  0.7818609E-02  0.8816978E-01
        2   -1    0    0  501    0  0.00000000000E+00  0.00000000000E+00  0.15375078990E+04  0.15375078990E+04  0.25500000920E-02 0. -1.
       -2   -1    0    0    0  501  0.00000000000E+00  0.00000000000E+00 -0.41929398197E+03  0.41929398198E+03  0.25500000920E-02 0.  1.
    10030    2    1    2    0    0  0.00000000000E+00  0.00000000000E+00  0.11182139171E+04  0.19568018810E+04  0.16058241614E+04 0.  0.
        4    1    3    3  502    0  0.13533312534E+03  0.58593902061E+03 -0.89172858103E+02  0.60794161086E+03  0.12699999809E+01 0.  1.
       -4    1    3    3    0  502 -0.13533312534E+03 -0.58593902061E+03  0.12073867752E+04  0.13488602702E+04  0.12699999809E+01 0. -1.
</event>
<event>
 5   0  0.5083831E-04  0.1596381E+04  0.7818609E-02  0.8822775E-01
        2   -1    0    0  501    0  0.00000000000E+00  0.00000000000E+00  0.16649749754E+04  0.16649749754E+04  0.25500000920E-02 0. -1.
       -2   -1    0    0    0  501  0.00000000000E+00  0.00000000000E+00 -0.38265302211E+03  0.38265302212E+03  0.25500000920E-02 0.  1.
    10030    2    1    2    0    0  0.00000000000E+00  0.00000000000E+00  0.12823219533E+04  0.20476279975E+04  0.15963805387E+04 0.  0.
        4    1    3    3  502    0  0.27889490452E+03 -0.34840164968E+03  0.14899933786E+04  0.15553931845E+04  0.12699999809E+01 0. -1.
       -4    1    3    3    0  502 -0.27889490452E+03  0.34840164968E+03 -0.20767142536E+03  0.49223481295E+03  0.12699999809E+01 0.  1.
</event>
<event>
 5   0  0.2730707E-04  0.1591729E+04  0.7818609E-02  0.8825646E-01
        1   -1    0    0  501    0  0.00000000000E+00  0.00000000000E+00  0.96447335579E+03  0.96447335581E+03  0.50400001928E-02 0. -1.
       -1   -1    0    0    0  501  0.00000000000E+00  0.00000000000E+00 -0.65673145995E+03  0.65673145997E+03  0.50400001928E-02 0.  1.
    10030    2    1    2    0    0  0.00000000000E+00  0.00000000000E+00  0.30774189585E+03  0.16212048158E+04  0.15917286139E+04 0.  0.
        5    1    3    3  502    0  0.48557092797E+03  0.56393387667E+03 -0.13344757820E+03  0.75606275498E+03  0.46999998093E+01 0.  1.
       -5    1    3    3    0  502 -0.48557092797E+03 -0.56393387667E+03  0.44118947405E+03  0.86514206079E+03  0.46999998093E+01 0. -1.
</event>
<event>
 5   0  0.5264308E-04  0.1614932E+04  0.7818609E-02  0.8811427E-01
       -2   -1    0    0    0  501  0.00000000000E+00  0.00000000000E+00  0.57044402410E+03  0.57044402411E+03  0.25500000920E-02 0. -1.
        2   -1    0    0  501    0  0.00000000000E+00  0.00000000000E+00 -0.11429718061E+04  0.11429718061E+04  0.25500000920E-02 0.  1.
    10030    2    1    2    0    0  0.00000000000E+00  0.00000000000E+00 -0.57252778204E+03  0.17134158302E+04  0.16149321181E+04 0.  0.
        3    1    3    3  502    0 -0.57815579933E+02  0.43160144018E+03  0.43518828100E+03  0.61563893198E+03  0.10100000352E+00 0. -1.
       -3    1    3    3    0  502  0.57815579933E+02 -0.43160144018E+03 -0.10077160630E+04  0.10977768983E+04  0.10100000352E+00 0.  1.
</event>
<event>
 5   0  0.5083831E-04  0.1585056E+04  0.7818609E-02  0.8829781E-01
       -2   -1    0    0    0  501  0.00000000000E+00  0.00000000000E+00  0.86351911263E+03  0.86351911263E+03  0.25500000920E-02 0.  1.
        2   -1    0    0  501    0  0.00000000000E+00  0.00000000000E+00 -0.72737351284E+03  0.72737351284E+03  0.25500000920E-02 0. -1.
    10030    2    1    2    0    0  0.00000000000E+00  0.00000000000E+00  0.13614559979E+03  0.15908926255E+04  0.15850563780E+04 0.  0.
        4    1    3    3  502    0 -0.66104666474E+03 -0.35938466071E+03 -0.18175995182E+03  0.77406609556E+03  0.12699999809E+01 0. -1.
       -4    1    3    3    0  502  0.66104666474E+03  0.35938466071E+03  0.31790555161E+03  0.81682652991E+03  0.12699999809E+01 0.  1.
</event>
<event>
 5   0  0.2796994E-04  0.1574013E+04  0.7818609E-02  0.8836674E-01
        1   -1    0    0  501    0  0.00000000000E+00  0.00000000000E+00  0.67043390785E+03  0.67043390787E+03  0.50400001928E-02 0. -1.
       -1   -1    0    0    0  501  0.00000000000E+00  0.00000000000E+00 -0.92384852966E+03  0.92384852968E+03  0.50400001928E-02 0.  1.
    10030    2    1    2    0    0  0.00000000000E+00  0.00000000000E+00 -0.25341462181E+03  0.15942824375E+04  0.15740131893E+04 0.  0.
        3    1    3    3  502    0 -0.34086135436E+03  0.24530949067E+03  0.54745843024E+03  0.68998112449E+03  0.10100000352E+00 0. -1.
       -3    1    3    3    0  502  0.34086135436E+03 -0.24530949067E+03 -0.80087305205E+03  0.90430131306E+03  0.10100000352E+00 0.  1.
</event>
<event>
 5   0  0.5381164E-04  0.1597987E+04  0.7818609E-02  0.8821785E-01
        2   -1    0    0  501    0  0.00000000000E+00  0.00000000000E+00  0.14462652329E+04  0.14462652329E+04  0.25500000920E-02 0. -1.
       -2   -1    0    0    0  501  0.00000000000E+00  0.00000000000E+00 -0.44140653187E+03  0.44140653188E+03  0.25500000920E-02 0.  1.
    10030    2    1    2    0    0  0.00000000000E+00  0.00000000000E+00  0.10048587010E+04  0.18876717648E+04  0.15979873850E+04 0.  0.
        5    1    3    3  502    0 -0.36779146078E+03 -0.28484546865E+03  0.12697722169E+04  0.13523132302E+04  0.46999998093E+01 0. -1.
       -5    1    3    3    0  502  0.36779146078E+03  0.28484546865E+03 -0.26491351593E+03  0.53535853458E+03  0.46999998093E+01 0.  1.
</event>
<event>
 5   0  0.5315984E-04  0.1569320E+04  0.7818609E-02  0.8839621E-01
       -2   -1    0    0    0  501  0.00000000000E+00  0.00000000000E+00  0.29029807360E+03  0.29029807361E+03  0.25500000920E-02 0.  1.
        2   -1    0    0  501    0  0.00000000000E+00  0.00000000000E+00 -0.21208936016E+04  0.21208936016E+04  0.25500000920E-02 0. -1.
    10030    2    1    2    0    0  0.00000000000E+00  0.00000000000E+00 -0.18305955280E+04  0.24111916752E+04  0.15693200144E+04 0.  0.
        2    1    3    3  502    0  0.98224972188E+02  0.77364379775E+03 -0.10485224025E+04  0.13067410224E+04  0.25500000920E-02 0. -1.
       -2    1    3    3    0  502 -0.98224972188E+02 -0.77364379775E+03 -0.78207312544E+03  0.11044506528E+04  0.25500000920E-02 0.  1.
</event>
<event>
 5   0  0.2689675E-04  0.1601330E+04  0.7818609E-02  0.8819731E-01
        1   -1    0    0  501    0  0.00000000000E+00  0.00000000000E+00  0.11521557697E+04  0.11521557697E+04  0.50400001928E-02 0. -1.
       -1   -1    0    0    0  501  0.00000000000E+00  0.00000000000E+00 -0.55640452945E+03  0.55640452948E+03  0.50400001928E-02 0.  1.
    10030    2    1    2    0    0  0.00000000000E+00  0.00000000000E+00  0.59575124027E+03  0.17085602992E+04  0.16013303081E+04 0.  0.
        1    1    3    3  502    0 -0.35656587021E+03 -0.35583926903E+03 -0.36613543976E+03  0.62274871775E+03  0.50400001928E-02 0.  1.
       -1    1    3    3    0  502  0.35656587021E+03  0.35583926903E+03  0.96188668003E+03  0.10858115815E+04  0.50400001928E-02 0. -1.
</event>
<event>
 5   0  0.5381164E-04  0.1606612E+04  0.7818609E-02  0.8816496E-01
       -2   -1    0    0    0  501  0.00000000000E+00  0.00000000000E+00  0.31901810538E+03  0.31901810539E+03  0.25500000920E-02 0. -1.
        2   -1    0    0  501    0  0.00000000000E+00  0.00000000000E+00 -0.20227699581E+04  0.20227699581E+04  0.25500000920E-02 0.  1.
    10030    2    1    2    0    0  0.00000000000E+00  0.00000000000E+00 -0.17037518527E+04  0.23417880635E+04  0.16066116390E+04 0.  0.
        5    1    3    3  502    0  0.59375591448E+03  0.24141627880E+03 -0.14610782820E+03  0.65741728993E+03  0.46999998093E+01 0. -1.
       -5    1    3    3    0  502 -0.59375591448E+03 -0.24141627880E+03 -0.15576440245E+04  0.16843707735E+04  0.46999998093E+01 0.  1.
</event>
<event>
 5   0  0.1908125E-04  0.1613848E+04  0.7818609E-02  0.8812086E-01
        4   -1    0    0  501    0  0.00000000000E+00  0.00000000000E+00  0.10463855671E+04  0.10463863378E+04  0.12699999809E+01 0.  1.
       -4   -1    0    0    0  501  0.00000000000E+00  0.00000000000E+00 -0.62226032244E+03  0.62226161844E+03  0.12699999809E+01 0. -1.
    10030    2    1    2    0    0  0.00000000000E+00  0.00000000000E+00  0.42412524469E+03  0.16686479563E+04  0.16138475079E+04 0.  0.
        4    1    3    3  502    0  0.65397123694E+03 -0.47593446481E+02  0.69833091688E+03  0.95792024577E+03  0.12699999809E+01 0.  1.
       -4    1    3    3    0  502 -0.65397123694E+03  0.47593446481E+02 -0.27420567219E+03  0.71072771049E+03  0.12699999809E+01 0. -1.
</event>
<event>
 5   0  0.5264308E-04  0.1576182E+04  0.7818609E-02  0.8835315E-01
        2   -1    0    0  501    0  0.00000000000E+00  0.00000000000E+00  0.52382142203E+03  0.52382142203E+03  0.25500000920E-02 0. -1.
       -2   -1    0    0    0  501  0.00000000000E+00  0.00000000000E+00 -0.11856856849E+04  0.11856856849E+04  0.25500000920E-02 0.  1.
    10030    2    1    2    0    0  0.00000000000E+00  0.00000000000E+00 -0.66186426289E+03  0.17095071070E+04  0.15761821742E+04 0.  0.
        3    1    3    3  502    0  0.62332145022E+03  0.18183825297E+03  0.15349457779E+03  0.66719965240E+03  0.10100000352E+00 0. -1.
       -3    1    3    3    0  502 -0.62332145022E+03 -0.18183825297E+03 -0.81535884068E+03  0.10423074546E+04  0.10100000352E+00 0.  1.
</event>
<event>
 5   0  0.2649086E-04  0.1585251E+04  0.7818609E-02  0.8829661E-01
        1   -1    0    0  501    0  0.00000000000E+00  0.00000000000E+00  0.14355188205E+04  0.14355188205E+04  0.50400001928E-02 0.  1.
       -1   -1    0    0    0  501  0.00000000000E+00  0.00000000000E+00 -0.43765008400E+03  0.43765008403E+03  0.50400001928E-02 0. -1.
    10030    2    1    2    0    0  0.00000000000E+00  0.00000000000E+00  0.99786873653E+03  0.18731689046E+04  0.15852506836E+04 0.  0.
        2    1    3    3  502    0  0.42322453056E+03  0.44692634266E+03 -0.91159256966E+02  0.62223160412E+03  0.25500000920E-02 0. -1.
       -2    1    3    3    0  502 -0.42322453056E+03 -0.44692634266E+03  0.10890279935E+04  0.12509373005E+04  0.25500000920E-02 0.  1.
</event>
<event>
 5   0  0.2730707E-04  0.1601488E+04  0.7818609E-02  0.8819635E-01
        1   -1    0    0  501    0  0.00000000000E+00  0.00000000000E+00  0.10844058485E+04  0.10844058485E+04  0.50400001928E-02 0. -1.
       -1   -1    0    0    0  501  0.00000000000E+00  0.00000000000E+00 -0.59128295269E+03  0.59128295271E+03  0.50400001928E-02 0.  1.
    10030    2    1    2    0    0  0.00000000000E+00  0.00000000000E+00  0.49312289583E+03  0.16756888012E+04  0.16014876734E+04 0.  0.
        5    1    3    3  502    0  0.41446066534E+03 -0.66981845638E+03  0.39722678596E+03  0.88218230378E+03  0.46999998093E+01 0.  1.
       -5    1    3    3    0  502 -0.41446066534E+03  0.66981845638E+03  0.95896109869E+02  0.79350649746E+03  0.46999998093E+01 0. -1.
</event>
<event>
 5   0  0.5315984E-04  0.1597975E+04  0.7818609E-02  0.8821793E-01
        2   -1    0    0  501    0  0.00000000000E+00  0.00000000000E+00  0.57406018732E+03  0.57406018733E+03  0.25500000920E-02 0.  1.
       -2   -1    0    0    0  501  0.00000000000E+00  0.00000000000E+00 -0.11120455418E+04  0.11120455418E+04  0.25500000920E-02 0. -1.
    10030    2    1    2    0    0  0.00000000000E+00  0.00000000000E+00 -0.53798535446E+03  0.16861057291E+04  0.15979750587E+04 0.  0.
        2    1    3    3  502    0  0.47854713726E+03  0.34025628092E+03  0.30273914999E+03  0.66063052626E+03  0.25500000920E-02 0.  1.
       -2    1    3    3    0  502 -0.47854713726E+03 -0.34025628092E+03 -0.84072450445E+03  0.10254752029E+04  0.25500000920E-02 0. -1.
</event>
<event>
 5   0  0.5131239E-04  0.1637598E+04  0.7818609E-02  0.8797777E-01
       -2   -1    0    0    0  501  0.00000000000E+00  0.00000000000E+00  0.52832919728E+03  0.52832919729E+03  0.25500000920E-02 0.  1.
        2   -1    0    0  501    0  0.00000000000E+00  0.00000000000E+00 -0.12689659350E+04  0.12689659350E+04  0.25500000920E-02 0. -1.
    10030    2    1    2    0    0  0.00000000000E+00  0.00000000000E+00 -0.74063673775E+03  0.17972951323E+04  0.16375979407E+04 0.  0.
        1    1    3    3  502    0 -0.60150957280E+03 -0.55019644827E+03 -0.28600306344E+03  0.86390256984E+03  0.50400001928E-02 0.  1.
       -1    1    3    3    0  502  0.60150957280E+03  0.55019644827E+03 -0.45463367431E+03  0.93339256249E+03  0.50400001928E-02 0. -1.
</event>
<event>
 5   0  0.2649086E-04  0.1606090E+04  0.7818609E-02  0.8816815E-01
        1   -1    0    0  501    0  0.00000000000E+00  0.00000000000E+00  0.73199232173E+03  0.73199232175E+03  0.50400001928E-02 0. -1.
       -1   -1    0    0    0  501  0.00000000000E+00  0.00000000000E+00 -0.88099509052E+03  0.88099509053E+03  0.50400001928E-02 0.  1.
    10030    2    1    2    0    0  0.00000000000E+00  0.00000000000E+00 -0.14900276879E+03  0.16129874123E+04  0.16060904604E+04 0.  0.
        2    1    3    3  502    0 -0.76115678192E+03  0.24002166574E+03  0.14827724369E+02  0.79824176044E+03  0.25500000920E-02 0.  1.
       -2    1    3    3    0  502  0.76115678192E+03 -0.24002166574E+03 -0.16383049316E+03  0.81474565184E+03  0.25500000920E-02 0. -1.
</event>
<event>
 5   0  0.2796994E-04  0.1617218E+04  0.7818609E-02  0.8810040E-01
        1   -1    0    0  501    0  0.00000000000E+00  0.00000000000E+00  0.89611066646E+03  0.89611066647E+03  0.50400001928E-02 0.  1.
       -1   -1    0    0    0  501  0.00000000000E+00  0.00000000000E+00 -0.72965146706E+03  0.72965146708E+03  0.50400001928E-02 0. -1.
    10030    2    1    2    0    0  0.00000000000E+00  0.00000000000E+00  0.16645919940E+03  0.16257621335E+04  0.16172179352E+04 0.  0.
        3    1    3    3  502    0 -0.53741676083E+03  0.22714337774E+03 -0.47958321346E+03  0.75525555788E+03  0.10100000352E+00 0. -1.
       -3    1    3    3    0  502  0.53741676083E+03 -0.22714337774E+03  0.64604241286E+03  0.87050657567E+03  0.10100000352E+00 0.  1.
</event>
<event>
 5   0  0.5315984E-04  0.1618155E+04  0.7818609E-02  0.8809471E-01
       -2   -1    0    0    0  501  0.00000000000E+00  0.00000000000E+00  0.48670561721E+03  0.48670561722E+03  0.25500000920E-02 0. -1.
        2   -1    0    0  501    0  0.00000000000E+00  0.00000000000E+00 -0.13449748030E+04  0.13449748030E+04  0.25500000920E-02 0.  1.
    10030    2    1    2    0    0  0.00000000000E+00  0.00000000000E+00 -0.85826918581E+03  0.18316804202E+04  0.16181554828E+04 0.  0.
        2    1    3    3  502    0 -0.38862801856E+03 -0.48923076487E+03 -0.10109954340E+04  0.11884823287E+04  0.25500000920E-02 0.  1.
       -2    1    3    3    0  502  0.38862801856E+03  0.48923076487E+03  0.15272624815E+03  0.64319809156E+03  0.25500000920E-02 0. -1.
</event>
<event>
 5   0  0.2689675E-04  0.1599964E+04  0.7818609E-02  0.8820570E-01
       -1   -1    0    0    0  501  0.00000000000E+00  0.00000000000E+00  0.48541110757E+03  0.48541110760E+03  0.50400001928E-02 0.  1.
        1   -1    0    0  501    0  0.00000000000E+00  0.00000000000E+00 -0.13184112214E+04  0.13184112214E+04  0.50400001928E-02 0. -1.
    10030    2    1    2    0    0  0.00000000000E+00  0.00000000000E+00 -0.83300011380E+03  0.18038223290E+04  0.15999643136E+04 0.  0.
        1    1    3    3  502    0  0.77125432245E+03 -0.19917193811E+03 -0.49987353321E+03  0.94041280300E+03  0.50400001928E-02 0.  1.
       -1    1    3    3    0  502 -0.77125432245E+03  0.19917193811E+03 -0.33312658059E+03  0.86340952598E+03  0.50400001928E-02 0. -1.
</event>
<event>
 5   0  0.2689675E-04  0.1604173E+04  0.7818609E-02  0.8817989E-01
        1   -1    0    0  501    0  0.00000000000E+00  0.00000000000E+00  0.87496886061E+03  0.87496886062E+03  0.50400001928E-02 0. -1.
       -1   -1    0    0    0  501  0.00000000000E+00  0.00000000000E+00 -0.73527481335E+03  0.73527481336E+03  0.50400001928E-02 0.  1.
    10030    2    1    2    0    0  0.00000000000E+00  0.00000000000E+00  0.13969404726E+03  0.16102436740E+04  0.16041727659E+04 0.  0.
        1    1    3    3  502    0  0.16107309820E+03 -0.93645230743E+02 -0.71325192067E+03  0.73718537327E+03  0.50400001928E-02 0.  1.
       -1    1    3    3    0  502 -0.16107309820E+03  0.93645230743E+02  0.85294596793E+03  0.87305830071E+03  0.50400001928E-02 0. -1.
</event>
<event>
 5   0  0.2649086E-04  0.1582359E+04  0.7818609E-02  0.8831460E-01
        1   -1    0    0  501    0  0.00000000000E+00  0.00000000000E+00  0.18892747630E+04  0.18892747630E+04  0.50400001928E-02 0. -1.
       -1   -1    0    0    0  501  0.00000000000E+00  0.00000000000E+00 -0.33132536254E+03  0.33132536258E+03  0.50400001928E-02 0.  1.
    10030    2    1    2    0    0  0.00000000000E+00  0.00000000000E+00  0.15579494005E+04  0.22206001256E+04  0.15823585508E+04 0.  0.
        2    1    3    3  502    0 -0.76534939010E+03  0.80691918103E+02  0.10365713874E+04  0.12910271553E+04  0.25500000920E-02 0. -1.
       -2    1    3    3    0  502  0.76534939010E+03 -0.80691918103E+02  0.52137801307E+03  0.92957297029E+03  0.25500000920E-02 0.  1.
</event>
<event>
 5   0  0.5083831E-04  0.1579608E+04  0.7818609E-02  0.8833174E-01
       -2   -1    0    0    0  501  0.00000000000E+00  0.00000000000E+00  0.70033274219E+03  0.70033274220E+03  0.25500000920E-02 0.  1.
        2   -1    0    0  501    0  0.00000000000E+00  0.00000000000E+00 -0.89070603983E+03  0.89070603983E+03  0.25500000920E-02 0. -1.
    10030    2    1    2    0    0  0.00000000000E+00  0.00000000000E+00 -0.19037329764E+03  0.15910387820E+04  0.15796083101E+04 0.  0.
        4    1    3    3  502    0  0.18026911059E+03 -0.76045570110E+03  0.19652266667E+02  0.78177851726E+03  0.12699999809E+01 0.  1.
       -4    1    3    3    0  502 -0.18026911059E+03  0.76045570110E+03 -0.21002556430E+03  0.80926026477E+03  0.12699999809E+01 0. -1.
</event>
<event>
 5   0  0.1908125E-04  0.1591295E+04  0.7818609E-02  0.8825914E-01
        4   -1    0    0  501    0  0.00000000000E+00  0.00000000000E+00  0.28935473468E+03  0.28935752173E+03  0.12699999809E+01 0. -1.
       -4   -1    0    0    0  501  0.00000000000E+00  0.00000000000E+00 -0.21878020258E+04  0.21878023944E+04  0.12699999809E+01 0.  1.
    10030    2    1    2    0    0  0.00000000000E+00  0.00000000000E+00 -0.18984472911E+04  0.24771599161E+04  0.15912947976E+04 0.  0.
        3    1    3    3  502    0 -0.63514784023E+03  0.98300120331E+02 -0.21910390283E+03  0.67903035502E+03  0.10100000352E+00 0. -1.
       -3    1    3    3    0  502  0.63514784023E+03 -0.98300120331E+02 -0.16793433883E+04  0.17981295611E+04  0.10100000352E+00 0.  1.
</event>
<event>
 5   0  0.5083831E-04  0.1538380E+04  0.7818609E-02  0.8859324E-01
        2   -1    0    0  501    0  0.00000000000E+00  0.00000000000E+00  0.71922462631E+03  0.71922462632E+03  0.25500000920E-02 0. -1.
       -2   -1    0    0    0  501  0.00000000000E+00  0.00000000000E+00 -0.82262687881E+03  0.82262687881E+03  0.25500000920E-02 0.  1.
    10030    2    1    2    0    0  0.00000000000E+00  0.00000000000E+00 -0.10340225250E+03  0.15418515051E+04  0.15383803295E+04 0.  0.
        4    1    3    3  502    0 -0.23247743480E+03  0.71198505766E+03 -0.22726319477E+03  0.78269959283E+03  0.12699999809E+01 0.  1.
       -4    1    3    3    0  502  0.23247743480E+03 -0.71198505766E+03  0.12386094227E+03  0.75915191230E+03  0.12699999809E+01 0. -1.
</event>
<event>
 5   0  0.5131239E-04  0.1565932E+04  0.7818609E-02  0.8841755E-01
       -2   -1    0    0    0  501  0.00000000000E+00  0.00000000000E+00  0.74002636944E+03  0.74002636944E+03  0.25500000920E-02 0. -1.
        2   -1    0    0  501    0  0.00000000000E+00  0.00000000000E+00 -0.82839764856E+03  0.82839764857E+03  0.25500000920E-02 0.  1.
    10030    2    1    2    0    0  0.00000000000E+00  0.00000000000E+00 -0.88371279125E+02  0.15684240180E+04  0.15659324434E+04 0.  0.
        1    1    3    3  502    0 -0.14267831116E+03 -0.46921105758E+03 -0.65550092052E+03  0.81865595573E+03  0.50400001928E-02 0.  1.
       -1    1    3    3    0  502  0.14267831116E+03  0.46921105758E+03  0.56712964140E+03  0.74976806227E+03  0.50400001928E-02 0. -1.
</event>
<event>
 5   0  0.1908125E-04  0.1609594E+04  0.7818609E-02  0.8814676E-01
        4   -1    0    0  501    0  0.00000000000E+00  0.00000000000E+00  0.38751322263E+03  0.38751530372E+03  0.12699999809E+01 0. -1.
       -4   -1    0    0    0  501  0.00000000000E+00  0.00000000000E+00 -0.16714155087E+04  0.16714159912E+04  0.12699999809E+01 0.  1.
    10030    2    1    2    0    0  0.00000000000E+00  0.00000000000E+00 -0.12839022861E+04  0.20589312949E+04  0.16095940473E+04 0.  0.
        4    1    3    3  502    0  0.24277842493E+03  0.67758383202E+03 -0.11025123373E+04  0.13166610346E+04  0.12699999809E+01 0.  1.
       -4    1    3    3    0  502 -0.24277842493E+03 -0.67758383202E+03 -0.18138994874E+03  0.74227026037E+03  0.12699999809E+01 0. -1.
</event>
<event>
 5   0  0.5264308E-04  0.1604380E+04  0.7818609E-02  0.8817862E-01
       -2   -1    0    0    0  501  0.00000000000E+00  0.00000000000E+00  0.47270041340E+03  0.47270041341E+03  0.25500000920E-02 0.  1.
        2   -1    0    0  501    0  0.00000000000E+00  0.00000000000E+00 -0.13613452919E+04  0.13613452919E+04  0.25500000920E-02 0. -1.
    10030    2    1    2    0    0  0.00000000000E+00  0.00000000000E+00 -0.88864487851E+03  0.18340457053E+04  0.16043796088E+04 0.  0.
        3    1    3    3  502    0  0.42583665601E+03  0.65959531765E+03 -0.25611673382E+03  0.82583208476E+03  0.10100000352E+00 0.  1.
       -3    1    3    3    0  502 -0.42583665601E+03 -0.65959531765E+03 -0.63252814469E+03  0.10082136206E+04  0.10100000352E+00 0. -1.
</event>
<event>
 5   0  0.5083831E-04  0.1600939E+04  0.7818609E-02  0.8819972E-01
        2   -1    0    0  501    0  0.00000000000E+00  0.00000000000E+00  0.83067963385E+03  0.83067963385E+03  0.25500000920E-02 0. -1.
       -2   -1    0    0    0  501  0.00000000000E+00  0.00000000000E+00 -0.77135769710E+03  0.77135769710E+03  0.25500000920E-02 0.  1.
    10030    2    1    2    0    0  0.00000000000E+00  0.00000000000E+00  0.59321936749E+02  0.16020373310E+04  0.16009386364E+04 0.  0.
        4    1    3    3  502    0 -0.71704498402E+03  0.93339887367E+02  0.37323851581E+03  0.81374101916E+03  0.12699999809E+01 0. -1.
       -4    1    3    3    0  502  0.71704498402E+03 -0.93339887367E+02 -0.31391657906E+03  0.78829631179E+03  0.12699999809E+01 0.  1.
</event>
<event>
 5   0  0.2796994E-04  0.1611658E+04  0.7818609E-02  0.8813418E-01
       -1   -1    0    0    0  501  0.00000000000E+00  0.00000000000E+00  0.50978273504E+03  0.50978273506E+03  0.50400001928E-02 0.  1.
        1   -1    0    0  501    0  0.00000000000E+00  0.00000000000E+00 -0.12737988985E+04  0.12737988985E+04  0.50400001928E-02 0. -1.
    10030    2    1    2    0    0  0.00000000000E+00  0.00000000000E+00 -0.76401616350E+03  0.17835816336E+04  0.16116583837E+04 0.  0.
        3    1    3    3  502    0 -0.71750119620E+03 -0.13376677095E+03 -0.40188536082E+01  0.72987511051E+03  0.10100000352E+00 0.  1.
       -3    1    3    3    0  502  0.71750119620E+03  0.13376677095E+03 -0.75999730989E+03  0.10537065231E+04  0.10100000352E+00 0. -1.
</event>
<event>
 5   0  0.2649086E-04  0.1522811E+04  0.7818609E-02  0.8869424E-01
        1   -1    0    0  501    0  0.00000000000E+00  0.00000000000E+00  0.14376089693E+04  0.14376089693E+04  0.50400001928E-02 0.  1.
       -1   -1    0    0    0  501  0.00000000000E+00  0.00000000000E+00 -0.40326574464E+03  0.40326574467E+03  0.50400001928E-02 0. -1.
    10030    2    1    2    0    0  0.00000000000E+00  0.00000000000E+00  0.10343432247E+04  0.18408747140E+04  0.15228111525E+04 0.  0.
        2    1    3    3  502    0  0.17384215440E+03 -0.44704572311E+03  0.12320066057E+04  0.13220859464E+04  0.25500000920E-02 0.  1.
       -2    1    3    3    0  502 -0.17384215440E+03  0.44704572311E+03 -0.19766338101E+03  0.51878876761E+03  0.25500000920E-02 0. -1.
</event>
<event>
 5   0  0.2730707E-04  0.1604017E+04  0.7818609E-02  0.8818084E-01
        1   -1    0    0  501    0  0.00000000000E+00  0.00000000000E+00  0.11322612171E+04  0.11322612171E+04  0.50400001928E-02 0. -1.
       -1   -1    0    0    0  501  0.00000000000E+00  0.00000000000E+00 -0.56808235911E+03  0.56808235913E+03  0.50400001928E-02 0.  1.
    10030    2    1    2    0    0  0.00000000000E+00  0.00000000000E+00  0.56417885797E+03  0.17003435762E+04  0.16040169866E+04 0.  0.
        5    1    3    3  502    0  0.61063529731E+03 -0.28115082109E+03 -0.18152400617E+03  0.69634352538E+03  0.46999998093E+01 0. -1.
       -5    1    3    3    0  502 -0.61063529731E+03  0.28115082109E+03  0.74570286415E+03  0.10040000509E+04  0.46999998093E+01 0.  1.
</event>
<event>
 5   0  0.5083831E-04  0.1603215E+04  0.7818609E-02  0.8818575E-01
       -2   -1    0    0    0  501  0.00000000000E+00  0.00000000000E+00  0.41509413534E+03  0.41509413535E+03  0.25500000920E-02 0.  1.
        2   -1    0    0  501    0  0.00000000000E+00  0.00000000000E+00 -0.15480219114E+04  0.15480219114E+04  0.25500000920E-02 0. -1.
    10030    2    1    2    0    0  0.00000000000E+00  0.00000000000E+00 -0.11329277761E+04  0.19631160468E+04  0.16032152904E+04 0.  0.
        4    1    3    3  502    0 -0.73405941456E+03 -0.28296752882E+03 -0.75480954042E+03  0.10902535951E+04  0.12699999809E+01 0.  1.
       -4    1    3    3    0  502  0.73405941456E+03  0.28296752882E+03 -0.37811823566E+03  0.87286245165E+03  0.12699999809E+01 0. -1.
</event>
<event>
 5   0  0.2689675E-04  0.1560186E+04  0.7818609E-02  0.8845387E-01
       -1   -1    0    0    0  501  0.00000000000E+00  0.00000000000E+00  0.63387534328E+03  0.63387534330E+03  0.50400001928E-02 0.  1.
        1   -1    0    0  501    0  0.00000000000E+00  0.00000000000E+00 -0.96003953032E+03  0.96003953034E+03  0.50400001928E-02 0. -1.
    10030    2    1    2    0    0  0.00000000000E+00  0.00000000000E+00 -0.32616418704E+03  0.15939148736E+04  0.15601863823E+04 0.  0.
        1    1    3    3  502    0  0.61498155925E+03  0.25334423497E+03 -0.57952126898E+03  0.88217374753E+03  0.50400001928E-02 0. -1.
       -1    1    3    3    0  502 -0.61498155925E+03 -0.25334423497E+03  0.25335708194E+03  0.71174112611E+03  0.50400001928E-02 0.  1.
</event>
<event>
 5   0  0.2730707E-04  0.1582301E+04  0.7818609E-02  0.8831495E-01
       -1   -1    0    0    0  501  0.00000000000E+00  0.00000000000E+00  0.96917924741E+03  0.96917924742E+03  0.50400001928E-02 0. -1.
        1   -1    0    0  501    0  0.00000000000E+00  0.00000000000E+00 -0.64582410465E+03  0.64582410467E+03  0.50400001928E-02 0.  1.
    10030    2    1    2    0    0  0.00000000000E+00  0.00000000000E+00  0.32335514276E+03  0.16150033521E+04  0.15823012605E+04 0.  0.
        5    1    3    3  502    0 -0.73055884185E+03 -0.30347666187E+03  0.15238310513E+03  0.80564074278E+03  0.46999998093E+01 0. -1.
       -5    1    3    3    0  502  0.73055884185E+03  0.30347666187E+03  0.17097203763E+03  0.80936260931E+03  0.46999998093E+01 0.  1.
</event>
<event>
 5   0  0.2689675E-04  0.1561723E+04  0.7818609E-02  0.8844414E-01
       -1   -1    0    0    0  501  0.00000000000E+00  0.00000000000E+00  0.76563888943E+03  0.76563888944E+03  0.50400001928E-02 0. -1.
        1   -1    0    0  501    0  0.00000000000E+00  0.00000000000E+00 -0.79638667104E+03  0.79638667106E+03  0.50400001928E-02 0.  1.
    10030    2    1    2    0    0  0.00000000000E+00  0.00000000000E+00 -0.30747781617E+02  0.15620255605E+04  0.15617229029E+04 0.  0.
        1    1    3    3  502    0  0.36755556762E+02  0.11764374009E+03 -0.78659633202E+03  0.79619395257E+03  0.50400001928E-02 0.  1.
       -1    1    3    3    0  502 -0.36755556762E+02 -0.11764374009E+03  0.75584855040E+03  0.76583160793E+03  0.50400001928E-02 0. -1.
</event>
<event>
 5   0  0.2649086E-04  0.1597661E+04  0.7818609E-02  0.8821986E-01
       -1   -1    0    0    0  501  0.00000000000E+00  0.00000000000E+00  0.43809643763E+03  0.43809643766E+03  0.50400001928E-02 0. -1.
        1   -1    0    0  501    0  0.00000000000E+00  0.00000000000E+00 -0.14565973993E+04  0.14565973993E+04  0.50400001928E-02 0.  1.
    10030    2    1    2    0    0  0.00000000000E+00  0.00000000000E+00 -0.10185009616E+04  0.18946938369E+04  0.15976609549E+04 0.  0.
        2    1    3    3  502    0  0.21600533641E+03 -0.43366039402E+03 -0.12624811830E+04  0.13522493779E+04  0.25500000920E-02 0.  1.
       -2    1    3    3    0  502 -0.21600533641E+03  0.43366039402E+03  0.24398022134E+03  0.54244445902E+03  0.25500000920E-02 0. -1.
</event>
<event>
 5   0  0.5381164E-04  0.1601865E+04  0.7818609E-02  0.8819403E-01
       -2   -1    0    0    0  501  0.00000000000E+00  0.00000000000E+00  0.48410751041E+03  0.48410751042E+03  0.25500000920E-02 0.  1.
        2   -1    0    0  501    0  0.00000000000E+00  0.00000000000E+00 -0.13251043242E+04  0.13251043242E+04  0.25500000920E-02 0. -1.
    10030    2    1    2    0    0  0.00000000000E+00  0.00000000000E+00 -0.84099681383E+03  0.18092118347E+04  0.16018651072E+04 0.  0.
        5    1    3    3  502    0 -0.57647915380E+03 -0.22958341602E+03  0.15144277892E+03  0.63874389622E+03  0.46999998093E+01 0.  1.
       -5    1    3    3    0  502  0.57647915380E+03  0.22958341602E+03 -0.99243959275E+03  0.11704679384E+04  0.46999998093E+01 0. -1.
</event>
<event>
 5   0  0.5083831E-04  0.1586150E+04  0.7818609E-02  0.8829102E-01
       -2   -1    0    0    0  501  0.00000000000E+00  0.00000000000E+00  0.60538532807E+03  0.60538532808E+03  0.25500000920E-02 0. -1.
        2   -1    0    0  501    0  0.00000000000E+00  0.00000000000E+00 -0.10389544393E+04  0.10389544393E+04  0.25500000920E-02 0.  1.
    10030    2    1    2    0    0  0.00000000000E+00  0.00000000000E+00 -0.43356911122E+03  0.16443397674E+04  0.15861497711E+04 0.  0.
        4    1    3    3  502    0 -0.53697925788E+03 -0.18289198138E+03 -0.79134634250E+03  0.97366670218E+03  0.12699999809E+01 0.  1.
       -4    1    3    3    0  502  0.53697925788E+03  0.18289198138E+03  0.35777723129E+03  0.67067306519E+03  0.12699999809E+01 0. -1.
</event>
<event>
 5   0  0.2796994E-04  0.1607568E+04  0.7818609E-02  0.8815912E-01
       -1   -1    0    0    0  501  0.00000000000E+00  0.00000000000E+00  0.15195861395E+04  0.15195861395E+04  0.50400001928E-02 0.  1.
        1   -1    0    0  501    0  0.00000000000E+00  0.00000000000E+00 -0.42516075832E+03  0.42516075835E+03  0.50400001928E-02 0. -1.
    10030    2    1    2    0    0  0.00000000000E+00  0.00000000000E+00  0.10944253812E+04  0.19447468979E+04  0.16075675979E+04 0.  0.
        3    1    3    3  502    0 -0.77234382346E+03 -0.30779840076E+02  0.28050299279E+03  0.82227995194E+03  0.10100000352E+00 0. -1.
       -3    1    3    3    0  502  0.77234382346E+03  0.30779840076E+02  0.81392238841E+03  0.11224669459E+04  0.10100000352E+00 0.  1.
</event>
<event>
 5   0  0.2649086E-04  0.1597332E+04  0.7818609E-02  0.8822189E-01
        1   -1    0    0  501    0  0.00000000000E+00  0.00000000000E+00  0.23315265319E+04  0.23315265319E+04  0.50400001928E-02 0. -1.
       -1   -1    0    0    0  501  0.00000000000E+00  0.00000000000E+00 -0.27358345146E+03  0.27358345151E+03  0.50400001928E-02 0.  1.
    10030    2    1    2    0    0  0.00000000000E+00  0.00000000000E+00  0.20579430805E+04  0.26051099834E+04  0.15973316197E+04 0.  0.
        2    1    3    3  502    0 -0.54261177231E+03 -0.45376999524E+03  0.16338016144E+04  0.17803489712E+04  0.25500000920E-02 0. -1.
       -2    1    3    3    0  502  0.54261177231E+03  0.45376999524E+03  0.42414146603E+03  0.82476101220E+03  0.25500000920E-02 0.  1.
</event>
<event>
 5   0  0.5083831E-04  0.1597621E+04  0.7818609E-02  0.8822011E-01
        2   -1    0    0  501    0  0.00000000000E+00  0.00000000000E+00  0.95873521569E+03  0.95873521569E+03  0.25500000920E-02 0.  1.
       -2   -1    0    0    0  501  0.00000000000E+00  0.00000000000E+00 -0.66556248385E+03  0.66556248386E+03  0.25500000920E-02 0. -1.
    10030    2    1    2    0    0  0.00000000000E+00  0.00000000000E+00  0.29317273184E+03  0.16242976995E+04  0.15976209707E+04 0.  0.
        4    1    3    3  502    0  0.71600013421E+03  0.31836721107E+03 -0.11190931470E+02  0.78367131064E+03  0.12699999809E+01 0.  1.
       -4    1    3    3    0  502 -0.71600013421E+03 -0.31836721107E+03  0.30436366331E+03  0.84062638890E+03  0.12699999809E+01 0. -1.
</event>
<event>
 5   0  0.2689675E-04  0.1601171E+04  0.7818609E-02  0.8819829E-01
        1   -1    0    0  501    0  0.00000000000E+00  0.00000000000E+00  0.91470980886E+03  0.91470980888E+03  0.50400001928E-02 0.  1.
       -1   -1    0    0    0  501  0.00000000000E+00  0.00000000000E+00 -0.70069988101E+03  0.70069988103E+03  0.50400001928E-02 0. -1.
    10030    2    1    2    0    0  0.00000000000E+00  0.00000000000E+00  0.21400992785E+03  0.16154096899E+04  0.16011708894E+04 0.  0.
        1    1    3    3  502    0  0.64719575765E+03  0.21986764449E+03  0.52752439001E+03  0.86341537622E+03  0.50400001928E-02 0.  1.
       -1    1    3    3    0  502 -0.64719575765E+03 -0.21986764449E+03 -0.31351446216E+03  0.75199431369E+03  0.50400001928E-02 0. -1.
</event>
<event>
 5   0  0.5131239E-04  0.1588564E+04  0.7818609E-02  0.8827604E-01
        2   -1    0    0  501    0  0.00000000000E+00  0.00000000000E+00  0.15755540942E+04  0.15755540942E+04  0.25500000920E-02 0.  1.
       -2   -1    0    0    0  501  0.00000000000E+00  0.00000000000E+00 -0.40042054546E+03  0.40042054546E+03  0.25500000920E-02 0. -1.
    10030    2    1    2    0    0  0.00000000000E+00  0.00000000000E+00  0.11751335487E+04  0.19759746397E+04  0.15885644209E+04 0.  0.
        1    1    3    3  502    0 -0.43453247374E+03 -0.39211162430E+03  0.12554639029E+04  0.13851929859E+04  0.50400001928E-02 0.  1.
       -1    1    3    3    0  502  0.43453247374E+03  0.39211162430E+03 -0.80330354126E+02  0.59078165380E+03  0.50400001928E-02 0. -1.
</event>
<event>
 5   0  0.2689675E-04  0.1598131E+04  0.7818609E-02  0.8821697E-01
        1   -1    0    0  501    0  0.00000000000E+00  0.00000000000E+00  0.95606813796E+03  0.95606813798E+03  0.50400001928E-02 0. -1.
       -1   -1    0    0    0  501  0.00000000000E+00  0.00000000000E+00 -0.66784570141E+03  0.66784570143E+03  0.50400001928E-02 0.  1.
    10030    2    1    2    0    0  0.00000000000E+00  0.00000000000E+00  0.28822243655E+03  0.16239138394E+04  0.15981314041E+04 0.  0.
        1    1    3    3  502    0  0.50529944802E+03  0.61814964917E+03  0.11088079541E+03  0.80605897536E+03  0.50400001928E-02 0.  1.
       -1    1    3    3    0  502 -0.50529944802E+03 -0.61814964917E+03  0.17734164115E+03  0.81785486405E+03  0.50400001928E-02 0. -1.
</event>
<event>
 5   0  0.2689675E-04  0.1603338E+04  0.7818609E-02  0.8818500E-01
        1   -1    0    0  501    0  0.00000000000E+00  0.00000000000E+00  0.11083642201E+04  0.11083642201E+04  0.50400001928E-02 0.  1.
       -1   -1    0    0    0  501  0.00000000000E+00  0.00000000000E+00 -0.57983950237E+03  0.57983950239E+03  0.50400001928E-02 0. -1.
    10030    2    1    2    0    0  0.00000000000E+00  0.00000000000E+00  0.52852471769E+03  0.16882037225E+04  0.16033382149E+04 0.  0.
        1    1    3    3  502    0 -0.12683808743E+03  0.39890551861E+03 -0.45563712936E+03  0.61872344943E+03  0.50400001928E-02 0. -1.
       -1    1    3    3    0  502  0.12683808743E+03 -0.39890551861E+03  0.98416184705E+03  0.10694802730E+04  0.50400001928E-02 0.  1.
</event>
<event>
 5   0  0.5264308E-04  0.1606288E+04  0.7818609E-02  0.8816694E-01
       -2   -1    0    0    0  501  0.00000000000E+00  0.00000000000E+00  0.78868288018E+03  0.78868288018E+03  0.25500000920E-02 0. -1.
        2   -1    0    0  501    0  0.00000000000E+00  0.00000000000E+00 -0.81787007566E+03  0.81787007566E+03  0.25500000920E-02 0.  1.
    10030    2    1    2    0    0  0.00000000000E+00  0.00000000000E+00 -0.29187195480E+02  0.16065529558E+04  0.16062878035E+04 0.  0.
        3    1    3    3  502    0  0.96756613162E+02  0.27366463212E+03  0.73438644103E+03  0.78966931563E+03  0.10100000352E+00 0. -1.
       -3    1    3    3    0  502 -0.96756613162E+02 -0.27366463212E+03 -0.76357363652E+03  0.81688364021E+03  0.10100000352E+00 0.  1.
</event>
<event>
 5   0  0.2730707E-04  0.1599036E+04  0.7818609E-02  0.8821140E-01
       -1   -1    0    0    0  501  0.00000000000E+00  0.00000000000E+00  0.33760891864E+03  0.33760891867E+03  0.50400001928E-02 0. -1.
        1   -1    0    0  501    0  0.00000000000E+00  0.00000000000E+00 -0.18934013477E+04  0.18934013477E+04  0.50400001928E-02 0.  1.
    10030    2    1    2    0    0  0.00000000000E+00  0.00000000000E+00 -0.15557924290E+04  0.22310102664E+04  0.15990361867E+04 0.  0.
        5    1    3    3  502    0 -0.38505977733E+03  0.12976864852E+03 -0.17385712262E+04  0.17854307415E+04  0.46999998093E+01 0.  1.
       -5    1    3    3    0  502  0.38505977733E+03 -0.12976864852E+03  0.18277879716E+03  0.44557952482E+03  0.46999998093E+01 0. -1.
</event>
<event>
 5   0  0.5264308E-04  0.1607069E+04  0.7818609E-02  0.8816217E-01
       -2   -1    0    0    0  501  0.00000000000E+00  0.00000000000E+00  0.81527506198E+03  0.81527506198E+03  0.25500000920E-02 0.  1.
        2   -1    0    0  501    0  0.00000000000E+00  0.00000000000E+00 -0.79196272583E+03  0.79196272584E+03  0.25500000920E-02 0. -1.
    10030    2    1    2    0    0  0.00000000000E+00  0.00000000000E+00  0.23312336148E+02  0.16072377878E+04  0.16070687109E+04 0.  0.
        3    1    3    3  502    0  0.29133486039E+03 -0.74641986088E+03  0.72068157121E+02  0.80449514546E+03  0.10100000352E+00 0. -1.
       -3    1    3    3    0  502 -0.29133486039E+03  0.74641986088E+03 -0.48755820973E+02  0.80274264237E+03  0.10100000352E+00 0.  1.
</event>
<event>
 5   0  0.5083831E-04  0.1614791E+04  0.7818609E-02  0.8811513E-01
       -2   -1    0    0    0  501  0.00000000000E+00  0.00000000000E+00  0.31806336918E+03  0.31806336919E+03  0.25500000920E-02 0. -1.
        2   -1    0    0  501    0  0.00000000000E+00  0.00000000000E+00 -0.20495514104E+04  0.20495514104E+04  0.25500000920E-02 0.  1.
    10030    2    1    2    0    0  0.00000000000E+00  0.00000000000E+00 -0.17314880412E+04  0.23676147796E+04  0.16147906699E+04 0.  0.
        4    1    3    3  502    0  0.30718566632E+03 -0.16011047126E+02  0.22878220642E+03  0.38335661999E+03  0.12699999809E+01 0. -1.
       -4    1    3    3    0  502 -0.30718566632E+03  0.16011047126E+02 -0.19602702476E+04  0.19842581596E+04  0.12699999809E+01 0.  1.
</event>
<event>
 5   0  0.5264308E-04  0.1429365E+04  0.7818609E-02  0.8932833E-01
        2   -1    0    0  501    0  0.00000000000E+00  0.00000000000E+00  0.97537931613E+03  0.97537931613E+03  0.25500000920E-02 0.  1.
       -2   -1    0    0    0  501  0.00000000000E+00  0.00000000000E+00 -0.52366396228E+03  0.52366396229E+03  0.25500000920E-02 0. -1.
    10030    2    1    2    0    0  0.00000000000E+00  0.00000000000E+00  0.45171535385E+03  0.14990432784E+04  0.14293648903E+04 0.  0.
        3    1    3    3  502    0  0.47202661007E+03  0.36589601525E+03  0.63752555046E+03  0.87357189302E+03  0.10100000352E+00 0.  1.
       -3    1    3    3    0  502 -0.47202661007E+03 -0.36589601525E+03 -0.18581019661E+03  0.62547138540E+03  0.10100000352E+00 0. -1.
</event>
<event>
 5   0  0.5131239E-04  0.1609362E+04  0.7818609E-02  0.8814817E-01
       -2   -1    0    0    0  501  0.00000000000E+00  0.00000000000E+00  0.38653823714E+03  0.38653823714E+03  0.25500000920E-02 0.  1.
        2   -1    0    0  501    0  0.00000000000E+00  0.00000000000E+00 -0.16751542700E+04  0.16751542700E+04  0.25500000920E-02 0. -1.
    10030    2    1    2    0    0  0.00000000000E+00  0.00000000000E+00 -0.12886160329E+04  0.20616925071E+04  0.16093615858E+04 0.  0.
        1    1    3    3  502    0 -0.71087986093E+03  0.37702851853E+03 -0.64845873144E+03  0.10334405677E+04  0.50400001928E-02 0.  1.
       -1    1    3    3    0  502  0.71087986093E+03 -0.37702851853E+03 -0.64015730142E+03  0.10282519395E+04  0.50400001928E-02 0. -1.
</event>
<event>
 5   0  0.2649086E-04  0.1594905E+04  0.7818609E-02  0.8823684E-01
       -1   -1    0    0    0  501  0.00000000000E+00  0.00000000000E+00  0.13231656153E+04  0.13231656153E+04  0.50400001928E-02 0.  1.
        1   -1    0    0  501    0  0.00000000000E+00  0.00000000000E+00 -0.48061272298E+03  0.48061272301E+03  0.50400001928E-02 0. -1.
    10030    2    1    2    0    0  0.00000000000E+00  0.00000000000E+00  0.84255289232E+03  0.18037783383E+04  0.15949046735E+04 0.  0.
        2    1    3    3  502    0 -0.34265107572E+03  0.72007542516E+03  0.42516994054E+03  0.90370783772E+03  0.25500000920E-02 0. -1.
       -2    1    3    3    0  502  0.34265107572E+03 -0.72007542516E+03  0.41738295178E+03  0.90007050060E+03  0.25500000920E-02 0.  1.
</event>
<event>
 5   0  0.2763895E-04  0.1596680E+04  0.7818609E-02  0.8822590E-01
       -1   -1    0    0    0  501  0.00000000000E+00  0.00000000000E+00  0.12643167423E+04  0.12643167423E+04  0.50400001928E-02 0. -1.
        1   -1    0    0  501    0  0.00000000000E+00  0.00000000000E+00 -0.50410389615E+03  0.50410389618E+03  0.50400001928E-02 0.  1.
    10030    2    1    2    0    0  0.00000000000E+00  0.00000000000E+00  0.76021284612E+03  0.17684206385E+04  0.15966803009E+04 0.  0.
        4    1    3    3  502    0 -0.15407014425E+03 -0.65431681116E+02  0.12446614284E+04  0.12558672695E+04  0.12699999809E+01 0. -1.
       -4    1    3    3    0  502  0.15407014425E+03  0.65431681116E+02 -0.48444858231E+03  0.51255336898E+03  0.12699999809E+01 0.  1.
</event>
<event>
 5   0  0.5381164E-04  0.1594339E+04  0.7818609E-02  0.8824033E-01
       -2   -1    0    0    0  501  0.00000000000E+00  0.00000000000E+00  0.68004469173E+03  0.68004469174E+03  0.25500000920E-02 0. -1.
        2   -1    0    0  501    0  0.00000000000E+00  0.00000000000E+00 -0.93446725827E+03  0.93446725827E+03  0.25500000920E-02 0.  1.
    10030    2    1    2    0    0  0.00000000000E+00  0.00000000000E+00 -0.25442256653E+03  0.16145119500E+04  0.15943393598E+04 0.  0.
        5    1    3    3  502    0  0.12354462780E+03  0.73004103615E+03  0.17188012311E+03  0.76012371114E+03  0.46999998093E+01 0. -1.
       -5    1    3    3    0  502 -0.12354462780E+03 -0.73004103615E+03 -0.42630268964E+03  0.85438823887E+03  0.46999998093E+01 0.  1.
</event>
<event>
 5   0  0.2689675E-04  0.1582308E+04  0.7818609E-02  0.8831491E-01
        1   -1    0    0  501    0  0.00000000000E+00  0.00000000000E+00  0.14588902753E+04  0.14588902753E+04  0.50400001928E-02 0.  1.
       -1   -1    0    0    0  501  0.00000000000E+00  0.00000000000E+00 -0.42904140640E+03  0.42904140643E+03  0.50400001928E-02 0. -1.
    10030    2    1    2    0    0  0.00000000000E+00  0.00000000000E+00  0.10298488689E+04  0.18879316818E+04  0.15823076004E+04 0.  0.
        1    1    3    3  502    0  0.23067863268E+03 -0.69918116533E+03  0.16941010620E+03  0.75549104404E+03  0.50400001928E-02 0.  1.
       -1    1    3    3    0  502 -0.23067863268E+03  0.69918116533E+03  0.86043876274E+03  0.11324406377E+04  0.50400001928E-02 0. -1.
</event>
<event>
 5   0  0.2763895E-04  0.1578901E+04  0.7818609E-02  0.8833616E-01
       -1   -1    0    0    0  501  0.00000000000E+00  0.00000000000E+00  0.15195025617E+04  0.15195025618E+04  0.50400001928E-02 0. -1.
        1   -1    0    0  501    0  0.00000000000E+00  0.00000000000E+00 -0.41015509690E+03  0.41015509693E+03  0.50400001928E-02 0.  1.
    10030    2    1    2    0    0  0.00000000000E+00  0.00000000000E+00  0.11093474648E+04  0.19296576587E+04  0.15789005295E+04 0.  0.
        4    1    3    3  502    0  0.27382245398E+03 -0.27327703520E+03 -0.28636899975E+03  0.48131890799E+03  0.12699999809E+01 0.  1.
       -4    1    3    3    0  502 -0.27382245398E+03  0.27327703520E+03  0.13957164646E+04  0.14483387507E+04  0.12699999809E+01 0. -1.
</event>
<event>
 5   0  0.2730707E-04  0.1596261E+04  0.7818609E-02  0.8822848E-01
       -1   -1    0    0    0  501  0.00000000000E+00  0.00000000000E+00  0.49281354508E+03  0.49281354511E+03  0.50400001928E-02 0. -1.
        1   -1    0    0  501    0  0.00000000000E+00  0.00000000000E+00 -0.12926030441E+04  0.12926030441E+04  0.50400001928E-02 0.  1.
    10030    2    1    2    0    0  0.00000000000E+00  0.00000000000E+00 -0.79978949898E+03  0.17854165892E+04  0.15962609919E+04 0.  0.
        5    1    3    3  502    0 -0.47050032765E+03  0.96056788702E+02  0.31313661181E+03  0.57330104887E+03  0.46999998093E+01 0. -1.
       -5    1    3    3    0  502  0.47050032765E+03 -0.96056788702E+02 -0.11129261108E+04  0.12121155403E+04  0.46999998093E+01 0.  1.
</event>
<event>
 5   0  0.5083831E-04  0.1596254E+04  0.7818609E-02  0.8822853E-01
        2   -1    0    0  501    0  0.00000000000E+00  0.00000000000E+00  0.45214099513E+03  0.45214099514E+03  0.25500000920E-02 0.  1.
       -2   -1    0    0    0  501  0.00000000000E+00  0.00000000000E+00 -0.14088667866E+04  0.14088667866E+04  0.25500000920E-02 0. -1.
    10030    2    1    2    0    0  0.00000000000E+00  0.00000000000E+00 -0.95672579143E+03  0.18610077817E+04  0.15962536526E+04 0.  0.
        4    1    3    3  502    0 -0.45806850483E+03 -0.39382195323E+03 -0.10864929340E+04  0.12431375606E+04  0.12699999809E+01 0. -1.
       -4    1    3    3    0  502  0.45806850483E+03  0.39382195323E+03  0.12976714259E+03  0.61787022112E+03  0.12699999809E+01 0.  1.
</event>
<event>
 5   0  0.2689675E-04  0.1605931E+04  0.7818609E-02  0.8816912E-01
        1   -1    0    0  501    0  0.00000000000E+00  0.00000000000E+00  0.13316656519E+04  0.13316656519E+04  0.50400001928E-02 0. -1.
       -1   -1    0    0    0  501  0.00000000000E+00  0.00000000000E+00 -0.48417092506E+03  0.48417092509E+03  0.50400001928E-02 0.  1.
    10030    2    1    2    0    0  0.00000000000E+00  0.00000000000E+00  0.84749472683E+03  0.18158365770E+04  0.16059312446E+04 0.  0.
        1    1    3    3  502    0 -0.26165615008E+02  0.51979568643E+03  0.11151274330E+04  0.12306020424E+04  0.50400001928E-02 0. -1.
       -1    1    3    3    0  502  0.26165615008E+02 -0.51979568643E+03 -0.26763270613E+03  0.58523453457E+03  0.50400001928E-02 0.  1.
</event>
<event>
 5   0  0.5315984E-04  0.1635001E+04  0.7818609E-02  0.8799329E-01
        2   -1    0    0  501    0  0.00000000000E+00  0.00000000000E+00  0.15475933757E+04  0.15475933757E+04  0.25500000920E-02 0. -1.
       -2   -1    0    0    0  501  0.00000000000E+00  0.00000000000E+00 -0.43183641959E+03  0.43183641960E+03  0.25500000920E-02 0.  1.
    10030    2    1    2    0    0  0.00000000000E+00  0.00000000000E+00  0.11157569561E+04  0.19794297953E+04  0.16350011405E+04 0.  0.
        2    1    3    3  502    0  0.56223296395E+03  0.30124759043E+03  0.11769165143E+04  0.13386517464E+04  0.25500000920E-02 0. -1.
       -2    1    3    3    0  502 -0.56223296395E+03 -0.30124759043E+03 -0.61159558118E+02  0.64077804897E+03  0.25500000920E-02 0.  1.
</event>
<event>
 5   0  0.5381164E-04  0.1609826E+04  0.7818609E-02  0.8814534E-01
       -2   -1    0    0    0  501  0.00000000000E+00  0.00000000000E+00  0.43674157969E+03  0.43674157970E+03  0.25500000920E-02 0.  1.
        2   -1    0    0  501    0  0.00000000000E+00  0.00000000000E+00 -0.14834512026E+04  0.14834512026E+04  0.25500000920E-02 0. -1.
    10030    2    1    2    0    0  0.00000000000E+00  0.00000000000E+00 -0.10467096229E+04  0.19201927823E+04  0.16098258560E+04 0.  0.
        5    1    3    3  502    0  0.53454349055E+03 -0.58591577982E+03 -0.35968222111E+03  0.87087739350E+03  0.46999998093E+01 0.  1.
       -5    1    3    3    0  502 -0.53454349055E+03  0.58591577982E+03 -0.68702740180E+03  0.10493153888E+04  0.46999998093E+01 0. -1.
</event>
<event>
 5   0  0.2796994E-04  0.1591233E+04  0.7818609E-02  0.8825952E-01
        1   -1    0    0  501    0  0.00000000000E+00  0.00000000000E+00  0.75647339915E+03  0.75647339916E+03  0.50400001928E-02 0.  1.
       -1   -1    0    0    0  501  0.00000000000E+00  0.00000000000E+00 -0.83678507406E+03  0.83678507408E+03  0.50400001928E-02 0. -1.
    10030    2    1    2    0    0  0.00000000000E+00  0.00000000000E+00 -0.80311674915E+02  0.15932584732E+04  0.15912330431E+04 0.  0.
        3    1    3    3  502    0  0.33112067984E+03  0.63783346468E+03 -0.38195995903E+03  0.81385862027E+03  0.10100000352E+00 0. -1.
       -3    1    3    3    0  502 -0.33112067984E+03 -0.63783346468E+03  0.30164828412E+03  0.77939985296E+03  0.10100000352E+00 0.  1.
</event>
<event>
 5   0  0.2730707E-04  0.1549764E+04  0.7818609E-02  0.8852019E-01
        1   -1    0    0  501    0  0.00000000000E+00  0.00000000000E+00  0.80510984905E+03  0.80510984906E+03  0.50400001928E-02 0. -1.
       -1   -1    0    0    0  501  0.00000000000E+00  0.00000000000E+00 -0.74578865148E+03  0.74578865150E+03  0.50400001928E-02 0.  1.
    10030    2    1    2    0    0  0.00000000000E+00  0.00000000000E+00  0.59321197563E+02  0.15508985006E+04  0.15497635802E+04 0.  0.
        5    1    3    3  502    0  0.25689707205E+03 -0.38138433173E+03 -0.59447039089E+03  0.75157650959E+03  0.46999998093E+01 0.  1.
       -5    1    3    3    0  502 -0.25689707205E+03  0.38138433173E+03  0.65379158845E+03  0.79932199097E+03  0.46999998093E+01 0. -1.
</event>
<event>
 5   0  0.5315984E-04  0.1583408E+04  0.7818609E-02  0.8830806E-01
        2   -1    0    0  501    0  0.00000000000E+00  0.00000000000E+00  0.16127102162E+04  0.16127102162E+04  0.25500000920E-02 0.  1.
       -2   -1    0    0    0  501  0.00000000000E+00  0.00000000000E+00 -0.38865963684E+03  0.38865963685E+03  0.25500000920E-02 0. -1.
    10030    2    1    2    0    0  0.00000000000E+00  0.00000000000E+00  0.12240505793E+04  0.20013698530E+04  0.15834081811E+04 0.  0.
        2    1    3    3  502    0 -0.64000900018E+03 -0.12230953246E+03  0.11804213498E+04  0.13483195856E+04  0.25500000920E-02 0.  1.
       -2    1    3    3    0  502  0.64000900018E+03  0.12230953246E+03  0.43629229562E+02  0.65305026738E+03  0.25500000920E-02 0. -1.
</event>
<event>
 5   0  0.2763895E-04  0.1602932E+04  0.7818609E-02  0.8818749E-01
        1   -1    0    0  501    0  0.00000000000E+00  0.00000000000E+00  0.14211653222E+04  0.14211653222E+04  0.50400001928E-02 0.  1.
       -1   -1    0    0    0  501  0.00000000000E+00  0.00000000000E+00 -0.45198641667E+03  0.45198641670E+03  0.50400001928E-02 0. -1.
    10030    2    1    2    0    0  0.00000000000E+00  0.00000000000E+00  0.96917890555E+03  0.18731517389E+04  0.16029315912E+04 0.  0.
        4    1    3    3  502    0  0.25894783620E+03 -0.34143526102E+03  0.12760492680E+04  0.13460814859E+04  0.12699999809E+01 0.  1.
       -4    1    3    3    0  502 -0.25894783620E+03  0.34143526102E+03 -0.30687036249E+03  0.52707025302E+03  0.12699999809E+01 0. -1.
</event>
<event>
 5   0  0.5264308E-04  0.1599518E+04  0.7818609E-02  0.8820844E-01
       -2   -1    0    0    0  501  0.00000000000E+00  0.00000000000E+00  0.10632420782E+04  0.10632420782E+04  0.25500000920E-02 0.  1.
        2   -1    0    0  501    0  0.00000000000E+00  0.00000000000E+00 -0.60157027451E+03  0.60157027452E+03  0.25500000920E-02 0. -1.
    10030    2    1    2    0    0  0.00000000000E+00  0.00000000000E+00  0.46167180367E+03  0.16648123527E+04  0.15995184636E+04 0.  0.
        3    1    3    3  502    0  0.62074392161E+03 -0.31969819019E+02  0.75463853629E+03  0.97766273131E+03  0.10100000352E+00 0.  1.
       -3    1    3    3    0  502 -0.62074392161E+03  0.31969819019E+02 -0.29296673262E+03  0.68714962139E+03  0.10100000352E+00 0. -1.
</event>
<event>
 5   0  0.5381164E-04  0.1599517E+04  0.7818609E-02  0.8820845E-01
       -2   -1    0    0    0  501  0.00000000000E+00  0.00000000000E+00  0.91099206317E+03  0.91099206317E+03  0.25500000920E-02 0. -1.
        2   -1    0    0  501    0  0.00000000000E+00  0.00000000000E+00 -0.70210689468E+03  0.70210689469E+03  0.25500000920E-02 0.  1.
    10030    2    1    2    0    0  0.00000000000E+00  0.00000000000E+00  0.20888516848E+03  0.16130989579E+04  0.15995171879E+04 0.  0.
        5    1    3    3  502    0  0.24351604208E+03  0.35763867061E+03  0.78275035338E+03  0.89438564791E+03  0.46999998093E+01 0. -1.
       -5    1    3    3    0  502 -0.24351604208E+03 -0.35763867061E+03 -0.57386518490E+03  0.71871330995E+03  0.46999998093E+01 0.  1.
</event>
<event>
 5   0  0.5131239E-04  0.1598667E+04  0.7818609E-02  0.8821367E-01
       -2   -1    0    0    0  501  0.00000000000E+00  0.00000000000E+00  0.49656834980E+03  0.49656834980E+03  0.25500000920E-02 0.  1.
        2   -1    0    0  501    0  0.00000000000E+00  0.00000000000E+00 -0.12866997439E+04  0.12866997439E+04  0.25500000920E-02 0. -1.
    10030    2    1    2    0    0  0.00000000000E+00  0.00000000000E+00 -0.79013139407E+03  0.17832680937E+04  0.15986674057E+04 0.  0.
        1    1    3    3  502    0  0.16327840081E+03  0.68775603449E+03  0.21210265570E+02  0.70719026756E+03  0.50400001928E-02 0.  1.
       -1    1    3    3    0  502 -0.16327840081E+03 -0.68775603449E+03 -0.81134165964E+03  0.10760778261E+04  0.50400001928E-02 0. -1.
</event>
<event>
 5   0  0.2763895E-04  0.1589237E+04  0.7818609E-02  0.8827188E-01
        1   -1    0    0  501    0  0.00000000000E+00  0.00000000000E+00  0.11433421663E+04  0.11433421663E+04  0.50400001928E-02 0. -1.
       -1   -1    0    0    0  501  0.00000000000E+00  0.00000000000E+00 -0.55225687180E+03  0.55225687183E+03  0.50400001928E-02 0.  1.
    10030    2    1    2    0    0  0.00000000000E+00  0.00000000000E+00  0.59108529450E+03  0.16955990381E+04  0.15892370096E+04 0.  0.
        4    1    3    3  502    0 -0.43804392662E+03 -0.30221220617E+03 -0.33403642269E+03  0.62832845215E+03  0.12699999809E+01 0.  1.
       -4    1    3    3    0  502  0.43804392662E+03  0.30221220617E+03  0.92512171719E+03  0.10672705860E+04  0.12699999809E+01 0. -1.
</event>
<event>
 5   0  0.5131239E-04  0.1598332E+04  0.7818609E-02  0.8821574E-01
        2   -1    0    0  501    0  0.00000000000E+00  0.00000000000E+00  0.84449576581E+03  0.84449576581E+03  0.25500000920E-02 0. -1.
       -2   -1    0    0    0  501  0.00000000000E+00  0.00000000000E+00 -0.75626909024E+03  0.75626909024E+03  0.25500000920E-02 0.  1.
    10030    2    1    2    0    0  0.00000000000E+00  0.00000000000E+00  0.88226675569E+02  0.16007648561E+04  0.15983316859E+04 0.  0.
        1    1    3    3  502    0 -0.28382903274E+03  0.33547996096E+03  0.71263253917E+03  0.83722808120E+03  0.50400001928E-02 0. -1.
       -1    1    3    3    0  502  0.28382903274E+03 -0.33547996096E+03 -0.62440586360E+03  0.76353677486E+03  0.50400001928E-02 0.  1.
</event>
<event>
 5   0  0.2689675E-04  0.1601821E+04  0.7818609E-02  0.8819430E-01
       -1   -1    0    0    0  501  0.00000000000E+00  0.00000000000E+00  0.28449574584E+03  0.28449574589E+03  0.50400001928E-02 0.  1.
        1   -1    0    0  501    0  0.00000000000E+00  0.00000000000E+00 -0.22547167636E+04  0.22547167636E+04  0.50400001928E-02 0. -1.
    10030    2    1    2    0    0  0.00000000000E+00  0.00000000000E+00 -0.19702210178E+04  0.25392125095E+04  0.16018206234E+04 0.  0.
        1    1    3    3  502    0 -0.79972156725E+02  0.46463598815E+03  0.41209859127E+02  0.47326567575E+03  0.50400001928E-02 0.  1.
       -1    1    3    3    0  502  0.79972156725E+02 -0.46463598815E+03 -0.20114308769E+04  0.20659468338E+04  0.50400001928E-02 0. -1.
</event>
<event>
 5   0  0.5083831E-04  0.1605183E+04  0.7818609E-02  0.8817370E-01
        2   -1    0    0  501    0  0.00000000000E+00  0.00000000000E+00  0.11018569534E+04  0.11018569534E+04  0.25500000920E-02 0. -1.
       -2   -1    0    0    0  501  0.00000000000E+00  0.00000000000E+00 -0.58460713493E+03  0.58460713493E+03  0.25500000920E-02 0.  1.
    10030    2    1    2    0    0  0.00000000000E+00  0.00000000000E+00  0.51724981851E+03  0.16864640884E+04  0.16051833997E+04 0.  0.
        4    1    3    3  502    0 -0.25793639697E+03  0.58479626907E+03  0.76862632458E+03  0.99965289023E+03  0.12699999809E+01 0. -1.
       -4    1    3    3    0  502  0.25793639697E+03 -0.58479626907E+03 -0.25137650607E+03  0.68681119815E+03  0.12699999809E+01 0.  1.
</event>
<event>
 5   0  0.2689675E-04  0.1597009E+04  0.7818609E-02  0.8822388E-01
        1   -1    0    0  501    0  0.00000000000E+00  0.00000000000E+00  0.21639422578E+04  0.21639422578E+04  0.50400001928E-02 0.  1.
       -1   -1    0    0    0  501  0.00000000000E+00  0.00000000000E+00 -0.29465165661E+03  0.29465165665E+03  0.50400001928E-02 0. -1.
    10030    2    1    2    0    0  0.00000000000E+00  0.00000000000E+00  0.18692906012E+04  0.24585939144E+04  0.15970086676E+04 0.  0.
        1    1    3    3  502    0  0.19086920696E+03  0.11413065038E+03 -0.24601356663E+03  0.33163162472E+03  0.50400001928E-02 0. -1.
       -1    1    3    3    0  502 -0.19086920696E+03 -0.11413065038E+03  0.21153041678E+04  0.21269622897E+04  0.50400001928E-02 0.  1.
</event>
<event>
 5   0  0.5381164E-04  0.1597666E+04  0.7818609E-02  0.8821983E-01
        2   -1    0    0  501    0  0.00000000000E+00  0.00000000000E+00  0.32185783431E+04  0.32185783431E+04  0.25500000920E-02 0.  1.
       -2   -1    0    0    0  501  0.00000000000E+00  0.00000000000E+00 -0.19826579939E+03  0.19826579941E+03  0.25500000920E-02 0. -1.
    10030    2    1    2    0    0  0.00000000000E+00  0.00000000000E+00  0.30203125437E+04  0.34168441425E+04  0.15976658075E+04 0.  0.
        5    1    3    3  502    0  0.25380097430E+03 -0.35528768480E+03  0.29407622890E+04  0.29730033979E+04  0.46999998093E+01 0.  1.
       -5    1    3    3    0  502 -0.25380097430E+03  0.35528768480E+03  0.79550254672E+02  0.44384074458E+03  0.46999998093E+01 0. -1.
</event>
<event>
 5   0  0.5381164E-04  0.1565671E+04  0.7818609E-02  0.8841919E-01
       -2   -1    0    0    0  501  0.00000000000E+00  0.00000000000E+00  0.43254799386E+03  0.43254799387E+03  0.25500000920E-02 0.  1.
        2   -1    0    0  501    0  0.00000000000E+00  0.00000000000E+00 -0.14167947450E+04  0.14167947450E+04  0.25500000920E-02 0. -1.
    10030    2    1    2    0    0  0.00000000000E+00  0.00000000000E+00 -0.98424675113E+03  0.18493427389E+04  0.15656713891E+04 0.  0.
        5    1    3    3  502    0 -0.12612645508E+03 -0.57509132629E+02 -0.14021659441E+04  0.14090090872E+04  0.46999998093E+01 0. -1.
       -5    1    3    3    0  502  0.12612645508E+03  0.57509132629E+02  0.41791919293E+03  0.44033365170E+03  0.46999998093E+01 0.  1.
</event>
<event>
 5   0  0.5315984E-04  0.1607466E+04  0.7818609E-02  0.8815974E-01
        2   -1    0    0  501    0  0.00000000000E+00  0.00000000000E+00  0.82829284320E+03  0.82829284321E+03  0.25500000920E-02 0.  1.
       -2   -1    0    0    0  501  0.00000000000E+00  0.00000000000E+00 -0.77990142667E+03  0.77990142667E+03  0.25500000920E-02 0. -1.
    10030    2    1    2    0    0  0.00000000000E+00  0.00000000000E+00  0.48391416536E+02  0.16081942699E+04  0.16074660433E+04 0.  0.
        2    1    3    3  502    0  0.52988618882E+03  0.51661555911E+02  0.62658016604E+03  0.82222320202E+03  0.25500000920E-02 0.  1.
       -2    1    3    3    0  502 -0.52988618882E+03 -0.51661555911E+02 -0.57818874950E+03  0.78597106786E+03  0.25500000920E-02 0. -1.
</event>
<event>
 5   0  0.5315984E-04  0.1648284E+04  0.7818609E-02  0.8791422E-01
        2   -1    0    0  501    0  0.00000000000E+00  0.00000000000E+00  0.14036878330E+04  0.14036878330E+04  0.25500000920E-02 0. -1.
       -2   -1    0    0    0  501  0.00000000000E+00  0.00000000000E+00 -0.48387554354E+03  0.48387554355E+03  0.25500000920E-02 0.  1.
    10030    2    1    2    0    0  0.00000000000E+00  0.00000000000E+00  0.91981228945E+03  0.18875633765E+04  0.16482842148E+04 0.  0.
        2    1    3    3  502    0 -0.11712580621E+03 -0.34800517539E+03  0.13048389678E+04  0.13555186419E+04  0.25500000920E-02 0. -1.
       -2    1    3    3    0  502  0.11712580621E+03  0.34800517539E+03 -0.38502667839E+03  0.53204473464E+03  0.25500000920E-02 0.  1.
</event>
<event>
 5   0  0.5131239E-04  0.1595691E+04  0.7818609E-02  0.8823200E-01
        2   -1    0    0  501    0  0.00000000000E+00  0.00000000000E+00  0.21791771843E+04  0.21791771843E+04  0.25500000920E-02 0. -1.
       -2   -1    0    0    0  501  0.00000000000E+00  0.00000000000E+00 -0.29210895416E+03  0.29210895417E+03  0.25500000920E-02 0.  1.
    10030    2    1    2    0    0  0.00000000000E+00  0.00000000000E+00  0.18870682301E+04  0.24712861385E+04  0.15956906570E+04 0.  0.
        1    1    3    3  502    0 -0.50755446482E+03 -0.15375729021E+03  0.20379212186E+02  0.53072417635E+03  0.50400001928E-02 0.  1.
       -1    1    3    3    0  502  0.50755446482E+03  0.15375729021E+03  0.18666890179E+04  0.19405619621E+04  0.50400001928E-02 0. -1.
</event>
<event>
 5   0  0.2730707E-04  0.1593832E+04  0.7818609E-02  0.8824346E-01
       -1   -1    0    0    0  501  0.00000000000E+00  0.00000000000E+00  0.62369338912E+03  0.62369338914E+03  0.50400001928E-02 0.  1.
        1   -1    0    0  501    0  0.00000000000E+00  0.00000000000E+00 -0.10182494852E+04  0.10182494852E+04  0.50400001928E-02 0. -1.
    10030    2    1    2    0    0  0.00000000000E+00  0.00000000000E+00 -0.39455609604E+03  0.16419428743E+04  0.15938324534E+04 0.  0.
        5    1    3    3  502    0  0.10588998681E+03  0.29610390116E+03  0.55705627303E+03  0.63970617545E+03  0.46999998093E+01 0.  1.
       -5    1    3    3    0  502 -0.10588998681E+03 -0.29610390116E+03 -0.95161236907E+03  0.10022366989E+04  0.46999998093E+01 0. -1.
</event>
<event>
 5   0  0.2796994E-04  0.1606504E+04  0.7818609E-02  0.8816562E-01
       -1   -1    0    0    0  501  0.00000000000E+00  0.00000000000E+00  0.10576624942E+04  0.10576624943E+04  0.50400001928E-02 0. -1.
        1   -1    0    0  501    0  0.00000000000E+00  0.00000000000E+00 -0.61003741462E+03  0.61003741464E+03  0.50400001928E-02 0.  1.
    10030    2    1    2    0    0  0.00000000000E+00  0.00000000000E+00  0.44762507963E+03  0.16676999089E+04  0.16065038980E+04 0.  0.
        3    1    3    3  502    0 -0.49474799223E+03 -0.16994661344E+03  0.85658622556E+03  0.10036918846E+04  0.10100000352E+00 0. -1.
       -3    1    3    3    0  502  0.49474799223E+03  0.16994661344E+03 -0.40896114593E+03  0.66400802429E+03  0.10100000352E+00 0.  1.
</event>
<event>
 5   0  0.5264308E-04  0.1595239E+04  0.7818609E-02  0.8823478E-01
        2   -1    0    0  501    0  0.00000000000E+00  0.00000000000E+00  0.11664598173E+04  0.11664598173E+04  0.25500000920E-02 0. -1.
       -2   -1    0    0    0  501  0.00000000000E+00  0.00000000000E+00 -0.54540823134E+03  0.54540823134E+03  0.25500000920E-02 0.  1.
    10030    2    1    2    0    0  0.00000000000E+00  0.00000000000E+00  0.62105158598E+03  0.17118680487E+04  0.15952388986E+04 0.  0.
        3    1    3    3  502    0 -0.60119808126E+03 -0.33306228771E+03 -0.12382188102E+03  0.69835627643E+03  0.10100000352E+00 0.  1.
       -3    1    3    3    0  502  0.60119808126E+03  0.33306228771E+03  0.74487346700E+03  0.10135117722E+04  0.10100000352E+00 0. -1.
</event>
<event>
 5   0  0.2689675E-04  0.1596989E+04  0.7818609E-02  0.8822400E-01
       -1   -1    0    0    0  501  0.00000000000E+00  0.00000000000E+00  0.72362464763E+03  0.72362464765E+03  0.50400001928E-02 0. -1.
        1   -1    0    0  501    0  0.00000000000E+00  0.00000000000E+00 -0.88111041089E+03  0.88111041091E+03  0.50400001928E-02 0.  1.
    10030    2    1    2    0    0  0.00000000000E+00  0.00000000000E+00 -0.15748576326E+03  0.16047350586E+04  0.15969886795E+04 0.  0.
        1    1    3    3  502    0  0.41661461595E+03 -0.63062460973E+03  0.18006823846E+03  0.77696827937E+03  0.50400001928E-02 0. -1.
       -1    1    3    3    0  502 -0.41661461595E+03  0.63062460973E+03 -0.33755400172E+03  0.82776677919E+03  0.50400001928E-02 0.  1.
</event>
<event>
 5   0  0.5315984E-04  0.1522408E+04  0.7818609E-02  0.8869687E-01
        2   -1    0    0  501    0  0.00000000000E+00  0.00000000000E+00  0.61624551592E+03  0.61624551592E+03  0.25500000920E-02 0. -1.
       -2   -1    0    0    0  501  0.00000000000E+00  0.00000000000E+00 -0.94026086090E+03  0.94026086090E+03  0.25500000920E-02 0.  1.
    10030    2    1    2    0    0  0.00000000000E+00  0.00000000000E+00 -0.32401534498E+03  0.15565063768E+04  0.15224080128E+04 0.  0.
        2    1    3    3  502    0 -0.63900277669E+03  0.14944683239E+03  0.23234189674E+03  0.69616209414E+03  0.25500000920E-02 0.  1.
       -2    1    3    3    0  502  0.63900277669E+03 -0.14944683239E+03 -0.55635724172E+03  0.86034428268E+03  0.25500000920E-02 0. -1.
</event>
<event>
 5   0  0.2763895E-04  0.1488803E+04  0.7818609E-02  0.8891933E-01
       -1   -1    0    0    0  501  0.00000000000E+00  0.00000000000E+00  0.53561689646E+03  0.53561689649E+03  0.50400001928E-02 0. -1.
        1   -1    0    0  501    0  0.00000000000E+00  0.00000000000E+00 -0.10345706292E+04  0.10345706292E+04  0.50400001928E-02 0.  1.
    10030    2    1    2    0    0  0.00000000000E+00  0.00000000000E+00 -0.49895373272E+03  0.15701875257E+04  0.14888028877E+04 0.  0.
        4    1    3    3  502    0  0.51522468410E+03 -0.19518694245E+03  0.27846406980E+03  0.61733157110E+03  0.12699999809E+01 0. -1.
       -4    1    3    3    0  502 -0.51522468410E+03  0.19518694245E+03 -0.77741780252E+03  0.95285595458E+03  0.12699999809E+01 0.  1.
</event>
<event>
 5   0  0.2689675E-04  0.1601797E+04  0.7818609E-02  0.8819445E-01
       -1   -1    0    0    0  501  0.00000000000E+00  0.00000000000E+00  0.48780652384E+03  0.48780652387E+03  0.50400001928E-02 0.  1.
        1   -1    0    0  501    0  0.00000000000E+00  0.00000000000E+00 -0.13149449746E+04  0.13149449746E+04  0.50400001928E-02 0. -1.
    10030    2    1    2    0    0  0.00000000000E+00  0.00000000000E+00 -0.82713845071E+03  0.18027514984E+04  0.16017974118E+04 0.  0.
        1    1    3    3  502    0  0.58522655829E+03  0.38347931651E+03 -0.85219692231E+03  0.11026269111E+04  0.50400001928E-02 0. -1.
       -1    1    3    3    0  502 -0.58522655829E+03 -0.38347931651E+03  0.25058471598E+02  0.70012458731E+03  0.50400001928E-02 0.  1.
</event>
<event>
 5   0  0.2649086E-04  0.1587832E+04  0.7818609E-02  0.8828058E-01
       -1   -1    0    0    0  501  0.00000000000E+00  0.00000000000E+00  0.82618318585E+03  0.82618318587E+03  0.50400001928E-02 0. -1.
        1   -1    0    0  501    0  0.00000000000E+00  0.00000000000E+00 -0.76290931826E+03  0.76290931828E+03  0.50400001928E-02 0.  1.
    10030    2    1    2    0    0  0.00000000000E+00  0.00000000000E+00  0.63273867592E+02  0.15890925041E+04  0.15878322973E+04 0.  0.
        2    1    3    3  502    0 -0.89092152156E+02  0.44551349826E+02  0.81990450019E+03  0.82593318360E+03  0.25500000920E-02 0. -1.
       -2    1    3    3    0  502  0.89092152156E+02 -0.44551349826E+02 -0.75663063259E+03  0.76315932054E+03  0.25500000920E-02 0.  1.
</event>
<event>
 5   0  0.2730707E-04  0.1592978E+04  0.7818609E-02  0.8824873E-01
        1   -1    0    0  501    0  0.00000000000E+00  0.00000000000E+00  0.11766680888E+04  0.11766680889E+04  0.50400001928E-02 0.  1.
       -1   -1    0    0    0  501  0.00000000000E+00  0.00000000000E+00 -0.53914530280E+03  0.53914530282E+03  0.50400001928E-02 0. -1.
    10030    2    1    2    0    0  0.00000000000E+00  0.00000000000E+00  0.63752278604E+03  0.17158133917E+04  0.15929784344E+04 0.  0.
        5    1    3    3  502    0 -0.47435005258E+03  0.62410548437E+03  0.16697918808E+03  0.80151092772E+03  0.46999998093E+01 0. -1.
       -5    1    3    3    0  502  0.47435005258E+03 -0.62410548437E+03  0.47054359796E+03  0.91430246395E+03  0.46999998093E+01 0.  1.
</event>
<event>
 5   0  0.5083831E-04  0.1606341E+04  0.7818609E-02  0.8816662E-01
        2   -1    0    0  501    0  0.00000000000E+00  0.00000000000E+00  0.19363917594E+04  0.19363917594E+04  0.25500000920E-02 0. -1.
       -2   -1    0    0    0  501  0.00000000000E+00  0.00000000000E+00 -0.33313656538E+03  0.33313656539E+03  0.25500000920E-02 0.  1.
    10030    2    1    2    0    0  0.00000000000E+00  0.00000000000E+00  0.16032551940E+04  0.22695283248E+04  0.16063410596E+04 0.  0.
        4    1    3    3  502    0  0.58029070746E+03  0.22005329045E+03  0.15219354338E+04  0.16436087835E+04  0.12699999809E+01 0. -1.
       -4    1    3    3    0  502 -0.58029070746E+03 -0.22005329045E+03  0.81319760218E+02  0.62591954124E+03  0.12699999809E+01 0.  1.
</event>
<event>
 5   0  0.5083831E-04  0.1624300E+04  0.7818609E-02  0.8805757E-01
        2   -1    0    0  501    0  0.00000000000E+00  0.00000000000E+00  0.86000967446E+03  0.86000967447E+03  0.25500000920E-02 0.  1.
       -2   -1    0    0    0  501  0.00000000000E+00  0.00000000000E+00 -0.76695388273E+03  0.76695388273E+03  0.25500000920E-02 0. -1.
    10030    2    1    2    0    0  0.00000000000E+00  0.00000000000E+00  0.93055791736E+02  0.16269635572E+04  0.16243001681E+04 0.  0.
        4    1    3    3  502    0 -0.31749096098E+03  0.60821915836E+03 -0.38875929207E+03  0.78858509685E+03  0.12699999809E+01 0. -1.
       -4    1    3    3    0  502  0.31749096098E+03 -0.60821915836E+03  0.48181508380E+03  0.83837846035E+03  0.12699999809E+01 0.  1.
</event>
<event>
 5   0  0.2649086E-04  0.1596131E+04  0.7818609E-02  0.8822929E-01
       -1   -1    0    0    0  501  0.00000000000E+00  0.00000000000E+00  0.72619922997E+03  0.72619922999E+03  0.50400001928E-02 0. -1.
        1   -1    0    0  501    0  0.00000000000E+00  0.00000000000E+00 -0.87704334915E+03  0.87704334917E+03  0.50400001928E-02 0.  1.
    10030    2    1    2    0    0  0.00000000000E+00  0.00000000000E+00 -0.15084411918E+03  0.16032425792E+04  0.15961305771E+04 0.  0.
        2    1    3    3  502    0 -0.33685008055E+03  0.61096753571E+03 -0.46465210565E+03  0.83824273677E+03  0.25500000920E-02 0.  1.
       -2    1    3    3    0  502  0.33685008055E+03 -0.61096753571E+03  0.31380798647E+03  0.76499984238E+03  0.25500000920E-02 0. -1.
</event>
<event>
 5   0  0.5083831E-04  0.1572431E+04  0.7818609E-02  0.8837666E-01
       -2   -1    0    0    0  501  0.00000000000E+00  0.00000000000E+00  0.25714869748E+03  0.25714869749E+03  0.25500000920E-02 0.  1.
        2   -1    0    0  501    0  0.00000000000E+00  0.00000000000E+00 -0.24038017256E+04  0.24038017256E+04  0.25500000920E-02 0. -1.
    10030    2    1    2    0    0  0.00000000000E+00  0.00000000000E+00 -0.21466530282E+04  0.26609504231E+04  0.15724305807E+04 0.  0.
        4    1    3    3  502    0 -0.58924532180E+03  0.24274958927E+03 -0.18524899775E+04  0.19590452119E+04  0.12699999809E+01 0. -1.
       -4    1    3    3    0  502  0.58924532180E+03 -0.24274958927E+03 -0.29416305062E+03  0.70190521126E+03  0.12699999809E+01 0.  1.
</event>
<event>
 5   0  0.5131239E-04  0.1594551E+04  0.7818609E-02  0.8823903E-01
       -2   -1    0    0    0  501  0.00000000000E+00  0.00000000000E+00  0.37723278517E+03  0.37723278517E+03  0.25500000920E-02 0. -1.
        2   -1    0    0  501    0  0.00000000000E+00  0.00000000000E+00 -0.16850286779E+04  0.16850286779E+04  0.25500000920E-02 0.  1.
    10030    2    1    2    0    0  0.00000000000E+00  0.00000000000E+00 -0.13077958927E+04  0.20622614631E+04  0.15945507972E+04 0.  0.
        1    1    3    3  502    0 -0.73462634494E+03 -0.30662975208E+03 -0.59678085761E+03  0.99490957558E+03  0.50400001928E-02 0.  1.
       -1    1    3    3    0  502  0.73462634494E+03  0.30662975208E+03 -0.71101503511E+03  0.10673518875E+04  0.50400001928E-02 0. -1.
</event>
<event>
 5   0  0.5083831E-04  0.1587236E+04  0.7818609E-02  0.8828428E-01
        2   -1    0    0  501    0  0.00000000000E+00  0.00000000000E+00  0.75621655248E+03  0.75621655249E+03  0.25500000920E-02 0. -1.
       -2   -1    0    0    0  501  0.00000000000E+00  0.00000000000E+00 -0.83286885067E+03  0.83286885068E+03  0.25500000920E-02 0.  1.
    10030    2    1    2    0    0  0.00000000000E+00  0.00000000000E+00 -0.76652298191E+02  0.15890854032E+04  0.15872355981E+04 0.  0.
        4    1    3    3  502    0 -0.75193399881E+02  0.65846034615E+03  0.39876428841E+03  0.77345888413E+03  0.12699999809E+01 0. -1.
       -4    1    3    3    0  502  0.75193399881E+02 -0.65846034615E+03 -0.47541658660E+03  0.81562651903E+03  0.12699999809E+01 0.  1.
</event>
<event>
 5   0  0.2730707E-04  0.1479492E+04  0.7818609E-02  0.8898206E-01
        1   -1    0    0  501    0  0.00000000000E+00  0.00000000000E+00  0.96245208063E+03  0.96245208064E+03  0.50400001928E-02 0. -1.
       -1   -1    0    0    0  501  0.00000000000E+00  0.00000000000E+00 -0.56857301093E+03  0.56857301095E+03  0.50400001928E-02 0.  1.
    10030    2    1    2    0    0  0.00000000000E+00  0.00000000000E+00  0.39387906970E+03  0.15310250916E+04  0.14794921796E+04 0.  0.
        5    1    3    3  502    0 -0.26181635739E+02 -0.49347444524E+03 -0.37268766687E+03  0.61896744114E+03  0.46999998093E+01 0.  1.
       -5    1    3    3    0  502  0.26181635739E+02  0.49347444524E+03  0.76656673657E+03  0.91205765046E+03  0.46999998093E+01 0. -1.
</event>
<event>
 5   0  0.5381164E-04  0.1548296E+04  0.7818609E-02  0.8852957E-01
        2   -1    0    0  501    0  0.00000000000E+00  0.00000000000E+00  0.11174699831E+04  0.11174699832E+04  0.25500000920E-02 0. -1.
       -2   -1    0    0    0  501  0.00000000000E+00  0.00000000000E+00 -0.53630540656E+03  0.53630540657E+03  0.25500000920E-02 0.  1.
    10030    2    1    2    0    0  0.00000000000E+00  0.00000000000E+00  0.58116457659E+03  0.16537753897E+04  0.15482960875E+04 0.  0.
        5    1    3    3  502    0 -0.99921049949E+02  0.10532126391E+03  0.11027840463E+04  0.11123090971E+04  0.46999998093E+01 0. -1.
       -5    1    3    3    0  502  0.99921049949E+02 -0.10532126391E+03 -0.52161946969E+03  0.54146629259E+03  0.46999998093E+01 0.  1.
</event>
<event>
 5   0  0.2730707E-04  0.1590238E+04  0.7818609E-02  0.8826568E-01
       -1   -1    0    0    0  501  0.00000000000E+00  0.00000000000E+00  0.24208135927E+03  0.24208135933E+03  0.50400001928E-02 0.  1.
        1   -1    0    0  501    0  0.00000000000E+00  0.00000000000E+00 -0.26115761400E+04  0.26115761400E+04  0.50400001928E-02 0. -1.
    10030    2    1    2    0    0  0.00000000000E+00  0.00000000000E+00 -0.23694947807E+04  0.28536574993E+04  0.15902375947E+04 0.  0.
        5    1    3    3  502    0 -0.33107988525E+03 -0.41750942966E+03 -0.22437426023E+04  0.23061506824E+04  0.46999998093E+01 0. -1.
       -5    1    3    3    0  502  0.33107988525E+03  0.41750942966E+03 -0.12575217842E+03  0.54750681699E+03  0.46999998093E+01 0.  1.
</event>
<event>
 5   0  0.2796994E-04  0.1607193E+04  0.7818609E-02  0.8816141E-01
        1   -1    0    0  501    0  0.00000000000E+00  0.00000000000E+00  0.20437952546E+04  0.20437952546E+04  0.50400001928E-02 0. -1.
       -1   -1    0    0    0  501  0.00000000000E+00  0.00000000000E+00 -0.31596461346E+03  0.31596461350E+03  0.50400001928E-02 0.  1.
    10030    2    1    2    0    0  0.00000000000E+00  0.00000000000E+00  0.17278306411E+04  0.23597598681E+04  0.16071925556E+04 0.  0.
        3    1    3    3  502    0 -0.62956103132E+03  0.19097150761E+03  0.18636980555E+03  0.68377695449E+03  0.10100000352E+00 0.  1.
       -3    1    3    3    0  502  0.62956103132E+03 -0.19097150761E+03  0.15414608356E+04  0.16759829136E+04  0.10100000352E+00 0. -1.
</event>
<event>
 5   0  0.5264308E-04  0.1597336E+04  0.7818609E-02  0.8822186E-01
        2   -1    0    0  501    0  0.00000000000E+00  0.00000000000E+00  0.10587904325E+04  0.10587904325E+04  0.25500000920E-02 0. -1.
       -2   -1    0    0    0  501  0.00000000000E+00  0.00000000000E+00 -0.60245238990E+03  0.60245238990E+03  0.25500000920E-02 0.  1.
    10030    2    1    2    0    0  0.00000000000E+00  0.00000000000E+00  0.45633804261E+03  0.16612428224E+04  0.15973363158E+04 0.  0.
        3    1    3    3  502    0 -0.11945966542E+03  0.59700699791E+03 -0.30940842544E+03  0.68295062131E+03  0.10100000352E+00 0.  1.
       -3    1    3    3    0  502  0.11945966542E+03 -0.59700699791E+03  0.76574646805E+03  0.97829220111E+03  0.10100000352E+00 0. -1.
</event>
<event>
 5   0  0.2689675E-04  0.1609329E+04  0.7818609E-02  0.8814837E-01
        1   -1    0    0  501    0  0.00000000000E+00  0.00000000000E+00  0.76113272612E+03  0.76113272614E+03  0.50400001928E-02 0.  1.
       -1   -1    0    0    0  501  0.00000000000E+00  0.00000000000E+00 -0.85068621338E+03  0.85068621339E+03  0.50400001928E-02 0. -1.
    10030    2    1    2    0    0  0.00000000000E+00  0.00000000000E+00 -0.89553487259E+02  0.16118189395E+04  0.16093291978E+04 0.  0.
        1    1    3    3  502    0 -0.74001346711E+03 -0.30584976653E+03  0.34851636745E+02  0.80148527610E+03  0.50400001928E-02 0.  1.
       -1    1    3    3    0  502  0.74001346711E+03  0.30584976653E+03 -0.12440512400E+03  0.81033366343E+03  0.50400001928E-02 0. -1.
</event>
<event>
 5   0  0.2763895E-04  0.1596481E+04  0.7818609E-02  0.8822713E-01
       -1   -1    0    0    0  501  0.00000000000E+00  0.00000000000E+00  0.64649962397E+03  0.64649962399E+03  0.50400001928E-02 0.  1.
        1   -1    0    0  501    0  0.00000000000E+00  0.00000000000E+00 -0.98559710091E+03  0.98559710093E+03  0.50400001928E-02 0. -1.
    10030    2    1    2    0    0  0.00000000000E+00  0.00000000000E+00 -0.33909747694E+03  0.16320967249E+04  0.15964813249E+04 0.  0.
        4    1    3    3  502    0 -0.60757419897E+03  0.42481763967E+03  0.13297537252E+03  0.75319353211E+03  0.12699999809E+01 0.  1.
       -4    1    3    3    0  502  0.60757419897E+03 -0.42481763967E+03 -0.47207284946E+03  0.87890319280E+03  0.12699999809E+01 0. -1.
</event>
<event>
 5   0  0.2730707E-04  0.1597817E+04  0.7818609E-02  0.8821890E-01
       -1   -1    0    0    0  501  0.00000000000E+00  0.00000000000E+00  0.10278950668E+04  0.10278950668E+04  0.50400001928E-02 0. -1.
        1   -1    0    0  501    0  0.00000000000E+00  0.00000000000E+00 -0.62093355711E+03  0.62093355713E+03  0.50400001928E-02 0.  1.
    10030    2    1    2    0    0  0.00000000000E+00  0.00000000000E+00  0.40696150968E+03  0.16488286239E+04  0.15978166856E+04 0.  0.
        5    1    3    3  502    0 -0.56898563819E+03 -0.24949925261E+03  0.72174798754E+03  0.95233228499E+03  0.46999998093E+01 0. -1.
       -5    1    3    3    0  502  0.56898563819E+03  0.24949925261E+03 -0.31478647786E+03  0.69649633894E+03  0.46999998093E+01 0.  1.
</event>
<event>
 5   0  0.2689675E-04  0.1576822E+04  0.7818609E-02  0.8834915E-01
       -1   -1    0    0    0  501  0.00000000000E+00  0.00000000000E+00  0.65333889057E+03  0.65333889059E+03  0.50400001928E-02 0.  1.
        1   -1    0    0  501    0  0.00000000000E+00  0.00000000000E+00 -0.95140802939E+03  0.95140802940E+03  0.50400001928E-02 0. -1.
    10030    2    1    2    0    0  0.00000000000E+00  0.00000000000E+00 -0.29806913882E+03  0.16047469200E+04  0.15768219512E+04 0.  0.
        1    1    3    3  502    0 -0.23747634661E+03 -0.34885823522E+03  0.52871328486E+03  0.67648711820E+03  0.50400001928E-02 0.  1.
       -1    1    3    3    0  502  0.23747634661E+03  0.34885823522E+03 -0.82678242368E+03  0.92825980178E+03  0.50400001928E-02 0. -1.
</event>
<event>
 5   0  0.2689675E-04  0.1599763E+04  0.7818609E-02  0.8820694E-01
        1   -1    0    0  501    0  0.00000000000E+00  0.00000000000E+00  0.11731729286E+04  0.11731729286E+04  0.50400001928E-02 0.  1.
       -1   -1    0    0    0  501  0.00000000000E+00  0.00000000000E+00 -0.54536725097E+03  0.54536725100E+03  0.50400001928E-02 0. -1.
    10030    2    1    2    0    0  0.00000000000E+00  0.00000000000E+00  0.62780567759E+03  0.17185401796E+04  0.15997626011E+04 0.  0.
        1    1    3    3  502    0 -0.67020788674E+03  0.29534802164E+02  0.78185940660E+03  0.10302208733E+04  0.50400001928E-02 0.  1.
       -1    1    3    3    0  502  0.67020788674E+03 -0.29534802164E+02 -0.15405372901E+03  0.68831930631E+03  0.50400001928E-02 0. -1.
</event>
<event>
 5   0  0.5083831E-04  0.1583560E+04  0.7818609E-02  0.8830712E-01
       -2   -1    0    0    0  501  0.00000000000E+00  0.00000000000E+00  0.34798665562E+03  0.34798665563E+03  0.25500000920E-02 0. -1.
        2   -1    0    0  501    0  0.00000000000E+00  0.00000000000E+00 -0.18015508804E+04  0.18015508804E+04  0.25500000920E-02 0.  1.
    10030    2    1    2    0    0  0.00000000000E+00  0.00000000000E+00 -0.14535642247E+04  0.21495375360E+04  0.15835601230E+04 0.  0.
        4    1    3    3  502    0 -0.35751252549E+03 -0.35315545447E+03 -0.15573341311E+04  0.16364061812E+04  0.12699999809E+01 0.  1.
       -4    1    3    3    0  502  0.35751252549E+03  0.35315545447E+03  0.10376990640E+03  0.51313135480E+03  0.12699999809E+01 0. -1.
</event>
<event>
 5   0  0.2763895E-04  0.1606547E+04  0.7818609E-02  0.8816536E-01
        1   -1    0    0  501    0  0.00000000000E+00  0.00000000000E+00  0.11888915307E+04  0.11888915307E+04  0.50400001928E-02 0.  1.
       -1   -1    0    0    0  501  0.00000000000E+00  0.00000000000E+00 -0.54273133434E+03  0.54273133436E+03  0.50400001928E-02 0. -1.
    10030    2    1    2    0    0  0.00000000000E+00  0.00000000000E+00  0.64616019637E+03  0.17316228651E+04  0.16065474619E+04 0.  0.
        4    1    3    3  502    0  0.72293883620E+03 -0.32724464823E+03  0.45734731135E+03  0.91591364046E+03  0.12699999809E+01 0.  1.
       -4    1    3    3    0  502 -0.72293883620E+03  0.32724464823E+03  0.18881288502E+03  0.81570922462E+03  0.12699999809E+01 0. -1.
</event>
<event>
 5   0  0.2689675E-04  0.1619857E+04  0.7818609E-02  0.8808441E-01
        1   -1    0    0  501    0  0.00000000000E+00  0.00000000000E+00  0.10166543785E+04  0.10166543785E+04  0.50400001928E-02 0. -1.
       -1   -1    0    0    0  501  0.00000000000E+00  0.00000000000E+00 -0.64523777088E+03  0.64523777090E+03  0.50400001928E-02 0.  1.
    10030    2    1    2    0    0  0.00000000000E+00  0.00000000000E+00  0.37141660758E+03  0.16618921494E+04  0.16198565430E+04 0.  0.
        1    1    3    3  502    0  0.58383431096E+03 -0.30970605471E+03 -0.29463305936E+03  0.72359448773E+03  0.50400001928E-02 0. -1.
       -1    1    3    3    0  502 -0.58383431096E+03  0.30970605471E+03  0.66604966694E+03  0.93829766164E+03  0.50400001928E-02 0.  1.
</event>
<event>
 5   0  0.2796994E-04  0.1592971E+04  0.7818609E-02  0.8824878E-01
       -1   -1    0    0    0  501  0.00000000000E+00  0.00000000000E+00  0.48453351652E+03  0.48453351655E+03  0.50400001928E-02 0. -1.
        1   -1    0    0  501    0  0.00000000000E+00  0.00000000000E+00 -0.13092776327E+04  0.13092776327E+04  0.50400001928E-02 0.  1.
    10030    2    1    2    0    0  0.00000000000E+00  0.00000000000E+00 -0.82474411614E+03  0.17938111492E+04  0.15929706783E+04 0.  0.
        3    1    3    3  502    0 -0.24480320676E+03 -0.30172512833E+03  0.37057472192E+03  0.53692857796E+03  0.10100000352E+00 0. -1.
       -3    1    3    3    0  502  0.24480320676E+03  0.30172512833E+03 -0.11953188381E+04  0.12568825713E+04  0.10100000352E+00 0.  1.
</event>
<event>
 5   0  0.2796994E-04  0.1563994E+04  0.7818609E-02  0.8842978E-01
       -1   -1    0    0    0  501  0.00000000000E+00  0.00000000000E+00  0.10431487750E+04  0.10431487750E+04  0.50400001928E-02 0.  1.
        1   -1    0    0  501    0  0.00000000000E+00  0.00000000000E+00 -0.58622438316E+03  0.58622438318E+03  0.50400001928E-02 0. -1.
    10030    2    1    2    0    0  0.00000000000E+00  0.00000000000E+00  0.45692439183E+03  0.16293731582E+04  0.15639939222E+04 0.  0.
        3    1    3    3  502    0 -0.27556028147E+03  0.20594083927E+03 -0.50315793039E+03  0.60951867168E+03  0.10100000352E+00 0. -1.
       -3    1    3    3    0  502  0.27556028147E+03 -0.20594083927E+03  0.96008232222E+03  0.10198544865E+04  0.10100000352E+00 0.  1.
</event>
<event>
 5   0  0.5083831E-04  0.1628450E+04  0.7818609E-02  0.8803258E-01
        2   -1    0    0  501    0  0.00000000000E+00  0.00000000000E+00  0.84066895569E+03  0.84066895569E+03  0.25500000920E-02 0. -1.
       -2   -1    0    0    0  501  0.00000000000E+00  0.00000000000E+00 -0.78861306055E+03  0.78861306055E+03  0.25500000920E-02 0.  1.
    10030    2    1    2    0    0  0.00000000000E+00  0.00000000000E+00  0.52055895138E+02  0.16292820162E+04  0.16284502056E+04 0.  0.
        4    1    3    3  502    0 -0.20306486913E+02  0.50220407924E+03  0.66693271715E+03  0.83511804718E+03  0.12699999809E+01 0. -1.
       -4    1    3    3    0  502  0.20306486913E+02 -0.50220407924E+03 -0.61487682201E+03  0.79416396907E+03  0.12699999809E+01 0.  1.
</event>
<event>
 5   0  0.2649086E-04  0.1585884E+04  0.7818609E-02  0.8829267E-01
        1   -1    0    0  501    0  0.00000000000E+00  0.00000000000E+00  0.64167734825E+03  0.64167734827E+03  0.50400001928E-02 0. -1.
       -1   -1    0    0    0  501  0.00000000000E+00  0.00000000000E+00 -0.97986534691E+03  0.97986534692E+03  0.50400001928E-02 0.  1.
    10030    2    1    2    0    0  0.00000000000E+00  0.00000000000E+00 -0.33818799865E+03  0.16215426952E+04  0.15858844819E+04 0.  0.
        2    1    3    3  502    0 -0.22074662683E+03 -0.75991040071E+03 -0.11731438724E+03  0.79997222190E+03  0.25500000920E-02 0. -1.
       -2    1    3    3    0  502  0.22074662683E+03  0.75991040071E+03 -0.22087361141E+03  0.82157047329E+03  0.25500000920E-02 0.  1.
</event>
<event>
 5   0  0.2763895E-04  0.1536551E+04  0.7818609E-02  0.8860504E-01
        1   -1    0    0  501    0  0.00000000000E+00  0.00000000000E+00  0.26021838329E+04  0.26021838329E+04  0.50400001928E-02 0. -1.
       -1   -1    0    0    0  501  0.00000000000E+00  0.00000000000E+00 -0.22682778487E+03  0.22682778493E+03  0.50400001928E-02 0.  1.
    10030    2    1    2    0    0  0.00000000000E+00  0.00000000000E+00  0.23753560480E+04  0.28290116178E+04  0.15365514566E+04 0.  0.
        4    1    3    3  502    0 -0.13013834099E+02  0.39664622624E+02  0.26000922663E+04  0.26004276664E+04  0.12699999809E+01 0. -1.
       -4    1    3    3    0  502  0.13013834099E+02 -0.39664622624E+02 -0.22473621824E+03  0.22858395143E+03  0.12699999809E+01 0.  1.
</event>
<event>
 5   0  0.5083831E-04  0.1599434E+04  0.7818609E-02  0.8820896E-01
       -2   -1    0    0    0  501  0.00000000000E+00  0.00000000000E+00  0.62860360248E+03  0.62860360249E+03  0.25500000920E-02 0.  1.
        2   -1    0    0  501    0  0.00000000000E+00  0.00000000000E+00 -0.10174092959E+04  0.10174092959E+04  0.25500000920E-02 0. -1.
    10030    2    1    2    0    0  0.00000000000E+00  0.00000000000E+00 -0.38880569338E+03  0.16460128984E+04  0.15994338356E+04 0.  0.
        4    1    3    3  502    0 -0.15992082513E+03  0.67000192312E+03 -0.61252076447E+03  0.92177033317E+03  0.12699999809E+01 0. -1.
       -4    1    3    3    0  502  0.15992082513E+03 -0.67000192312E+03  0.22371507109E+03  0.72424256519E+03  0.12699999809E+01 0.  1.
</event>
<event>
 5   0  0.5381164E-04  0.1605735E+04  0.7818609E-02  0.8817033E-01
        2   -1    0    0  501    0  0.00000000000E+00  0.00000000000E+00  0.12214417505E+04  0.12214417505E+04  0.25500000920E-02 0.  1.
       -2   -1    0    0    0  501  0.00000000000E+00  0.00000000000E+00 -0.52773385124E+03  0.52773385125E+03  0.25500000920E-02 0. -1.
    10030    2    1    2    0    0  0.00000000000E+00  0.00000000000E+00  0.69370789930E+03  0.17491756018E+04  0.16057349210E+04 0.  0.
        5    1    3    3  502    0 -0.35278881137E+03 -0.51222412026E+03  0.89988683216E+03  0.10939158539E+04  0.46999998093E+01 0.  1.
       -5    1    3    3    0  502  0.35278881137E+03  0.51222412026E+03 -0.20617893287E+03  0.65525974785E+03  0.46999998093E+01 0. -1.
</event>
<event>
 5   0  0.2763895E-04  0.1615494E+04  0.7818609E-02  0.8811086E-01
       -1   -1    0    0    0  501  0.00000000000E+00  0.00000000000E+00  0.38247146823E+03  0.38247146827E+03  0.50400001928E-02 0.  1.
        1   -1    0    0  501    0  0.00000000000E+00  0.00000000000E+00 -0.17058919908E+04  0.17058919908E+04  0.50400001928E-02 0. -1.
    10030    2    1    2    0    0  0.00000000000E+00  0.00000000000E+00 -0.13234205226E+04  0.20883634591E+04  0.16154937504E+04 0.  0.
        4    1    3    3  502    0  0.78813930943E+03 -0.17438928725E+03 -0.62340140058E+03  0.10199049533E+04  0.12699999809E+01 0.  1.
       -4    1    3    3    0  502 -0.78813930943E+03  0.17438928725E+03 -0.70001912202E+03  0.10684585058E+04  0.12699999809E+01 0. -1.
</event>
<event>
 5   0  0.5083831E-04  0.1598214E+04  0.7818609E-02  0.8821646E-01
        2   -1    0    0  501    0  0.00000000000E+00  0.00000000000E+00  0.72173033399E+03  0.72173033399E+03  0.25500000920E-02 0. -1.
       -2   -1    0    0    0  501  0.00000000000E+00  0.00000000000E+00 -0.88477904208E+03  0.88477904208E+03  0.25500000920E-02 0.  1.
    10030    2    1    2    0    0  0.00000000000E+00  0.00000000000E+00 -0.16304870809E+03  0.16065093761E+04  0.15982138450E+04 0.  0.
        4    1    3    3  502    0  0.23823540104E+03  0.62590372264E+03  0.35669568712E+03  0.75877862544E+03  0.12699999809E+01 0. -1.
       -4    1    3    3    0  502 -0.23823540104E+03 -0.62590372264E+03 -0.51974439521E+03  0.84773075063E+03  0.12699999809E+01 0.  1.
</event>
<event>
 5   0  0.5264308E-04  0.1599629E+04  0.7818609E-02  0.8820776E-01
        2   -1    0    0  501    0  0.00000000000E+00  0.00000000000E+00  0.17288776094E+04  0.17288776094E+04  0.25500000920E-02 0.  1.
       -2   -1    0    0    0  501  0.00000000000E+00  0.00000000000E+00 -0.37001074310E+03  0.37001074311E+03  0.25500000920E-02 0. -1.
    10030    2    1    2    0    0  0.00000000000E+00  0.00000000000E+00  0.13588668663E+04  0.20988883525E+04  0.15996290682E+04 0.  0.
        3    1    3    3  502    0  0.44351800273E+03  0.53774674258E+03  0.16481967167E+03  0.71627181452E+03  0.10100000352E+00 0. -1.
       -3    1    3    3    0  502 -0.44351800273E+03 -0.53774674258E+03  0.11940471946E+04  0.13826165379E+04  0.10100000352E+00 0.  1.
</event>
<event>
 5   0  0.2730707E-04  0.1670463E+04  0.7818609E-02  0.8778392E-01
       -1   -1    0    0    0  501  0.00000000000E+00  0.00000000000E+00  0.82323321482E+03  0.82323321483E+03  0.50400001928E-02 0. -1.
        1   -1    0    0  501    0  0.00000000000E+00  0.00000000000E+00 -0.84740427405E+03  0.84740427407E+03  0.50400001928E-02 0.  1.
    10030    2    1    2    0    0  0.00000000000E+00  0.00000000000E+00 -0.24171059233E+02  0.16706374889E+04  0.16704626243E+04 0.  0.
        5    1    3    3  502    0  0.16293892032E+02 -0.57920429121E+03 -0.61368499209E+03  0.84402278488E+03  0.46999998093E+01 0. -1.
       -5    1    3    3    0  502 -0.16293892032E+02  0.57920429121E+03  0.58951393286E+03  0.82661470402E+03  0.46999998093E+01 0.  1.
</event>
<event>
 5   0  0.5315984E-04  0.1592402E+04  0.7818609E-02  0.8825230E-01
        2   -1    0    0  501    0  0.00000000000E+00  0.00000000000E+00  0.48492387402E+03  0.48492387403E+03  0.25500000920E-02 0.  1.
       -2   -1    0    0    0  501  0.00000000000E+00  0.00000000000E+00 -0.13072890161E+04  0.13072890161E+04  0.25500000920E-02 0. -1.
    10030    2    1    2    0    0  0.00000000000E+00  0.00000000000E+00 -0.82236514205E+03  0.17922128901E+04  0.15924015249E+04 0.  0.
        2    1    3    3  502    0 -0.45907797146E+03  0.27283249665E+03  0.25346483997E+03  0.59112991822E+03  0.25500000920E-02 0.  1.
       -2    1    3    3    0  502  0.45907797146E+03 -0.27283249665E+03 -0.10758299820E+04  0.12010829719E+04  0.25500000920E-02 0. -1.
</event>
<event>
 5   0  0.1908125E-04  0.1589497E+04  0.7818609E-02  0.8827027E-01
        3   -1    0    0  501    0  0.00000000000E+00  0.00000000000E+00  0.10994076725E+04  0.10994076772E+04  0.10100000352E+00 0.  1.
       -3   -1    0    0    0  501  0.00000000000E+00  0.00000000000E+00 -0.57451386127E+03  0.57451387015E+03  0.10100000352E+00 0. -1.
    10030    2    1    2    0    0  0.00000000000E+00  0.00000000000E+00  0.52489381128E+03  0.16739215473E+04  0.15894967233E+04 0.  0.
        4    1    3    3  502    0 -0.29396700248E+03 -0.72666396709E+03  0.40042586781E+03  0.88022702079E+03  0.12699999809E+01 0.  1.
       -4    1    3    3    0  502  0.29396700248E+03  0.72666396709E+03  0.12446794347E+03  0.79369452654E+03  0.12699999809E+01 0. -1.
</event>
<event>
 5   0  0.5315984E-04  0.1605759E+04  0.7818609E-02  0.8817018E-01
        2   -1    0    0  501    0  0.00000000000E+00  0.00000000000E+00  0.10510102758E+04  0.10510102758E+04  0.25500000920E-02 0. -1.
       -2   -1    0    0    0  501  0.00000000000E+00  0.00000000000E+00 -0.61332955049E+03  0.61332955049E+03  0.25500000920E-02 0.  1.
    10030    2    1    2    0    0  0.00000000000E+00  0.00000000000E+00  0.43768072531E+03  0.16643398263E+04  0.16057592099E+04 0.  0.
        2    1    3    3  502    0 -0.35054361262E+03 -0.44770268944E+03  0.80635002322E+03  0.98667060483E+03  0.25500000920E-02 0. -1.
       -2    1    3    3    0  502  0.35054361262E+03  0.44770268944E+03 -0.36866929791E+03  0.67766922146E+03  0.25500000920E-02 0.  1.
</event>
<event>
 5   0  0.2796994E-04  0.1609994E+04  0.7818609E-02  0.8814432E-01
       -1   -1    0    0    0  501  0.00000000000E+00  0.00000000000E+00  0.12213896700E+04  0.12213896700E+04  0.50400001928E-02 0. -1.
        1   -1    0    0  501    0  0.00000000000E+00  0.00000000000E+00 -0.53055963816E+03  0.53055963818E+03  0.50400001928E-02 0.  1.
    10030    2    1    2    0    0  0.00000000000E+00  0.00000000000E+00  0.69083003183E+03  0.17519493082E+04  0.16099938651E+04 0.  0.
        3    1    3    3  502    0 -0.23330659943E+03  0.44934710125E+03 -0.33560580121E+03  0.60743398880E+03  0.10100000352E+00 0.  1.
       -3    1    3    3    0  502  0.23330659943E+03 -0.44934710125E+03  0.10264358330E+04  0.11445153194E+04  0.10100000352E+00 0. -1.
</event>
<event>
 5   0  0.5264308E-04  0.1598142E+04  0.7818609E-02  0.8821690E-01
       -2   -1    0    0    0  501  0.00000000000E+00  0.00000000000E+00  0.30609234389E+03  0.30609234390E+03  0.25500000920E-02 0. -1.
        2   -1    0    0  501    0  0.00000000000E+00  0.00000000000E+00 -0.20860182537E+04  0.20860182537E+04  0.25500000920E-02 0.  1.
    10030    2    1    2    0    0  0.00000000000E+00  0.00000000000E+00 -0.17799259098E+04  0.23921105976E+04  0.15981416917E+04 0.  0.
        3    1    3    3  502    0 -0.28720377186E+03 -0.74369719947E+03 -0.80876648399E+03  0.11356384842E+04  0.10100000352E+00 0. -1.
       -3    1    3    3    0  502  0.28720377186E+03  0.74369719947E+03 -0.97115942586E+03  0.12564721134E+04  0.10100000352E+00 0.  1.
</event>
<event>
 5   0  0.2763895E-04  0.1607074E+04  0.7818609E-02  0.8816214E-01
        1   -1    0    0  501    0  0.00000000000E+00  0.00000000000E+00  0.11919702335E+04  0.11919702335E+04  0.50400001928E-02 0.  1.
       -1   -1    0    0    0  501  0.00000000000E+00  0.00000000000E+00 -0.54168423294E+03  0.54168423296E+03  0.50400001928E-02 0. -1.
    10030    2    1    2    0    0  0.00000000000E+00  0.00000000000E+00  0.65028600059E+03  0.17336544665E+04  0.16070737154E+04 0.  0.
        4    1    3    3  502    0 -0.52680171804E+03 -0.60244980468E+03  0.40296413104E+03  0.89601758972E+03  0.12699999809E+01 0.  1.
       -4    1    3    3    0  502  0.52680171804E+03  0.60244980468E+03  0.24732186955E+03  0.83763687678E+03  0.12699999809E+01 0. -1.
</event>
<event>
 5   0  0.2689675E-04  0.1637953E+04  0.7818609E-02  0.8797565E-01
       -1   -1    0    0    0  501  0.00000000000E+00  0.00000000000E+00  0.42703731184E+03  0.42703731187E+03  0.50400001928E-02 0. -1.
        1   -1    0    0  501    0  0.00000000000E+00  0.00000000000E+00 -0.15706423299E+04  0.15706423299E+04  0.50400001928E-02 0.  1.
    10030    2    1    2    0    0  0.00000000000E+00  0.00000000000E+00 -0.11436050181E+04  0.19976796418E+04  0.16379534529E+04 0.  0.
        1    1    3    3  502    0  0.76840604789E+03 -0.28229458151E+03 -0.60129595147E+03  0.10157238338E+04  0.50400001928E-02 0. -1.
       -1    1    3    3    0  502 -0.76840604789E+03  0.28229458151E+03 -0.54230906663E+03  0.98195580805E+03  0.50400001928E-02 0.  1.
</event>
<event>
 5   0  0.5315984E-04  0.1586163E+04  0.7818609E-02  0.8829094E-01
        2   -1    0    0  501    0  0.00000000000E+00  0.00000000000E+00  0.16062485962E+04  0.16062485962E+04  0.25500000920E-02 0.  1.
       -2   -1    0    0    0  501  0.00000000000E+00  0.00000000000E+00 -0.39158231656E+03  0.39158231657E+03  0.25500000920E-02 0. -1.
    10030    2    1    2    0    0  0.00000000000E+00  0.00000000000E+00  0.12146662797E+04  0.19978309128E+04  0.15861633539E+04 0.  0.
        2    1    3    3  502    0  0.62234945957E+03  0.48988113313E+03  0.65889992891E+03  0.10302676792E+04  0.25500000920E-02 0.  1.
       -2    1    3    3    0  502 -0.62234945957E+03 -0.48988113313E+03  0.55576635077E+03  0.96756323364E+03  0.25500000920E-02 0. -1.
</event>
<event>
 5   0  0.2796994E-04  0.1601947E+04  0.7818609E-02  0.8819353E-01
        1   -1    0    0  501    0  0.00000000000E+00  0.00000000000E+00  0.64733962274E+03  0.64733962276E+03  0.50400001928E-02 0.  1.
       -1   -1    0    0    0  501  0.00000000000E+00  0.00000000000E+00 -0.99106901491E+03  0.99106901493E+03  0.50400001928E-02 0. -1.
    10030    2    1    2    0    0  0.00000000000E+00  0.00000000000E+00 -0.34372939217E+03  0.16384086377E+04  0.16019466187E+04 0.  0.
        3    1    3    3  502    0  0.67269239308E+03  0.35083981286E+03  0.90796997983E+02  0.76409929659E+03  0.10100000352E+00 0.  1.
       -3    1    3    3    0  502 -0.67269239308E+03 -0.35083981286E+03 -0.43452639016E+03  0.87430934110E+03  0.10100000352E+00 0. -1.
</event>
<event>
 5   0  0.5083831E-04  0.1599384E+04  0.7818609E-02  0.8820927E-01
        2   -1    0    0  501    0  0.00000000000E+00  0.00000000000E+00  0.76949623611E+03  0.76949623611E+03  0.25500000920E-02 0.  1.
       -2   -1    0    0    0  501  0.00000000000E+00  0.00000000000E+00 -0.83107244875E+03  0.83107244876E+03  0.25500000920E-02 0. -1.
    10030    2    1    2    0    0  0.00000000000E+00  0.00000000000E+00 -0.61576212647E+02  0.16005686849E+04  0.15993837829E+04 0.  0.
        4    1    3    3  502    0  0.76024851833E+03  0.46852212649E+02  0.21297512801E+03  0.79090641514E+03  0.12699999809E+01 0.  1.
       -4    1    3    3    0  502 -0.76024851833E+03 -0.46852212649E+02 -0.27455134066E+03  0.80966226973E+03  0.12699999809E+01 0. -1.
</event>
<event>
 5   0  0.5264308E-04  0.1609504E+04  0.7818609E-02  0.8814731E-01
        2   -1    0    0  501    0  0.00000000000E+00  0.00000000000E+00  0.96715396582E+03  0.96715396582E+03  0.25500000920E-02 0.  1.
       -2   -1    0    0    0  501  0.00000000000E+00  0.00000000000E+00 -0.66962014737E+03  0.66962014737E+03  0.25500000920E-02 0. -1.
    10030    2    1    2    0    0  0.00000000000E+00  0.00000000000E+00  0.29753381845E+03  0.16367741132E+04  0.16095039995E+04 0.  0.
        3    1    3    3  502    0 -0.21823063329E+03 -0.61087526278E+03  0.63310586255E+03  0.90643049341E+03  0.10100000352E+00 0.  1.
       -3    1    3    3    0  502  0.21823063329E+03  0.61087526278E+03 -0.33557204410E+03  0.73034361979E+03  0.10100000352E+00 0. -1.
</event>
<event>
 5   0  0.1908125E-04  0.1610537E+04  0.7818609E-02  0.8814101E-01
       -4   -1    0    0    0  501  0.00000000000E+00  0.00000000000E+00  0.42292168513E+03  0.42292359198E+03  0.12699999809E+01 0.  1.
        4   -1    0    0  501    0  0.00000000000E+00  0.00000000000E+00 -0.15332734214E+04  0.15332739474E+04  0.12699999809E+01 0. -1.
    10030    2    1    2    0    0  0.00000000000E+00  0.00000000000E+00 -0.11103517363E+04  0.19561975394E+04  0.16105365053E+04 0.  0.
        2    1    3    3  502    0  0.35971139572E+03 -0.23905157657E+02 -0.14297843271E+04  0.14745327962E+04  0.25500000920E-02 0. -1.
       -2    1    3    3    0  502 -0.35971139572E+03  0.23905157657E+02  0.31943259084E+03  0.48166474323E+03  0.25500000920E-02 0.  1.
</event>
<event>
 5   0  0.2763895E-04  0.1641321E+04  0.7818609E-02  0.8795558E-01
        1   -1    0    0  501    0  0.00000000000E+00  0.00000000000E+00  0.52843196239E+03  0.52843196241E+03  0.50400001928E-02 0. -1.
       -1   -1    0    0    0  501  0.00000000000E+00  0.00000000000E+00 -0.12744941966E+04  0.12744941966E+04  0.50400001928E-02 0.  1.
    10030    2    1    2    0    0  0.00000000000E+00  0.00000000000E+00 -0.74606223418E+03  0.18029261590E+04  0.16413207723E+04 0.  0.
        4    1    3    3  502    0 -0.42530757302E+03  0.17097550072E+03 -0.11207614708E+04  0.12108786235E+04  0.12699999809E+01 0.  1.
       -4    1    3    3    0  502  0.42530757302E+03 -0.17097550072E+03  0.37469923659E+03  0.59204753552E+03  0.12699999809E+01 0. -1.
</event>
<event>
 5   0  0.2796994E-04  0.1581909E+04  0.7818609E-02  0.8831740E-01
       -1   -1    0    0    0  501  0.00000000000E+00  0.00000000000E+00  0.84822159083E+03  0.84822159085E+03  0.50400001928E-02 0. -1.
        1   -1    0    0  501    0  0.00000000000E+00  0.00000000000E+00 -0.73755393238E+03  0.73755393239E+03  0.50400001928E-02 0.  1.
    10030    2    1    2    0    0  0.00000000000E+00  0.00000000000E+00  0.11066765846E+03  0.15857755232E+04  0.15819091881E+04 0.  0.
        3    1    3    3  502    0  0.39506118027E+03 -0.34760095076E+03  0.64729332351E+03  0.83419926516E+03  0.10100000352E+00 0. -1.
       -3    1    3    3    0  502 -0.39506118027E+03  0.34760095076E+03 -0.53662566505E+03  0.75157625809E+03  0.10100000352E+00 0.  1.
</event>
<event>
 5   0  0.2730707E-04  0.1630138E+04  0.7818609E-02  0.8802244E-01
        1   -1    0    0  501    0  0.00000000000E+00  0.00000000000E+00  0.75282203368E+03  0.75282203369E+03  0.50400001928E-02 0.  1.
       -1   -1    0    0    0  501  0.00000000000E+00  0.00000000000E+00 -0.88246289652E+03  0.88246289653E+03  0.50400001928E-02 0. -1.
    10030    2    1    2    0    0  0.00000000000E+00  0.00000000000E+00 -0.12964086284E+03  0.16352849302E+04  0.16301380462E+04 0.  0.
        5    1    3    3  502    0  0.81263077087E+01  0.37177511388E+03  0.66275060403E+03  0.75996264732E+03  0.46999998093E+01 0.  1.
       -5    1    3    3    0  502 -0.81263077087E+01 -0.37177511388E+03 -0.79239146688E+03  0.87532228291E+03  0.46999998093E+01 0. -1.
</event>
<event>
 5   0  0.5083831E-04  0.1602087E+04  0.7818609E-02  0.8819267E-01
        2   -1    0    0  501    0  0.00000000000E+00  0.00000000000E+00  0.13399412421E+04  0.13399412421E+04  0.25500000920E-02 0.  1.
       -2   -1    0    0    0  501  0.00000000000E+00  0.00000000000E+00 -0.47888001421E+03  0.47888001421E+03  0.25500000920E-02 0. -1.
    10030    2    1    2    0    0  0.00000000000E+00  0.00000000000E+00  0.86106122786E+03  0.18188212563E+04  0.16020874896E+04 0.  0.
        4    1    3    3  502    0 -0.47422380319E+03 -0.56199134573E+02  0.11606705186E+04  0.12550714019E+04  0.12699999809E+01 0.  1.
       -4    1    3    3    0  502  0.47422380319E+03  0.56199134573E+02 -0.29960929079E+03  0.56374985433E+03  0.12699999809E+01 0. -1.
</event>
<event>
 5   0  0.5131239E-04  0.1600637E+04  0.7818609E-02  0.8820157E-01
       -2   -1    0    0    0  501  0.00000000000E+00  0.00000000000E+00  0.67835568218E+03  0.67835568219E+03  0.25500000920E-02 0.  1.
        2   -1    0    0  501    0  0.00000000000E+00  0.00000000000E+00 -0.94420906201E+03  0.94420906201E+03  0.25500000920E-02 0. -1.
    10030    2    1    2    0    0  0.00000000000E+00  0.00000000000E+00 -0.26585337982E+03  0.16225647442E+04  0.16006368512E+04 0.  0.
        1    1    3    3  502    0 -0.36043454579E+03 -0.62441089625E+03  0.21926284510E+03  0.75357695322E+03  0.50400001928E-02 0.  1.
       -1    1    3    3    0  502  0.36043454579E+03  0.62441089625E+03 -0.48511622493E+03  0.86898779098E+03  0.50400001928E-02 0. -1.
</event>
<event>
 5   0  0.5381164E-04  0.1605101E+04  0.7818609E-02  0.8817420E-01
       -2   -1    0    0    0  501  0.00000000000E+00  0.00000000000E+00  0.66460492549E+03  0.66460492550E+03  0.25500000920E-02 0.  1.
        2   -1    0    0  501    0  0.00000000000E+00  0.00000000000E+00 -0.96912848632E+03  0.96912848632E+03  0.25500000920E-02 0. -1.
    10030    2    1    2    0    0  0.00000000000E+00  0.00000000000E+00 -0.30452356082E+03  0.16337334118E+04  0.16051013245E+04 0.  0.
        5    1    3    3  502    0 -0.59657314495E+03  0.76948672278E+02 -0.69300584196E+03  0.91765996014E+03  0.46999998093E+01 0. -1.
       -5    1    3    3    0  502  0.59657314495E+03 -0.76948672278E+02  0.38848228114E+03  0.71607345168E+03  0.46999998093E+01 0.  1.
</event>
<event>
 5   0  0.5083831E-04  0.1591532E+04  0.7818609E-02  0.8825767E-01
       -2   -1    0    0    0  501  0.00000000000E+00  0.00000000000E+00  0.31799979787E+03  0.31799979788E+03  0.25500000920E-02 0. -1.
        2   -1    0    0  501    0  0.00000000000E+00  0.00000000000E+00 -0.19913328361E+04  0.19913328361E+04  0.25500000920E-02 0.  1.
    10030    2    1    2    0    0  0.00000000000E+00  0.00000000000E+00 -0.16733330383E+04  0.23093326340E+04  0.15915318902E+04 0.  0.
        4    1    3    3  502    0  0.41898928364E+03 -0.46861675132E+03 -0.15446775680E+04  0.16676882447E+04  0.12699999809E+01 0.  1.
       -4    1    3    3    0  502 -0.41898928364E+03  0.46861675132E+03 -0.12865547023E+03  0.64164438932E+03  0.12699999809E+01 0. -1.
</event>
<event>
 5   0  0.5315984E-04  0.1522207E+04  0.7818609E-02  0.8869819E-01
        2   -1    0    0  501    0  0.00000000000E+00  0.00000000000E+00  0.21618880009E+04  0.21618880009E+04  0.25500000920E-02 0. -1.
       -2   -1    0    0    0  501  0.00000000000E+00  0.00000000000E+00 -0.26795014632E+03  0.26795014633E+03  0.25500000920E-02 0.  1.
    10030    2    1    2    0    0  0.00000000000E+00  0.00000000000E+00  0.18939378545E+04  0.24298381472E+04  0.15222065644E+04 0.  0.
        2    1    3    3  502    0  0.73017885278E+03  0.29799588841E+02  0.12864475330E+04  0.14795257442E+04  0.25500000920E-02 0. -1.
       -2    1    3    3    0  502 -0.73017885278E+03 -0.29799588841E+02  0.60749032152E+03  0.95031240299E+03  0.25500000920E-02 0.  1.
</event>
<event>
 5   0  0.5381164E-04  0.1599501E+04  0.7818609E-02  0.8820855E-01
       -2   -1    0    0    0  501  0.00000000000E+00  0.00000000000E+00  0.48845710291E+03  0.48845710292E+03  0.25500000920E-02 0.  1.
        2   -1    0    0  501    0  0.00000000000E+00  0.00000000000E+00 -0.13094306673E+04  0.13094306673E+04  0.25500000920E-02 0. -1.
    10030    2    1    2    0    0  0.00000000000E+00  0.00000000000E+00 -0.82097356441E+03  0.17978877702E+04  0.15995008099E+04 0.  0.
        5    1    3    3  502    0  0.60262374300E+03  0.23404405614E+03  0.11869961816E+03  0.65730030062E+03  0.46999998093E+01 0.  1.
       -5    1    3    3    0  502 -0.60262374300E+03 -0.23404405614E+03 -0.93967318256E+03  0.11405874696E+04  0.46999998093E+01 0. -1.
</event>
<event>
 5   0  0.5381164E-04  0.1583921E+04  0.7818609E-02  0.8830487E-01
        2   -1    0    0  501    0  0.00000000000E+00  0.00000000000E+00  0.10887907233E+04  0.10887907233E+04  0.25500000920E-02 0.  1.
       -2   -1    0    0    0  501  0.00000000000E+00  0.00000000000E+00 -0.57605329577E+03  0.57605329578E+03  0.25500000920E-02 0. -1.
    10030    2    1    2    0    0  0.00000000000E+00  0.00000000000E+00  0.51273742750E+03  0.16648440191E+04  0.15839210644E+04 0.  0.
        5    1    3    3  502    0 -0.47345417260E+03 -0.29096496598E+03  0.84942950921E+03  0.10150724339E+04  0.46999998093E+01 0.  1.
       -5    1    3    3    0  502  0.47345417260E+03  0.29096496598E+03 -0.33669208171E+03  0.64977158514E+03  0.46999998093E+01 0. -1.
</event>
<event>
 5   0  0.2649086E-04  0.1606732E+04  0.7818609E-02  0.8816423E-01
       -1   -1    0    0    0  501  0.00000000000E+00  0.00000000000E+00  0.38732679652E+03  0.38732679655E+03  0.50400001928E-02 0.  1.
        1   -1    0    0  501    0  0.00000000000E+00  0.00000000000E+00 -0.16662860571E+04  0.16662860571E+04  0.50400001928E-02 0. -1.
    10030    2    1    2    0    0  0.00000000000E+00  0.00000000000E+00 -0.12789592606E+04  0.20536128537E+04  0.16067323867E+04 0.  0.
        2    1    3    3  502    0  0.54006828065E+02  0.37549156895E+03  0.26563729486E+03  0.46311319163E+03  0.25500000920E-02 0.  1.
       -2    1    3    3    0  502 -0.54006828065E+02 -0.37549156895E+03 -0.15445965554E+04  0.15904996620E+04  0.25500000920E-02 0. -1.
</event>
<event>
 5   0  0.2649086E-04  0.1627854E+04  0.7818609E-02  0.8803616E-01
       -1   -1    0    0    0  501  0.00000000000E+00  0.00000000000E+00  0.71205913715E+03  0.71205913716E+03  0.50400001928E-02 0. -1.
        1   -1    0    0  501    0  0.00000000000E+00  0.00000000000E+00 -0.93036850059E+03  0.93036850061E+03  0.50400001928E-02 0.  1.
    10030    2    1    2    0    0  0.00000000000E+00  0.00000000000E+00 -0.21830936345E+03  0.16424276378E+04  0.16278542831E+04 0.  0.
        2    1    3    3  502    0  0.36886452357E+03 -0.26708896880E+03  0.57148069023E+03  0.73074464303E+03  0.25500000920E-02 0. -1.
       -2    1    3    3    0  502 -0.36886452357E+03  0.26708896880E+03 -0.78979005368E+03  0.91168299474E+03  0.25500000920E-02 0.  1.
</event>
<event>
 5   0  0.2649086E-04  0.1593568E+04  0.7818609E-02  0.8824509E-01
       -1   -1    0    0    0  501  0.00000000000E+00  0.00000000000E+00  0.52511607083E+03  0.52511607086E+03  0.50400001928E-02 0.  1.
        1   -1    0    0  501    0  0.00000000000E+00  0.00000000000E+00 -0.12089985977E+04  0.12089985977E+04  0.50400001928E-02 0. -1.
    10030    2    1    2    0    0  0.00000000000E+00  0.00000000000E+00 -0.68388252685E+03  0.17341146686E+04  0.15935678125E+04 0.  0.
        2    1    3    3  502    0  0.41250272141E+03  0.66555348040E+03 -0.18147505100E+03  0.80377429953E+03  0.25500000920E-02 0.  1.
       -2    1    3    3    0  502 -0.41250272141E+03 -0.66555348040E+03 -0.50240747585E+03  0.93034036903E+03  0.25500000920E-02 0. -1.
</event>
<event>
 5   0  0.2730707E-04  0.1605739E+04  0.7818609E-02  0.8817030E-01
        1   -1    0    0  501    0  0.00000000000E+00  0.00000000000E+00  0.74063534170E+03  0.74063534172E+03  0.50400001928E-02 0. -1.
       -1   -1    0    0    0  501  0.00000000000E+00  0.00000000000E+00 -0.87033345247E+03  0.87033345248E+03  0.50400001928E-02 0.  1.
    10030    2    1    2    0    0  0.00000000000E+00  0.00000000000E+00 -0.12969811077E+03  0.16109687942E+04  0.16057393487E+04 0.  0.
        5    1    3    3  502    0 -0.36906286091E+03  0.46177936729E+03  0.48017891402E+03  0.76160452916E+03  0.46999998093E+01 0. -1.
       -5    1    3    3    0  502  0.36906286091E+03 -0.46177936729E+03 -0.60987702479E+03  0.84936426504E+03  0.46999998093E+01 0.  1.
</event>
<event>
 5   0  0.5264308E-04  0.1597599E+04  0.7818609E-02  0.8822024E-01
        2   -1    0    0  501    0  0.00000000000E+00  0.00000000000E+00  0.18424053071E+04  0.18424053071E+04  0.25500000920E-02 0.  1.
       -2   -1    0    0    0  501  0.00000000000E+00  0.00000000000E+00 -0.34633028631E+03  0.34633028632E+03  0.25500000920E-02 0. -1.
    10030    2    1    2    0    0  0.00000000000E+00  0.00000000000E+00  0.14960750208E+04  0.21887355934E+04  0.15975991456E+04 0.  0.
        3    1    3    3  502    0 -0.51819086871E+03 -0.60115639567E+03  0.62420478962E+03  0.10097239316E+04  0.10100000352E+00 0. -1.
       -3    1    3    3    0  502  0.51819086871E+03  0.60115639567E+03  0.87187023114E+03  0.11790116618E+04  0.10100000352E+00 0.  1.
</event>
<event>
 5   0  0.2689675E-04  0.1629769E+04  0.7818609E-02  0.8802465E-01
        1   -1    0    0  501    0  0.00000000000E+00  0.00000000000E+00  0.13851800418E+04  0.13851800418E+04  0.50400001928E-02 0. -1.
       -1   -1    0    0    0  501  0.00000000000E+00  0.00000000000E+00 -0.47938677374E+03  0.47938677377E+03  0.50400001928E-02 0.  1.
    10030    2    1    2    0    0  0.00000000000E+00  0.00000000000E+00  0.90579326808E+03  0.18645668156E+04  0.16297692982E+04 0.  0.
        1    1    3    3  502    0  0.65347356506E+02  0.69320840143E+03 -0.31449401187E+02  0.69699155638E+03  0.50400001928E-02 0.  1.
       -1    1    3    3    0  502 -0.65347356506E+02 -0.69320840143E+03  0.93724266926E+03  0.11675752592E+04  0.50400001928E-02 0. -1.
</event>
<event>
 5   0  0.2649086E-04  0.1411393E+04  0.7818609E-02  0.8945612E-01
        1   -1    0    0  501    0  0.00000000000E+00  0.00000000000E+00  0.96792839623E+03  0.96792839624E+03  0.50400001928E-02 0.  1.
       -1   -1    0    0    0  501  0.00000000000E+00  0.00000000000E+00 -0.51450895750E+03  0.51450895753E+03  0.50400001928E-02 0. -1.
    10030    2    1    2    0    0  0.00000000000E+00  0.00000000000E+00  0.45341943872E+03  0.14824373538E+04  0.14113933968E+04 0.  0.
        2    1    3    3  502    0  0.18826392902E+03  0.45878666363E+03 -0.30063776428E+03  0.57992376655E+03  0.25500000920E-02 0. -1.
       -2    1    3    3    0  502 -0.18826392902E+03 -0.45878666363E+03  0.75405720300E+03  0.90251358721E+03  0.25500000920E-02 0.  1.
</event>
<event>
 5   0  0.2730707E-04  0.1590913E+04  0.7818609E-02  0.8826150E-01
        1   -1    0    0  501    0  0.00000000000E+00  0.00000000000E+00  0.10605684752E+04  0.10605684752E+04  0.50400001928E-02 0. -1.
       -1   -1    0    0    0  501  0.00000000000E+00  0.00000000000E+00 -0.59661484858E+03  0.59661484861E+03  0.50400001928E-02 0.  1.
    10030    2    1    2    0    0  0.00000000000E+00  0.00000000000E+00  0.46395362663E+03  0.16571833238E+04  0.15909128201E+04 0.  0.
        5    1    3    3  502    0 -0.13498251796E+03 -0.63490598191E+03  0.71091522329E+03  0.96267773981E+03  0.46999998093E+01 0. -1.
       -5    1    3    3    0  502  0.13498251796E+03  0.63490598191E+03 -0.24696159666E+03  0.69450558403E+03  0.46999998093E+01 0.  1.
</event>
<event>
 5   0  0.5315984E-04  0.1560704E+04  0.7818609E-02  0.8845059E-01
        2   -1    0    0  501    0  0.00000000000E+00  0.00000000000E+00  0.19888521978E+04  0.19888521978E+04  0.25500000920E-02 0.  1.
       -2   -1    0    0    0  501  0.00000000000E+00  0.00000000000E+00 -0.30618136928E+03  0.30618136929E+03  0.25500000920E-02 0. -1.
    10030    2    1    2    0    0  0.00000000000E+00  0.00000000000E+00  0.16826708285E+04  0.22950335671E+04  0.15607043144E+04 0.  0.
        2    1    3    3  502    0  0.14614791725E+03 -0.11569398505E+03 -0.27296415585E+03  0.33053553860E+03  0.25500000920E-02 0. -1.
       -2    1    3    3    0  502 -0.14614791725E+03  0.11569398505E+03  0.19556349844E+04  0.19644980285E+04  0.25500000920E-02 0.  1.
</event>
<event>
 5   0  0.5083831E-04  0.1581936E+04  0.7818609E-02  0.8831723E-01
        2   -1    0    0  501    0  0.00000000000E+00  0.00000000000E+00  0.14290976386E+04  0.14290976386E+04  0.25500000920E-02 0. -1.
       -2   -1    0    0    0  501  0.00000000000E+00  0.00000000000E+00 -0.43777978820E+03  0.43777978820E+03  0.25500000920E-02 0.  1.
    10030    2    1    2    0    0  0.00000000000E+00  0.00000000000E+00  0.99131785043E+03  0.18668774268E+04  0.15819356012E+04 0.  0.
        4    1    3    3  502    0 -0.15789140853E+03  0.68724724053E+03  0.72802850639E+02  0.70890079311E+03  0.12699999809E+01 0.  1.
       -4    1    3    3    0  502  0.15789140853E+03 -0.68724724053E+03  0.91851499979E+03  0.11579766337E+04  0.12699999809E+01 0. -1.
</event>
<event>
 5   0  0.2796994E-04  0.1590426E+04  0.7818609E-02  0.8826452E-01
       -1   -1    0    0    0  501  0.00000000000E+00  0.00000000000E+00  0.70756883810E+03  0.70756883812E+03  0.50400001928E-02 0. -1.
        1   -1    0    0  501    0  0.00000000000E+00  0.00000000000E+00 -0.89371294895E+03  0.89371294897E+03  0.50400001928E-02 0.  1.
    10030    2    1    2    0    0  0.00000000000E+00  0.00000000000E+00 -0.18614411085E+03  0.16012817871E+04  0.15904256448E+04 0.  0.
        3    1    3    3  502    0  0.13962403107E+03  0.27940421293E+03 -0.82936534074E+03  0.88623273629E+03  0.10100000352E+00 0.  1.
       -3    1    3    3    0  502 -0.13962403107E+03 -0.27940421293E+03  0.64322122989E+03  0.71504905079E+03  0.10100000352E+00 0. -1.
</event>
<event>
 5   0  0.5315984E-04  0.1607363E+04  0.7818609E-02  0.8816037E-01
        2   -1    0    0  501    0  0.00000000000E+00  0.00000000000E+00  0.53620909150E+03  0.53620909150E+03  0.25500000920E-02 0. -1.
       -2   -1    0    0    0  501  0.00000000000E+00  0.00000000000E+00 -0.12045753779E+04  0.12045753779E+04  0.25500000920E-02 0.  1.
    10030    2    1    2    0    0  0.00000000000E+00  0.00000000000E+00 -0.66836628640E+03  0.17407844694E+04  0.16073633927E+04 0.  0.
        2    1    3    3  502    0  0.33709762563E+03  0.23127378167E+03  0.41519287612E+03  0.58267271747E+03  0.25500000920E-02 0. -1.
       -2    1    3    3    0  502 -0.33709762563E+03 -0.23127378167E+03 -0.10835591625E+04  0.11581117519E+04  0.25500000920E-02 0.  1.
</event>
<event>
 5   0  0.2730707E-04  0.1595615E+04  0.7818609E-02  0.8823246E-01
        1   -1    0    0  501    0  0.00000000000E+00  0.00000000000E+00  0.82203722218E+03  0.82203722219E+03  0.50400001928E-02 0. -1.
       -1   -1    0    0    0  501  0.00000000000E+00  0.00000000000E+00 -0.77429209730E+03  0.77429209732E+03  0.50400001928E-02 0.  1.
    10030    2    1    2    0    0  0.00000000000E+00  0.00000000000E+00  0.47745124873E+02  0.15963293195E+04  0.15956151476E+04 0.  0.
        5    1    3    3  502    0 -0.38107677848E+03 -0.18201861023E+03  0.70102449482E+03  0.81841781377E+03  0.46999998093E+01 0. -1.
       -5    1    3    3    0  502  0.38107677848E+03  0.18201861023E+03 -0.65327936994E+03  0.77791150574E+03  0.46999998093E+01 0.  1.
</event>
<event>
 5   0  0.2763895E-04  0.1625437E+04  0.7818609E-02  0.8805072E-01
       -1   -1    0    0    0  501  0.00000000000E+00  0.00000000000E+00  0.69210736743E+03  0.69210736745E+03  0.50400001928E-02 0. -1.
        1   -1    0    0  501    0  0.00000000000E+00  0.00000000000E+00 -0.95434762687E+03  0.95434762689E+03  0.50400001928E-02 0.  1.
    10030    2    1    2    0    0  0.00000000000E+00  0.00000000000E+00 -0.26224025944E+03  0.16464549943E+04  0.16254365859E+04 0.  0.
        4    1    3    3  502    0  0.26503880342E+03  0.66729442542E+03  0.25456852694E+03  0.76179666928E+03  0.12699999809E+01 0. -1.
       -4    1    3    3    0  502 -0.26503880342E+03 -0.66729442542E+03 -0.51680878638E+03  0.88465832506E+03  0.12699999809E+01 0.  1.
</event>
<event>
 5   0  0.2649086E-04  0.1615189E+04  0.7818609E-02  0.8811271E-01
       -1   -1    0    0    0  501  0.00000000000E+00  0.00000000000E+00  0.52796262398E+03  0.52796262401E+03  0.50400001928E-02 0.  1.
        1   -1    0    0  501    0  0.00000000000E+00  0.00000000000E+00 -0.12353319101E+04  0.12353319101E+04  0.50400001928E-02 0. -1.
    10030    2    1    2    0    0  0.00000000000E+00  0.00000000000E+00 -0.70736928609E+03  0.17632945341E+04  0.16151892481E+04 0.  0.
        2    1    3    3  502    0 -0.64654970425E+03  0.27088302617E+03  0.84090545062E+02  0.70602787034E+03  0.25500000920E-02 0.  1.
       -2    1    3    3    0  502  0.64654970425E+03 -0.27088302617E+03 -0.79145983115E+03  0.10572666637E+04  0.25500000920E-02 0. -1.
</event>
<event>
 5   0  0.2730707E-04  0.1601326E+04  0.7818609E-02  0.8819734E-01
        1   -1    0    0  501    0  0.00000000000E+00  0.00000000000E+00  0.86826371494E+03  0.86826371496E+03  0.50400001928E-02 0. -1.
       -1   -1    0    0    0  501  0.00000000000E+00  0.00000000000E+00 -0.73832541719E+03  0.73832541721E+03  0.50400001928E-02 0.  1.
    10030    2    1    2    0    0  0.00000000000E+00  0.00000000000E+00  0.12993829775E+03  0.16065891322E+04  0.16013259126E+04 0.  0.
        5    1    3    3  502    0  0.25471888621E+03  0.49131666198E+03  0.64545991386E+03  0.85024370843E+03  0.46999998093E+01 0. -1.
       -5    1    3    3    0  502 -0.25471888621E+03 -0.49131666198E+03 -0.51552161611E+03  0.75634542373E+03  0.46999998093E+01 0.  1.
</event>
<event>
 5   0  0.2689675E-04  0.1596041E+04  0.7818609E-02  0.8822984E-01
        1   -1    0    0  501    0  0.00000000000E+00  0.00000000000E+00  0.99648769464E+03  0.99648769466E+03  0.50400001928E-02 0.  1.
       -1   -1    0    0    0  501  0.00000000000E+00  0.00000000000E+00 -0.63908176387E+03  0.63908176389E+03  0.50400001928E-02 0. -1.
    10030    2    1    2    0    0  0.00000000000E+00  0.00000000000E+00  0.35740593077E+03  0.16355694585E+04  0.15960414952E+04 0.  0.
        1    1    3    3  502    0  0.57691177591E+03 -0.53406705951E+03  0.38260284232E+02  0.78709508359E+03  0.50400001928E-02 0. -1.
       -1    1    3    3    0  502 -0.57691177591E+03  0.53406705951E+03  0.31914564654E+03  0.84847437496E+03  0.50400001928E-02 0.  1.
</event>
<event>
 5   0  0.5264308E-04  0.1593963E+04  0.7818609E-02  0.8824265E-01
       -2   -1    0    0    0  501  0.00000000000E+00  0.00000000000E+00  0.37440371505E+03  0.37440371506E+03  0.25500000920E-02 0.  1.
        2   -1    0    0  501    0  0.00000000000E+00  0.00000000000E+00 -0.16965095955E+04  0.16965095955E+04  0.25500000920E-02 0. -1.
    10030    2    1    2    0    0  0.00000000000E+00  0.00000000000E+00 -0.13221058805E+04  0.20709133106E+04  0.15939629797E+04 0.  0.
        3    1    3    3  502    0  0.83282524717E+02 -0.72341601932E+03 -0.24023149464E+03  0.76679716819E+03  0.10100000352E+00 0.  1.
       -3    1    3    3    0  502 -0.83282524717E+02  0.72341601932E+03 -0.10818743858E+04  0.13041161424E+04  0.10100000352E+00 0. -1.
</event>
<event>
 5   0  0.5264308E-04  0.1562419E+04  0.7818609E-02  0.8843974E-01
        2   -1    0    0  501    0  0.00000000000E+00  0.00000000000E+00  0.21738729690E+04  0.21738729690E+04  0.25500000920E-02 0. -1.
       -2   -1    0    0    0  501  0.00000000000E+00  0.00000000000E+00 -0.28073779106E+03  0.28073779107E+03  0.25500000920E-02 0.  1.
    10030    2    1    2    0    0  0.00000000000E+00  0.00000000000E+00  0.18931351780E+04  0.24546107601E+04  0.15624190160E+04 0.  0.
        3    1    3    3  502    0 -0.51435999586E+03  0.27582223821E+03  0.17623618339E+04  0.18564922182E+04  0.10100000352E+00 0. -1.
       -3    1    3    3    0  502  0.51435999586E+03 -0.27582223821E+03  0.13077334405E+03  0.59811854188E+03  0.10100000352E+00 0.  1.
</event>
<event>
 5   0  0.2730707E-04  0.1610432E+04  0.7818609E-02  0.8814165E-01
       -1   -1    0    0    0  501  0.00000000000E+00  0.00000000000E+00  0.79098337013E+03  0.79098337014E+03  0.50400001928E-02 0.  1.
        1   -1    0    0  501    0  0.00000000000E+00  0.00000000000E+00 -0.81970493342E+03  0.81970493343E+03  0.50400001928E-02 0. -1.
    10030    2    1    2    0    0  0.00000000000E+00  0.00000000000E+00 -0.28721563294E+02  0.16106883036E+04  0.16104322038E+04 0.  0.
        5    1    3    3  502    0 -0.66871657683E+03  0.13257536460E+03  0.41418465334E+03  0.79770239093E+03  0.46999998093E+01 0. -1.
       -5    1    3    3    0  502  0.66871657683E+03 -0.13257536460E+03 -0.44290621664E+03  0.81298591265E+03  0.46999998093E+01 0.  1.
</event>
<event>
 5   0  0.2796994E-04  0.1594184E+04  0.7818609E-02  0.8824129E-01
       -1   -1    0    0    0  501  0.00000000000E+00  0.00000000000E+00  0.37714848594E+03  0.37714848597E+03  0.50400001928E-02 0.  1.
        1   -1    0    0  501    0  0.00000000000E+00  0.00000000000E+00 -0.16846302216E+04  0.16846302216E+04  0.50400001928E-02 0. -1.
    10030    2    1    2    0    0  0.00000000000E+00  0.00000000000E+00 -0.13074817357E+04  0.20617787076E+04  0.15941841017E+04 0.  0.
        3    1    3    3  502    0  0.39469200114E+03 -0.59250213851E+03 -0.11173807317E+04  0.13249076457E+04  0.10100000352E+00 0. -1.
       -3    1    3    3    0  502 -0.39469200114E+03  0.59250213851E+03 -0.19010100395E+03  0.73687106186E+03  0.10100000352E+00 0.  1.
</event>
<event>
 5   0  0.2796994E-04  0.1603769E+04  0.7818609E-02  0.8818236E-01
        1   -1    0    0  501    0  0.00000000000E+00  0.00000000000E+00  0.19113998595E+04  0.19113998595E+04  0.50400001928E-02 0.  1.
       -1   -1    0    0    0  501  0.00000000000E+00  0.00000000000E+00 -0.33641261243E+03  0.33641261247E+03  0.50400001928E-02 0. -1.
    10030    2    1    2    0    0  0.00000000000E+00  0.00000000000E+00  0.15749872471E+04  0.22478124720E+04  0.16037693353E+04 0.  0.
        3    1    3    3  502    0  0.43552676168E+03 -0.35285960115E+03  0.15912065438E+04  0.16870482309E+04  0.10100000352E+00 0.  1.
       -3    1    3    3    0  502 -0.43552676168E+03  0.35285960115E+03 -0.16219296717E+02  0.56076424106E+03  0.10100000352E+00 0. -1.
</event>
<event>
 5   0  0.5315984E-04  0.1603544E+04  0.7818609E-02  0.8818374E-01
       -2   -1    0    0    0  501  0.00000000000E+00  0.00000000000E+00  0.22846214147E+03  0.22846214149E+03  0.25500000920E-02 0.  1.
        2   -1    0    0  501    0  0.00000000000E+00  0.00000000000E+00 -0.28137621134E+04  0.28137621134E+04  0.25500000920E-02 0. -1.
    10030    2    1    2    0    0  0.00000000000E+00  0.00000000000E+00 -0.25852999719E+04  0.30422242549E+04  0.16035437232E+04 0.  0.
        2    1    3    3  502    0 -0.79696127799E+03  0.84440293128E+02 -0.12477272166E+04  0.14829364952E+04  0.25500000920E-02 0.  1.
       -2    1    3    3    0  502  0.79696127799E+03 -0.84440293128E+02 -0.13375727553E+04  0.15592877597E+04  0.25500000920E-02 0. -1.
</event>
<event>
 5   0  0.5315984E-04  0.1595675E+04  0.7818609E-02  0.8823209E-01
        2   -1    0    0  501    0  0.00000000000E+00  0.00000000000E+00  0.15608560386E+04  0.15608560386E+04  0.25500000920E-02 0. -1.
       -2   -1    0    0    0  501  0.00000000000E+00  0.00000000000E+00 -0.40781763388E+03  0.40781763389E+03  0.25500000920E-02 0.  1.
    10030    2    1    2    0    0  0.00000000000E+00  0.00000000000E+00  0.11530384047E+04  0.19686736725E+04  0.15956749249E+04 0.  0.
        2    1    3    3  502    0  0.44843721959E+03 -0.84638890354E+02 -0.23089375010E+03  0.51144071555E+03  0.25500000920E-02 0.  1.
       -2    1    3    3    0  502 -0.44843721959E+03  0.84638890354E+02  0.13839321548E+04  0.14572329569E+04  0.25500000920E-02 0. -1.
</event>
<event>
 5   0  0.2763895E-04  0.1557018E+04  0.7818609E-02  0.8847398E-01
       -1   -1    0    0    0  501  0.00000000000E+00  0.00000000000E+00  0.78540338906E+03  0.78540338907E+03  0.50400001928E-02 0. -1.
        1   -1    0    0  501    0  0.00000000000E+00  0.00000000000E+00 -0.77167467929E+03  0.77167467931E+03  0.50400001928E-02 0.  1.
    10030    2    1    2    0    0  0.00000000000E+00  0.00000000000E+00  0.13728709763E+02  0.15570780684E+04  0.15570175444E+04 0.  0.
        4    1    3    3  502    0 -0.67033338938E+03 -0.18430976564E+03  0.35724542834E+03  0.78162833341E+03  0.12699999809E+01 0. -1.
       -4    1    3    3    0  502  0.67033338938E+03  0.18430976564E+03 -0.34351671857E+03  0.77544973497E+03  0.12699999809E+01 0.  1.
</event>
<event>
 5   0  0.5131239E-04  0.1598482E+04  0.7818609E-02  0.8821481E-01
        2   -1    0    0  501    0  0.00000000000E+00  0.00000000000E+00  0.11869543709E+04  0.11869543709E+04  0.25500000920E-02 0.  1.
       -2   -1    0    0    0  501  0.00000000000E+00  0.00000000000E+00 -0.53817254721E+03  0.53817254722E+03  0.25500000920E-02 0. -1.
    10030    2    1    2    0    0  0.00000000000E+00  0.00000000000E+00  0.64878182369E+03  0.17251269181E+04  0.15984821015E+04 0.  0.
        1    1    3    3  502    0  0.18641095296E+03 -0.17919429562E+03  0.11405661767E+04  0.11695088039E+04  0.50400001928E-02 0.  1.
       -1    1    3    3    0  502 -0.18641095296E+03  0.17919429562E+03 -0.49178435300E+03  0.55561811422E+03  0.50400001928E-02 0. -1.
</event>
<event>
 5   0  0.1908125E-04  0.1607214E+04  0.7818609E-02  0.8816128E-01
       -4   -1    0    0    0  501  0.00000000000E+00  0.00000000000E+00  0.13966047523E+04  0.13966053297E+04  0.12699999809E+01 0. -1.
        4   -1    0    0  501    0  0.00000000000E+00  0.00000000000E+00 -0.46239440129E+03  0.46239614536E+03  0.12699999809E+01 0.  1.
    10030    2    1    2    0    0  0.00000000000E+00  0.00000000000E+00  0.93421035103E+03  0.18590014751E+04  0.16072142062E+04 0.  0.
        2    1    3    3  502    0  0.10189248707E+03 -0.67938904162E+03 -0.15144416408E+02  0.68715420551E+03  0.25500000920E-02 0.  1.
       -2    1    3    3    0  502 -0.10189248707E+03  0.67938904162E+03  0.94935476744E+03  0.11718472696E+04  0.25500000920E-02 0. -1.
</event>
<event>
 5   0  0.1908125E-04  0.1603729E+04  0.7818609E-02  0.8818260E-01
       -4   -1    0    0    0  501  0.00000000000E+00  0.00000000000E+00  0.12316800908E+04  0.12316807456E+04  0.12699999809E+01 0. -1.
        4   -1    0    0  501    0  0.00000000000E+00  0.00000000000E+00 -0.52203868742E+03  0.52204023223E+03  0.12699999809E+01 0.  1.
    10030    2    1    2    0    0  0.00000000000E+00  0.00000000000E+00  0.70964140338E+03  0.17537209778E+04  0.16037288881E+04 0.  0.
        2    1    3    3  502    0  0.45271064087E+02 -0.32546916101E+03  0.11546719991E+04  0.12005194999E+04  0.25500000920E-02 0. -1.
       -2    1    3    3    0  502 -0.45271064087E+02  0.32546916101E+03 -0.44503059574E+03  0.55320147791E+03  0.25500000920E-02 0.  1.
</event>
<event>
 5   0  0.5315984E-04  0.1576870E+04  0.7818609E-02  0.8834885E-01
       -2   -1    0    0    0  501  0.00000000000E+00  0.00000000000E+00  0.33433434603E+03  0.33433434604E+03  0.25500000920E-02 0.  1.
        2   -1    0    0  501    0  0.00000000000E+00  0.00000000000E+00 -0.18593055701E+04  0.18593055701E+04  0.25500000920E-02 0. -1.
    10030    2    1    2    0    0  0.00000000000E+00  0.00000000000E+00 -0.15249712240E+04  0.21936399161E+04  0.15768699526E+04 0.  0.
        2    1    3    3  502    0 -0.55303201987E+03 -0.50940650317E+03 -0.10925405904E+04  0.13262670705E+04  0.25500000920E-02 0. -1.
       -2    1    3    3    0  502  0.55303201987E+03  0.50940650317E+03 -0.43243063362E+03  0.86737284565E+03  0.25500000920E-02 0.  1.
</event>
<event>
 5   0  0.2730707E-04  0.1645000E+04  0.7818609E-02  0.8793370E-01
       -1   -1    0    0    0  501  0.00000000000E+00  0.00000000000E+00  0.52418479492E+03  0.52418479494E+03  0.50400001928E-02 0. -1.
        1   -1    0    0  501    0  0.00000000000E+00  0.00000000000E+00 -0.12905866571E+04  0.12905866572E+04  0.50400001928E-02 0.  1.
    10030    2    1    2    0    0  0.00000000000E+00  0.00000000000E+00 -0.76640186222E+03  0.18147714521E+04  0.16449995772E+04 0.  0.
        5    1    3    3  502    0 -0.54879581309E+02 -0.57514873928E+03  0.26259897049E+03  0.63465593044E+03  0.46999998093E+01 0.  1.
       -5    1    3    3    0  502  0.54879581309E+02  0.57514873928E+03 -0.10290008327E+04  0.11801155217E+04  0.46999998093E+01 0. -1.
</event>
<event>
 5   0  0.5264308E-04  0.1498403E+04  0.7818609E-02  0.8885516E-01
       -2   -1    0    0    0  501  0.00000000000E+00  0.00000000000E+00  0.10812874447E+04  0.10812874447E+04  0.25500000920E-02 0. -1.
        2   -1    0    0  501    0  0.00000000000E+00  0.00000000000E+00 -0.51910583694E+03  0.51910583695E+03  0.25500000920E-02 0.  1.
    10030    2    1    2    0    0  0.00000000000E+00  0.00000000000E+00  0.56218160778E+03  0.16003932817E+04  0.14984026481E+04 0.  0.
        3    1    3    3  502    0  0.36662813161E+03 -0.60400255761E+03  0.15000073971E+02  0.70672504477E+03  0.10100000352E+00 0.  1.
       -3    1    3    3    0  502 -0.36662813161E+03  0.60400255761E+03  0.54718153381E+03  0.89366823689E+03  0.10100000352E+00 0. -1.
</event>
<event>
 5   0  0.2796994E-04  0.1596537E+04  0.7818609E-02  0.8822678E-01
        1   -1    0    0  501    0  0.00000000000E+00  0.00000000000E+00  0.10816910811E+04  0.10816910811E+04  0.50400001928E-02 0. -1.
       -1   -1    0    0    0  501  0.00000000000E+00  0.00000000000E+00 -0.58910751251E+03  0.58910751253E+03  0.50400001928E-02 0.  1.
    10030    2    1    2    0    0  0.00000000000E+00  0.00000000000E+00  0.49258356860E+03  0.16707985937E+04  0.15965366793E+04 0.  0.
        3    1    3    3  502    0  0.46550058195E+03 -0.58442088162E+03  0.54042334673E+03  0.92211494000E+03  0.10100000352E+00 0. -1.
       -3    1    3    3    0  502 -0.46550058195E+03  0.58442088162E+03 -0.47839778130E+02  0.74868365365E+03  0.10100000352E+00 0.  1.
</event>
<event>
 5   0  0.5083831E-04  0.1596815E+04  0.7818609E-02  0.8822507E-01
       -2   -1    0    0    0  501  0.00000000000E+00  0.00000000000E+00  0.96873391035E+03  0.96873391036E+03  0.25500000920E-02 0. -1.
        2   -1    0    0  501    0  0.00000000000E+00  0.00000000000E+00 -0.65802867919E+03  0.65802867920E+03  0.25500000920E-02 0.  1.
    10030    2    1    2    0    0  0.00000000000E+00  0.00000000000E+00  0.31070523116E+03  0.16267625896E+04  0.15968151997E+04 0.  0.
        4    1    3    3  502    0 -0.71701712813E+03  0.19481009993E+03  0.45304609809E+03  0.87023957446E+03  0.12699999809E+01 0. -1.
       -4    1    3    3    0  502  0.71701712813E+03 -0.19481009993E+03 -0.14234086692E+03  0.75652301509E+03  0.12699999809E+01 0.  1.
</event>
<event>
 5   0  0.2649086E-04  0.1597285E+04  0.7818609E-02  0.8822218E-01
       -1   -1    0    0    0  501  0.00000000000E+00  0.00000000000E+00  0.31846205331E+03  0.31846205335E+03  0.50400001928E-02 0.  1.
        1   -1    0    0  501    0  0.00000000000E+00  0.00000000000E+00 -0.20028444850E+04  0.20028444850E+04  0.50400001928E-02 0. -1.
    10030    2    1    2    0    0  0.00000000000E+00  0.00000000000E+00 -0.16843824317E+04  0.23213065383E+04  0.15972851557E+04 0.  0.
        2    1    3    3  502    0  0.49216770417E+03 -0.62522476870E+03 -0.94176924452E+03  0.12329089059E+04  0.25500000920E-02 0. -1.
       -2    1    3    3    0  502 -0.49216770417E+03  0.62522476870E+03 -0.74261318713E+03  0.10883976324E+04  0.25500000920E-02 0.  1.
</event>
<event>
 5   0  0.2689675E-04  0.1585211E+04  0.7818609E-02  0.8829685E-01
       -1   -1    0    0    0  501  0.00000000000E+00  0.00000000000E+00  0.10825845124E+04  0.10825845124E+04  0.50400001928E-02 0. -1.
        1   -1    0    0  501    0  0.00000000000E+00  0.00000000000E+00 -0.58029952294E+03  0.58029952296E+03  0.50400001928E-02 0.  1.
    10030    2    1    2    0    0  0.00000000000E+00  0.00000000000E+00  0.50228498949E+03  0.16628840354E+04  0.15852107445E+04 0.  0.
        1    1    3    3  502    0 -0.37776661054E+03  0.11354504622E+03  0.97230388709E+03  0.10492735289E+04  0.50400001928E-02 0. -1.
       -1    1    3    3    0  502  0.37776661054E+03 -0.11354504622E+03 -0.47001889760E+03  0.61361050650E+03  0.50400001928E-02 0.  1.
</event>
<event>
 5   0  0.5381164E-04  0.1603785E+04  0.7818609E-02  0.8818226E-01
        2   -1    0    0  501    0  0.00000000000E+00  0.00000000000E+00  0.16420765894E+04  0.16420765894E+04  0.25500000920E-02 0.  1.
       -2   -1    0    0    0  501  0.00000000000E+00  0.00000000000E+00 -0.39159635386E+03  0.39159635387E+03  0.25500000920E-02 0. -1.
    10030    2    1    2    0    0  0.00000000000E+00  0.00000000000E+00  0.12504802355E+04  0.20336729432E+04  0.16037845306E+04 0.  0.
        5    1    3    3  502    0 -0.10361876185E+03  0.49417645886E+03  0.14151646296E+04  0.15025512435E+04  0.46999998093E+01 0.  1.
       -5    1    3    3    0  502  0.10361876185E+03 -0.49417645886E+03 -0.16468439412E+03  0.53112169977E+03  0.46999998093E+01 0. -1.
</event>
<event>
 5   0  0.2730707E-04  0.1606533E+04  0.7818609E-02  0.8816544E-01
       -1   -1    0    0    0  501  0.00000000000E+00  0.00000000000E+00  0.30154971041E+03  0.30154971045E+03  0.50400001928E-02 0. -1.
        1   -1    0    0  501    0  0.00000000000E+00  0.00000000000E+00 -0.21397379576E+04  0.21397379576E+04  0.50400001928E-02 0.  1.
    10030    2    1    2    0    0  0.00000000000E+00  0.00000000000E+00 -0.18381882472E+04  0.24412876681E+04  0.16065333629E+04 0.  0.
        5    1    3    3  502    0 -0.22210310144E+03  0.45540708136E+03  0.28056523050E+02  0.50747872459E+03  0.46999998093E+01 0. -1.
       -5    1    3    3    0  502  0.22210310144E+03 -0.45540708136E+03 -0.18662447703E+04  0.19338089435E+04  0.46999998093E+01 0.  1.
</event>
<event>
 5   0  0.5264308E-04  0.1597310E+04  0.7818609E-02  0.8822202E-01
        2   -1    0    0  501    0  0.00000000000E+00  0.00000000000E+00  0.91739418878E+03  0.91739418878E+03  0.25500000920E-02 0.  1.
       -2   -1    0    0    0  501  0.00000000000E+00  0.00000000000E+00 -0.69528436309E+03  0.69528436310E+03  0.25500000920E-02 0. -1.
    10030    2    1    2    0    0  0.00000000000E+00  0.00000000000E+00  0.22210982568E+03  0.16126785519E+04  0.15973100316E+04 0.  0.
        3    1    3    3  502    0 -0.15094936078E+03  0.77663284703E+03  0.22121722868E+03  0.82151163173E+03  0.10100000352E+00 0. -1.
       -3    1    3    3    0  502  0.15094936078E+03 -0.77663284703E+03  0.89259700716E+00  0.79116692015E+03  0.10100000352E+00 0.  1.
</event>
<event>
 5   0  0.5131239E-04  0.1577646E+04  0.7818609E-02  0.8834400E-01
       -2   -1    0    0    0  501  0.00000000000E+00  0.00000000000E+00  0.38576677700E+03  0.38576677701E+03  0.25500000920E-02 0.  1.
        2   -1    0    0  501    0  0.00000000000E+00  0.00000000000E+00 -0.16129991641E+04  0.16129991641E+04  0.25500000920E-02 0. -1.
    10030    2    1    2    0    0  0.00000000000E+00  0.00000000000E+00 -0.12272323871E+04  0.19987659412E+04  0.15776457002E+04 0.  0.
        1    1    3    3  502    0  0.28102662172E+03  0.74301630738E+02 -0.15426693642E+04  0.15698170153E+04  0.50400001928E-02 0. -1.
       -1    1    3    3    0  502 -0.28102662172E+03 -0.74301630738E+02  0.31543697704E+03  0.42894892581E+03  0.50400001928E-02 0.  1.
</event>
<event>
 5   0  0.2649086E-04  0.1570500E+04  0.7818609E-02  0.8838879E-01
       -1   -1    0    0    0  501  0.00000000000E+00  0.00000000000E+00  0.66236193585E+03  0.66236193587E+03  0.50400001928E-02 0. -1.
        1   -1    0    0  501    0  0.00000000000E+00  0.00000000000E+00 -0.93093710767E+03  0.93093710768E+03  0.50400001928E-02 0.  1.
    10030    2    1    2    0    0  0.00000000000E+00  0.00000000000E+00 -0.26857517182E+03  0.15932990436E+04  0.15704996718E+04 0.  0.
        2    1    3    3  502    0  0.22596145924E+03 -0.37125463280E+03 -0.79779174907E+03  0.90849340027E+03  0.25500000920E-02 0.  1.
       -2    1    3    3    0  502 -0.22596145924E+03  0.37125463280E+03  0.52921657725E+03  0.68480564329E+03  0.25500000920E-02 0. -1.
</event>
<event>
 5   0  0.2649086E-04  0.1601366E+04  0.7818609E-02  0.8819709E-01
        1   -1    0    0  501    0  0.00000000000E+00  0.00000000000E+00  0.73450767914E+03  0.73450767916E+03  0.50400001928E-02 0.  1.
       -1   -1    0    0    0  501  0.00000000000E+00  0.00000000000E+00 -0.87282009319E+03  0.87282009320E+03  0.50400001928E-02 0. -1.
    10030    2    1    2    0    0  0.00000000000E+00  0.00000000000E+00 -0.13831241405E+03  0.16073277724E+04  0.16013657433E+04 0.  0.
        2    1    3    3  502    0  0.54676379811E+03 -0.49497498235E+03  0.24368059002E+03  0.77674391793E+03  0.25500000920E-02 0.  1.
       -2    1    3    3    0  502 -0.54676379811E+03  0.49497498235E+03 -0.38199300407E+03  0.83058385443E+03  0.25500000920E-02 0. -1.
</event>
<event>
 5   0  0.5264308E-04  0.1561600E+04  0.7818609E-02  0.8844492E-01
        2   -1    0    0  501    0  0.00000000000E+00  0.00000000000E+00  0.13479577724E+04  0.13479577724E+04  0.25500000920E-02 0. -1.
       -2   -1    0    0    0  501  0.00000000000E+00  0.00000000000E+00 -0.45227560165E+03  0.45227560166E+03  0.25500000920E-02 0.  1.
    10030    2    1    2    0    0  0.00000000000E+00  0.00000000000E+00  0.89568217079E+03  0.18002333741E+04  0.15615997087E+04 0.  0.
        3    1    3    3  502    0  0.58050871994E+03 -0.51674984444E+03  0.36135988088E+03  0.85708911401E+03  0.10100000352E+00 0.  1.
       -3    1    3    3    0  502 -0.58050871994E+03  0.51674984444E+03  0.53432228991E+03  0.94314426009E+03  0.10100000352E+00 0. -1.
</event>
<event>
 5   0  0.5381164E-04  0.1590058E+04  0.7818609E-02  0.8826679E-01
        2   -1    0    0  501    0  0.00000000000E+00  0.00000000000E+00  0.89279005632E+03  0.89279005632E+03  0.25500000920E-02 0. -1.
       -2   -1    0    0    0  501  0.00000000000E+00  0.00000000000E+00 -0.70797240448E+03  0.70797240449E+03  0.25500000920E-02 0.  1.
    10030    2    1    2    0    0  0.00000000000E+00  0.00000000000E+00  0.18481765184E+03  0.16007624608E+04  0.15900575120E+04 0.  0.
        5    1    3    3  502    0  0.41545075969E+03  0.11455180070E+03 -0.58016618553E+03  0.72272840099E+03  0.46999998093E+01 0.  1.
       -5    1    3    3    0  502 -0.41545075969E+03 -0.11455180070E+03  0.76498383737E+03  0.87803405982E+03  0.46999998093E+01 0. -1.
</event>
<event>
 5   0  0.2763895E-04  0.1592229E+04  0.7818609E-02  0.8825336E-01
       -1   -1    0    0    0  501  0.00000000000E+00  0.00000000000E+00  0.52048497183E+03  0.52048497185E+03  0.50400001928E-02 0.  1.
        1   -1    0    0  501    0  0.00000000000E+00  0.00000000000E+00 -0.12177079136E+04  0.12177079136E+04  0.50400001928E-02 0. -1.
    10030    2    1    2    0    0  0.00000000000E+00  0.00000000000E+00 -0.69722294178E+03  0.17381928855E+04  0.15922294673E+04 0.  0.
        4    1    3    3  502    0 -0.51139587261E+03  0.17316376363E+03 -0.98729636335E+03  0.11252853636E+04  0.12699999809E+01 0. -1.
       -4    1    3    3    0  502  0.51139587261E+03 -0.17316376363E+03  0.29007342158E+03  0.61290752186E+03  0.12699999809E+01 0.  1.
</event>
<event>
 5   0  0.2763895E-04  0.1581057E+04  0.7818609E-02  0.8832271E-01
        1   -1    0    0  501    0  0.00000000000E+00  0.00000000000E+00  0.11319470799E+04  0.11319470800E+04  0.50400001928E-02 0.  1.
       -1   -1    0    0    0  501  0.00000000000E+00  0.00000000000E+00 -0.55208892689E+03  0.55208892692E+03  0.50400001928E-02 0. -1.
    10030    2    1    2    0    0  0.00000000000E+00  0.00000000000E+00  0.57985815305E+03  0.16840360069E+04  0.15810571763E+04 0.  0.
        4    1    3    3  502    0 -0.70417345644E+03  0.35566236018E+03  0.34400872353E+03  0.86063905673E+03  0.12699999809E+01 0.  1.
       -4    1    3    3    0  502  0.70417345644E+03 -0.35566236018E+03  0.23584942952E+03  0.82339695014E+03  0.12699999809E+01 0. -1.
</event>
<event>
 5   0  0.2689675E-04  0.1590717E+04  0.7818609E-02  0.8826271E-01
       -1   -1    0    0    0  501  0.00000000000E+00  0.00000000000E+00  0.14596956965E+04  0.14596956965E+04  0.50400001928E-02 0. -1.
        1   -1    0    0  501    0  0.00000000000E+00  0.00000000000E+00 -0.43337474520E+03  0.43337474523E+03  0.50400001928E-02 0.  1.
    10030    2    1    2    0    0  0.00000000000E+00  0.00000000000E+00  0.10263209513E+04  0.18930704418E+04  0.15907171346E+04 0.  0.
        1    1    3    3  502    0 -0.38795394118E+03  0.26444896129E+03 -0.25085725302E+03  0.53232591053E+03  0.50400001928E-02 0.  1.
       -1    1    3    3    0  502  0.38795394118E+03 -0.26444896129E+03  0.12771782043E+04  0.13607445312E+04  0.50400001928E-02 0. -1.
</event>
<event>
 5   0  0.2689675E-04  0.1593648E+04  0.7818609E-02  0.8824460E-01
       -1   -1    0    0    0  501  0.00000000000E+00  0.00000000000E+00  0.88178459002E+03  0.88178459004E+03  0.50400001928E-02 0.  1.
        1   -1    0    0  501    0  0.00000000000E+00  0.00000000000E+00 -0.72004965782E+03  0.72004965783E+03  0.50400001928E-02 0. -1.
    10030    2    1    2    0    0  0.00000000000E+00  0.00000000000E+00  0.16173493221E+03  0.16018342479E+04  0.15936482577E+04 0.  0.
        1    1    3    3  502    0  0.15937045028E+03  0.40578303923E+03 -0.58954426085E+03  0.73322660268E+03  0.50400001928E-02 0. -1.
       -1    1    3    3    0  502 -0.15937045028E+03 -0.40578303923E+03  0.75127919305E+03  0.86860764519E+03  0.50400001928E-02 0.  1.
</event>
<event>
 5   0  0.2649086E-04  0.1578051E+04  0.7818609E-02  0.8834146E-01
       -1   -1    0    0    0  501  0.00000000000E+00  0.00000000000E+00  0.61192730521E+03  0.61192730523E+03  0.50400001928E-02 0.  1.
        1   -1    0    0  501    0  0.00000000000E+00  0.00000000000E+00 -0.10173783196E+04  0.10173783196E+04  0.50400001928E-02 0. -1.
    10030    2    1    2    0    0  0.00000000000E+00  0.00000000000E+00 -0.40545101440E+03  0.16293056249E+04  0.15780514232E+04 0.  0.
        2    1    3    3  502    0  0.97717707169E+02 -0.78222740813E+03 -0.16797056886E+03  0.80600408208E+03  0.25500000920E-02 0. -1.
       -2    1    3    3    0  502 -0.97717707169E+02  0.78222740813E+03 -0.23748044554E+03  0.82330154278E+03  0.25500000920E-02 0.  1.
</event>
<event>
 5   0  0.2730707E-04  0.1667109E+04  0.7818609E-02  0.8780349E-01
        1   -1    0    0  501    0  0.00000000000E+00  0.00000000000E+00  0.68246175643E+03  0.68246175644E+03  0.50400001928E-02 0.  1.
       -1   -1    0    0    0  501  0.00000000000E+00  0.00000000000E+00 -0.10180986280E+04  0.10180986280E+04  0.50400001928E-02 0. -1.
    10030    2    1    2    0    0  0.00000000000E+00  0.00000000000E+00 -0.33563687160E+03  0.17005603845E+04  0.16671093281E+04 0.  0.
        5    1    3    3  502    0 -0.31163359241E+03 -0.23451288704E+03  0.58363086278E+03  0.70196785118E+03  0.46999998093E+01 0.  1.
       -5    1    3    3    0  502  0.31163359241E+03  0.23451288704E+03 -0.91926773437E+03  0.99859253330E+03  0.46999998093E+01 0. -1.
</event>
<event>
 5   0  0.2649086E-04  0.1610813E+04  0.7818609E-02  0.8813932E-01
        1   -1    0    0  501    0  0.00000000000E+00  0.00000000000E+00  0.12657044192E+04  0.12657044192E+04  0.50400001928E-02 0.  1.
       -1   -1    0    0    0  501  0.00000000000E+00  0.00000000000E+00 -0.51250494402E+03  0.51250494404E+03  0.50400001928E-02 0. -1.
    10030    2    1    2    0    0  0.00000000000E+00  0.00000000000E+00  0.75319947514E+03  0.17782093632E+04  0.16108131767E+04 0.  0.
        2    1    3    3  502    0 -0.25154575183E+03  0.50015953509E+03  0.10157733529E+04  0.11598406487E+04  0.25500000920E-02 0.  1.
       -2    1    3    3    0  502  0.25154575183E+03 -0.50015953509E+03 -0.26257387779E+03  0.61836871453E+03  0.25500000920E-02 0. -1.
</event>
<event>
 5   0  0.5131239E-04  0.1613891E+04  0.7818609E-02  0.8812059E-01
        2   -1    0    0  501    0  0.00000000000E+00  0.00000000000E+00  0.17471627195E+04  0.17471627195E+04  0.25500000920E-02 0. -1.
       -2   -1    0    0    0  501  0.00000000000E+00  0.00000000000E+00 -0.37269622756E+03  0.37269622756E+03  0.25500000920E-02 0.  1.
    10030    2    1    2    0    0  0.00000000000E+00  0.00000000000E+00  0.13744664920E+04  0.21198589471E+04  0.16138908941E+04 0.  0.
        1    1    3    3  502    0  0.58020278549E+03 -0.52063892338E+03  0.96106362004E+03  0.12374746230E+04  0.50400001928E-02 0. -1.
       -1    1    3    3    0  502 -0.58020278549E+03  0.52063892338E+03  0.41340287193E+03  0.88238432407E+03  0.50400001928E-02 0.  1.
</event>
<event>
 5   0  0.5131239E-04  0.1559829E+04  0.7818609E-02  0.8845614E-01
       -2   -1    0    0    0  501  0.00000000000E+00  0.00000000000E+00  0.27796873977E+03  0.27796873978E+03  0.25500000920E-02 0. -1.
        2   -1    0    0  501    0  0.00000000000E+00  0.00000000000E+00 -0.21882562298E+04  0.21882562298E+04  0.25500000920E-02 0.  1.
    10030    2    1    2    0    0  0.00000000000E+00  0.00000000000E+00 -0.19102874900E+04  0.24662249696E+04  0.15598292554E+04 0.  0.
        1    1    3    3  502    0 -0.57677402181E+03  0.49862359525E+03 -0.12148131450E+04  0.14342470984E+04  0.50400001928E-02 0.  1.
       -1    1    3    3    0  502  0.57677402181E+03 -0.49862359525E+03 -0.69547434504E+03  0.10319778712E+04  0.50400001928E-02 0. -1.
</event>
<event>
 5   0  0.5315984E-04  0.1600837E+04  0.7818609E-02  0.8820034E-01
       -2   -1    0    0    0  501  0.00000000000E+00  0.00000000000E+00  0.42002431237E+03  0.42002431238E+03  0.25500000920E-02 0. -1.
        2   -1    0    0  501    0  0.00000000000E+00  0.00000000000E+00 -0.15253151958E+04  0.15253151958E+04  0.25500000920E-02 0.  1.
    10030    2    1    2    0    0  0.00000000000E+00  0.00000000000E+00 -0.11052908834E+04  0.19453395082E+04  0.16008366141E+04 0.  0.
        2    1    3    3  502    0  0.50520964015E+03 -0.19096072799E+03 -0.12705064801E+04  0.13805395670E+04  0.25500000920E-02 0.  1.
       -2    1    3    3    0  502 -0.50520964015E+03  0.19096072799E+03  0.16521559668E+03  0.56479994115E+03  0.25500000920E-02 0. -1.
</event>
<event>
 5   0  0.2763895E-04  0.1606262E+04  0.7818609E-02  0.8816710E-01
       -1   -1    0    0    0  501  0.00000000000E+00  0.00000000000E+00  0.89014161666E+03  0.89014161667E+03  0.50400001928E-02 0. -1.
        1   -1    0    0  501    0  0.00000000000E+00  0.00000000000E+00 -0.72462544230E+03  0.72462544232E+03  0.50400001928E-02 0.  1.
    10030    2    1    2    0    0  0.00000000000E+00  0.00000000000E+00  0.16551617436E+03  0.16147670590E+04  0.16062618251E+04 0.  0.
        4    1    3    3  502    0 -0.45910787477E+03  0.23240757400E+02 -0.57928612152E+03  0.73952295229E+03  0.12699999809E+01 0.  1.
       -4    1    3    3    0  502  0.45910787477E+03 -0.23240757400E+02  0.74480229587E+03  0.87524410670E+03  0.12699999809E+01 0. -1.
</event>
<event>
 5   0  0.2763895E-04  0.1587951E+04  0.7818609E-02  0.8827985E-01
        1   -1    0    0  501    0  0.00000000000E+00  0.00000000000E+00  0.23319825750E+04  0.23319825750E+04  0.50400001928E-02 0.  1.
       -1   -1    0    0    0  501  0.00000000000E+00  0.00000000000E+00 -0.27032652194E+03  0.27032652198E+03  0.50400001928E-02 0. -1.
    10030    2    1    2    0    0  0.00000000000E+00  0.00000000000E+00  0.20616560531E+04  0.26023090970E+04  0.15879505519E+04 0.  0.
        4    1    3    3  502    0  0.21291118717E+03  0.55585148454E+03  0.18919202472E+04  0.19833471408E+04  0.12699999809E+01 0.  1.
       -4    1    3    3    0  502 -0.21291118717E+03 -0.55585148454E+03  0.16973580592E+03  0.61896195618E+03  0.12699999809E+01 0. -1.
</event>
<event>
 5   0  0.2689675E-04  0.1597393E+04  0.7818609E-02  0.8822151E-01
        1   -1    0    0  501    0  0.00000000000E+00  0.00000000000E+00  0.88575688556E+03  0.88575688557E+03  0.50400001928E-02 0.  1.
       -1   -1    0    0    0  501  0.00000000000E+00  0.00000000000E+00 -0.72019348333E+03  0.72019348335E+03  0.50400001928E-02 0. -1.
    10030    2    1    2    0    0  0.00000000000E+00  0.00000000000E+00  0.16556340222E+03  0.16059503689E+04  0.15973932976E+04 0.  0.
        1    1    3    3  502    0  0.28962907151E+03  0.69833547546E+03  0.34176386515E+03  0.82967461990E+03  0.50400001928E-02 0.  1.
       -1    1    3    3    0  502 -0.28962907151E+03 -0.69833547546E+03 -0.17620046293E+03  0.77627574902E+03  0.50400001928E-02 0. -1.
</event>
<event>
 5   0  0.2649086E-04  0.1583121E+04  0.7818609E-02  0.8830985E-01
       -1   -1    0    0    0  501  0.00000000000E+00  0.00000000000E+00  0.51840350232E+03  0.51840350234E+03  0.50400001928E-02 0. -1.
        1   -1    0    0  501    0  0.00000000000E+00  0.00000000000E+00 -0.12086493236E+04  0.12086493236E+04  0.50400001928E-02 0.  1.
    10030    2    1    2    0    0  0.00000000000E+00  0.00000000000E+00 -0.69024582126E+03  0.17270528259E+04  0.15831210218E+04 0.  0.
        2    1    3    3  502    0  0.44642847036E+03  0.63634811066E+03 -0.18210207484E+03  0.79837238352E+03  0.25500000920E-02 0. -1.
       -2    1    3    3    0  502 -0.44642847036E+03 -0.63634811066E+03 -0.50814374642E+03  0.92868044242E+03  0.25500000920E-02 0.  1.
</event>
<event>
 5   0  0.2649086E-04  0.1596364E+04  0.7818609E-02  0.8822785E-01
        1   -1    0    0  501    0  0.00000000000E+00  0.00000000000E+00  0.13452471835E+04  0.13452471835E+04  0.50400001928E-02 0.  1.
       -1   -1    0    0    0  501  0.00000000000E+00  0.00000000000E+00 -0.47358899812E+03  0.47358899815E+03  0.50400001928E-02 0. -1.
    10030    2    1    2    0    0  0.00000000000E+00  0.00000000000E+00  0.87165818542E+03  0.18188361817E+04  0.15963637003E+04 0.  0.
        2    1    3    3  502    0 -0.74132295812E+03 -0.19559644452E+02  0.77218597273E+03  0.10706136018E+04  0.25500000920E-02 0. -1.
       -2    1    3    3    0  502  0.74132295812E+03  0.19559644452E+02  0.99472212690E+02  0.74822257987E+03  0.25500000920E-02 0.  1.
</event>
<event>
 5   0  0.5264308E-04  0.1561628E+04  0.7818609E-02  0.8844475E-01
       -2   -1    0    0    0  501  0.00000000000E+00  0.00000000000E+00  0.17443781602E+04  0.17443781602E+04  0.25500000920E-02 0.  1.
        2   -1    0    0  501    0  0.00000000000E+00  0.00000000000E+00 -0.34950581070E+03  0.34950581071E+03  0.25500000920E-02 0. -1.
    10030    2    1    2    0    0  0.00000000000E+00  0.00000000000E+00  0.13948723495E+04  0.20938839709E+04  0.15616277444E+04 0.  0.
        3    1    3    3  502    0  0.39857390398E+03 -0.26495057897E+03 -0.12977307065E+03  0.49588408555E+03  0.10100000352E+00 0. -1.
       -3    1    3    3    0  502 -0.39857390398E+03  0.26495057897E+03  0.15246454201E+04  0.15979998854E+04  0.10100000352E+00 0.  1.
</event>
<event>
 5   0  0.5131239E-04  0.1603424E+04  0.7818609E-02  0.8818447E-01
        2   -1    0    0  501    0  0.00000000000E+00  0.00000000000E+00  0.14838597986E+04  0.14838597986E+04  0.25500000920E-02 0. -1.
       -2   -1    0    0    0  501  0.00000000000E+00  0.00000000000E+00 -0.43315581443E+03  0.43315581444E+03  0.25500000920E-02 0.  1.
    10030    2    1    2    0    0  0.00000000000E+00  0.00000000000E+00  0.10507039841E+04  0.19170156130E+04  0.16034244598E+04 0.  0.
        1    1    3    3  502    0  0.36444084664E+03  0.44136324609E+03 -0.14579521180E+03  0.59065632097E+03  0.50400001928E-02 0.  1.
       -1    1    3    3    0  502 -0.36444084664E+03 -0.44136324609E+03  0.11964991959E+04  0.13263592920E+04  0.50400001928E-02 0. -1.
</event>
<event>
 5   0  0.5264308E-04  0.1605608E+04  0.7818609E-02  0.8817110E-01
        2   -1    0    0  501    0  0.00000000000E+00  0.00000000000E+00  0.12047164898E+04  0.12047164898E+04  0.25500000920E-02 0.  1.
       -2   -1    0    0    0  501  0.00000000000E+00  0.00000000000E+00 -0.53497564222E+03  0.53497564223E+03  0.25500000920E-02 0. -1.
    10030    2    1    2    0    0  0.00000000000E+00  0.00000000000E+00  0.66974084758E+03  0.17396921320E+04  0.16056076455E+04 0.  0.
        3    1    3    3  502    0  0.22051518386E+03 -0.16750335484E+03  0.11513293762E+04  0.11841636977E+04  0.10100000352E+00 0.  1.
       -3    1    3    3    0  502 -0.22051518386E+03  0.16750335484E+03 -0.48158852866E+03  0.55552843432E+03  0.10100000352E+00 0. -1.
</event>
<event>
 5   0  0.2689675E-04  0.1574800E+04  0.7818609E-02  0.8836181E-01
        1   -1    0    0  501    0  0.00000000000E+00  0.00000000000E+00  0.39243988989E+03  0.39243988993E+03  0.50400001928E-02 0.  1.
       -1   -1    0    0    0  501  0.00000000000E+00  0.00000000000E+00 -0.15798569121E+04  0.15798569121E+04  0.50400001928E-02 0. -1.
    10030    2    1    2    0    0  0.00000000000E+00  0.00000000000E+00 -0.11874170222E+04  0.19722968020E+04  0.15748001431E+04 0.  0.
        1    1    3    3  502    0  0.30479360503E+03  0.71164790635E+03 -0.41370526895E+03  0.87777783855E+03  0.50400001928E-02 0.  1.
       -1    1    3    3    0  502 -0.30479360503E+03 -0.71164790635E+03 -0.77371175326E+03  0.10945189635E+04  0.50400001928E-02 0. -1.
</event>
<event>
 5   0  0.5315984E-04  0.1593921E+04  0.7818609E-02  0.8824291E-01
       -2   -1    0    0    0  501  0.00000000000E+00  0.00000000000E+00  0.37104013430E+03  0.37104013430E+03  0.25500000920E-02 0. -1.
        2   -1    0    0  501    0  0.00000000000E+00  0.00000000000E+00 -0.17117994619E+04  0.17117994619E+04  0.25500000920E-02 0.  1.
    10030    2    1    2    0    0  0.00000000000E+00  0.00000000000E+00 -0.13407593276E+04  0.20828395962E+04  0.15939213309E+04 0.  0.
        2    1    3    3  502    0  0.39916046337E+01  0.24221522786E+03  0.32176349535E+03  0.40276034618E+03  0.25500000920E-02 0. -1.
       -2    1    3    3    0  502 -0.39916046337E+01 -0.24221522786E+03 -0.16625228230E+04  0.16800792500E+04  0.25500000920E-02 0.  1.
</event>
<event>
 5   0  0.5315984E-04  0.1611664E+04  0.7818609E-02  0.8813414E-01
       -2   -1    0    0    0  501  0.00000000000E+00  0.00000000000E+00  0.67797832847E+03  0.67797832847E+03  0.25500000920E-02 0. -1.
        2   -1    0    0  501    0  0.00000000000E+00  0.00000000000E+00 -0.95779646599E+03  0.95779646599E+03  0.25500000920E-02 0.  1.
    10030    2    1    2    0    0  0.00000000000E+00  0.00000000000E+00 -0.27981813752E+03  0.16357747945E+04  0.16116640432E+04 0.  0.
        2    1    3    3  502    0  0.53900732302E+03  0.51248651240E+03  0.17488230530E+03  0.76403870345E+03  0.25500000920E-02 0. -1.
       -2    1    3    3    0  502 -0.53900732302E+03 -0.51248651240E+03 -0.45470044282E+03  0.87173609101E+03  0.25500000920E-02 0.  1.
</event>
<event>
 5   0  0.2689675E-04  0.1572153E+04  0.7818609E-02  0.8837840E-01
        1   -1    0    0  501    0  0.00000000000E+00  0.00000000000E+00  0.95938930797E+03  0.95938930798E+03  0.50400001928E-02 0. -1.
       -1   -1    0    0    0  501  0.00000000000E+00  0.00000000000E+00 -0.64407284920E+03  0.64407284922E+03  0.50400001928E-02 0.  1.
    10030    2    1    2    0    0  0.00000000000E+00  0.00000000000E+00  0.31531645877E+03  0.16034621572E+04  0.15721534341E+04 0.  0.
        1    1    3    3  502    0 -0.88325161932E+01  0.59337006303E+03 -0.36811791855E+03  0.69833863349E+03  0.50400001928E-02 0.  1.
       -1    1    3    3    0  502  0.88325161932E+01 -0.59337006303E+03  0.68343437732E+03  0.90512352371E+03  0.50400001928E-02 0. -1.
</event>
<event>
 5   0  0.2763895E-04  0.1581389E+04  0.7818609E-02  0.8832064E-01
        1   -1    0    0  501    0  0.00000000000E+00  0.00000000000E+00  0.54318966252E+03  0.54318966255E+03  0.50400001928E-02 0. -1.
       -1   -1    0    0    0  501  0.00000000000E+00  0.00000000000E+00 -0.11509748375E+04  0.11509748375E+04  0.50400001928E-02 0.  1.
    10030    2    1    2    0    0  0.00000000000E+00  0.00000000000E+00 -0.60778517499E+03  0.16941645001E+04  0.15813887992E+04 0.  0.
        4    1    3    3  502    0  0.72361167963E+02  0.34850304266E+03  0.45250807546E+03  0.57572187784E+03  0.12699999809E+01 0. -1.
       -4    1    3    3    0  502 -0.72361167963E+02 -0.34850304266E+03 -0.10602932505E+04  0.11184426222E+04  0.12699999809E+01 0.  1.
</event>
<event>
 5   0  0.2730707E-04  0.1571561E+04  0.7818609E-02  0.8838212E-01
        1   -1    0    0  501    0  0.00000000000E+00  0.00000000000E+00  0.47927542907E+03  0.47927542910E+03  0.50400001928E-02 0.  1.
       -1   -1    0    0    0  501  0.00000000000E+00  0.00000000000E+00 -0.12883008282E+04  0.12883008282E+04  0.50400001928E-02 0. -1.
    10030    2    1    2    0    0  0.00000000000E+00  0.00000000000E+00 -0.80902539911E+03  0.17675762573E+04  0.15715609212E+04 0.  0.
        5    1    3    3  502    0  0.56292780281E+03 -0.51583569984E+03 -0.61328406622E+03  0.97934346185E+03  0.46999998093E+01 0. -1.
       -5    1    3    3    0  502 -0.56292780281E+03  0.51583569984E+03 -0.19574133290E+03  0.78823279544E+03  0.46999998093E+01 0.  1.
</event>
<event>
 5   0  0.5083831E-04  0.1443961E+04  0.7818609E-02  0.8922598E-01
       -2   -1    0    0    0  501  0.00000000000E+00  0.00000000000E+00  0.21425172040E+03  0.21425172042E+03  0.25500000920E-02 0.  1.
        2   -1    0    0  501    0  0.00000000000E+00  0.00000000000E+00 -0.24329117306E+04  0.24329117306E+04  0.25500000920E-02 0. -1.
    10030    2    1    2    0    0  0.00000000000E+00  0.00000000000E+00 -0.22186600102E+04  0.26471634510E+04  0.14439605589E+04 0.  0.
        4    1    3    3  502    0  0.27439157140E+03  0.42550903724E+03 -0.20528925610E+04  0.21144072823E+04  0.12699999809E+01 0. -1.
       -4    1    3    3    0  502 -0.27439157140E+03 -0.42550903724E+03 -0.16576744914E+03  0.53275616874E+03  0.12699999809E+01 0.  1.
</event>
<event>
 5   0  0.2730707E-04  0.1599127E+04  0.7818609E-02  0.8821084E-01
        1   -1    0    0  501    0  0.00000000000E+00  0.00000000000E+00  0.95730176804E+03  0.95730176806E+03  0.50400001928E-02 0. -1.
       -1   -1    0    0    0  501  0.00000000000E+00  0.00000000000E+00 -0.66781650754E+03  0.66781650755E+03  0.50400001928E-02 0.  1.
    10030    2    1    2    0    0  0.00000000000E+00  0.00000000000E+00  0.28948526051E+03  0.16251182756E+04  0.15991271662E+04 0.  0.
        5    1    3    3  502    0 -0.56119647536E+03 -0.32852589821E+03  0.61750153316E+03  0.89677253705E+03  0.46999998093E+01 0.  1.
       -5    1    3    3    0  502  0.56119647536E+03  0.32852589821E+03 -0.32801627266E+03  0.72834573856E+03  0.46999998093E+01 0. -1.
</event>
<event>
 5   0  0.5131239E-04  0.1609119E+04  0.7818609E-02  0.8814965E-01
       -2   -1    0    0    0  501  0.00000000000E+00  0.00000000000E+00  0.11158608387E+04  0.11158608387E+04  0.25500000920E-02 0.  1.
        2   -1    0    0  501    0  0.00000000000E+00  0.00000000000E+00 -0.58010446515E+03  0.58010446516E+03  0.25500000920E-02 0. -1.
    10030    2    1    2    0    0  0.00000000000E+00  0.00000000000E+00  0.53575637351E+03  0.16959653038E+04  0.16091188334E+04 0.  0.
        1    1    3    3  502    0 -0.71428467628E+03 -0.25357365195E+03  0.55228190748E+03  0.93782594392E+03  0.50400001928E-02 0.  1.
       -1    1    3    3    0  502  0.71428467628E+03  0.25357365195E+03 -0.16525533974E+02  0.75813935990E+03  0.50400001928E-02 0. -1.
</event>
<event>
 5   0  0.2730707E-04  0.1478224E+04  0.7818609E-02  0.8899064E-01
        1   -1    0    0  501    0  0.00000000000E+00  0.00000000000E+00  0.12408255423E+04  0.12408255423E+04  0.50400001928E-02 0. -1.
       -1   -1    0    0    0  501  0.00000000000E+00  0.00000000000E+00 -0.44026033569E+03  0.44026033572E+03  0.50400001928E-02 0.  1.
    10030    2    1    2    0    0  0.00000000000E+00  0.00000000000E+00  0.80056520656E+03  0.16810858780E+04  0.14782236229E+04 0.  0.
        5    1    3    3  502    0  0.23726243186E+03  0.42389874185E+03  0.10337540663E+04  0.11422141500E+04  0.46999998093E+01 0. -1.
       -5    1    3    3    0  502 -0.23726243186E+03 -0.42389874185E+03 -0.23318885972E+03  0.53887172798E+03  0.46999998093E+01 0.  1.
</event>
<event>
 5   0  0.2796994E-04  0.1607172E+04  0.7818609E-02  0.8816154E-01
       -1   -1    0    0    0  501  0.00000000000E+00  0.00000000000E+00  0.39690756656E+03  0.39690756659E+03  0.50400001928E-02 0.  1.
        1   -1    0    0  501    0  0.00000000000E+00  0.00000000000E+00 -0.16269547891E+04  0.16269547891E+04  0.50400001928E-02 0. -1.
    10030    2    1    2    0    0  0.00000000000E+00  0.00000000000E+00 -0.12300472225E+04  0.20238623557E+04  0.16071722574E+04 0.  0.
        3    1    3    3  502    0  0.54521439232E+03 -0.58110141837E+03 -0.74596982116E+03  0.10915166404E+04  0.10100000352E+00 0. -1.
       -3    1    3    3    0  502 -0.54521439232E+03  0.58110141837E+03 -0.48407740133E+03  0.93234571523E+03  0.10100000352E+00 0.  1.
</event>
<event>
 5   0  0.2796994E-04  0.1597497E+04  0.7818609E-02  0.8822087E-01
        1   -1    0    0  501    0  0.00000000000E+00  0.00000000000E+00  0.71663877782E+03  0.71663877784E+03  0.50400001928E-02 0. -1.
       -1   -1    0    0    0  501  0.00000000000E+00  0.00000000000E+00 -0.89026623261E+03  0.89026623263E+03  0.50400001928E-02 0.  1.
    10030    2    1    2    0    0  0.00000000000E+00  0.00000000000E+00 -0.17362745479E+03  0.16069050105E+04  0.15974971736E+04 0.  0.
        3    1    3    3  502    0  0.50012268363E+03  0.16064287074E+03 -0.69208025299E+03  0.86885206876E+03  0.10100000352E+00 0.  1.
       -3    1    3    3    0  502 -0.50012268363E+03 -0.16064287074E+03  0.51845279820E+03  0.73805294171E+03  0.10100000352E+00 0. -1.
</event>
<event>
 5   0  0.2730707E-04  0.1539934E+04  0.7818609E-02  0.8858323E-01
        1   -1    0    0  501    0  0.00000000000E+00  0.00000000000E+00  0.15174968559E+04  0.15174968559E+04  0.50400001928E-02 0. -1.
       -1   -1    0    0    0  501  0.00000000000E+00  0.00000000000E+00 -0.39067593861E+03  0.39067593864E+03  0.50400001928E-02 0.  1.
    10030    2    1    2    0    0  0.00000000000E+00  0.00000000000E+00  0.11268209173E+04  0.19081727946E+04  0.15399344253E+04 0.  0.
        5    1    3    3  502    0 -0.63488646945E+03  0.43006239981E+03  0.47762461208E+03  0.90342783712E+03  0.46999998093E+01 0.  1.
       -5    1    3    3    0  502  0.63488646945E+03 -0.43006239981E+03  0.64919630525E+03  0.10047449575E+04  0.46999998093E+01 0. -1.
</event>
<event>
 5   0  0.5083831E-04  0.1599764E+04  0.7818609E-02  0.8820693E-01
        2   -1    0    0  501    0  0.00000000000E+00  0.00000000000E+00  0.79469645828E+03  0.79469645828E+03  0.25500000920E-02 0. -1.
       -2   -1    0    0    0  501  0.00000000000E+00  0.00000000000E+00 -0.80510121109E+03  0.80510121110E+03  0.25500000920E-02 0.  1.
    10030    2    1    2    0    0  0.00000000000E+00  0.00000000000E+00 -0.10404752814E+02  0.15997976694E+04  0.15997638338E+04 0.  0.
        4    1    3    3  502    0  0.60749475776E+03 -0.50764064190E+03  0.10908287454E+03  0.79915554708E+03  0.12699999809E+01 0.  1.
       -4    1    3    3    0  502 -0.60749475776E+03  0.50764064190E+03 -0.11948762736E+03  0.80064212230E+03  0.12699999809E+01 0. -1.
</event>
<event>
 5   0  0.5264308E-04  0.1596481E+04  0.7818609E-02  0.8822713E-01
        2   -1    0    0  501    0  0.00000000000E+00  0.00000000000E+00  0.61412344758E+03  0.61412344759E+03  0.25500000920E-02 0. -1.
       -2   -1    0    0    0  501  0.00000000000E+00  0.00000000000E+00 -0.10375568258E+04  0.10375568258E+04  0.25500000920E-02 0.  1.
    10030    2    1    2    0    0  0.00000000000E+00  0.00000000000E+00 -0.42343337823E+03  0.16516802734E+04  0.15964810991E+04 0.  0.
        3    1    3    3  502    0 -0.36001845517E+03  0.22687808172E+02 -0.94841869272E+03  0.10147049086E+04  0.10100000352E+00 0.  1.
       -3    1    3    3    0  502  0.36001845517E+03 -0.22687808172E+02  0.52498531448E+03  0.63697536477E+03  0.10100000352E+00 0. -1.
</event>
<event>
 5   0  0.5315984E-04  0.1535518E+04  0.7818609E-02  0.8861172E-01
       -2   -1    0    0    0  501  0.00000000000E+00  0.00000000000E+00  0.69799390355E+03  0.69799390356E+03  0.25500000920E-02 0.  1.
        2   -1    0    0  501    0  0.00000000000E+00  0.00000000000E+00 -0.84449666977E+03  0.84449666978E+03  0.25500000920E-02 0. -1.
    10030    2    1    2    0    0  0.00000000000E+00  0.00000000000E+00 -0.14650276622E+03  0.15424905733E+04  0.15355175376E+04 0.  0.
        2    1    3    3  502    0 -0.42145907544E+03  0.47849887399E+03  0.35631724873E+03  0.73044569027E+03  0.25500000920E-02 0.  1.
       -2    1    3    3    0  502  0.42145907544E+03 -0.47849887399E+03 -0.50282001494E+03  0.81204488307E+03  0.25500000920E-02 0. -1.
</event>
<event>
 5   0  0.5131239E-04  0.1668902E+04  0.7818609E-02  0.8779302E-01
       -2   -1    0    0    0  501  0.00000000000E+00  0.00000000000E+00  0.55734898790E+03  0.55734898791E+03  0.25500000920E-02 0. -1.
        2   -1    0    0  501    0  0.00000000000E+00  0.00000000000E+00 -0.12493216972E+04  0.12493216972E+04  0.25500000920E-02 0.  1.
    10030    2    1    2    0    0  0.00000000000E+00  0.00000000000E+00 -0.69197270929E+03  0.18066706851E+04  0.16689016550E+04 0.  0.
        1    1    3    3  502    0 -0.36900359632E+03 -0.17469518496E+03  0.44184443711E+03  0.60158837121E+03  0.50400001928E-02 0. -1.
       -1    1    3    3    0  502  0.36900359632E+03  0.17469518496E+03 -0.11338171464E+04  0.12050823139E+04  0.50400001928E-02 0.  1.
</event>
<event>
 5   0  0.5381164E-04  0.1594393E+04  0.7818609E-02  0.8824000E-01
       -2   -1    0    0    0  501  0.00000000000E+00  0.00000000000E+00  0.67531118234E+03  0.67531118234E+03  0.25500000920E-02 0. -1.
        2   -1    0    0  501    0  0.00000000000E+00  0.00000000000E+00 -0.94108005726E+03  0.94108005726E+03  0.25500000920E-02 0.  1.
    10030    2    1    2    0    0  0.00000000000E+00  0.00000000000E+00 -0.26576887492E+03  0.16163912396E+04  0.15943925315E+04 0.  0.
        5    1    3    3  502    0 -0.78822712020E+03  0.79659162916E+01 -0.25341276103E+03  0.82801302302E+03  0.46999998093E+01 0.  1.
       -5    1    3    3    0  502  0.78822712020E+03 -0.79659162916E+01 -0.12356113896E+02  0.78837821659E+03  0.46999998093E+01 0. -1.
</event>
<event>
 5   0  0.5264308E-04  0.1607241E+04  0.7818609E-02  0.8816112E-01
       -2   -1    0    0    0  501  0.00000000000E+00  0.00000000000E+00  0.59425451376E+03  0.59425451377E+03  0.25500000920E-02 0.  1.
        2   -1    0    0  501    0  0.00000000000E+00  0.00000000000E+00 -0.10867495772E+04  0.10867495772E+04  0.25500000920E-02 0. -1.
    10030    2    1    2    0    0  0.00000000000E+00  0.00000000000E+00 -0.49249506344E+03  0.16810040910E+04  0.16072409173E+04 0.  0.
        3    1    3    3  502    0  0.77258614237E+03  0.21777819414E+03 -0.20588709372E+03  0.82867737678E+03  0.10100000352E+00 0.  1.
       -3    1    3    3    0  502 -0.77258614237E+03 -0.21777819414E+03 -0.28660796972E+03  0.85232671420E+03  0.10100000352E+00 0. -1.
</event>
<event>
 5   0  0.2689675E-04  0.1538319E+04  0.7818609E-02  0.8859364E-01
       -1   -1    0    0    0  501  0.00000000000E+00  0.00000000000E+00  0.32936523689E+03  0.32936523693E+03  0.50400001928E-02 0.  1.
        1   -1    0    0  501    0  0.00000000000E+00  0.00000000000E+00 -0.17962007590E+04  0.17962007590E+04  0.50400001928E-02 0. -1.
    10030    2    1    2    0    0  0.00000000000E+00  0.00000000000E+00 -0.14668355221E+04  0.21255659960E+04  0.15383186777E+04 0.  0.
        1    1    3    3  502    0  0.17639882328E+03 -0.68332964006E+03 -0.31079730239E+03  0.77113611317E+03  0.50400001928E-02 0.  1.
       -1    1    3    3    0  502 -0.17639882328E+03  0.68332964006E+03 -0.11560382197E+04  0.13544298828E+04  0.50400001928E-02 0. -1.
</event>
<event>
 5   0  0.2796994E-04  0.1597788E+04  0.7818609E-02  0.8821908E-01
       -1   -1    0    0    0  501  0.00000000000E+00  0.00000000000E+00  0.47704231629E+03  0.47704231631E+03  0.50400001928E-02 0.  1.
        1   -1    0    0  501    0  0.00000000000E+00  0.00000000000E+00 -0.13378935229E+04  0.13378935229E+04  0.50400001928E-02 0. -1.
    10030    2    1    2    0    0  0.00000000000E+00  0.00000000000E+00 -0.86085120662E+03  0.18149358392E+04  0.15977882527E+04 0.  0.
        3    1    3    3  502    0  0.35843398299E+03 -0.65077623475E+03 -0.76401675494E+03  0.10656951909E+04  0.10100000352E+00 0. -1.
       -3    1    3    3    0  502 -0.35843398299E+03  0.65077623475E+03 -0.96834451678E+02  0.74924064833E+03  0.10100000352E+00 0.  1.
</event>
<event>
 5   0  0.2730707E-04  0.1609595E+04  0.7818609E-02  0.8814675E-01
       -1   -1    0    0    0  501  0.00000000000E+00  0.00000000000E+00  0.92015999677E+03  0.92015999678E+03  0.50400001928E-02 0. -1.
        1   -1    0    0  501    0  0.00000000000E+00  0.00000000000E+00 -0.70389861669E+03  0.70389861671E+03  0.50400001928E-02 0.  1.
    10030    2    1    2    0    0  0.00000000000E+00  0.00000000000E+00  0.21626138008E+03  0.16240586135E+04  0.16095954136E+04 0.  0.
        5    1    3    3  502    0 -0.66574406896E+02 -0.16962687140E+03  0.89905689132E+03  0.91734988471E+03  0.46999998093E+01 0. -1.
       -5    1    3    3    0  502  0.66574406896E+02  0.16962687140E+03 -0.68279551124E+03  0.70670872877E+03  0.46999998093E+01 0.  1.
</event>
<event>
 5   0  0.2796994E-04  0.1573856E+04  0.7818609E-02  0.8836772E-01
       -1   -1    0    0    0  501  0.00000000000E+00  0.00000000000E+00  0.12908113310E+04  0.12908113310E+04  0.50400001928E-02 0. -1.
        1   -1    0    0  501    0  0.00000000000E+00  0.00000000000E+00 -0.47974160821E+03  0.47974160824E+03  0.50400001928E-02 0.  1.
    10030    2    1    2    0    0  0.00000000000E+00  0.00000000000E+00  0.81106972283E+03  0.17705529393E+04  0.15738562881E+04 0.  0.
        3    1    3    3  502    0  0.55372950392E+03 -0.47586168179E+03  0.75252516993E+02  0.73397796644E+03  0.10100000352E+00 0. -1.
       -3    1    3    3    0  502 -0.55372950392E+03  0.47586168179E+03  0.73581720584E+03  0.10365749728E+04  0.10100000352E+00 0.  1.
</event>
<event>
 5   0  0.5315984E-04  0.1603792E+04  0.7818609E-02  0.8818222E-01
        2   -1    0    0  501    0  0.00000000000E+00  0.00000000000E+00  0.98808693467E+03  0.98808693467E+03  0.25500000920E-02 0. -1.
       -2   -1    0    0    0  501  0.00000000000E+00  0.00000000000E+00 -0.65079047216E+03  0.65079047217E+03  0.25500000920E-02 0.  1.
    10030    2    1    2    0    0  0.00000000000E+00  0.00000000000E+00  0.33729646251E+03  0.16388774068E+04  0.16037924588E+04 0.  0.
        2    1    3    3  502    0  0.74763917769E+03 -0.77982188871E+01  0.46483798049E+03  0.88039735367E+03  0.25500000920E-02 0. -1.
       -2    1    3    3    0  502 -0.74763917769E+03  0.77982188871E+01 -0.12754151798E+03  0.75848005317E+03  0.25500000920E-02 0.  1.
</event>
<event>
 5   0  0.5264308E-04  0.1608163E+04  0.7818609E-02  0.8815549E-01
        2   -1    0    0  501    0  0.00000000000E+00  0.00000000000E+00  0.17716689938E+04  0.17716689938E+04  0.25500000920E-02 0. -1.
       -2   -1    0    0    0  501  0.00000000000E+00  0.00000000000E+00 -0.36493675439E+03  0.36493675440E+03  0.25500000920E-02 0.  1.
    10030    2    1    2    0    0  0.00000000000E+00  0.00000000000E+00  0.14067322394E+04  0.21366057482E+04  0.16081630918E+04 0.  0.
        3    1    3    3  502    0 -0.84068717511E+02 -0.31069714973E+03  0.16823441877E+04  0.17128579171E+04  0.10100000352E+00 0. -1.
       -3    1    3    3    0  502  0.84068717511E+02  0.31069714973E+03 -0.27561194829E+03  0.42374783109E+03  0.10100000352E+00 0.  1.
</event>
<event>
 5   0  0.2796994E-04  0.1591916E+04  0.7818609E-02  0.8825530E-01
        1   -1    0    0  501    0  0.00000000000E+00  0.00000000000E+00  0.80811025119E+03  0.80811025121E+03  0.50400001928E-02 0.  1.
       -1   -1    0    0    0  501  0.00000000000E+00  0.00000000000E+00 -0.78398851439E+03  0.78398851440E+03  0.50400001928E-02 0. -1.
    10030    2    1    2    0    0  0.00000000000E+00  0.00000000000E+00  0.24121736807E+02  0.15920987656E+04  0.15919160221E+04 0.  0.
        3    1    3    3  502    0 -0.63577067322E+03  0.60339792257E+02  0.48719845676E+03  0.80324814717E+03  0.10100000352E+00 0. -1.
       -3    1    3    3    0  502  0.63577067322E+03 -0.60339792257E+02 -0.46307671995E+03  0.78885061844E+03  0.10100000352E+00 0.  1.
</event>
<event>
 5   0  0.2649086E-04  0.1573084E+04  0.7818609E-02  0.8837256E-01
       -1   -1    0    0    0  501  0.00000000000E+00  0.00000000000E+00  0.34023542736E+03  0.34023542740E+03  0.50400001928E-02 0. -1.
        1   -1    0    0  501    0  0.00000000000E+00  0.00000000000E+00 -0.18182942593E+04  0.18182942593E+04  0.50400001928E-02 0.  1.
    10030    2    1    2    0    0  0.00000000000E+00  0.00000000000E+00 -0.14780588319E+04  0.21585296867E+04  0.15730837542E+04 0.  0.
        2    1    3    3  502    0  0.42705568662E+03  0.32779671827E+03 -0.15258684042E+04  0.16180548925E+04  0.25500000920E-02 0.  1.
       -2    1    3    3    0  502 -0.42705568662E+03 -0.32779671827E+03  0.47809572311E+02  0.54047479422E+03  0.25500000920E-02 0. -1.
</event>
<event>
 5   0  0.5315984E-04  0.1598928E+04  0.7818609E-02  0.8821207E-01
       -2   -1    0    0    0  501  0.00000000000E+00  0.00000000000E+00  0.21991609592E+03  0.21991609594E+03  0.25500000920E-02 0. -1.
        2   -1    0    0  501    0  0.00000000000E+00  0.00000000000E+00 -0.29063018578E+04  0.29063018578E+04  0.25500000920E-02 0.  1.
    10030    2    1    2    0    0  0.00000000000E+00  0.00000000000E+00 -0.26863857619E+04  0.31262179537E+04  0.15989278385E+04 0.  0.
        2    1    3    3  502    0  0.54774528804E+03  0.54635874577E+03 -0.94918428269E+03  0.12245340265E+04  0.25500000920E-02 0. -1.
       -2    1    3    3    0  502 -0.54774528804E+03 -0.54635874577E+03 -0.17372014792E+04  0.19016839272E+04  0.25500000920E-02 0.  1.
</event>
<event>
 5   0  0.2763895E-04  0.1559469E+04  0.7818609E-02  0.8845842E-01
        1   -1    0    0  501    0  0.00000000000E+00  0.00000000000E+00  0.69334008154E+03  0.69334008156E+03  0.50400001928E-02 0.  1.
       -1   -1    0    0    0  501  0.00000000000E+00  0.00000000000E+00 -0.87689418286E+03  0.87689418287E+03  0.50400001928E-02 0. -1.
    10030    2    1    2    0    0  0.00000000000E+00  0.00000000000E+00 -0.18355410132E+03  0.15702342644E+04  0.15594689920E+04 0.  0.
        4    1    3    3  502    0  0.83221962626E+02 -0.83548027930E+02 -0.86786238887E+03  0.87583840230E+03  0.12699999809E+01 0. -1.
       -4    1    3    3    0  502 -0.83221962626E+02  0.83548027930E+02  0.68430828755E+03  0.69439586213E+03  0.12699999809E+01 0.  1.
</event>
<event>
 5   0  0.5131239E-04  0.1567488E+04  0.7818609E-02  0.8840774E-01
        2   -1    0    0  501    0  0.00000000000E+00  0.00000000000E+00  0.11450730615E+04  0.11450730615E+04  0.25500000920E-02 0.  1.
       -2   -1    0    0    0  501  0.00000000000E+00  0.00000000000E+00 -0.53643306114E+03  0.53643306114E+03  0.25500000920E-02 0. -1.
    10030    2    1    2    0    0  0.00000000000E+00  0.00000000000E+00  0.60864000039E+03  0.16815061227E+04  0.15674884977E+04 0.  0.
        1    1    3    3  502    0 -0.49321940405E+03 -0.48829379627E+03 -0.86249594130E+02  0.69938201616E+03  0.50400001928E-02 0. -1.
       -1    1    3    3    0  502  0.49321940405E+03  0.48829379627E+03  0.69488959452E+03  0.98212410652E+03  0.50400001928E-02 0.  1.
</event>
<event>
 5   0  0.2763895E-04  0.1569964E+04  0.7818609E-02  0.8839216E-01
        1   -1    0    0  501    0  0.00000000000E+00  0.00000000000E+00  0.54968411449E+03  0.54968411451E+03  0.50400001928E-02 0.  1.
       -1   -1    0    0    0  501  0.00000000000E+00  0.00000000000E+00 -0.11210016675E+04  0.11210016675E+04  0.50400001928E-02 0. -1.
    10030    2    1    2    0    0  0.00000000000E+00  0.00000000000E+00 -0.57131755301E+03  0.16706857820E+04  0.15699640874E+04 0.  0.
        4    1    3    3  502    0  0.26711302058E+03  0.19717293560E+03  0.47129065780E+03  0.57649200283E+03  0.12699999809E+01 0.  1.
       -4    1    3    3    0  502 -0.26711302058E+03 -0.19717293560E+03 -0.10426082108E+04  0.10941937792E+04  0.12699999809E+01 0. -1.
</event>
<event>
 5   0  0.2796994E-04  0.1383628E+04  0.7818609E-02  0.8965756E-01
        1   -1    0    0  501    0  0.00000000000E+00  0.00000000000E+00  0.58856707315E+03  0.58856707317E+03  0.50400001928E-02 0.  1.
       -1   -1    0    0    0  501  0.00000000000E+00  0.00000000000E+00 -0.81317205408E+03  0.81317205409E+03  0.50400001928E-02 0. -1.
    10030    2    1    2    0    0  0.00000000000E+00  0.00000000000E+00 -0.22460498093E+03  0.14017391273E+04  0.13836275451E+04 0.  0.
        3    1    3    3  502    0 -0.30829438960E+03  0.18061829385E+03  0.48785209024E+03  0.60470494531E+03  0.10100000352E+00 0.  1.
       -3    1    3    3    0  502  0.30829438960E+03 -0.18061829385E+03 -0.71245707117E+03  0.79703418195E+03  0.10100000352E+00 0. -1.
</event>
<event>
 5   0  0.2649086E-04  0.1646899E+04  0.7818609E-02  0.8792243E-01
        1   -1    0    0  501    0  0.00000000000E+00  0.00000000000E+00  0.10887389424E+04  0.10887389424E+04  0.50400001928E-02 0. -1.
       -1   -1    0    0    0  501  0.00000000000E+00  0.00000000000E+00 -0.62280235613E+03  0.62280235615E+03  0.50400001928E-02 0.  1.
    10030    2    1    2    0    0  0.00000000000E+00  0.00000000000E+00  0.46593658630E+03  0.17115412986E+04  0.16468991209E+04 0.  0.
        2    1    3    3  502    0  0.45553075914E+03  0.58169151029E+03  0.61082694129E+03  0.95863592562E+03  0.25500000920E-02 0.  1.
       -2    1    3    3    0  502 -0.45553075914E+03 -0.58169151029E+03 -0.14489035500E+03  0.75290537297E+03  0.25500000920E-02 0. -1.
</event>
<event>
 5   0  0.5131239E-04  0.1648765E+04  0.7818609E-02  0.8791137E-01
       -2   -1    0    0    0  501  0.00000000000E+00  0.00000000000E+00  0.34617198515E+03  0.34617198516E+03  0.25500000920E-02 0. -1.
        2   -1    0    0  501    0  0.00000000000E+00  0.00000000000E+00 -0.19632057263E+04  0.19632057263E+04  0.25500000920E-02 0.  1.
    10030    2    1    2    0    0  0.00000000000E+00  0.00000000000E+00 -0.16170337412E+04  0.23093777115E+04  0.16487653848E+04 0.  0.
        1    1    3    3  502    0 -0.53909908032E+03 -0.18308601371E+03 -0.16436016557E+04  0.17394179226E+04  0.50400001928E-02 0.  1.
       -1    1    3    3    0  502  0.53909908032E+03  0.18308601371E+03  0.26567914539E+02  0.56995978887E+03  0.50400001928E-02 0. -1.
</event>
<event>
 5   0  0.5381164E-04  0.1600166E+04  0.7818609E-02  0.8820446E-01
        2   -1    0    0  501    0  0.00000000000E+00  0.00000000000E+00  0.22013145344E+04  0.22013145344E+04  0.25500000920E-02 0.  1.
       -2   -1    0    0    0  501  0.00000000000E+00  0.00000000000E+00 -0.29079586498E+03  0.29079586499E+03  0.25500000920E-02 0. -1.
    10030    2    1    2    0    0  0.00000000000E+00  0.00000000000E+00  0.19105186694E+04  0.24921103993E+04  0.16001664465E+04 0.  0.
        5    1    3    3  502    0 -0.61399354983E+02 -0.47954804471E+02  0.21953715077E+04  0.21967584507E+04  0.46999998093E+01 0.  1.
       -5    1    3    3    0  502  0.61399354983E+02  0.47954804471E+02 -0.28485283831E+03  0.29535194862E+03  0.46999998093E+01 0. -1.
</event>
<event>
 5   0  0.2730707E-04  0.1590351E+04  0.7818609E-02  0.8826498E-01
       -1   -1    0    0    0  501  0.00000000000E+00  0.00000000000E+00  0.81098063924E+03  0.81098063926E+03  0.50400001928E-02 0.  1.
        1   -1    0    0  501    0  0.00000000000E+00  0.00000000000E+00 -0.77967794509E+03  0.77967794511E+03  0.50400001928E-02 0. -1.
    10030    2    1    2    0    0  0.00000000000E+00  0.00000000000E+00  0.31302694146E+02  0.15906585844E+04  0.15903505505E+04 0.  0.
        5    1    3    3  502    0 -0.46441540132E+03  0.56848197761E+03  0.32137082647E+03  0.80134556962E+03  0.46999998093E+01 0.  1.
       -5    1    3    3    0  502  0.46441540132E+03 -0.56848197761E+03 -0.29006813233E+03  0.78931301474E+03  0.46999998093E+01 0. -1.
</event>
<event>
 5   0  0.5083831E-04  0.1598772E+04  0.7818609E-02  0.8821303E-01
        2   -1    0    0  501    0  0.00000000000E+00  0.00000000000E+00  0.23628446785E+04  0.23628446785E+04  0.25500000920E-02 0.  1.
       -2   -1    0    0    0  501  0.00000000000E+00  0.00000000000E+00 -0.27044433040E+03  0.27044433041E+03  0.25500000920E-02 0. -1.
    10030    2    1    2    0    0  0.00000000000E+00  0.00000000000E+00  0.20924003481E+04  0.26332890089E+04  0.15987719624E+04 0.  0.
        4    1    3    3  502    0  0.29118821496E+03  0.42537905111E+03  0.39897921576E+02  0.51704097585E+03  0.12699999809E+01 0. -1.
       -4    1    3    3    0  502 -0.29118821496E+03 -0.42537905111E+03  0.20525024265E+04  0.21162480331E+04  0.12699999809E+01 0.  1.
</event>
<event>
 5   0  0.2689675E-04  0.1593666E+04  0.7818609E-02  0.8824449E-01
        1   -1    0    0  501    0  0.00000000000E+00  0.00000000000E+00  0.14346604622E+04  0.14346604622E+04  0.50400001928E-02 0. -1.
       -1   -1    0    0    0  501  0.00000000000E+00  0.00000000000E+00 -0.44257362020E+03  0.44257362023E+03  0.50400001928E-02 0.  1.
    10030    2    1    2    0    0  0.00000000000E+00  0.00000000000E+00  0.99208684196E+03  0.18772340824E+04  0.15936660560E+04 0.  0.
        1    1    3    3  502    0  0.16288147590E+03  0.15163294000E+03 -0.40522647974E+03  0.46231095985E+03  0.50400001928E-02 0.  1.
       -1    1    3    3    0  502 -0.16288147590E+03 -0.15163294000E+03  0.13973133217E+04  0.14149231225E+04  0.50400001928E-02 0. -1.
</event>
<event>
 5   0  0.2730707E-04  0.1591530E+04  0.7818609E-02  0.8825768E-01
       -1   -1    0    0    0  501  0.00000000000E+00  0.00000000000E+00  0.74611943779E+03  0.74611943780E+03  0.50400001928E-02 0.  1.
        1   -1    0    0  501    0  0.00000000000E+00  0.00000000000E+00 -0.84871388770E+03  0.84871388772E+03  0.50400001928E-02 0. -1.
    10030    2    1    2    0    0  0.00000000000E+00  0.00000000000E+00 -0.10259444992E+03  0.15948333255E+04  0.15915299919E+04 0.  0.
        5    1    3    3  502    0  0.36774695752E+03  0.26464429087E+03  0.60423593145E+03  0.75524669897E+03  0.46999998093E+01 0.  1.
       -5    1    3    3    0  502 -0.36774695752E+03 -0.26464429087E+03 -0.70683038137E+03  0.83958662655E+03  0.46999998093E+01 0. -1.
</event>
<event>
 5   0  0.2649086E-04  0.1684943E+04  0.7818609E-02  0.8769999E-01
        1   -1    0    0  501    0  0.00000000000E+00  0.00000000000E+00  0.55113460025E+03  0.55113460028E+03  0.50400001928E-02 0. -1.
       -1   -1    0    0    0  501  0.00000000000E+00  0.00000000000E+00 -0.12878131952E+04  0.12878131952E+04  0.50400001928E-02 0.  1.
    10030    2    1    2    0    0  0.00000000000E+00  0.00000000000E+00 -0.73667859491E+03  0.18389477955E+04  0.16849432163E+04 0.  0.
        2    1    3    3  502    0  0.52015366114E+03  0.27593289078E+03  0.28927781365E+03  0.65603387480E+03  0.25500000920E-02 0. -1.
       -2    1    3    3    0  502 -0.52015366114E+03 -0.27593289078E+03 -0.10259564086E+04  0.11829139207E+04  0.25500000920E-02 0.  1.
</event>
<event>
 5   0  0.2649086E-04  0.1590008E+04  0.7818609E-02  0.8826710E-01
       -1   -1    0    0    0  501  0.00000000000E+00  0.00000000000E+00  0.56929730796E+03  0.56929730798E+03  0.50400001928E-02 0. -1.
        1   -1    0    0  501    0  0.00000000000E+00  0.00000000000E+00 -0.11101962547E+04  0.11101962547E+04  0.50400001928E-02 0.  1.
    10030    2    1    2    0    0  0.00000000000E+00  0.00000000000E+00 -0.54089894673E+03  0.16794935627E+04  0.15900084769E+04 0.  0.
        2    1    3    3  502    0  0.41305619123E+03 -0.33347230734E+03 -0.89554264045E+03  0.10410647520E+04  0.25500000920E-02 0.  1.
       -2    1    3    3    0  502 -0.41305619123E+03  0.33347230734E+03  0.35464369372E+03  0.63842881074E+03  0.25500000920E-02 0. -1.
</event>
<event>
 5   0  0.2730707E-04  0.1610216E+04  0.7818609E-02  0.8814297E-01
       -1   -1    0    0    0  501  0.00000000000E+00  0.00000000000E+00  0.56022580345E+03  0.56022580348E+03  0.50400001928E-02 0. -1.
        1   -1    0    0  501    0  0.00000000000E+00  0.00000000000E+00 -0.11570311905E+04  0.11570311905E+04  0.50400001928E-02 0.  1.
    10030    2    1    2    0    0  0.00000000000E+00  0.00000000000E+00 -0.59680538706E+03  0.17172569940E+04  0.16102157972E+04 0.  0.
        5    1    3    3  502    0 -0.27708035313E+02 -0.36714700104E+03 -0.10619669457E+04  0.11239931225E+04  0.46999998093E+01 0.  1.
       -5    1    3    3    0  502  0.27708035313E+02  0.36714700104E+03  0.46516155866E+03  0.59326387152E+03  0.46999998093E+01 0. -1.
</event>
<event>
 5   0  0.2730707E-04  0.1589601E+04  0.7818609E-02  0.8826962E-01
       -1   -1    0    0    0  501  0.00000000000E+00  0.00000000000E+00  0.39884621769E+03  0.39884621773E+03  0.50400001928E-02 0.  1.
        1   -1    0    0  501    0  0.00000000000E+00  0.00000000000E+00 -0.15838382768E+04  0.15838382768E+04  0.50400001928E-02 0. -1.
    10030    2    1    2    0    0  0.00000000000E+00  0.00000000000E+00 -0.11849920591E+04  0.19826844945E+04  0.15896010898E+04 0.  0.
        5    1    3    3  502    0  0.43882054558E+03 -0.66020508714E+03 -0.66361954343E+03  0.10338506743E+04  0.46999998093E+01 0. -1.
       -5    1    3    3    0  502 -0.43882054558E+03  0.66020508714E+03 -0.52137251563E+03  0.94883382020E+03  0.46999998093E+01 0.  1.
</event>
<event>
 5   0  0.2649086E-04  0.1592506E+04  0.7818609E-02  0.8825165E-01
       -1   -1    0    0    0  501  0.00000000000E+00  0.00000000000E+00  0.85820655846E+03  0.85820655848E+03  0.50400001928E-02 0. -1.
        1   -1    0    0  501    0  0.00000000000E+00  0.00000000000E+00 -0.73877178807E+03  0.73877178808E+03  0.50400001928E-02 0.  1.
    10030    2    1    2    0    0  0.00000000000E+00  0.00000000000E+00  0.11943477039E+03  0.15969783466E+04  0.15925059419E+04 0.  0.
        2    1    3    3  502    0  0.12161759147E+03 -0.28622105449E+03 -0.67535243849E+03  0.74351479257E+03  0.25500000920E-02 0.  1.
       -2    1    3    3    0  502 -0.12161759147E+03  0.28622105449E+03  0.79478720888E+03  0.85346355399E+03  0.25500000920E-02 0. -1.
</event>
<event>
 5   0  0.2649086E-04  0.1618603E+04  0.7818609E-02  0.8809200E-01
        1   -1    0    0  501    0  0.00000000000E+00  0.00000000000E+00  0.12661971643E+04  0.12661971643E+04  0.50400001928E-02 0.  1.
       -1   -1    0    0    0  501  0.00000000000E+00  0.00000000000E+00 -0.51727242562E+03  0.51727242565E+03  0.50400001928E-02 0. -1.
    10030    2    1    2    0    0  0.00000000000E+00  0.00000000000E+00  0.74892473870E+03  0.17834695900E+04  0.16186029514E+04 0.  0.
        2    1    3    3  502    0  0.20637678539E+03 -0.78051968105E+03  0.31245874460E+03  0.86569787868E+03  0.25500000920E-02 0.  1.
       -2    1    3    3    0  502 -0.20637678539E+03  0.78051968105E+03  0.43646599411E+03  0.91777171131E+03  0.25500000920E-02 0. -1.
</event>
<event>
 5   0  0.2649086E-04  0.1591690E+04  0.7818609E-02  0.8825670E-01
       -1   -1    0    0    0  501  0.00000000000E+00  0.00000000000E+00  0.27383526090E+03  0.27383526095E+03  0.50400001928E-02 0.  1.
        1   -1    0    0  501    0  0.00000000000E+00  0.00000000000E+00 -0.23129561455E+04  0.23129561455E+04  0.50400001928E-02 0. -1.
    10030    2    1    2    0    0  0.00000000000E+00  0.00000000000E+00 -0.20391208846E+04  0.25867914064E+04  0.15916896049E+04 0.  0.
        2    1    3    3  502    0 -0.75238948882E+03 -0.24818731104E+03 -0.89705478568E+03  0.11968267096E+04  0.25500000920E-02 0. -1.
       -2    1    3    3    0  502  0.75238948882E+03  0.24818731104E+03 -0.11420660989E+04  0.13899646969E+04  0.25500000920E-02 0.  1.
</event>
<event>
 5   0  0.5131239E-04  0.1598598E+04  0.7818609E-02  0.8821410E-01
        2   -1    0    0  501    0  0.00000000000E+00  0.00000000000E+00  0.53096591701E+03  0.53096591701E+03  0.25500000920E-02 0. -1.
       -2   -1    0    0    0  501  0.00000000000E+00  0.00000000000E+00 -0.12032387814E+04  0.12032387814E+04  0.25500000920E-02 0.  1.
    10030    2    1    2    0    0  0.00000000000E+00  0.00000000000E+00 -0.67227286435E+03  0.17342046984E+04  0.15985978643E+04 0.  0.
        1    1    3    3  502    0 -0.32548473744E+03  0.23055867982E+03  0.41528352744E+03  0.57581075653E+03  0.50400001928E-02 0. -1.
       -1    1    3    3    0  502  0.32548473744E+03 -0.23055867982E+03 -0.10875563918E+04  0.11583939418E+04  0.50400001928E-02 0.  1.
</event>
<event>
 5   0  0.2730707E-04  0.1602834E+04  0.7818609E-02  0.8818809E-01
        1   -1    0    0  501    0  0.00000000000E+00  0.00000000000E+00  0.16515884117E+04  0.16515884117E+04  0.50400001928E-02 0.  1.
       -1   -1    0    0    0  501  0.00000000000E+00  0.00000000000E+00 -0.38887947763E+03  0.38887947766E+03  0.50400001928E-02 0. -1.
    10030    2    1    2    0    0  0.00000000000E+00  0.00000000000E+00  0.12627089341E+04  0.20404678894E+04  0.16028335395E+04 0.  0.
        5    1    3    3  502    0  0.34218310001E+03 -0.49594462400E+03 -0.41306541374E+02  0.60396909222E+03  0.46999998093E+01 0. -1.
       -5    1    3    3    0  502 -0.34218310001E+03  0.49594462400E+03  0.13040154755E+04  0.14364987972E+04  0.46999998093E+01 0.  1.
</event>
<event>
 5   0  0.2649086E-04  0.1591117E+04  0.7818609E-02  0.8826024E-01
       -1   -1    0    0    0  501  0.00000000000E+00  0.00000000000E+00  0.73852643914E+03  0.73852643916E+03  0.50400001928E-02 0.  1.
        1   -1    0    0  501    0  0.00000000000E+00  0.00000000000E+00 -0.85699483926E+03  0.85699483928E+03  0.50400001928E-02 0. -1.
    10030    2    1    2    0    0  0.00000000000E+00  0.00000000000E+00 -0.11846840012E+03  0.15955212784E+04  0.15911170253E+04 0.  0.
        2    1    3    3  502    0  0.16566144918E+03  0.64642469856E+03  0.37509835381E+03  0.76551118979E+03  0.25500000920E-02 0.  1.
       -2    1    3    3    0  502 -0.16566144918E+03 -0.64642469856E+03 -0.49356675394E+03  0.83001008864E+03  0.25500000920E-02 0. -1.
</event>
<event>
 5   0  0.2689675E-04  0.1573945E+04  0.7818609E-02  0.8836716E-01
       -1   -1    0    0    0  501  0.00000000000E+00  0.00000000000E+00  0.32988837808E+03  0.32988837812E+03  0.50400001928E-02 0. -1.
        1   -1    0    0  501    0  0.00000000000E+00  0.00000000000E+00 -0.18773795985E+04  0.18773795985E+04  0.50400001928E-02 0.  1.
    10030    2    1    2    0    0  0.00000000000E+00  0.00000000000E+00 -0.15474912204E+04  0.22072679766E+04  0.15739449938E+04 0.  0.
        1    1    3    3  502    0  0.47786640456E+03 -0.14537191837E+03  0.79099861008E+02  0.50571343990E+03  0.50400001928E-02 0. -1.
       -1    1    3    3    0  502 -0.47786640456E+03  0.14537191837E+03 -0.16265910814E+04  0.17015545367E+04  0.50400001928E-02 0.  1.
</event>
<event>
 5   0  0.5381164E-04  0.1577197E+04  0.7818609E-02  0.8834681E-01
       -2   -1    0    0    0  501  0.00000000000E+00  0.00000000000E+00  0.51816210913E+03  0.51816210914E+03  0.25500000920E-02 0.  1.
        2   -1    0    0  501    0  0.00000000000E+00  0.00000000000E+00 -0.12001789916E+04  0.12001789916E+04  0.25500000920E-02 0. -1.
    10030    2    1    2    0    0  0.00000000000E+00  0.00000000000E+00 -0.68201688251E+03  0.17183411008E+04  0.15771965986E+04 0.  0.
        5    1    3    3  502    0 -0.69107151251E+02 -0.18578316604E+03  0.49056210242E+03  0.52911666905E+03  0.46999998093E+01 0.  1.
       -5    1    3    3    0  502  0.69107151251E+02  0.18578316604E+03 -0.11725789849E+04  0.11892244317E+04  0.46999998093E+01 0. -1.
</event>
<event>
 5   0  0.5381164E-04  0.1595235E+04  0.7818609E-02  0.8823481E-01
       -2   -1    0    0    0  501  0.00000000000E+00  0.00000000000E+00  0.58433963737E+03  0.58433963738E+03  0.25500000920E-02 0. -1.
        2   -1    0    0  501    0  0.00000000000E+00  0.00000000000E+00 -0.10887394098E+04  0.10887394098E+04  0.25500000920E-02 0.  1.
    10030    2    1    2    0    0  0.00000000000E+00  0.00000000000E+00 -0.50439977247E+03  0.16730790472E+04  0.15952348942E+04 0.  0.
        5    1    3    3  502    0  0.59486222610E+03  0.19895609291E+03 -0.76891454279E+03  0.99231862779E+03  0.46999998093E+01 0.  1.
       -5    1    3    3    0  502 -0.59486222610E+03 -0.19895609291E+03  0.26451477032E+03  0.68076041943E+03  0.46999998093E+01 0. -1.
</event>
<event>
 5   0  0.5083831E-04  0.1536112E+04  0.7818609E-02  0.8860788E-01
       -2   -1    0    0    0  501  0.00000000000E+00  0.00000000000E+00  0.21385656662E+04  0.21385656662E+04  0.25500000920E-02 0. -1.
        2   -1    0    0  501    0  0.00000000000E+00  0.00000000000E+00 -0.27584363671E+03  0.27584363672E+03  0.25500000920E-02 0.  1.
    10030    2    1    2    0    0  0.00000000000E+00  0.00000000000E+00  0.18627220295E+04  0.24144093029E+04  0.15361116245E+04 0.  0.
        4    1    3    3  502    0  0.61473218092E+02 -0.71969153964E+03  0.52097257713E+03  0.89058907909E+03  0.12699999809E+01 0.  1.
       -4    1    3    3    0  502 -0.61473218092E+02  0.71969153964E+03  0.13417494524E+04  0.15238202238E+04  0.12699999809E+01 0. -1.
</event>
<event>
 5   0  0.2730707E-04  0.1574987E+04  0.7818609E-02  0.8836064E-01
        1   -1    0    0  501    0  0.00000000000E+00  0.00000000000E+00  0.22723612151E+04  0.22723612151E+04  0.50400001928E-02 0.  1.
       -1   -1    0    0    0  501  0.00000000000E+00  0.00000000000E+00 -0.27290809970E+03  0.27290809974E+03  0.50400001928E-02 0. -1.
    10030    2    1    2    0    0  0.00000000000E+00  0.00000000000E+00  0.19994531154E+04  0.25452693149E+04  0.15749867061E+04 0.  0.
        5    1    3    3  502    0  0.73557997262E+03  0.25791795923E+03  0.11805815420E+04  0.14147064844E+04  0.46999998093E+01 0.  1.
       -5    1    3    3    0  502 -0.73557997262E+03 -0.25791795923E+03  0.81887157347E+03  0.11305628305E+04  0.46999998093E+01 0. -1.
</event>
<event>
 5   0  0.5315984E-04  0.1596728E+04  0.7818609E-02  0.8822561E-01
       -2   -1    0    0    0  501  0.00000000000E+00  0.00000000000E+00  0.33413157857E+03  0.33413157858E+03  0.25500000920E-02 0.  1.
        2   -1    0    0  501    0  0.00000000000E+00  0.00000000000E+00 -0.19075872322E+04  0.19075872322E+04  0.25500000920E-02 0. -1.
    10030    2    1    2    0    0  0.00000000000E+00  0.00000000000E+00 -0.15734556536E+04  0.22417188108E+04  0.15967280710E+04 0.  0.
        2    1    3    3  502    0 -0.30919273091E+03  0.13026984581E+03 -0.18038033301E+04  0.18347416252E+04  0.25500000920E-02 0. -1.
       -2    1    3    3    0  502  0.30919273091E+03 -0.13026984581E+03  0.23034767642E+03  0.40697718562E+03  0.25500000920E-02 0.  1.
</event>
<event>
 5   0  0.2649086E-04  0.1613444E+04  0.7818609E-02  0.8812331E-01
        1   -1    0    0  501    0  0.00000000000E+00  0.00000000000E+00  0.15211497066E+04  0.15211497066E+04  0.50400001928E-02 0.  1.
       -1   -1    0    0    0  501  0.00000000000E+00  0.00000000000E+00 -0.42783452877E+03  0.42783452880E+03  0.50400001928E-02 0. -1.
    10030    2    1    2    0    0  0.00000000000E+00  0.00000000000E+00  0.10933151778E+04  0.19489842354E+04  0.16134439785E+04 0.  0.
        2    1    3    3  502    0  0.20969885257E+03 -0.19998230575E+03 -0.36279972363E+03  0.46431688625E+03  0.25500000920E-02 0. -1.
       -2    1    3    3    0  502 -0.20969885257E+03  0.19998230575E+03  0.14561149015E+04  0.14846673492E+04  0.25500000920E-02 0.  1.
</event>
<event>
 5   0  0.5315984E-04  0.1596276E+04  0.7818609E-02  0.8822839E-01
        2   -1    0    0  501    0  0.00000000000E+00  0.00000000000E+00  0.14096208740E+04  0.14096208740E+04  0.25500000920E-02 0.  1.
       -2   -1    0    0    0  501  0.00000000000E+00  0.00000000000E+00 -0.45191203820E+03  0.45191203820E+03  0.25500000920E-02 0. -1.
    10030    2    1    2    0    0  0.00000000000E+00  0.00000000000E+00  0.95770883580E+03  0.18615329122E+04  0.15962764701E+04 0.  0.
        2    1    3    3  502    0 -0.65513920807E+02  0.79336601986E+03  0.41183323440E+03  0.89628585187E+03  0.25500000920E-02 0. -1.
       -2    1    3    3    0  502  0.65513920807E+02 -0.79336601986E+03  0.54587560140E+03  0.96524706034E+03  0.25500000920E-02 0.  1.
</event>
<event>
 5   0  0.2730707E-04  0.1600723E+04  0.7818609E-02  0.8820104E-01
        1   -1    0    0  501    0  0.00000000000E+00  0.00000000000E+00  0.15364940349E+04  0.15364940349E+04  0.50400001928E-02 0. -1.
       -1   -1    0    0    0  501  0.00000000000E+00  0.00000000000E+00 -0.41690899926E+03  0.41690899929E+03  0.50400001928E-02 0.  1.
    10030    2    1    2    0    0  0.00000000000E+00  0.00000000000E+00  0.11195850357E+04  0.19534030342E+04  0.16007225750E+04 0.  0.
        5    1    3    3  502    0 -0.24500997825E+02  0.63675082471E+02  0.15329220210E+04  0.15344467496E+04  0.46999998093E+01 0. -1.
       -5    1    3    3    0  502  0.24500997825E+02 -0.63675082471E+02 -0.41333698529E+03  0.41895628463E+03  0.46999998093E+01 0.  1.
</event>
<event>
 5   0  0.5083831E-04  0.1608152E+04  0.7818609E-02  0.8815556E-01
        2   -1    0    0  501    0  0.00000000000E+00  0.00000000000E+00  0.19611402567E+04  0.19611402567E+04  0.25500000920E-02 0.  1.
       -2   -1    0    0    0  501  0.00000000000E+00  0.00000000000E+00 -0.32967448056E+03  0.32967448057E+03  0.25500000920E-02 0. -1.
    10030    2    1    2    0    0  0.00000000000E+00  0.00000000000E+00  0.16314657761E+04  0.22908147372E+04  0.16081516041E+04 0.  0.
        4    1    3    3  502    0 -0.25075479717E+03  0.60980715967E+02  0.19005446550E+04  0.19179854573E+04  0.12699999809E+01 0.  1.
       -4    1    3    3    0  502  0.25075479717E+03 -0.60980715967E+02 -0.26907887887E+03  0.37282927993E+03  0.12699999809E+01 0. -1.
</event>
<event>
 5   0  0.2689675E-04  0.1587773E+04  0.7818609E-02  0.8828095E-01
        1   -1    0    0  501    0  0.00000000000E+00  0.00000000000E+00  0.86631953066E+03  0.86631953067E+03  0.50400001928E-02 0. -1.
       -1   -1    0    0    0  501  0.00000000000E+00  0.00000000000E+00 -0.72750921556E+03  0.72750921558E+03  0.50400001928E-02 0.  1.
    10030    2    1    2    0    0  0.00000000000E+00  0.00000000000E+00  0.13881031510E+03  0.15938287463E+04  0.15877725809E+04 0.  0.
        1    1    3    3  502    0 -0.49678569157E+03  0.40802575705E+03 -0.39817665059E+03  0.75619156757E+03  0.50400001928E-02 0.  1.
       -1    1    3    3    0  502  0.49678569157E+03 -0.40802575705E+03  0.53698696569E+03  0.83763717868E+03  0.50400001928E-02 0. -1.
</event>
<event>
 5   0  0.2730707E-04  0.1592147E+04  0.7818609E-02  0.8825387E-01
       -1   -1    0    0    0  501  0.00000000000E+00  0.00000000000E+00  0.74396140304E+03  0.74396140306E+03  0.50400001928E-02 0. -1.
        1   -1    0    0  501    0  0.00000000000E+00  0.00000000000E+00 -0.85183544883E+03  0.85183544884E+03  0.50400001928E-02 0.  1.
    10030    2    1    2    0    0  0.00000000000E+00  0.00000000000E+00 -0.10787404578E+03  0.15957968519E+04  0.15921465959E+04 0.  0.
        5    1    3    3  502    0 -0.18589225445E+03  0.21897414404E+03 -0.79807098387E+03  0.84820103237E+03  0.46999998093E+01 0.  1.
       -5    1    3    3    0  502  0.18589225445E+03 -0.21897414404E+03  0.69019693809E+03  0.74759581952E+03  0.46999998093E+01 0. -1.
</event>
<event>
 5   0  0.2689675E-04  0.1604893E+04  0.7818609E-02  0.8817548E-01
       -1   -1    0    0    0  501  0.00000000000E+00  0.00000000000E+00  0.47656944267E+03  0.47656944269E+03  0.50400001928E-02 0.  1.
        1   -1    0    0  501    0  0.00000000000E+00  0.00000000000E+00 -0.13511568135E+04  0.13511568135E+04  0.50400001928E-02 0. -1.
    10030    2    1    2    0    0  0.00000000000E+00  0.00000000000E+00 -0.87458737086E+03  0.18277262562E+04  0.16048925816E+04 0.  0.
        1    1    3    3  502    0  0.74111956579E+03  0.41123202342E+02 -0.78454050816E+03  0.10800246004E+04  0.50400001928E-02 0.  1.
       -1    1    3    3    0  502 -0.74111956579E+03 -0.41123202342E+02 -0.90046862696E+02  0.74770165580E+03  0.50400001928E-02 0. -1.
</event>
<event>
 5   0  0.5315984E-04  0.1596742E+04  0.7818609E-02  0.8822552E-01
        2   -1    0    0  501    0  0.00000000000E+00  0.00000000000E+00  0.85627573830E+03  0.85627573830E+03  0.25500000920E-02 0. -1.
       -2   -1    0    0    0  501  0.00000000000E+00  0.00000000000E+00 -0.74438174030E+03  0.74438174030E+03  0.25500000920E-02 0.  1.
    10030    2    1    2    0    0  0.00000000000E+00  0.00000000000E+00  0.11189399800E+03  0.16006574786E+04  0.15967417127E+04 0.  0.
        2    1    3    3  502    0  0.70061784431E+03 -0.33457366639E+03  0.24238999079E+03  0.81336204095E+03  0.25500000920E-02 0. -1.
       -2    1    3    3    0  502 -0.70061784431E+03  0.33457366639E+03 -0.13049599280E+03  0.78729543766E+03  0.25500000920E-02 0.  1.
</event>
<event>
 5   0  0.5264308E-04  0.1576067E+04  0.7818609E-02  0.8835387E-01
        2   -1    0    0  501    0  0.00000000000E+00  0.00000000000E+00  0.21546396123E+04  0.21546396123E+04  0.25500000920E-02 0.  1.
       -2   -1    0    0    0  501  0.00000000000E+00  0.00000000000E+00 -0.28821392776E+03  0.28821392777E+03  0.25500000920E-02 0. -1.
    10030    2    1    2    0    0  0.00000000000E+00  0.00000000000E+00  0.18664256846E+04  0.24428535401E+04  0.15760674422E+04 0.  0.
        3    1    3    3  502    0 -0.39888153990E+03 -0.10212927978E+03  0.19746483893E+04  0.20171200123E+04  0.10100000352E+00 0.  1.
       -3    1    3    3    0  502  0.39888153990E+03  0.10212927978E+03 -0.10822270470E+03  0.42573352778E+03  0.10100000352E+00 0. -1.
</event>
<event>
 5   0  0.2730707E-04  0.1595638E+04  0.7818609E-02  0.8823232E-01
        1   -1    0    0  501    0  0.00000000000E+00  0.00000000000E+00  0.35008918849E+03  0.35008918853E+03  0.50400001928E-02 0. -1.
       -1   -1    0    0    0  501  0.00000000000E+00  0.00000000000E+00 -0.18181513857E+04  0.18181513858E+04  0.50400001928E-02 0.  1.
    10030    2    1    2    0    0  0.00000000000E+00  0.00000000000E+00 -0.14680621973E+04  0.21682405743E+04  0.15956379830E+04 0.  0.
        5    1    3    3  502    0  0.11361948385E+02  0.53729972048E+03 -0.15352636131E+04  0.16266150544E+04  0.46999998093E+01 0.  1.
       -5    1    3    3    0  502 -0.11361948385E+02 -0.53729972048E+03  0.67201415840E+02  0.54162551988E+03  0.46999998093E+01 0. -1.
</event>
<event>
 5   0  0.5381164E-04  0.1592588E+04  0.7818609E-02  0.8825114E-01
       -2   -1    0    0    0  501  0.00000000000E+00  0.00000000000E+00  0.42710673124E+03  0.42710673125E+03  0.25500000920E-02 0.  1.
        2   -1    0    0  501    0  0.00000000000E+00  0.00000000000E+00 -0.14846033946E+04  0.14846033946E+04  0.25500000920E-02 0. -1.
    10030    2    1    2    0    0  0.00000000000E+00  0.00000000000E+00 -0.10574966633E+04  0.19117101258E+04  0.15925879606E+04 0.  0.
        5    1    3    3  502    0 -0.59946047157E+02 -0.65099311302E+03 -0.10744610935E+04  0.12577258419E+04  0.46999998093E+01 0. -1.
       -5    1    3    3    0  502  0.59946047157E+02  0.65099311302E+03  0.16964430210E+02  0.65398428395E+03  0.46999998093E+01 0.  1.
</event>
<event>
 5   0  0.5381164E-04  0.1515855E+04  0.7818609E-02  0.8873978E-01
       -2   -1    0    0    0  501  0.00000000000E+00  0.00000000000E+00  0.37179422870E+03  0.37179422871E+03  0.25500000920E-02 0.  1.
        2   -1    0    0  501    0  0.00000000000E+00  0.00000000000E+00 -0.15450859141E+04  0.15450859141E+04  0.25500000920E-02 0. -1.
    10030    2    1    2    0    0  0.00000000000E+00  0.00000000000E+00 -0.11732916854E+04  0.19168801428E+04  0.15158549083E+04 0.  0.
        5    1    3    3  502    0 -0.18856707233E+03 -0.34896996725E+03 -0.14033306589E+04  0.14583197890E+04  0.46999998093E+01 0. -1.
       -5    1    3    3    0  502  0.18856707233E+03  0.34896996725E+03  0.23003897346E+03  0.45856035384E+03  0.46999998093E+01 0.  1.
</event>
<event>
 5   0  0.5381164E-04  0.1628044E+04  0.7818609E-02  0.8803502E-01
        2   -1    0    0  501    0  0.00000000000E+00  0.00000000000E+00  0.13588741885E+04  0.13588741885E+04  0.25500000920E-02 0.  1.
       -2   -1    0    0    0  501  0.00000000000E+00  0.00000000000E+00 -0.48763308038E+03  0.48763308038E+03  0.25500000920E-02 0. -1.
    10030    2    1    2    0    0  0.00000000000E+00  0.00000000000E+00  0.87124110809E+03  0.18465072689E+04  0.16280442333E+04 0.  0.
        5    1    3    3  502    0  0.52487232093E+03 -0.39354607956E+02  0.11398862571E+04  0.12555486878E+04  0.46999998093E+01 0.  1.
       -5    1    3    3    0  502 -0.52487232093E+03  0.39354607956E+02 -0.26864514896E+03  0.59095858104E+03  0.46999998093E+01 0. -1.
</event>
<event>
 5   0  0.2689675E-04  0.1568768E+04  0.7818609E-02  0.8839968E-01
       -1   -1    0    0    0  501  0.00000000000E+00  0.00000000000E+00  0.79106005889E+03  0.79106005890E+03  0.50400001928E-02 0.  1.
        1   -1    0    0  501    0  0.00000000000E+00  0.00000000000E+00 -0.77776412574E+03  0.77776412575E+03  0.50400001928E-02 0. -1.
    10030    2    1    2    0    0  0.00000000000E+00  0.00000000000E+00  0.13295933149E+02  0.15688241847E+04  0.15687678415E+04 0.  0.
        1    1    3    3  502    0  0.68959477161E+03  0.94131803914E+02  0.36840173545E+03  0.78747798969E+03  0.50400001928E-02 0.  1.
       -1    1    3    3    0  502 -0.68959477161E+03 -0.94131803914E+02 -0.35510580230E+03  0.78134619497E+03  0.50400001928E-02 0. -1.
</event>
<event>
 5   0  0.5083831E-04  0.1613757E+04  0.7818609E-02  0.8812141E-01
        2   -1    0    0  501    0  0.00000000000E+00  0.00000000000E+00  0.19165643114E+04  0.19165643114E+04  0.25500000920E-02 0.  1.
       -2   -1    0    0    0  501  0.00000000000E+00  0.00000000000E+00 -0.33969784659E+03  0.33969784660E+03  0.25500000920E-02 0. -1.
    10030    2    1    2    0    0  0.00000000000E+00  0.00000000000E+00  0.15768664648E+04  0.22562621580E+04  0.16137568211E+04 0.  0.
        4    1    3    3  502    0 -0.25646642379E+03 -0.46772214938E+03  0.16348721817E+04  0.17196940713E+04  0.12699999809E+01 0.  1.
       -4    1    3    3    0  502  0.25646642379E+03  0.46772214938E+03 -0.58005716877E+02  0.53656808668E+03  0.12699999809E+01 0. -1.
</event>
<event>
 5   0  0.2689675E-04  0.1629003E+04  0.7818609E-02  0.8802926E-01
        1   -1    0    0  501    0  0.00000000000E+00  0.00000000000E+00  0.39944206020E+03  0.39944206023E+03  0.50400001928E-02 0.  1.
       -1   -1    0    0    0  501  0.00000000000E+00  0.00000000000E+00 -0.16608479821E+04  0.16608479821E+04  0.50400001928E-02 0. -1.
    10030    2    1    2    0    0  0.00000000000E+00  0.00000000000E+00 -0.12614059219E+04  0.20602900423E+04  0.16290028111E+04 0.  0.
        1    1    3    3  502    0 -0.55654433454E+03 -0.38824540868E+03 -0.60950047092E+02  0.68131564046E+03  0.50400001928E-02 0.  1.
       -1    1    3    3    0  502  0.55654433454E+03  0.38824540868E+03 -0.12004558748E+04  0.13789744018E+04  0.50400001928E-02 0. -1.
</event>
<event>
 5   0  0.2796994E-04  0.1620596E+04  0.7818609E-02  0.8807994E-01
        1   -1    0    0  501    0  0.00000000000E+00  0.00000000000E+00  0.12332008263E+04  0.12332008263E+04  0.50400001928E-02 0. -1.
       -1   -1    0    0    0  501  0.00000000000E+00  0.00000000000E+00 -0.53242182694E+03  0.53242182696E+03  0.50400001928E-02 0.  1.
    10030    2    1    2    0    0  0.00000000000E+00  0.00000000000E+00  0.70077899934E+03  0.17656226533E+04  0.16205962322E+04 0.  0.
        3    1    3    3  502    0  0.40399138562E+03  0.32058585223E+03  0.10312975413E+04  0.11530650273E+04  0.10100000352E+00 0. -1.
       -3    1    3    3    0  502 -0.40399138562E+03 -0.32058585223E+03 -0.33051854197E+03  0.61255762594E+03  0.10100000352E+00 0.  1.
</event>
<event>
 5   0  0.2649086E-04  0.1605378E+04  0.7818609E-02  0.8817251E-01
        1   -1    0    0  501    0  0.00000000000E+00  0.00000000000E+00  0.94720346603E+03  0.94720346604E+03  0.50400001928E-02 0. -1.
       -1   -1    0    0    0  501  0.00000000000E+00  0.00000000000E+00 -0.68022286211E+03  0.68022286213E+03  0.50400001928E-02 0.  1.
    10030    2    1    2    0    0  0.00000000000E+00  0.00000000000E+00  0.26698060391E+03  0.16274263282E+04  0.16053777782E+04 0.  0.
        2    1    3    3  502    0 -0.33306054481E+03 -0.52183953253E+03 -0.38447095420E+03  0.72874120156E+03  0.25500000920E-02 0.  1.
       -2    1    3    3    0  502  0.33306054481E+03  0.52183953253E+03  0.65145155812E+03  0.89868512661E+03  0.25500000920E-02 0. -1.
</event>
<event>
 5   0  0.5083831E-04  0.1552670E+04  0.7818609E-02  0.8850164E-01
        2   -1    0    0  501    0  0.00000000000E+00  0.00000000000E+00  0.91422454104E+03  0.91422454104E+03  0.25500000920E-02 0. -1.
       -2   -1    0    0    0  501  0.00000000000E+00  0.00000000000E+00 -0.65924283622E+03  0.65924283622E+03  0.25500000920E-02 0.  1.
    10030    2    1    2    0    0  0.00000000000E+00  0.00000000000E+00  0.25498170482E+03  0.15734673773E+04  0.15526699319E+04 0.  0.
        4    1    3    3  502    0 -0.49801689776E+03 -0.27203592948E+03 -0.40938836060E+03  0.69973196302E+03  0.12699999809E+01 0.  1.
       -4    1    3    3    0  502  0.49801689776E+03  0.27203592948E+03  0.66437006542E+03  0.87373541424E+03  0.12699999809E+01 0. -1.
</event>
<event>
 5   0  0.2763895E-04  0.1596390E+04  0.7818609E-02  0.8822769E-01
       -1   -1    0    0    0  501  0.00000000000E+00  0.00000000000E+00  0.86611792393E+03  0.86611792395E+03  0.50400001928E-02 0. -1.
        1   -1    0    0  501    0  0.00000000000E+00  0.00000000000E+00 -0.73559857712E+03  0.73559857714E+03  0.50400001928E-02 0.  1.
    10030    2    1    2    0    0  0.00000000000E+00  0.00000000000E+00  0.13051934681E+03  0.16017165011E+04  0.15963898177E+04 0.  0.
        4    1    3    3  502    0 -0.68592179290E+03  0.15191302420E+03 -0.31488079361E+03  0.76988167921E+03  0.12699999809E+01 0. -1.
       -4    1    3    3    0  502  0.68592179290E+03 -0.15191302420E+03  0.44540014043E+03  0.83183482188E+03  0.12699999809E+01 0.  1.
</event>
<event>
 5   0  0.2796994E-04  0.1590522E+04  0.7818609E-02  0.8826392E-01
        1   -1    0    0  501    0  0.00000000000E+00  0.00000000000E+00  0.27821377105E+04  0.27821377105E+04  0.50400001928E-02 0. -1.
       -1   -1    0    0    0  501  0.00000000000E+00  0.00000000000E+00 -0.22732148065E+03  0.22732148071E+03  0.50400001928E-02 0.  1.
    10030    2    1    2    0    0  0.00000000000E+00  0.00000000000E+00  0.25548162298E+04  0.30094591912E+04  0.15905215042E+04 0.  0.
        3    1    3    3  502    0  0.11181887446E+03  0.68455934587E+03  0.20134278623E+04  0.21295578710E+04  0.10100000352E+00 0. -1.
       -3    1    3    3    0  502 -0.11181887446E+03 -0.68455934587E+03  0.54138836750E+03  0.87990132024E+03  0.10100000352E+00 0.  1.
</event>
<event>
 5   0  0.5131239E-04  0.1605628E+04  0.7818609E-02  0.8817098E-01
       -2   -1    0    0    0  501  0.00000000000E+00  0.00000000000E+00  0.49255189672E+03  0.49255189673E+03  0.25500000920E-02 0. -1.
        2   -1    0    0  501    0  0.00000000000E+00  0.00000000000E+00 -0.13085122898E+04  0.13085122898E+04  0.25500000920E-02 0.  1.
    10030    2    1    2    0    0  0.00000000000E+00  0.00000000000E+00 -0.81596039306E+03  0.18010641865E+04  0.16056278650E+04 0.  0.
        1    1    3    3  502    0 -0.25977059832E+03 -0.24218358949E+03  0.39963962571E+03  0.53464519565E+03  0.50400001928E-02 0. -1.
       -1    1    3    3    0  502  0.25977059832E+03  0.24218358949E+03 -0.12156000188E+04  0.12664189909E+04  0.50400001928E-02 0.  1.
</event>
<event>
 5   0  0.5381164E-04  0.1505806E+04  0.7818609E-02  0.8880601E-01
        2   -1    0    0  501    0  0.00000000000E+00  0.00000000000E+00  0.17795607582E+04  0.17795607582E+04  0.25500000920E-02 0. -1.
       -2   -1    0    0    0  501  0.00000000000E+00  0.00000000000E+00 -0.31854086261E+03  0.31854086262E+03  0.25500000920E-02 0.  1.
    10030    2    1    2    0    0  0.00000000000E+00  0.00000000000E+00  0.14610198956E+04  0.20981016208E+04  0.15058058560E+04 0.  0.
        5    1    3    3  502    0  0.59745575242E+02 -0.15576143737E+03  0.17534631719E+04  0.17613876190E+04  0.46999998093E+01 0. -1.
       -5    1    3    3    0  502 -0.59745575242E+02  0.15576143737E+03 -0.29244327634E+03  0.33671400180E+03  0.46999998093E+01 0.  1.
</event>
<event>
 5   0  0.2763895E-04  0.1569203E+04  0.7818609E-02  0.8839694E-01
        1   -1    0    0  501    0  0.00000000000E+00  0.00000000000E+00  0.11895846020E+04  0.11895846020E+04  0.50400001928E-02 0. -1.
       -1   -1    0    0    0  501  0.00000000000E+00  0.00000000000E+00 -0.51749144619E+03  0.51749144622E+03  0.50400001928E-02 0.  1.
    10030    2    1    2    0    0  0.00000000000E+00  0.00000000000E+00  0.67209315585E+03  0.17070760483E+04  0.15692034363E+04 0.  0.
        4    1    3    3  502    0  0.52675369036E+03 -0.61338722402E+02 -0.29300304042E+03  0.60587480866E+03  0.12699999809E+01 0.  1.
       -4    1    3    3    0  502 -0.52675369036E+03  0.61338722402E+02  0.96509619626E+03  0.11012012396E+04  0.12699999809E+01 0. -1.
</event>
<event>
 5   0  0.5083831E-04  0.1594074E+04  0.7818609E-02  0.8824197E-01
        2   -1    0    0  501    0  0.00000000000E+00  0.00000000000E+00  0.96794603785E+03  0.96794603786E+03  0.25500000920E-02 0.  1.
       -2   -1    0    0    0  501  0.00000000000E+00  0.00000000000E+00 -0.65630516497E+03  0.65630516497E+03  0.25500000920E-02 0. -1.
    10030    2    1    2    0    0  0.00000000000E+00  0.00000000000E+00  0.31164087288E+03  0.16242512028E+04  0.15940740059E+04 0.  0.
        4    1    3    3  502    0  0.22984387204E+03 -0.76021895313E+03  0.22421270449E+03  0.82524784881E+03  0.12699999809E+01 0. -1.
       -4    1    3    3    0  502 -0.22984387204E+03  0.76021895313E+03  0.87428168390E+02  0.79900335402E+03  0.12699999809E+01 0.  1.
</event>
<event>
 5   0  0.5315984E-04  0.1619261E+04  0.7818609E-02  0.8808802E-01
       -2   -1    0    0    0  501  0.00000000000E+00  0.00000000000E+00  0.74435813419E+03  0.74435813420E+03  0.25500000920E-02 0. -1.
        2   -1    0    0  501    0  0.00000000000E+00  0.00000000000E+00 -0.88062662759E+03  0.88062662759E+03  0.25500000920E-02 0.  1.
    10030    2    1    2    0    0  0.00000000000E+00  0.00000000000E+00 -0.13626849339E+03  0.16249847618E+04  0.16192610579E+04 0.  0.
        2    1    3    3  502    0 -0.41645111652E+03  0.65361162226E+03  0.16691987765E+03  0.79278113674E+03  0.25500000920E-02 0. -1.
       -2    1    3    3    0  502  0.41645111652E+03 -0.65361162226E+03 -0.30318837105E+03  0.83220362505E+03  0.25500000920E-02 0.  1.
</event>
<event>
 5   0  0.2689675E-04  0.1593191E+04  0.7818609E-02  0.8824742E-01
       -1   -1    0    0    0  501  0.00000000000E+00  0.00000000000E+00  0.61972271945E+03  0.61972271947E+03  0.50400001928E-02 0. -1.
        1   -1    0    0  501    0  0.00000000000E+00  0.00000000000E+00 -0.10239489688E+04  0.10239489688E+04  0.50400001928E-02 0.  1.
    10030    2    1    2    0    0  0.00000000000E+00  0.00000000000E+00 -0.40422624930E+03  0.16436716882E+04  0.15931910614E+04 0.  0.
        1    1    3    3  502    0  0.17267563495E+03  0.71592193871E+03  0.11115812932E+03  0.74479341228E+03  0.50400001928E-02 0. -1.
       -1    1    3    3    0  502 -0.17267563495E+03 -0.71592193871E+03 -0.51538437862E+03  0.89887827595E+03  0.50400001928E-02 0.  1.
</event>
<event>
 5   0  0.5315984E-04  0.1602183E+04  0.7818609E-02  0.8819208E-01
        2   -1    0    0  501    0  0.00000000000E+00  0.00000000000E+00  0.16591061354E+04  0.16591061354E+04  0.25500000920E-02 0. -1.
       -2   -1    0    0    0  501  0.00000000000E+00  0.00000000000E+00 -0.38680321134E+03  0.38680321135E+03  0.25500000920E-02 0.  1.
    10030    2    1    2    0    0  0.00000000000E+00  0.00000000000E+00  0.12723029240E+04  0.20459093467E+04  0.16021829872E+04 0.  0.
        2    1    3    3  502    0 -0.33719916108E+03 -0.64028600913E+03  0.19735914965E+03  0.75008005018E+03  0.25500000920E-02 0.  1.
       -2    1    3    3    0  502  0.33719916108E+03  0.64028600913E+03  0.10749437744E+04  0.12958292966E+04  0.25500000920E-02 0. -1.
</event>
<event>
 5   0  0.2649086E-04  0.1552453E+04  0.7818609E-02  0.8850303E-01
        1   -1    0    0  501    0  0.00000000000E+00  0.00000000000E+00  0.12865163392E+04  0.12865163392E+04  0.50400001928E-02 0. -1.
       -1   -1    0    0    0  501  0.00000000000E+00  0.00000000000E+00 -0.46834011583E+03  0.46834011586E+03  0.50400001928E-02 0.  1.
    10030    2    1    2    0    0  0.00000000000E+00  0.00000000000E+00  0.81817622335E+03  0.17548564550E+04  0.15524525260E+04 0.  0.
        2    1    3    3  502    0 -0.26173117109E+03 -0.14709432090E+03  0.12182258054E+04  0.12546768740E+04  0.25500000920E-02 0. -1.
       -2    1    3    3    0  502  0.26173117109E+03  0.14709432090E+03 -0.40004958207E+03  0.50017958104E+03  0.25500000920E-02 0.  1.
</event>
<event>
 5   0  0.2763895E-04  0.1594241E+04  0.7818609E-02  0.8824094E-01
       -1   -1    0    0    0  501  0.00000000000E+00  0.00000000000E+00  0.92652896406E+03  0.92652896407E+03  0.50400001928E-02 0.  1.
        1   -1    0    0  501    0  0.00000000000E+00  0.00000000000E+00 -0.68578652856E+03  0.68578652858E+03  0.50400001928E-02 0. -1.
    10030    2    1    2    0    0  0.00000000000E+00  0.00000000000E+00  0.24074243549E+03  0.16123154927E+04  0.15942409879E+04 0.  0.
        4    1    3    3  502    0 -0.19938810136E+03  0.19861171391E+03  0.87461279952E+03  0.91877711653E+03  0.12699999809E+01 0.  1.
       -4    1    3    3    0  502  0.19938810136E+03 -0.19861171391E+03 -0.63387036403E+03  0.69353837613E+03  0.12699999809E+01 0. -1.
</event>
<event>
 5   0  0.5131239E-04  0.1691597E+04  0.7818609E-02  0.8766171E-01
        2   -1    0    0  501    0  0.00000000000E+00  0.00000000000E+00  0.16375855086E+04  0.16375855086E+04  0.25500000920E-02 0. -1.
       -2   -1    0    0    0  501  0.00000000000E+00  0.00000000000E+00 -0.43684758908E+03  0.43684758909E+03  0.25500000920E-02 0.  1.
    10030    2    1    2    0    0  0.00000000000E+00  0.00000000000E+00  0.12007379195E+04  0.20744330976E+04  0.16915972113E+04 0.  0.
        1    1    3    3  502    0 -0.34972343427E+03 -0.12031562714E+03  0.15331700425E+04  0.15771470159E+04  0.50400001928E-02 0. -1.
       -1    1    3    3    0  502  0.34972343427E+03  0.12031562714E+03 -0.33243212303E+03  0.49728608171E+03  0.50400001928E-02 0.  1.
</event>
<event>
 5   0  0.5315984E-04  0.1523347E+04  0.7818609E-02  0.8869074E-01
        2   -1    0    0  501    0  0.00000000000E+00  0.00000000000E+00  0.22699656088E+04  0.22699656089E+04  0.25500000920E-02 0. -1.
       -2   -1    0    0    0  501  0.00000000000E+00  0.00000000000E+00 -0.25557508463E+03  0.25557508464E+03  0.25500000920E-02 0.  1.
    10030    2    1    2    0    0  0.00000000000E+00  0.00000000000E+00  0.20143905242E+04  0.25255406935E+04  0.15233471733E+04 0.  0.
        2    1    3    3  502    0  0.89584496531E+02 -0.22940703424E+03  0.22021339303E+04  0.22158625446E+04  0.25500000920E-02 0. -1.
       -2    1    3    3    0  502 -0.89584496531E+02  0.22940703424E+03 -0.18774340610E+03  0.30967814892E+03  0.25500000920E-02 0.  1.
</event>
<event>
 5   0  0.2689675E-04  0.1595397E+04  0.7818609E-02  0.8823381E-01
        1   -1    0    0  501    0  0.00000000000E+00  0.00000000000E+00  0.92103410617E+03  0.92103410619E+03  0.50400001928E-02 0.  1.
       -1   -1    0    0    0  501  0.00000000000E+00  0.00000000000E+00 -0.69087886094E+03  0.69087886096E+03  0.50400001928E-02 0. -1.
    10030    2    1    2    0    0  0.00000000000E+00  0.00000000000E+00  0.23015524523E+03  0.16119129671E+04  0.15953971220E+04 0.  0.
        1    1    3    3  502    0  0.46227092508E+02  0.70549034119E+03  0.48831959114E+03  0.85924943335E+03  0.50400001928E-02 0.  1.
       -1    1    3    3    0  502 -0.46227092508E+02 -0.70549034119E+03 -0.25816434591E+03  0.75266353380E+03  0.50400001928E-02 0. -1.
</event>
<event>
 5   0  0.2649086E-04  0.1572792E+04  0.7818609E-02  0.8837440E-01
       -1   -1    0    0    0  501  0.00000000000E+00  0.00000000000E+00  0.46428039499E+03  0.46428039501E+03  0.50400001928E-02 0. -1.
        1   -1    0    0  501    0  0.00000000000E+00  0.00000000000E+00 -0.13319933107E+04  0.13319933107E+04  0.50400001928E-02 0.  1.
    10030    2    1    2    0    0  0.00000000000E+00  0.00000000000E+00 -0.86771291570E+03  0.17962737057E+04  0.15727916333E+04 0.  0.
        2    1    3    3  502    0 -0.22447511561E+03  0.59965375774E+02 -0.12918967789E+04  0.13126241698E+04  0.25500000920E-02 0.  1.
       -2    1    3    3    0  502  0.22447511561E+03 -0.59965375774E+02  0.42418386318E+03  0.48364953593E+03  0.25500000920E-02 0. -1.
</event>
<event>
 5   0  0.5131239E-04  0.1602527E+04  0.7818609E-02  0.8818997E-01
       -2   -1    0    0    0  501  0.00000000000E+00  0.00000000000E+00  0.42159083126E+03  0.42159083127E+03  0.25500000920E-02 0. -1.
        2   -1    0    0  501    0  0.00000000000E+00  0.00000000000E+00 -0.15228592289E+04  0.15228592289E+04  0.25500000920E-02 0.  1.
    10030    2    1    2    0    0  0.00000000000E+00  0.00000000000E+00 -0.11012683976E+04  0.19444500602E+04  0.16025273642E+04 0.  0.
        1    1    3    3  502    0 -0.59020675858E+03 -0.42297705622E+03 -0.96169427997E+03  0.12050350601E+04  0.50400001928E-02 0.  1.
       -1    1    3    3    0  502  0.59020675858E+03  0.42297705622E+03 -0.13957411766E+03  0.73941500005E+03  0.50400001928E-02 0. -1.
</event>
<event>
 5   0  0.2649086E-04  0.1611109E+04  0.7818609E-02  0.8813752E-01
        1   -1    0    0  501    0  0.00000000000E+00  0.00000000000E+00  0.60685166779E+03  0.60685166781E+03  0.50400001928E-02 0. -1.
       -1   -1    0    0    0  501  0.00000000000E+00  0.00000000000E+00 -0.10693186954E+04  0.10693186954E+04  0.50400001928E-02 0.  1.
    10030    2    1    2    0    0  0.00000000000E+00  0.00000000000E+00 -0.46246702758E+03  0.16761703632E+04  0.16111087284E+04 0.  0.
        2    1    3    3  502    0  0.16557115521E+03 -0.77456908769E+03 -0.38394940829E+03  0.88022055598E+03  0.25500000920E-02 0.  1.
       -2    1    3    3    0  502 -0.16557115521E+03  0.77456908769E+03 -0.78517619288E+02  0.79594980720E+03  0.25500000920E-02 0. -1.
</event>
<event>
 5   0  0.2796994E-04  0.1598410E+04  0.7818609E-02  0.8821526E-01
        1   -1    0    0  501    0  0.00000000000E+00  0.00000000000E+00  0.85261145139E+03  0.85261145141E+03  0.50400001928E-02 0. -1.
       -1   -1    0    0    0  501  0.00000000000E+00  0.00000000000E+00 -0.74914366053E+03  0.74914366055E+03  0.50400001928E-02 0.  1.
    10030    2    1    2    0    0  0.00000000000E+00  0.00000000000E+00  0.10346779086E+03  0.16017551120E+04  0.15984097894E+04 0.  0.
        3    1    3    3  502    0 -0.14995580847E+03 -0.23174017290E+02  0.83804464555E+03  0.85167048658E+03  0.10100000352E+00 0. -1.
       -3    1    3    3    0  502  0.14995580847E+03  0.23174017290E+02 -0.73457685469E+03  0.75008462537E+03  0.10100000352E+00 0.  1.
</event>
<event>
 5   0  0.5083831E-04  0.1614380E+04  0.7818609E-02  0.8811762E-01
        2   -1    0    0  501    0  0.00000000000E+00  0.00000000000E+00  0.14504937192E+04  0.14504937192E+04  0.25500000920E-02 0. -1.
       -2   -1    0    0    0  501  0.00000000000E+00  0.00000000000E+00 -0.44919568434E+03  0.44919568435E+03  0.25500000920E-02 0.  1.
    10030    2    1    2    0    0  0.00000000000E+00  0.00000000000E+00  0.10012980349E+04  0.18996894036E+04  0.16143797804E+04 0.  0.
        4    1    3    3  502    0  0.49091400939E+03  0.95580138692E+02 -0.24490198083E+03  0.55687585748E+03  0.12699999809E+01 0.  1.
       -4    1    3    3    0  502 -0.49091400939E+03 -0.95580138692E+02  0.12462000157E+04  0.13428135461E+04  0.12699999809E+01 0. -1.
</event>
<event>
 5   0  0.5083831E-04  0.1590646E+04  0.7818609E-02  0.8826315E-01
        2   -1    0    0  501    0  0.00000000000E+00  0.00000000000E+00  0.16459925958E+04  0.16459925958E+04  0.25500000920E-02 0.  1.
       -2   -1    0    0    0  501  0.00000000000E+00  0.00000000000E+00 -0.38429021527E+03  0.38429021528E+03  0.25500000920E-02 0. -1.
    10030    2    1    2    0    0  0.00000000000E+00  0.00000000000E+00  0.12617023805E+04  0.20302828111E+04  0.15906462196E+04 0.  0.
        4    1    3    3  502    0 -0.32622632000E+02 -0.59265657005E+03 -0.44828983244E+02  0.59524557687E+03  0.12699999809E+01 0. -1.
       -4    1    3    3    0  502  0.32622632000E+02  0.59265657005E+03  0.13065313638E+04  0.14350372342E+04  0.12699999809E+01 0.  1.
</event>
<event>
 5   0  0.5083831E-04  0.1589591E+04  0.7818609E-02  0.8826968E-01
       -2   -1    0    0    0  501  0.00000000000E+00  0.00000000000E+00  0.44490965243E+03  0.44490965243E+03  0.25500000920E-02 0.  1.
        2   -1    0    0  501    0  0.00000000000E+00  0.00000000000E+00 -0.14198387289E+04  0.14198387289E+04  0.25500000920E-02 0. -1.
    10030    2    1    2    0    0  0.00000000000E+00  0.00000000000E+00 -0.97492907652E+03  0.18647483814E+04  0.15895910863E+04 0.  0.
        4    1    3    3  502    0 -0.49224428895E+03 -0.39724471539E+03  0.77076121463E+02  0.63722064100E+03  0.12699999809E+01 0.  1.
       -4    1    3    3    0  502  0.49224428895E+03  0.39724471539E+03 -0.10520051980E+04  0.12275277404E+04  0.12699999809E+01 0. -1.
</event>
<event>
 5   0  0.5264308E-04  0.1584253E+04  0.7818609E-02  0.8830281E-01
       -2   -1    0    0    0  501  0.00000000000E+00  0.00000000000E+00  0.86515028957E+03  0.86515028957E+03  0.25500000920E-02 0.  1.
        2   -1    0    0  501    0  0.00000000000E+00  0.00000000000E+00 -0.72526676528E+03  0.72526676528E+03  0.25500000920E-02 0. -1.
    10030    2    1    2    0    0  0.00000000000E+00  0.00000000000E+00  0.13988352429E+03  0.15904170549E+04  0.15842534545E+04 0.  0.
        3    1    3    3  502    0  0.22347426941E+03  0.24137697956E+03  0.79334304633E+03  0.85883455608E+03  0.10100000352E+00 0.  1.
       -3    1    3    3    0  502 -0.22347426941E+03 -0.24137697956E+03 -0.65345952205E+03  0.73158249877E+03  0.10100000352E+00 0. -1.
</event>
<event>
 5   0  0.2689675E-04  0.1601696E+04  0.7818609E-02  0.8819507E-01
        1   -1    0    0  501    0  0.00000000000E+00  0.00000000000E+00  0.11837351555E+04  0.11837351555E+04  0.50400001928E-02 0. -1.
       -1   -1    0    0    0  501  0.00000000000E+00  0.00000000000E+00 -0.54180848003E+03  0.54180848006E+03  0.50400001928E-02 0.  1.
    10030    2    1    2    0    0  0.00000000000E+00  0.00000000000E+00  0.64192667543E+03  0.17255436355E+04  0.16016962825E+04 0.  0.
        1    1    3    3  502    0 -0.12726154703E+03  0.29130485421E+02 -0.53026720282E+03  0.54610199867E+03  0.50400001928E-02 0.  1.
       -1    1    3    3    0  502  0.12726154703E+03 -0.29130485421E+02  0.11721938782E+04  0.11794416369E+04  0.50400001928E-02 0. -1.
</event>
<event>
 5   0  0.5315984E-04  0.1588016E+04  0.7818609E-02  0.8827944E-01
       -2   -1    0    0    0  501  0.00000000000E+00  0.00000000000E+00  0.29144582638E+03  0.29144582640E+03  0.25500000920E-02 0. -1.
        2   -1    0    0  501    0  0.00000000000E+00  0.00000000000E+00 -0.21631774092E+04  0.21631774092E+04  0.25500000920E-02 0.  1.
    10030    2    1    2    0    0  0.00000000000E+00  0.00000000000E+00 -0.18717315828E+04  0.24546232356E+04  0.15880164075E+04 0.  0.
        2    1    3    3  502    0  0.39722685201E+03  0.64710104282E+03 -0.57693957217E+03  0.95361847797E+03  0.25500000920E-02 0.  1.
       -2    1    3    3    0  502 -0.39722685201E+03 -0.64710104282E+03 -0.12947920106E+04  0.15010047576E+04  0.25500000920E-02 0. -1.
</event>
<event>
 5   0  0.5131239E-04  0.1607728E+04  0.7818609E-02  0.8815814E-01
        2   -1    0    0  501    0  0.00000000000E+00  0.00000000000E+00  0.20889935025E+04  0.20889935025E+04  0.25500000920E-02 0. -1.
       -2   -1    0    0    0  501  0.00000000000E+00  0.00000000000E+00 -0.30933425086E+03  0.30933425087E+03  0.25500000920E-02 0.  1.
    10030    2    1    2    0    0  0.00000000000E+00  0.00000000000E+00  0.17796592517E+04  0.23983277534E+04  0.16077278876E+04 0.  0.
        1    1    3    3  502    0  0.25488833046E+03 -0.18730441429E+03  0.19922581974E+04  0.20172118703E+04  0.50400001928E-02 0. -1.
       -1    1    3    3    0  502 -0.25488833046E+03  0.18730441429E+03 -0.21259894570E+03  0.38111588311E+03  0.50400001928E-02 0.  1.
</event>
<event>
 5   0  0.2649086E-04  0.1601973E+04  0.7818609E-02  0.8819337E-01
       -1   -1    0    0    0  501  0.00000000000E+00  0.00000000000E+00  0.44904059850E+03  0.44904059853E+03  0.50400001928E-02 0.  1.
        1   -1    0    0  501    0  0.00000000000E+00  0.00000000000E+00 -0.14287772251E+04  0.14287772251E+04  0.50400001928E-02 0. -1.
    10030    2    1    2    0    0  0.00000000000E+00  0.00000000000E+00 -0.97973662659E+03  0.18778178236E+04  0.16019725095E+04 0.  0.
        2    1    3    3  502    0  0.75862320285E+03 -0.20216028210E+03 -0.30378492654E+03  0.84182137366E+03  0.25500000920E-02 0.  1.
       -2    1    3    3    0  502 -0.75862320285E+03  0.20216028210E+03 -0.67595170005E+03  0.10359964500E+04  0.25500000920E-02 0. -1.
</event>
<event>
 5   0  0.2649086E-04  0.1641237E+04  0.7818609E-02  0.8795607E-01
       -1   -1    0    0    0  501  0.00000000000E+00  0.00000000000E+00  0.10617405555E+04  0.10617405555E+04  0.50400001928E-02 0. -1.
        1   -1    0    0  501    0  0.00000000000E+00  0.00000000000E+00 -0.63425545452E+03  0.63425545454E+03  0.50400001928E-02 0.  1.
    10030    2    1    2    0    0  0.00000000000E+00  0.00000000000E+00  0.42748510099E+03  0.16959960101E+04  0.16412370196E+04 0.  0.
        2    1    3    3  502    0  0.36959192453E+03  0.72960289236E+03  0.14445188077E+03  0.83053291150E+03  0.25500000920E-02 0.  1.
       -2    1    3    3    0  502 -0.36959192453E+03 -0.72960289236E+03  0.28303322022E+03  0.86546309856E+03  0.25500000920E-02 0. -1.
</event>
<event>
 5   0  0.5131239E-04  0.1601921E+04  0.7818609E-02  0.8819369E-01
        2   -1    0    0  501    0  0.00000000000E+00  0.00000000000E+00  0.37922788635E+03  0.37922788636E+03  0.25500000920E-02 0. -1.
       -2   -1    0    0    0  501  0.00000000000E+00  0.00000000000E+00 -0.16916937777E+04  0.16916937777E+04  0.25500000920E-02 0.  1.
    10030    2    1    2    0    0  0.00000000000E+00  0.00000000000E+00 -0.13124658914E+04  0.20709216641E+04  0.16019206668E+04 0.  0.
        1    1    3    3  502    0  0.72227384937E+03 -0.30820002779E+03 -0.86010915067E+03  0.11646692757E+04  0.50400001928E-02 0.  1.
       -1    1    3    3    0  502 -0.72227384937E+03  0.30820002779E+03 -0.45235674071E+03  0.90625238841E+03  0.50400001928E-02 0. -1.
</event>
<event>
 5   0  0.5083831E-04  0.1604261E+04  0.7818609E-02  0.8817935E-01
       -2   -1    0    0    0  501  0.00000000000E+00  0.00000000000E+00  0.62304502124E+03  0.62304502125E+03  0.25500000920E-02 0. -1.
        2   -1    0    0  501    0  0.00000000000E+00  0.00000000000E+00 -0.10326910751E+04  0.10326910751E+04  0.25500000920E-02 0.  1.
    10030    2    1    2    0    0  0.00000000000E+00  0.00000000000E+00 -0.40964605384E+03  0.16557360963E+04  0.16042606183E+04 0.  0.
        4    1    3    3  502    0  0.60305868872E+02  0.66264036339E+03 -0.66717296734E+03  0.94225815478E+03  0.12699999809E+01 0.  1.
       -4    1    3    3    0  502 -0.60305868872E+02 -0.66264036339E+03  0.25752691350E+03  0.71347794155E+03  0.12699999809E+01 0. -1.
</event>
<event>
 5   0  0.5083831E-04  0.1573868E+04  0.7818609E-02  0.8836765E-01
       -2   -1    0    0    0  501  0.00000000000E+00  0.00000000000E+00  0.71026471420E+03  0.71026471421E+03  0.25500000920E-02 0. -1.
        2   -1    0    0  501    0  0.00000000000E+00  0.00000000000E+00 -0.87187951986E+03  0.87187951986E+03  0.25500000920E-02 0.  1.
    10030    2    1    2    0    0  0.00000000000E+00  0.00000000000E+00 -0.16161480565E+03  0.15821442341E+04  0.15738681749E+04 0.  0.
        4    1    3    3  502    0  0.76302216234E+03  0.59262582278E+02 -0.26493378850E+03  0.80988048443E+03  0.12699999809E+01 0.  1.
       -4    1    3    3    0  502 -0.76302216234E+03 -0.59262582278E+02  0.10331898285E+03  0.77226374963E+03  0.12699999809E+01 0. -1.
</event>
<event>
 5   0  0.2796994E-04  0.1605038E+04  0.7818609E-02  0.8817459E-01
       -1   -1    0    0    0  501  0.00000000000E+00  0.00000000000E+00  0.80158969773E+03  0.80158969775E+03  0.50400001928E-02 0. -1.
        1   -1    0    0  501    0  0.00000000000E+00  0.00000000000E+00 -0.80344888769E+03  0.80344888770E+03  0.50400001928E-02 0.  1.
    10030    2    1    2    0    0  0.00000000000E+00  0.00000000000E+00 -0.18591899536E+01  0.16050385854E+04  0.16050375087E+04 0.  0.
        3    1    3    3  502    0 -0.32626398792E+03  0.42910894013E+03  0.59359049954E+03  0.80183063278E+03  0.10100000352E+00 0. -1.
       -3    1    3    3    0  502  0.32626398792E+03 -0.42910894013E+03 -0.59544968950E+03  0.80320795267E+03  0.10100000352E+00 0.  1.
</event>
<event>
 5   0  0.2730707E-04  0.1581573E+04  0.7818609E-02  0.8831949E-01
       -1   -1    0    0    0  501  0.00000000000E+00  0.00000000000E+00  0.48916730748E+03  0.48916730750E+03  0.50400001928E-02 0. -1.
        1   -1    0    0  501    0  0.00000000000E+00  0.00000000000E+00 -0.12783832010E+04  0.12783832011E+04  0.50400001928E-02 0.  1.
    10030    2    1    2    0    0  0.00000000000E+00  0.00000000000E+00 -0.78921589357E+03  0.17675505086E+04  0.15815729745E+04 0.  0.
        5    1    3    3  502    0  0.13031383972E+03  0.50661335525E+03  0.26815452435E+03  0.58785008928E+03  0.46999998093E+01 0. -1.
       -5    1    3    3    0  502 -0.13031383972E+03 -0.50661335525E+03 -0.10573704179E+04  0.11797004193E+04  0.46999998093E+01 0.  1.
</event>
<event>
 5   0  0.5315984E-04  0.1604306E+04  0.7818609E-02  0.8817907E-01
        2   -1    0    0  501    0  0.00000000000E+00  0.00000000000E+00  0.12921335107E+04  0.12921335107E+04  0.25500000920E-02 0.  1.
       -2   -1    0    0    0  501  0.00000000000E+00  0.00000000000E+00 -0.49797471010E+03  0.49797471011E+03  0.25500000920E-02 0. -1.
    10030    2    1    2    0    0  0.00000000000E+00  0.00000000000E+00  0.79415880059E+03  0.17901082208E+04  0.16043064675E+04 0.  0.
        2    1    3    3  502    0  0.56132155871E+03  0.19343929141E+03  0.99894636382E+03  0.11620647527E+04  0.25500000920E-02 0.  1.
       -2    1    3    3    0  502 -0.56132155871E+03 -0.19343929141E+03 -0.20478756323E+03  0.62804346808E+03  0.25500000920E-02 0. -1.
</event>
<event>
 5   0  0.2649086E-04  0.1618776E+04  0.7818609E-02  0.8809096E-01
        1   -1    0    0  501    0  0.00000000000E+00  0.00000000000E+00  0.10324740800E+04  0.10324740800E+04  0.50400001928E-02 0. -1.
       -1   -1    0    0    0  501  0.00000000000E+00  0.00000000000E+00 -0.63450364972E+03  0.63450364974E+03  0.50400001928E-02 0.  1.
    10030    2    1    2    0    0  0.00000000000E+00  0.00000000000E+00  0.39797043030E+03  0.16669777298E+04  0.16187755521E+04 0.  0.
        2    1    3    3  502    0 -0.72025323266E+03  0.49328413457E+02  0.57581964443E+03  0.92345345007E+03  0.25500000920E-02 0. -1.
       -2    1    3    3    0  502  0.72025323266E+03 -0.49328413457E+02 -0.17784921413E+03  0.74352427970E+03  0.25500000920E-02 0.  1.
</event>
<event>
 5   0  0.2649086E-04  0.1598851E+04  0.7818609E-02  0.8821254E-01
       -1   -1    0    0    0  501  0.00000000000E+00  0.00000000000E+00  0.43775369497E+03  0.43775369500E+03  0.50400001928E-02 0. -1.
        1   -1    0    0  501    0  0.00000000000E+00  0.00000000000E+00 -0.14599112064E+04  0.14599112064E+04  0.50400001928E-02 0.  1.
    10030    2    1    2    0    0  0.00000000000E+00  0.00000000000E+00 -0.10221575114E+04  0.18976649014E+04  0.15988514940E+04 0.  0.
        2    1    3    3  502    0  0.32636777664E+03 -0.38438970187E+03  0.22518710078E+03  0.55225048565E+03  0.25500000920E-02 0. -1.
       -2    1    3    3    0  502 -0.32636777664E+03  0.38438970187E+03 -0.12473446122E+04  0.13454144157E+04  0.25500000920E-02 0.  1.
</event>
<event>
 5   0  0.2689675E-04  0.1574997E+04  0.7818609E-02  0.8836057E-01
        1   -1    0    0  501    0  0.00000000000E+00  0.00000000000E+00  0.93205565245E+03  0.93205565247E+03  0.50400001928E-02 0. -1.
       -1   -1    0    0    0  501  0.00000000000E+00  0.00000000000E+00 -0.66536109157E+03  0.66536109159E+03  0.50400001928E-02 0.  1.
    10030    2    1    2    0    0  0.00000000000E+00  0.00000000000E+00  0.26669456088E+03  0.15974167441E+04  0.15749965922E+04 0.  0.
        1    1    3    3  502    0  0.55251222466E+01 -0.39961557060E+03  0.82155672073E+03  0.91360745216E+03  0.50400001928E-02 0. -1.
       -1    1    3    3    0  502 -0.55251222466E+01  0.39961557060E+03 -0.55486215984E+03  0.68380929190E+03  0.50400001928E-02 0.  1.
</event>
<event>
 5   0  0.5315984E-04  0.1623984E+04  0.7818609E-02  0.8805948E-01
        2   -1    0    0  501    0  0.00000000000E+00  0.00000000000E+00  0.94901049124E+03  0.94901049124E+03  0.25500000920E-02 0. -1.
       -2   -1    0    0    0  501  0.00000000000E+00  0.00000000000E+00 -0.69475621036E+03  0.69475621036E+03  0.25500000920E-02 0.  1.
    10030    2    1    2    0    0  0.00000000000E+00  0.00000000000E+00  0.25425428088E+03  0.16437667016E+04  0.16239839069E+04 0.  0.
        2    1    3    3  502    0  0.69946886930E+02  0.29620977399E+03  0.88909095815E+03  0.93974226736E+03  0.25500000920E-02 0. -1.
       -2    1    3    3    0  502 -0.69946886930E+02 -0.29620977399E+03 -0.63483667727E+03  0.70402443424E+03  0.25500000920E-02 0.  1.
</event>
<event>
 5   0  0.5083831E-04  0.1592720E+04  0.7818609E-02  0.8825033E-01
        2   -1    0    0  501    0  0.00000000000E+00  0.00000000000E+00  0.10779934190E+04  0.10779934190E+04  0.25500000920E-02 0. -1.
       -2   -1    0    0    0  501  0.00000000000E+00  0.00000000000E+00 -0.58830563584E+03  0.58830563584E+03  0.25500000920E-02 0.  1.
    10030    2    1    2    0    0  0.00000000000E+00  0.00000000000E+00  0.48968778315E+03  0.16662990548E+04  0.15927204448E+04 0.  0.
        4    1    3    3  502    0  0.22191892641E+03  0.55996595308E+03 -0.30016150393E+03  0.67298470997E+03  0.12699999809E+01 0.  1.
       -4    1    3    3    0  502 -0.22191892641E+03 -0.55996595308E+03  0.78984928708E+03  0.99331434486E+03  0.12699999809E+01 0. -1.
</event>
<event>
 5   0  0.2689675E-04  0.1556579E+04  0.7818609E-02  0.8847676E-01
        1   -1    0    0  501    0  0.00000000000E+00  0.00000000000E+00  0.84115609571E+03  0.84115609573E+03  0.50400001928E-02 0.  1.
       -1   -1    0    0    0  501  0.00000000000E+00  0.00000000000E+00 -0.72012174599E+03  0.72012174601E+03  0.50400001928E-02 0. -1.
    10030    2    1    2    0    0  0.00000000000E+00  0.00000000000E+00  0.12103434972E+03  0.15612778417E+04  0.15565793219E+04 0.  0.
        1    1    3    3  502    0  0.25460548111E+03 -0.69564556541E+03 -0.17892519374E+03  0.76207672098E+03  0.50400001928E-02 0.  1.
       -1    1    3    3    0  502 -0.25460548111E+03  0.69564556541E+03  0.29995954346E+03  0.79920112076E+03  0.50400001928E-02 0. -1.
</event>
<event>
 5   0  0.5131239E-04  0.1582881E+04  0.7818609E-02  0.8831135E-01
        2   -1    0    0  501    0  0.00000000000E+00  0.00000000000E+00  0.19042915423E+04  0.19042915423E+04  0.25500000920E-02 0.  1.
       -2   -1    0    0    0  501  0.00000000000E+00  0.00000000000E+00 -0.32892955828E+03  0.32892955829E+03  0.25500000920E-02 0. -1.
    10030    2    1    2    0    0  0.00000000000E+00  0.00000000000E+00  0.15753619840E+04  0.22332211006E+04  0.15828806346E+04 0.  0.
        1    1    3    3  502    0 -0.70326769222E+03 -0.30121849297E+03  0.50179577499E+03  0.91494099659E+03  0.50400001928E-02 0. -1.
       -1    1    3    3    0  502  0.70326769222E+03  0.30121849297E+03  0.10735662090E+04  0.13182801040E+04  0.50400001928E-02 0.  1.
</event>
<event>
 5   0  0.2649086E-04  0.1665312E+04  0.7818609E-02  0.8781399E-01
       -1   -1    0    0    0  501  0.00000000000E+00  0.00000000000E+00  0.79062702157E+03  0.79062702159E+03  0.50400001928E-02 0. -1.
        1   -1    0    0  501    0  0.00000000000E+00  0.00000000000E+00 -0.87691921642E+03  0.87691921644E+03  0.50400001928E-02 0.  1.
    10030    2    1    2    0    0  0.00000000000E+00  0.00000000000E+00 -0.86292194855E+02  0.16675462380E+04  0.16653120167E+04 0.  0.
        2    1    3    3  502    0  0.11478949332E+03 -0.42391149019E+03 -0.75151192766E+03  0.87042963915E+03  0.25500000920E-02 0.  1.
       -2    1    3    3    0  502 -0.11478949332E+03  0.42391149019E+03  0.66521973280E+03  0.79711659888E+03  0.25500000920E-02 0. -1.
</event>
<event>
 5   0  0.2689675E-04  0.1590266E+04  0.7818609E-02  0.8826550E-01
        1   -1    0    0  501    0  0.00000000000E+00  0.00000000000E+00  0.12792847660E+04  0.12792847660E+04  0.50400001928E-02 0. -1.
       -1   -1    0    0    0  501  0.00000000000E+00  0.00000000000E+00 -0.49421092097E+03  0.49421092099E+03  0.50400001928E-02 0.  1.
    10030    2    1    2    0    0  0.00000000000E+00  0.00000000000E+00  0.78507384502E+03  0.17734956870E+04  0.15902660185E+04 0.  0.
        1    1    3    3  502    0 -0.44498406961E+03  0.60219002660E+03  0.69093442896E+03  0.10188395534E+04  0.50400001928E-02 0. -1.
       -1    1    3    3    0  502  0.44498406961E+03 -0.60219002660E+03  0.94139416060E+02  0.75465613363E+03  0.50400001928E-02 0.  1.
</event>
<event>
 5   0  0.2796994E-04  0.1645393E+04  0.7818609E-02  0.8793136E-01
       -1   -1    0    0    0  501  0.00000000000E+00  0.00000000000E+00  0.52171459673E+03  0.52171459675E+03  0.50400001928E-02 0.  1.
        1   -1    0    0  501    0  0.00000000000E+00  0.00000000000E+00 -0.12973183327E+04  0.12973183327E+04  0.50400001928E-02 0. -1.
    10030    2    1    2    0    0  0.00000000000E+00  0.00000000000E+00 -0.77560373599E+03  0.18190329295E+04  0.16453934615E+04 0.  0.
        3    1    3    3  502    0 -0.29710718106E+03  0.27396147858E+03  0.40441120340E+03  0.57173070621E+03  0.10100000352E+00 0.  1.
       -3    1    3    3    0  502  0.29710718106E+03 -0.27396147858E+03 -0.11800149394E+04  0.12473022233E+04  0.10100000352E+00 0. -1.
</event>
<event>
 5   0  0.2689675E-04  0.1605199E+04  0.7818609E-02  0.8817361E-01
       -1   -1    0    0    0  501  0.00000000000E+00  0.00000000000E+00  0.51381347712E+03  0.51381347715E+03  0.50400001928E-02 0. -1.
        1   -1    0    0  501    0  0.00000000000E+00  0.00000000000E+00 -0.12536955666E+04  0.12536955666E+04  0.50400001928E-02 0.  1.
    10030    2    1    2    0    0  0.00000000000E+00  0.00000000000E+00 -0.73988208944E+03  0.17675090437E+04  0.16051986523E+04 0.  0.
        1    1    3    3  502    0 -0.22037240256E+03  0.52281277541E+03  0.25514784012E+03  0.62209132311E+03  0.50400001928E-02 0. -1.
       -1    1    3    3    0  502  0.22037240256E+03 -0.52281277541E+03 -0.99502992956E+03  0.11454177206E+04  0.50400001928E-02 0.  1.
</event>
<event>
 5   0  0.2689675E-04  0.1597860E+04  0.7818609E-02  0.8821864E-01
       -1   -1    0    0    0  501  0.00000000000E+00  0.00000000000E+00  0.85876528804E+03  0.85876528805E+03  0.50400001928E-02 0. -1.
        1   -1    0    0  501    0  0.00000000000E+00  0.00000000000E+00 -0.74326376496E+03  0.74326376498E+03  0.50400001928E-02 0.  1.
    10030    2    1    2    0    0  0.00000000000E+00  0.00000000000E+00  0.11550152307E+03  0.16020290530E+04  0.15978599704E+04 0.  0.
        1    1    3    3  502    0  0.67534428648E+02 -0.74330801702E+03 -0.22798654317E+03  0.78041371791E+03  0.50400001928E-02 0.  1.
       -1    1    3    3    0  502 -0.67534428648E+02  0.74330801702E+03  0.34348806624E+03  0.82161533511E+03  0.50400001928E-02 0. -1.
</event>
<event>
 5   0  0.2649086E-04  0.1609736E+04  0.7818609E-02  0.8814589E-01
       -1   -1    0    0    0  501  0.00000000000E+00  0.00000000000E+00  0.72327595834E+03  0.72327595836E+03  0.50400001928E-02 0. -1.
        1   -1    0    0  501    0  0.00000000000E+00  0.00000000000E+00 -0.89566394473E+03  0.89566394475E+03  0.50400001928E-02 0.  1.
    10030    2    1    2    0    0  0.00000000000E+00  0.00000000000E+00 -0.17238798639E+03  0.16189399031E+04  0.16097356280E+04 0.  0.
        2    1    3    3  502    0 -0.50570034094E+02 -0.15962999185E+03 -0.87795214763E+03  0.89377795687E+03  0.25500000920E-02 0.  1.
       -2    1    3    3    0  502  0.50570034094E+02  0.15962999185E+03  0.70556416124E+03  0.72516194624E+03  0.25500000920E-02 0. -1.
</event>
<event>
 5   0  0.2689675E-04  0.1716405E+04  0.7818609E-02  0.8752063E-01
        1   -1    0    0  501    0  0.00000000000E+00  0.00000000000E+00  0.50748307377E+03  0.50748307380E+03  0.50400001928E-02 0.  1.
       -1   -1    0    0    0  501  0.00000000000E+00  0.00000000000E+00 -0.14513020826E+04  0.14513020826E+04  0.50400001928E-02 0. -1.
    10030    2    1    2    0    0  0.00000000000E+00  0.00000000000E+00 -0.94381900885E+03  0.19587851564E+04  0.17164046631E+04 0.  0.
        1    1    3    3  502    0  0.65591019956E+03 -0.43058919747E+03 -0.86869438337E+03  0.11705789929E+04  0.50400001928E-02 0. -1.
       -1    1    3    3    0  502 -0.65591019956E+03  0.43058919747E+03 -0.75124625478E+02  0.78820616354E+03  0.50400001928E-02 0.  1.
</event>
<event>
 5   0  0.5315984E-04  0.1603235E+04  0.7818609E-02  0.8818563E-01
       -2   -1    0    0    0  501  0.00000000000E+00  0.00000000000E+00  0.73149602528E+03  0.73149602528E+03  0.25500000920E-02 0.  1.
        2   -1    0    0  501    0  0.00000000000E+00  0.00000000000E+00 -0.87846135532E+03  0.87846135533E+03  0.25500000920E-02 0. -1.
    10030    2    1    2    0    0  0.00000000000E+00  0.00000000000E+00 -0.14696533004E+03  0.16099573806E+04  0.16032354659E+04 0.  0.
        2    1    3    3  502    0  0.77543427326E+03 -0.18262554126E+03 -0.16296626245E+03  0.81314722109E+03  0.25500000920E-02 0. -1.
       -2    1    3    3    0  502 -0.77543427326E+03  0.18262554126E+03  0.16000932401E+02  0.79681015952E+03  0.25500000920E-02 0.  1.
</event>
<event>
 5   0  0.2649086E-04  0.1297293E+04  0.7818609E-02  0.9031714E-01
       -1   -1    0    0    0  501  0.00000000000E+00  0.00000000000E+00  0.37782251719E+03  0.37782251723E+03  0.50400001928E-02 0. -1.
        1   -1    0    0  501    0  0.00000000000E+00  0.00000000000E+00 -0.11135982751E+04  0.11135982751E+04  0.50400001928E-02 0.  1.
    10030    2    1    2    0    0  0.00000000000E+00  0.00000000000E+00 -0.73577575794E+03  0.14914207924E+04  0.12972933415E+04 0.  0.
        2    1    3    3  502    0  0.42281782135E+03 -0.35380524614E+03 -0.76077138318E+03  0.93953507636E+03  0.25500000920E-02 0.  1.
       -2    1    3    3    0  502 -0.42281782135E+03  0.35380524614E+03  0.24995625239E+02  0.55188571601E+03  0.25500000920E-02 0. -1.
</event>
<event>
 5   0  0.2730707E-04  0.1600370E+04  0.7818609E-02  0.8820321E-01
        1   -1    0    0  501    0  0.00000000000E+00  0.00000000000E+00  0.12561595039E+04  0.12561595039E+04  0.50400001928E-02 0. -1.
       -1   -1    0    0    0  501  0.00000000000E+00  0.00000000000E+00 -0.50972532787E+03  0.50972532789E+03  0.50400001928E-02 0.  1.
    10030    2    1    2    0    0  0.00000000000E+00  0.00000000000E+00  0.74643417604E+03  0.17658848318E+04  0.16003703509E+04 0.  0.
        5    1    3    3  502    0 -0.16067153855E+03 -0.38320782865E+03  0.11277602234E+04  0.12018855165E+04  0.46999998093E+01 0. -1.
       -5    1    3    3    0  502  0.16067153855E+03  0.38320782865E+03 -0.38132604739E+03  0.56399931530E+03  0.46999998093E+01 0.  1.
</event>
<event>
 5   0  0.5131239E-04  0.1584355E+04  0.7818609E-02  0.8830217E-01
       -2   -1    0    0    0  501  0.00000000000E+00  0.00000000000E+00  0.93692118275E+03  0.93692118276E+03  0.25500000920E-02 0.  1.
        2   -1    0    0  501    0  0.00000000000E+00  0.00000000000E+00 -0.66979504060E+03  0.66979504060E+03  0.25500000920E-02 0. -1.
    10030    2    1    2    0    0  0.00000000000E+00  0.00000000000E+00  0.26712614215E+03  0.16067162234E+04  0.15843549623E+04 0.  0.
        1    1    3    3  502    0 -0.16748229483E+03 -0.16802801869E+02 -0.65145042944E+03  0.67284494147E+03  0.50400001928E-02 0. -1.
       -1    1    3    3    0  502  0.16748229483E+03  0.16802801869E+02  0.91857657159E+03  0.93387128188E+03  0.50400001928E-02 0.  1.
</event>
<event>
 5   0  0.5131239E-04  0.1603948E+04  0.7818609E-02  0.8818127E-01
        2   -1    0    0  501    0  0.00000000000E+00  0.00000000000E+00  0.15648224088E+04  0.15648224088E+04  0.25500000920E-02 0. -1.
       -2   -1    0    0    0  501  0.00000000000E+00  0.00000000000E+00 -0.41101273350E+03  0.41101273351E+03  0.25500000920E-02 0.  1.
    10030    2    1    2    0    0  0.00000000000E+00  0.00000000000E+00  0.11538096753E+04  0.19758351423E+04  0.16039475499E+04 0.  0.
        1    1    3    3  502    0  0.63434533504E+03 -0.14399012980E+03  0.11547429777E+04  0.13253522197E+04  0.50400001928E-02 0. -1.
       -1    1    3    3    0  502 -0.63434533504E+03  0.14399012980E+03 -0.93330241858E+00  0.65048292264E+03  0.50400001928E-02 0.  1.
</event>
<event>
 5   0  0.5315984E-04  0.1602389E+04  0.7818609E-02  0.8819082E-01
       -2   -1    0    0    0  501  0.00000000000E+00  0.00000000000E+00  0.13280663269E+04  0.13280663269E+04  0.25500000920E-02 0.  1.
        2   -1    0    0  501    0  0.00000000000E+00  0.00000000000E+00 -0.48334377858E+03  0.48334377858E+03  0.25500000920E-02 0. -1.
    10030    2    1    2    0    0  0.00000000000E+00  0.00000000000E+00  0.84472254835E+03  0.18114101055E+04  0.16023889623E+04 0.  0.
        2    1    3    3  502    0 -0.82760711812E+02  0.30705916562E+03  0.12536623088E+04  0.12933691860E+04  0.25500000920E-02 0.  1.
       -2    1    3    3    0  502  0.82760711812E+02 -0.30705916562E+03 -0.40893976048E+03  0.51804091954E+03  0.25500000920E-02 0. -1.
</event>
<event>
 5   0  0.5381164E-04  0.1587470E+04  0.7818609E-02  0.8828283E-01
        2   -1    0    0  501    0  0.00000000000E+00  0.00000000000E+00  0.49406875611E+03  0.49406875611E+03  0.25500000920E-02 0.  1.
       -2   -1    0    0    0  501  0.00000000000E+00  0.00000000000E+00 -0.12751567322E+04  0.12751567322E+04  0.25500000920E-02 0. -1.
    10030    2    1    2    0    0  0.00000000000E+00  0.00000000000E+00 -0.78108797607E+03  0.17692254883E+04  0.15874698114E+04 0.  0.
        5    1    3    3  502    0 -0.71306868704E+03  0.34587665317E+03 -0.34202318034E+03  0.86319149528E+03  0.46999998093E+01 0.  1.
       -5    1    3    3    0  502  0.71306868704E+03 -0.34587665317E+03 -0.43906479573E+03  0.90603399301E+03  0.46999998093E+01 0. -1.
</event>
<event>
 5   0  0.2763895E-04  0.1594380E+04  0.7818609E-02  0.8824008E-01
        1   -1    0    0  501    0  0.00000000000E+00  0.00000000000E+00  0.66953699670E+03  0.66953699672E+03  0.50400001928E-02 0. -1.
       -1   -1    0    0    0  501  0.00000000000E+00  0.00000000000E+00 -0.94918097080E+03  0.94918097081E+03  0.50400001928E-02 0.  1.
    10030    2    1    2    0    0  0.00000000000E+00  0.00000000000E+00 -0.27964397410E+03  0.16187179675E+04  0.15943798500E+04 0.  0.
        4    1    3    3  502    0  0.63624458913E+03 -0.32134841414E+03 -0.50225619049E+03  0.87197183111E+03  0.12699999809E+01 0.  1.
       -4    1    3    3    0  502 -0.63624458913E+03  0.32134841414E+03  0.22261221640E+03  0.74674613642E+03  0.12699999809E+01 0. -1.
</event>
<event>
 5   0  0.5131239E-04  0.1603077E+04  0.7818609E-02  0.8818660E-01
        2   -1    0    0  501    0  0.00000000000E+00  0.00000000000E+00  0.14460327442E+04  0.14460327442E+04  0.25500000920E-02 0.  1.
       -2   -1    0    0    0  501  0.00000000000E+00  0.00000000000E+00 -0.44429445893E+03  0.44429445893E+03  0.25500000920E-02 0. -1.
    10030    2    1    2    0    0  0.00000000000E+00  0.00000000000E+00  0.10017382852E+04  0.18903272031E+04  0.16030774600E+04 0.  0.
        1    1    3    3  502    0 -0.66687234328E+03 -0.32205468581E+03  0.13928667529E+03  0.75355074204E+03  0.50400001928E-02 0. -1.
       -1    1    3    3    0  502  0.66687234328E+03  0.32205468581E+03  0.86245160993E+03  0.11367764610E+04  0.50400001928E-02 0.  1.
</event>
<event>
 5   0  0.2689675E-04  0.1602912E+04  0.7818609E-02  0.8818761E-01
        1   -1    0    0  501    0  0.00000000000E+00  0.00000000000E+00  0.12926177422E+04  0.12926177422E+04  0.50400001928E-02 0.  1.
       -1   -1    0    0    0  501  0.00000000000E+00  0.00000000000E+00 -0.49692304056E+03  0.49692304059E+03  0.50400001928E-02 0. -1.
    10030    2    1    2    0    0  0.00000000000E+00  0.00000000000E+00  0.79569470166E+03  0.17895407828E+04  0.16029117740E+04 0.  0.
        1    1    3    3  502    0  0.21374127475E+03 -0.64246175115E+02 -0.46152818868E+03  0.51266087477E+03  0.50400001928E-02 0. -1.
       -1    1    3    3    0  502 -0.21374127475E+03  0.64246175115E+02  0.12572228903E+04  0.12768799080E+04  0.50400001928E-02 0.  1.
</event>
<event>
 5   0  0.2649086E-04  0.1596826E+04  0.7818609E-02  0.8822500E-01
        1   -1    0    0  501    0  0.00000000000E+00  0.00000000000E+00  0.10797363856E+04  0.10797363856E+04  0.50400001928E-02 0.  1.
       -1   -1    0    0    0  501  0.00000000000E+00  0.00000000000E+00 -0.59038804435E+03  0.59038804437E+03  0.50400001928E-02 0. -1.
    10030    2    1    2    0    0  0.00000000000E+00  0.00000000000E+00  0.48934834128E+03  0.16701244300E+04  0.15968261686E+04 0.  0.
        2    1    3    3  502    0  0.27169667064E+03  0.17523546336E+03  0.10082094090E+04  0.10587789008E+04  0.25500000920E-02 0.  1.
       -2    1    3    3    0  502 -0.27169667064E+03 -0.17523546336E+03 -0.51886106772E+03  0.61134552918E+03  0.25500000920E-02 0. -1.
</event>
<event>
 5   0  0.2689675E-04  0.1606835E+04  0.7818609E-02  0.8816360E-01
       -1   -1    0    0    0  501  0.00000000000E+00  0.00000000000E+00  0.10185199119E+04  0.10185199119E+04  0.50400001928E-02 0.  1.
        1   -1    0    0  501    0  0.00000000000E+00  0.00000000000E+00 -0.63374267360E+03  0.63374267362E+03  0.50400001928E-02 0. -1.
    10030    2    1    2    0    0  0.00000000000E+00  0.00000000000E+00  0.38477723829E+03  0.16522625855E+04  0.16068348168E+04 0.  0.
        1    1    3    3  502    0 -0.41329240758E+03  0.18848462540E+02 -0.51578647398E+03  0.66121219398E+03  0.50400001928E-02 0. -1.
       -1    1    3    3    0  502  0.41329240758E+03 -0.18848462540E+02  0.90056371227E+03  0.99105039155E+03  0.50400001928E-02 0.  1.
</event>
<event>
 5   0  0.2730707E-04  0.1563064E+04  0.7818609E-02  0.8843566E-01
       -1   -1    0    0    0  501  0.00000000000E+00  0.00000000000E+00  0.41870483671E+03  0.41870483674E+03  0.50400001928E-02 0.  1.
        1   -1    0    0  501    0  0.00000000000E+00  0.00000000000E+00 -0.14587657950E+04  0.14587657950E+04  0.50400001928E-02 0. -1.
    10030    2    1    2    0    0  0.00000000000E+00  0.00000000000E+00 -0.10400609583E+04  0.18774706317E+04  0.15630640346E+04 0.  0.
        5    1    3    3  502    0  0.50777482074E+03  0.35035969007E+02  0.19230921445E+03  0.54412104505E+03  0.46999998093E+01 0.  1.
       -5    1    3    3    0  502 -0.50777482074E+03 -0.35035969007E+02 -0.12323701727E+04  0.13333495867E+04  0.46999998093E+01 0. -1.
</event>
<event>
 5   0  0.2649086E-04  0.1572214E+04  0.7818609E-02  0.8837802E-01
       -1   -1    0    0    0  501  0.00000000000E+00  0.00000000000E+00  0.38900525835E+03  0.38900525839E+03  0.50400001928E-02 0. -1.
        1   -1    0    0  501    0  0.00000000000E+00  0.00000000000E+00 -0.15885749588E+04  0.15885749589E+04  0.50400001928E-02 0.  1.
    10030    2    1    2    0    0  0.00000000000E+00  0.00000000000E+00 -0.11995697005E+04  0.19775802172E+04  0.15722137416E+04 0.  0.
        2    1    3    3  502    0  0.54987074882E+03  0.45354264731E+03 -0.10167806866E+04  0.12417333602E+04  0.25500000920E-02 0. -1.
       -2    1    3    3    0  502 -0.54987074882E+03 -0.45354264731E+03 -0.18278901392E+03  0.73584685700E+03  0.25500000920E-02 0.  1.
</event>
<event>
 5   0  0.5131239E-04  0.1563556E+04  0.7818609E-02  0.8843255E-01
        2   -1    0    0  501    0  0.00000000000E+00  0.00000000000E+00  0.70490210302E+03  0.70490210302E+03  0.25500000920E-02 0. -1.
       -2   -1    0    0    0  501  0.00000000000E+00  0.00000000000E+00 -0.86703816489E+03  0.86703816489E+03  0.25500000920E-02 0.  1.
    10030    2    1    2    0    0  0.00000000000E+00  0.00000000000E+00 -0.16213606187E+03  0.15719402679E+04  0.15635562361E+04 0.  0.
        1    1    3    3  502    0  0.31628988374E+03 -0.44523703335E+03 -0.64344368082E+03  0.84397575607E+03  0.50400001928E-02 0.  1.
       -1    1    3    3    0  502 -0.31628988374E+03  0.44523703335E+03  0.48130761895E+03  0.72796451184E+03  0.50400001928E-02 0. -1.
</event>
<event>
 5   0  0.5264308E-04  0.1568388E+04  0.7818609E-02  0.8840207E-01
        2   -1    0    0  501    0  0.00000000000E+00  0.00000000000E+00  0.15591817027E+04  0.15591817027E+04  0.25500000920E-02 0.  1.
       -2   -1    0    0    0  501  0.00000000000E+00  0.00000000000E+00 -0.39441229630E+03  0.39441229631E+03  0.25500000920E-02 0. -1.
    10030    2    1    2    0    0  0.00000000000E+00  0.00000000000E+00  0.11647694064E+04  0.19535939990E+04  0.15683882628E+04 0.  0.
        3    1    3    3  502    0 -0.69330642585E+03  0.55678569489E+01  0.10387861088E+04  0.12489120831E+04  0.10100000352E+00 0.  1.
       -3    1    3    3    0  502  0.69330642585E+03 -0.55678569489E+01  0.12598329757E+03  0.70468191592E+03  0.10100000352E+00 0. -1.
</event>
<event>
 5   0  0.2689675E-04  0.1601660E+04  0.7818609E-02  0.8819529E-01
        1   -1    0    0  501    0  0.00000000000E+00  0.00000000000E+00  0.18855921279E+04  0.18855921279E+04  0.50400001928E-02 0.  1.
       -1   -1    0    0    0  501  0.00000000000E+00  0.00000000000E+00 -0.34012055323E+03  0.34012055327E+03  0.50400001928E-02 0. -1.
    10030    2    1    2    0    0  0.00000000000E+00  0.00000000000E+00  0.15454715747E+04  0.22257126812E+04  0.16016599361E+04 0.  0.
        1    1    3    3  502    0  0.25441741374E+02  0.38190738292E+03  0.17502564986E+04  0.17916189166E+04  0.50400001928E-02 0.  1.
       -1    1    3    3    0  502 -0.25441741374E+02 -0.38190738292E+03 -0.20478492396E+03  0.43409376457E+03  0.50400001928E-02 0. -1.
</event>
<event>
 5   0  0.2649086E-04  0.1607032E+04  0.7818609E-02  0.8816239E-01
        1   -1    0    0  501    0  0.00000000000E+00  0.00000000000E+00  0.72630885248E+03  0.72630885250E+03  0.50400001928E-02 0. -1.
       -1   -1    0    0    0  501  0.00000000000E+00  0.00000000000E+00 -0.88893079116E+03  0.88893079117E+03  0.50400001928E-02 0.  1.
    10030    2    1    2    0    0  0.00000000000E+00  0.00000000000E+00 -0.16262193868E+03  0.16152396437E+04  0.16070324239E+04 0.  0.
        2    1    3    3  502    0 -0.53593006849E+03 -0.87639801324E+02  0.51394372116E+03  0.74768972282E+03  0.25500000920E-02 0. -1.
       -2    1    3    3    0  502  0.53593006849E+03  0.87639801324E+02 -0.67656565984E+03  0.86754992085E+03  0.25500000920E-02 0.  1.
</event>
<event>
 5   0  0.2689675E-04  0.1591230E+04  0.7818609E-02  0.8825954E-01
        1   -1    0    0  501    0  0.00000000000E+00  0.00000000000E+00  0.11151583870E+04  0.11151583870E+04  0.50400001928E-02 0. -1.
       -1   -1    0    0    0  501  0.00000000000E+00  0.00000000000E+00 -0.56763510316E+03  0.56763510318E+03  0.50400001928E-02 0.  1.
    10030    2    1    2    0    0  0.00000000000E+00  0.00000000000E+00  0.54752328388E+03  0.16827934902E+04  0.15912297711E+04 0.  0.
        1    1    3    3  502    0  0.58635504695E+03 -0.29111358465E+03  0.75193434317E+03  0.99697774133E+03  0.50400001928E-02 0. -1.
       -1    1    3    3    0  502 -0.58635504695E+03  0.29111358465E+03 -0.20441105929E+03  0.68581574889E+03  0.50400001928E-02 0.  1.
</event>
<event>
 5   0  0.2649086E-04  0.1582051E+04  0.7818609E-02  0.8831651E-01
       -1   -1    0    0    0  501  0.00000000000E+00  0.00000000000E+00  0.59782916953E+03  0.59782916955E+03  0.50400001928E-02 0. -1.
        1   -1    0    0  501    0  0.00000000000E+00  0.00000000000E+00 -0.10466556488E+04  0.10466556488E+04  0.50400001928E-02 0.  1.
    10030    2    1    2    0    0  0.00000000000E+00  0.00000000000E+00 -0.44882647930E+03  0.16444848184E+04  0.15820509187E+04 0.  0.
        2    1    3    3  502    0 -0.12428876764E+03  0.65619291903E+03  0.21620719802E+03  0.70198461324E+03  0.25500000920E-02 0. -1.
       -2    1    3    3    0  502  0.12428876764E+03 -0.65619291903E+03 -0.66503367732E+03  0.94250020515E+03  0.25500000920E-02 0.  1.
</event>
<event>
 5   0  0.2796994E-04  0.1611877E+04  0.7818609E-02  0.8813285E-01
        1   -1    0    0  501    0  0.00000000000E+00  0.00000000000E+00  0.84684895222E+03  0.84684895224E+03  0.50400001928E-02 0. -1.
       -1   -1    0    0    0  501  0.00000000000E+00  0.00000000000E+00 -0.76700397068E+03  0.76700397069E+03  0.50400001928E-02 0.  1.
    10030    2    1    2    0    0  0.00000000000E+00  0.00000000000E+00  0.79844981544E+02  0.16138529229E+04  0.16118765572E+04 0.  0.
        3    1    3    3  502    0 -0.56597803676E+03  0.46911128385E+03  0.37069094007E+03  0.82329115019E+03  0.10100000352E+00 0.  1.
       -3    1    3    3    0  502  0.56597803676E+03 -0.46911128385E+03 -0.29084595853E+03  0.79056177274E+03  0.10100000352E+00 0. -1.
</event>
<event>
 5   0  0.5131239E-04  0.1368560E+04  0.7818609E-02  0.8976896E-01
       -2   -1    0    0    0  501  0.00000000000E+00  0.00000000000E+00  0.58771199271E+03  0.58771199271E+03  0.25500000920E-02 0. -1.
        2   -1    0    0  501    0  0.00000000000E+00  0.00000000000E+00 -0.79671531580E+03  0.79671531581E+03  0.25500000920E-02 0.  1.
    10030    2    1    2    0    0  0.00000000000E+00  0.00000000000E+00 -0.20900332310E+03  0.13844273085E+04  0.13685600402E+04 0.  0.
        1    1    3    3  502    0 -0.17889113526E+03  0.24876764906E+03 -0.72343837493E+03  0.78565289017E+03  0.50400001928E-02 0.  1.
       -1    1    3    3    0  502  0.17889113526E+03 -0.24876764906E+03  0.51443505183E+03  0.59877441835E+03  0.50400001928E-02 0. -1.
</event>
<event>
 5   0  0.2730707E-04  0.1583720E+04  0.7818609E-02  0.8830613E-01
       -1   -1    0    0    0  501  0.00000000000E+00  0.00000000000E+00  0.10539659020E+04  0.10539659021E+04  0.50400001928E-02 0.  1.
        1   -1    0    0  501    0  0.00000000000E+00  0.00000000000E+00 -0.59493566924E+03  0.59493566926E+03  0.50400001928E-02 0. -1.
    10030    2    1    2    0    0  0.00000000000E+00  0.00000000000E+00  0.45903023280E+03  0.16489015713E+04  0.15837195576E+04 0.  0.
        5    1    3    3  502    0  0.27470480851E+03 -0.25558581830E+03 -0.49648828749E+03  0.62234198954E+03  0.46999998093E+01 0. -1.
       -5    1    3    3    0  502 -0.27470480851E+03  0.25558581830E+03  0.95551852028E+03  0.10265595818E+04  0.46999998093E+01 0.  1.
</event>
<event>
 5   0  0.5315984E-04  0.1519288E+04  0.7818609E-02  0.8871727E-01
       -2   -1    0    0    0  501  0.00000000000E+00  0.00000000000E+00  0.47932521199E+03  0.47932521200E+03  0.25500000920E-02 0. -1.
        2   -1    0    0  501    0  0.00000000000E+00  0.00000000000E+00 -0.12038980146E+04  0.12038980146E+04  0.25500000920E-02 0.  1.
    10030    2    1    2    0    0  0.00000000000E+00  0.00000000000E+00 -0.72457280259E+03  0.16832232266E+04  0.15192875581E+04 0.  0.
        2    1    3    3  502    0 -0.56172330591E+03  0.43406823224E+03 -0.66185150438E+03  0.97056463798E+03  0.25500000920E-02 0. -1.
       -2    1    3    3    0  502  0.56172330591E+03 -0.43406823224E+03 -0.62721298205E+02  0.71265858859E+03  0.25500000920E-02 0.  1.
</event>
<event>
 5   0  0.2649086E-04  0.1606046E+04  0.7818609E-02  0.8816842E-01
        1   -1    0    0  501    0  0.00000000000E+00  0.00000000000E+00  0.71189916525E+03  0.71189916527E+03  0.50400001928E-02 0. -1.
       -1   -1    0    0    0  501  0.00000000000E+00  0.00000000000E+00 -0.90581051953E+03  0.90581051955E+03  0.50400001928E-02 0.  1.
    10030    2    1    2    0    0  0.00000000000E+00  0.00000000000E+00 -0.19391135429E+03  0.16177096848E+04  0.16060457687E+04 0.  0.
        2    1    3    3  502    0 -0.10950327859E+03 -0.40883371533E+02  0.70328464339E+03  0.71293176933E+03  0.25500000920E-02 0. -1.
       -2    1    3    3    0  502  0.10950327859E+03  0.40883371533E+02 -0.89719599767E+03  0.90477791548E+03  0.25500000920E-02 0.  1.
</event>
<event>
 5   0  0.5264308E-04  0.1587494E+04  0.7818609E-02  0.8828268E-01
        2   -1    0    0  501    0  0.00000000000E+00  0.00000000000E+00  0.12842205926E+04  0.12842205926E+04  0.25500000920E-02 0.  1.
       -2   -1    0    0    0  501  0.00000000000E+00  0.00000000000E+00 -0.49059647880E+03  0.49059647880E+03  0.25500000920E-02 0. -1.
    10030    2    1    2    0    0  0.00000000000E+00  0.00000000000E+00  0.79362411378E+03  0.17748170714E+04  0.15874937489E+04 0.  0.
        3    1    3    3  502    0 -0.27379402238E+03  0.74430341274E+03  0.36001384700E+03  0.87095391218E+03  0.10100000352E+00 0.  1.
       -3    1    3    3    0  502  0.27379402238E+03 -0.74430341274E+03  0.43361026677E+03  0.90386315920E+03  0.10100000352E+00 0. -1.
</event>
<event>
 5   0  0.2689675E-04  0.1602106E+04  0.7818609E-02  0.8819255E-01
        1   -1    0    0  501    0  0.00000000000E+00  0.00000000000E+00  0.11396610846E+04  0.11396610846E+04  0.50400001928E-02 0.  1.
       -1   -1    0    0    0  501  0.00000000000E+00  0.00000000000E+00 -0.56304961232E+03  0.56304961234E+03  0.50400001928E-02 0. -1.
    10030    2    1    2    0    0  0.00000000000E+00  0.00000000000E+00  0.57661147232E+03  0.17027106970E+04  0.16021057792E+04 0.  0.
        1    1    3    3  502    0  0.34792305133E+02  0.20429696324E+03 -0.53406581986E+03  0.57286477781E+03  0.50400001928E-02 0. -1.
       -1    1    3    3    0  502 -0.34792305133E+02 -0.20429696324E+03  0.11106772922E+04  0.11298459192E+04  0.50400001928E-02 0.  1.
</event>
<event>
 5   0  0.5264308E-04  0.1614731E+04  0.7818609E-02  0.8811549E-01
       -2   -1    0    0    0  501  0.00000000000E+00  0.00000000000E+00  0.18143883988E+04  0.18143883988E+04  0.25500000920E-02 0. -1.
        2   -1    0    0  501    0  0.00000000000E+00  0.00000000000E+00 -0.35926122723E+03  0.35926122723E+03  0.25500000920E-02 0.  1.
    10030    2    1    2    0    0  0.00000000000E+00  0.00000000000E+00  0.14551271715E+04  0.21736496260E+04  0.16147314363E+04 0.  0.
        3    1    3    3  502    0  0.37958101169E+03  0.36031461001E+03 -0.99988839806E+02  0.53282843478E+03  0.10100000352E+00 0.  1.
       -3    1    3    3    0  502 -0.37958101169E+03 -0.36031461001E+03  0.15551160113E+04  0.16408211912E+04  0.10100000352E+00 0. -1.
</event>
<event>
 5   0  0.2796994E-04  0.1588792E+04  0.7818609E-02  0.8827463E-01
        1   -1    0    0  501    0  0.00000000000E+00  0.00000000000E+00  0.78727997539E+03  0.78727997540E+03  0.50400001928E-02 0.  1.
       -1   -1    0    0    0  501  0.00000000000E+00  0.00000000000E+00 -0.80157676485E+03  0.80157676487E+03  0.50400001928E-02 0. -1.
    10030    2    1    2    0    0  0.00000000000E+00  0.00000000000E+00 -0.14296789463E+02  0.15888567403E+04  0.15887924166E+04 0.  0.
        3    1    3    3  502    0 -0.36565501806E+03 -0.30461366116E+03  0.62893729945E+03  0.78870476837E+03  0.10100000352E+00 0.  1.
       -3    1    3    3    0  502  0.36565501806E+03  0.30461366116E+03 -0.64323408892E+03  0.80015197191E+03  0.10100000352E+00 0. -1.
</event>
<event>
 5   0  0.2730707E-04  0.1646198E+04  0.7818609E-02  0.8792659E-01
       -1   -1    0    0    0  501  0.00000000000E+00  0.00000000000E+00  0.33954901267E+03  0.33954901270E+03  0.50400001928E-02 0. -1.
        1   -1    0    0  501    0  0.00000000000E+00  0.00000000000E+00 -0.19952700103E+04  0.19952700103E+04  0.50400001928E-02 0.  1.
    10030    2    1    2    0    0  0.00000000000E+00  0.00000000000E+00 -0.16557209976E+04  0.23348190230E+04  0.16461979979E+04 0.  0.
        5    1    3    3  502    0  0.77915553303E+03  0.20114516510E+02 -0.12030616161E+04  0.14334808267E+04  0.46999998093E+01 0. -1.
       -5    1    3    3    0  502 -0.77915553303E+03 -0.20114516510E+02 -0.45265938156E+03  0.90133819631E+03  0.46999998093E+01 0.  1.
</event>
<event>
 5   0  0.2796994E-04  0.1508215E+04  0.7818609E-02  0.8879009E-01
       -1   -1    0    0    0  501  0.00000000000E+00  0.00000000000E+00  0.59178721035E+03  0.59178721037E+03  0.50400001928E-02 0. -1.
        1   -1    0    0  501    0  0.00000000000E+00  0.00000000000E+00 -0.96094982889E+03  0.96094982890E+03  0.50400001928E-02 0.  1.
    10030    2    1    2    0    0  0.00000000000E+00  0.00000000000E+00 -0.36916261854E+03  0.15527370393E+04  0.15082145982E+04 0.  0.
        3    1    3    3  502    0 -0.22115697757E+02  0.75254853662E+03 -0.14018757397E+03  0.76581392658E+03  0.10100000352E+00 0.  1.
       -3    1    3    3    0  502  0.22115697757E+02 -0.75254853662E+03 -0.22897504457E+03  0.78692311269E+03  0.10100000352E+00 0. -1.
</event>
<event>
 5   0  0.5381164E-04  0.1595289E+04  0.7818609E-02  0.8823447E-01
       -2   -1    0    0    0  501  0.00000000000E+00  0.00000000000E+00  0.13151312743E+04  0.13151312743E+04  0.25500000920E-02 0. -1.
        2   -1    0    0  501    0  0.00000000000E+00  0.00000000000E+00 -0.48378203658E+03  0.48378203658E+03  0.25500000920E-02 0.  1.
    10030    2    1    2    0    0  0.00000000000E+00  0.00000000000E+00  0.83134923768E+03  0.17989133108E+04  0.15952891728E+04 0.  0.
        5    1    3    3  502    0  0.71636545567E+03 -0.35068588758E+03  0.42401751713E+03  0.90331223984E+03  0.46999998093E+01 0. -1.
       -5    1    3    3    0  502 -0.71636545567E+03  0.35068588758E+03  0.40733172055E+03  0.89560107100E+03  0.46999998093E+01 0.  1.
</event>
<event>
 5   0  0.5131239E-04  0.1606324E+04  0.7818609E-02  0.8816672E-01
       -2   -1    0    0    0  501  0.00000000000E+00  0.00000000000E+00  0.43158433247E+03  0.43158433248E+03  0.25500000920E-02 0. -1.
        2   -1    0    0  501    0  0.00000000000E+00  0.00000000000E+00 -0.14946540163E+04  0.14946540163E+04  0.25500000920E-02 0.  1.
    10030    2    1    2    0    0  0.00000000000E+00  0.00000000000E+00 -0.10630696838E+04  0.19262383488E+04  0.16063240718E+04 0.  0.
        1    1    3    3  502    0  0.79356675752E+02  0.96541673628E+02  0.41985385286E+03  0.43805825471E+03  0.50400001928E-02 0. -1.
       -1    1    3    3    0  502 -0.79356675752E+02 -0.96541673628E+02 -0.14829235367E+04  0.14881800941E+04  0.50400001928E-02 0.  1.
</event>
<event>
 5   0  0.5131239E-04  0.1607501E+04  0.7818609E-02  0.8815953E-01
       -2   -1    0    0    0  501  0.00000000000E+00  0.00000000000E+00  0.23552714335E+03  0.23552714337E+03  0.25500000920E-02 0.  1.
        2   -1    0    0  501    0  0.00000000000E+00  0.00000000000E+00 -0.27428459479E+04  0.27428459479E+04  0.25500000920E-02 0. -1.
    10030    2    1    2    0    0  0.00000000000E+00  0.00000000000E+00 -0.25073188046E+04  0.29783730913E+04  0.16075007568E+04 0.  0.
        1    1    3    3  502    0 -0.25332340300E+03 -0.33363770656E+03 -0.25245862664E+04  0.25591058364E+04  0.50400001928E-02 0. -1.
       -1    1    3    3    0  502  0.25332340300E+03  0.33363770656E+03  0.17267461776E+02  0.41926725487E+03  0.50400001928E-02 0.  1.
</event>
<event>
 5   0  0.2649086E-04  0.1596564E+04  0.7818609E-02  0.8822662E-01
        1   -1    0    0  501    0  0.00000000000E+00  0.00000000000E+00  0.16341910833E+04  0.16341910834E+04  0.50400001928E-02 0. -1.
       -1   -1    0    0    0  501  0.00000000000E+00  0.00000000000E+00 -0.38995066426E+03  0.38995066430E+03  0.50400001928E-02 0.  1.
    10030    2    1    2    0    0  0.00000000000E+00  0.00000000000E+00  0.12442404191E+04  0.20241417476E+04  0.15965636831E+04 0.  0.
        2    1    3    3  502    0 -0.61510858769E+03  0.13894493718E+03  0.12426872176E+04  0.13935335629E+04  0.25500000920E-02 0. -1.
       -2    1    3    3    0  502  0.61510858769E+03 -0.13894493718E+03  0.15532014955E+01  0.63060818473E+03  0.25500000920E-02 0.  1.
</event>
<event>
 5   0  0.1908125E-04  0.1582745E+04  0.7818609E-02  0.8831219E-01
       -4   -1    0    0    0  501  0.00000000000E+00  0.00000000000E+00  0.43544449157E+03  0.43544634359E+03  0.12699999809E+01 0.  1.
        4   -1    0    0  501    0  0.00000000000E+00  0.00000000000E+00 -0.14382269816E+04  0.14382275423E+04  0.12699999809E+01 0. -1.
    10030    2    1    2    0    0  0.00000000000E+00  0.00000000000E+00 -0.10027824900E+04  0.18736738859E+04  0.15827448020E+04 0.  0.
        5    1    3    3  502    0 -0.12762361530E+02  0.70885166407E+03 -0.91760654463E+03  0.11595936445E+04  0.46999998093E+01 0. -1.
       -5    1    3    3    0  502  0.12762361530E+02 -0.70885166407E+03 -0.85175945361E+02  0.71408024142E+03  0.46999998093E+01 0.  1.
</event>
<event>
 5   0  0.5315984E-04  0.1544929E+04  0.7818609E-02  0.8855113E-01
        2   -1    0    0  501    0  0.00000000000E+00  0.00000000000E+00  0.16315975852E+04  0.16315975852E+04  0.25500000920E-02 0.  1.
       -2   -1    0    0    0  501  0.00000000000E+00  0.00000000000E+00 -0.36571613920E+03  0.36571613920E+03  0.25500000920E-02 0. -1.
    10030    2    1    2    0    0  0.00000000000E+00  0.00000000000E+00  0.12658814460E+04  0.19973137244E+04  0.15449292147E+04 0.  0.
        2    1    3    3  502    0 -0.61633503024E+03 -0.26325919944E+03  0.11295031884E+04  0.13133741768E+04  0.25500000920E-02 0.  1.
       -2    1    3    3    0  502  0.61633503024E+03  0.26325919944E+03  0.13637825752E+03  0.68393954756E+03  0.25500000920E-02 0. -1.
</event>
<event>
 5   0  0.2730707E-04  0.1549975E+04  0.7818609E-02  0.8851884E-01
        1   -1    0    0  501    0  0.00000000000E+00  0.00000000000E+00  0.12187420303E+04  0.12187420303E+04  0.50400001928E-02 0. -1.
       -1   -1    0    0    0  501  0.00000000000E+00  0.00000000000E+00 -0.49280775565E+03  0.49280775567E+03  0.50400001928E-02 0.  1.
    10030    2    1    2    0    0  0.00000000000E+00  0.00000000000E+00  0.72593427464E+03  0.17115497860E+04  0.15499748704E+04 0.  0.
        5    1    3    3  502    0 -0.16378691004E+03  0.71384792709E+03  0.83224033449E+02  0.73712505361E+03  0.46999998093E+01 0.  1.
       -5    1    3    3    0  502  0.16378691004E+03 -0.71384792709E+03  0.64271024119E+03  0.97442473236E+03  0.46999998093E+01 0. -1.
</event>
<event>
 5   0  0.2763895E-04  0.1589463E+04  0.7818609E-02  0.8827047E-01
       -1   -1    0    0    0  501  0.00000000000E+00  0.00000000000E+00  0.38102702233E+03  0.38102702236E+03  0.50400001928E-02 0. -1.
        1   -1    0    0  501    0  0.00000000000E+00  0.00000000000E+00 -0.16576207569E+04  0.16576207569E+04  0.50400001928E-02 0.  1.
    10030    2    1    2    0    0  0.00000000000E+00  0.00000000000E+00 -0.12765937346E+04  0.20386477793E+04  0.15894631813E+04 0.  0.
        4    1    3    3  502    0  0.62887600900E+03 -0.19494171564E+02 -0.12610281122E+04  0.14092759028E+04  0.12699999809E+01 0. -1.
       -4    1    3    3    0  502 -0.62887600900E+03  0.19494171564E+02 -0.15565622332E+02  0.62937187649E+03  0.12699999809E+01 0.  1.
</event>
<event>
 5   0  0.2796994E-04  0.1599998E+04  0.7818609E-02  0.8820549E-01
       -1   -1    0    0    0  501  0.00000000000E+00  0.00000000000E+00  0.35453159503E+03  0.35453159507E+03  0.50400001928E-02 0.  1.
        1   -1    0    0  501    0  0.00000000000E+00  0.00000000000E+00 -0.18051940703E+04  0.18051940703E+04  0.50400001928E-02 0. -1.
    10030    2    1    2    0    0  0.00000000000E+00  0.00000000000E+00 -0.14506624752E+04  0.21597256653E+04  0.15999979164E+04 0.  0.
        3    1    3    3  502    0  0.28037920931E+03  0.38371508771E+03 -0.15940060848E+04  0.16633415699E+04  0.10100000352E+00 0. -1.
       -3    1    3    3    0  502 -0.28037920931E+03 -0.38371508771E+03  0.14334360961E+03  0.49638409540E+03  0.10100000352E+00 0.  1.
</event>
<event>
 5   0  0.2730707E-04  0.1586576E+04  0.7818609E-02  0.8828837E-01
        1   -1    0    0  501    0  0.00000000000E+00  0.00000000000E+00  0.10117587322E+04  0.10117587322E+04  0.50400001928E-02 0. -1.
       -1   -1    0    0    0  501  0.00000000000E+00  0.00000000000E+00 -0.62199237869E+03  0.62199237871E+03  0.50400001928E-02 0.  1.
    10030    2    1    2    0    0  0.00000000000E+00  0.00000000000E+00  0.38976635353E+03  0.16337511110E+04  0.15865764659E+04 0.  0.
        5    1    3    3  502    0 -0.26420056559E+03 -0.67997447313E+03  0.51578509299E+03  0.89343358741E+03  0.46999998093E+01 0. -1.
       -5    1    3    3    0  502  0.26420056559E+03  0.67997447313E+03 -0.12601873946E+03  0.74031752354E+03  0.46999998093E+01 0.  1.
</event>
<event>
 5   0  0.5315984E-04  0.1577289E+04  0.7818609E-02  0.8834623E-01
       -2   -1    0    0    0  501  0.00000000000E+00  0.00000000000E+00  0.61424211908E+03  0.61424211909E+03  0.25500000920E-02 0.  1.
        2   -1    0    0  501    0  0.00000000000E+00  0.00000000000E+00 -0.10125649302E+04  0.10125649302E+04  0.25500000920E-02 0. -1.
    10030    2    1    2    0    0  0.00000000000E+00  0.00000000000E+00 -0.39832281114E+03  0.16268070493E+04  0.15772888492E+04 0.  0.
        2    1    3    3  502    0 -0.29169278377E+03 -0.63257764434E+03  0.18220481490E+03  0.72002621536E+03  0.25500000920E-02 0.  1.
       -2    1    3    3    0  502  0.29169278377E+03  0.63257764434E+03 -0.58052762604E+03  0.90678083395E+03  0.25500000920E-02 0. -1.
</event>
<event>
 5   0  0.5315984E-04  0.1556447E+04  0.7818609E-02  0.8847760E-01
        2   -1    0    0  501    0  0.00000000000E+00  0.00000000000E+00  0.86856930124E+03  0.86856930125E+03  0.25500000920E-02 0. -1.
       -2   -1    0    0    0  501  0.00000000000E+00  0.00000000000E+00 -0.69727513458E+03  0.69727513458E+03  0.25500000920E-02 0.  1.
    10030    2    1    2    0    0  0.00000000000E+00  0.00000000000E+00  0.17129416667E+03  0.15658444358E+04  0.15564469492E+04 0.  0.
        2    1    3    3  502    0 -0.62880449515E+03  0.21382528645E+03 -0.32240688858E+03  0.73828351468E+03  0.25500000920E-02 0.  1.
       -2    1    3    3    0  502  0.62880449515E+03 -0.21382528645E+03  0.49370105524E+03  0.82756092114E+03  0.25500000920E-02 0. -1.
</event>
<event>
 5   0  0.2763895E-04  0.1597513E+04  0.7818609E-02  0.8822078E-01
       -1   -1    0    0    0  501  0.00000000000E+00  0.00000000000E+00  0.54254013176E+03  0.54254013178E+03  0.50400001928E-02 0. -1.
        1   -1    0    0  501    0  0.00000000000E+00  0.00000000000E+00 -0.11759711642E+04  0.11759711642E+04  0.50400001928E-02 0.  1.
    10030    2    1    2    0    0  0.00000000000E+00  0.00000000000E+00 -0.63343103244E+03  0.17185112960E+04  0.15975125044E+04 0.  0.
        4    1    3    3  502    0  0.71882495090E+03  0.14156640461E+03 -0.65903071871E+03  0.98543059525E+03  0.12699999809E+01 0.  1.
       -4    1    3    3    0  502 -0.71882495090E+03 -0.14156640461E+03  0.25599686275E+02  0.73308070074E+03  0.12699999809E+01 0. -1.
</event>
<event>
 5   0  0.2689675E-04  0.1567920E+04  0.7818609E-02  0.8840502E-01
        1   -1    0    0  501    0  0.00000000000E+00  0.00000000000E+00  0.12856712885E+04  0.12856712885E+04  0.50400001928E-02 0.  1.
       -1   -1    0    0    0  501  0.00000000000E+00  0.00000000000E+00 -0.47803270764E+03  0.47803270767E+03  0.50400001928E-02 0. -1.
    10030    2    1    2    0    0  0.00000000000E+00  0.00000000000E+00  0.80763858082E+03  0.17637039961E+04  0.15679195479E+04 0.  0.
        1    1    3    3  502    0 -0.45440548770E+03 -0.18225992357E+03 -0.28491831196E+03  0.56646400725E+03  0.50400001928E-02 0. -1.
       -1    1    3    3    0  502  0.45440548770E+03  0.18225992357E+03  0.10925568928E+04  0.11972399889E+04  0.50400001928E-02 0.  1.
</event>
<event>
 5   0  0.2689675E-04  0.1603598E+04  0.7818609E-02  0.8818341E-01
        1   -1    0    0  501    0  0.00000000000E+00  0.00000000000E+00  0.16934137665E+04  0.16934137665E+04  0.50400001928E-02 0.  1.
       -1   -1    0    0    0  501  0.00000000000E+00  0.00000000000E+00 -0.37963626420E+03  0.37963626423E+03  0.50400001928E-02 0. -1.
    10030    2    1    2    0    0  0.00000000000E+00  0.00000000000E+00  0.13137775023E+04  0.20730500308E+04  0.16035975506E+04 0.  0.
        1    1    3    3  502    0  0.21996444178E+03 -0.32623162199E+03 -0.24625189661E+03  0.46416745195E+03  0.50400001928E-02 0. -1.
       -1    1    3    3    0  502 -0.21996444178E+03  0.32623162199E+03  0.15600293989E+04  0.16088825788E+04  0.50400001928E-02 0.  1.
</event>
<event>
 5   0  0.2730707E-04  0.1748871E+04  0.7818609E-02  0.8733972E-01
       -1   -1    0    0    0  501  0.00000000000E+00  0.00000000000E+00  0.11726596240E+04  0.11726596240E+04  0.50400001928E-02 0.  1.
        1   -1    0    0  501    0  0.00000000000E+00  0.00000000000E+00 -0.65205416785E+03  0.65205416786E+03  0.50400001928E-02 0. -1.
    10030    2    1    2    0    0  0.00000000000E+00  0.00000000000E+00  0.52060545617E+03  0.18247137919E+04  0.17488711735E+04 0.  0.
        5    1    3    3  502    0  0.49381236801E+03  0.62271551812E+03  0.64079584989E+03  0.10209146304E+04  0.46999998093E+01 0.  1.
       -5    1    3    3    0  502 -0.49381236801E+03 -0.62271551812E+03 -0.12019039372E+03  0.80379916151E+03  0.46999998093E+01 0. -1.
</event>
<event>
 5   0  0.5131239E-04  0.1564803E+04  0.7818609E-02  0.8842467E-01
        2   -1    0    0  501    0  0.00000000000E+00  0.00000000000E+00  0.13461379370E+04  0.13461379370E+04  0.25500000920E-02 0.  1.
       -2   -1    0    0    0  501  0.00000000000E+00  0.00000000000E+00 -0.45474706853E+03  0.45474706853E+03  0.25500000920E-02 0. -1.
    10030    2    1    2    0    0  0.00000000000E+00  0.00000000000E+00  0.89139086848E+03  0.18008850055E+04  0.15648032217E+04 0.  0.
        1    1    3    3  502    0  0.68849068658E+03  0.86651175220E+01  0.18076744026E+02  0.68878246092E+03  0.50400001928E-02 0. -1.
       -1    1    3    3    0  502 -0.68849068658E+03 -0.86651175220E+01  0.87331412445E+03  0.11121025446E+04  0.50400001928E-02 0.  1.
</event>
<event>
 5   0  0.5264308E-04  0.1606981E+04  0.7818609E-02  0.8816271E-01
       -2   -1    0    0    0  501  0.00000000000E+00  0.00000000000E+00  0.98261302424E+03  0.98261302424E+03  0.25500000920E-02 0. -1.
        2   -1    0    0  501    0  0.00000000000E+00  0.00000000000E+00 -0.65702077483E+03  0.65702077483E+03  0.25500000920E-02 0.  1.
    10030    2    1    2    0    0  0.00000000000E+00  0.00000000000E+00  0.32559224941E+03  0.16396337991E+04  0.16069812327E+04 0.  0.
        3    1    3    3  502    0 -0.46116856411E+03 -0.11616857112E+03  0.82358620332E+03  0.95103408242E+03  0.10100000352E+00 0. -1.
       -3    1    3    3    0  502  0.46116856411E+03  0.11616857112E+03 -0.49799395391E+03  0.68859971665E+03  0.10100000352E+00 0.  1.
</event>
<event>
 5   0  0.5131239E-04  0.1593167E+04  0.7818609E-02  0.8824757E-01
       -2   -1    0    0    0  501  0.00000000000E+00  0.00000000000E+00  0.29730545284E+03  0.29730545285E+03  0.25500000920E-02 0. -1.
        2   -1    0    0  501    0  0.00000000000E+00  0.00000000000E+00 -0.21343213299E+04  0.21343213299E+04  0.25500000920E-02 0.  1.
    10030    2    1    2    0    0  0.00000000000E+00  0.00000000000E+00 -0.18370158771E+04  0.24316267828E+04  0.15931671218E+04 0.  0.
        1    1    3    3  502    0  0.92554929438E+02 -0.23428584902E+03 -0.20719280423E+04  0.20871852066E+04  0.50400001928E-02 0.  1.
       -1    1    3    3    0  502 -0.92554929438E+02  0.23428584902E+03  0.23491216523E+03  0.34444157620E+03  0.50400001928E-02 0. -1.
</event>
<event>
 5   0  0.5264308E-04  0.1584323E+04  0.7818609E-02  0.8830237E-01
        2   -1    0    0  501    0  0.00000000000E+00  0.00000000000E+00  0.12808514496E+04  0.12808514496E+04  0.25500000920E-02 0.  1.
       -2   -1    0    0    0  501  0.00000000000E+00  0.00000000000E+00 -0.48992412427E+03  0.48992412427E+03  0.25500000920E-02 0. -1.
    10030    2    1    2    0    0  0.00000000000E+00  0.00000000000E+00  0.79092732533E+03  0.17707755739E+04  0.15843232306E+04 0.  0.
        3    1    3    3  502    0 -0.52145673710E+03 -0.78866641381E+02  0.10561123542E+04  0.11804704108E+04  0.10100000352E+00 0.  1.
       -3    1    3    3    0  502  0.52145673710E+03  0.78866641381E+02 -0.26518502891E+03  0.59030516307E+03  0.10100000352E+00 0. -1.
</event>
<event>
 5   0  0.5381164E-04  0.1598235E+04  0.7818609E-02  0.8821633E-01
        2   -1    0    0  501    0  0.00000000000E+00  0.00000000000E+00  0.10169576555E+04  0.10169576555E+04  0.25500000920E-02 0.  1.
       -2   -1    0    0    0  501  0.00000000000E+00  0.00000000000E+00 -0.62794065228E+03  0.62794065229E+03  0.25500000920E-02 0. -1.
    10030    2    1    2    0    0  0.00000000000E+00  0.00000000000E+00  0.38901700325E+03  0.16448983078E+04  0.15982353438E+04 0.  0.
        5    1    3    3  502    0  0.47775524737E+03 -0.63995861279E+03  0.16595203238E+03  0.81569557405E+03  0.46999998093E+01 0. -1.
       -5    1    3    3    0  502 -0.47775524737E+03  0.63995861279E+03  0.22306497087E+03  0.82920273377E+03  0.46999998093E+01 0.  1.
</event>
<event>
 5   0  0.1908125E-04  0.1611449E+04  0.7818609E-02  0.8813545E-01
       -4   -1    0    0    0  501  0.00000000000E+00  0.00000000000E+00  0.14928903955E+04  0.14928909357E+04  0.12699999809E+01 0. -1.
        4   -1    0    0  501    0  0.00000000000E+00  0.00000000000E+00 -0.43485427219E+03  0.43485612672E+03  0.12699999809E+01 0.  1.
    10030    2    1    2    0    0  0.00000000000E+00  0.00000000000E+00  0.10580361233E+04  0.19277470624E+04  0.16114491299E+04 0.  0.
        5    1    3    3  502    0  0.10836294173E+03 -0.71356969622E+03  0.95742345920E+03  0.11990020887E+04  0.46999998093E+01 0. -1.
       -5    1    3    3    0  502 -0.10836294173E+03  0.71356969622E+03  0.10061266409E+03  0.72874497369E+03  0.46999998093E+01 0.  1.
</event>
<event>
 5   0  0.2796994E-04  0.1593467E+04  0.7818609E-02  0.8824571E-01
       -1   -1    0    0    0  501  0.00000000000E+00  0.00000000000E+00  0.93510070615E+03  0.93510070617E+03  0.50400001928E-02 0.  1.
        1   -1    0    0  501    0  0.00000000000E+00  0.00000000000E+00 -0.67884094785E+03  0.67884094787E+03  0.50400001928E-02 0. -1.
    10030    2    1    2    0    0  0.00000000000E+00  0.00000000000E+00  0.25625975830E+03  0.16139416540E+04  0.15934674766E+04 0.  0.
        3    1    3    3  502    0  0.38661106565E+03  0.44159952921E+03 -0.41759394810E+03  0.72032143934E+03  0.10100000352E+00 0. -1.
       -3    1    3    3    0  502 -0.38661106565E+03 -0.44159952921E+03  0.67385370640E+03  0.89362021470E+03  0.10100000352E+00 0.  1.
</event>
<event>
 5   0  0.5131239E-04  0.1684050E+04  0.7818609E-02  0.8770514E-01
        2   -1    0    0  501    0  0.00000000000E+00  0.00000000000E+00  0.67597606781E+03  0.67597606782E+03  0.25500000920E-02 0. -1.
       -2   -1    0    0    0  501  0.00000000000E+00  0.00000000000E+00 -0.10488627586E+04  0.10488627586E+04  0.25500000920E-02 0.  1.
    10030    2    1    2    0    0  0.00000000000E+00  0.00000000000E+00 -0.37288669082E+03  0.17248388265E+04  0.16840500269E+04 0.  0.
        1    1    3    3  502    0 -0.34442970931E+03 -0.44913896868E+03  0.45207300227E+03  0.72438086477E+03  0.50400001928E-02 0. -1.
       -1    1    3    3    0  502  0.34442970931E+03  0.44913896868E+03 -0.82495969309E+03  0.10004579617E+04  0.50400001928E-02 0.  1.
</event>
<event>
 5   0  0.2796994E-04  0.1613538E+04  0.7818609E-02  0.8812274E-01
       -1   -1    0    0    0  501  0.00000000000E+00  0.00000000000E+00  0.76603491346E+03  0.76603491348E+03  0.50400001928E-02 0. -1.
        1   -1    0    0  501    0  0.00000000000E+00  0.00000000000E+00 -0.84966903399E+03  0.84966903400E+03  0.50400001928E-02 0.  1.
    10030    2    1    2    0    0  0.00000000000E+00  0.00000000000E+00 -0.83634120526E+02  0.16157039475E+04  0.16135379078E+04 0.  0.
        3    1    3    3  502    0  0.59849860375E+02 -0.49753710826E+03 -0.67492442850E+03  0.84062368172E+03  0.10100000352E+00 0.  1.
       -3    1    3    3    0  502 -0.59849860375E+02  0.49753710826E+03  0.59129030797E+03  0.77508026577E+03  0.10100000352E+00 0. -1.
</event>
<event>
 5   0  0.2649086E-04  0.1616235E+04  0.7818609E-02  0.8810636E-01
       -1   -1    0    0    0  501  0.00000000000E+00  0.00000000000E+00  0.81057943819E+03  0.81057943821E+03  0.50400001928E-02 0.  1.
        1   -1    0    0  501    0  0.00000000000E+00  0.00000000000E+00 -0.80566353499E+03  0.80566353501E+03  0.50400001928E-02 0. -1.
    10030    2    1    2    0    0  0.00000000000E+00  0.00000000000E+00  0.49159032011E+01  0.16162429732E+04  0.16162354972E+04 0.  0.
        2    1    3    3  502    0 -0.56054546212E+02 -0.20502922032E+03 -0.77720917340E+03  0.80575008071E+03  0.25500000920E-02 0. -1.
       -2    1    3    3    0  502  0.56054546212E+02  0.20502922032E+03  0.78212507660E+03  0.81049289250E+03  0.25500000920E-02 0.  1.
</event>
<event>
 5   0  0.2763895E-04  0.1574262E+04  0.7818609E-02  0.8836518E-01
        1   -1    0    0  501    0  0.00000000000E+00  0.00000000000E+00  0.15731792618E+04  0.15731792618E+04  0.50400001928E-02 0.  1.
       -1   -1    0    0    0  501  0.00000000000E+00  0.00000000000E+00 -0.39383644895E+03  0.39383644899E+03  0.50400001928E-02 0. -1.
    10030    2    1    2    0    0  0.00000000000E+00  0.00000000000E+00  0.11793428128E+04  0.19670157108E+04  0.15742621561E+04 0.  0.
        4    1    3    3  502    0 -0.19980459969E+03 -0.73465397797E+03  0.83936629996E+03  0.11332147827E+04  0.12699999809E+01 0.  1.
       -4    1    3    3    0  502  0.19980459969E+03  0.73465397797E+03  0.33997651287E+03  0.83380092804E+03  0.12699999809E+01 0. -1.
</event>
<event>
 5   0  0.5083831E-04  0.1595233E+04  0.7818609E-02  0.8823482E-01
       -2   -1    0    0    0  501  0.00000000000E+00  0.00000000000E+00  0.25691373527E+03  0.25691373529E+03  0.25500000920E-02 0. -1.
        2   -1    0    0  501    0  0.00000000000E+00  0.00000000000E+00 -0.24762880111E+04  0.24762880111E+04  0.25500000920E-02 0.  1.
    10030    2    1    2    0    0  0.00000000000E+00  0.00000000000E+00 -0.22193742758E+04  0.27332017463E+04  0.15952334031E+04 0.  0.
        4    1    3    3  502    0 -0.55639556692E+03  0.54159493786E+03 -0.79707754250E+03  0.11127602281E+04  0.12699999809E+01 0. -1.
       -4    1    3    3    0  502  0.55639556692E+03 -0.54159493786E+03 -0.14222967333E+04  0.16204415182E+04  0.12699999809E+01 0.  1.
</event>
<event>
 5   0  0.2730707E-04  0.1613870E+04  0.7818609E-02  0.8812072E-01
       -1   -1    0    0    0  501  0.00000000000E+00  0.00000000000E+00  0.30567912854E+03  0.30567912858E+03  0.50400001928E-02 0.  1.
        1   -1    0    0  501    0  0.00000000000E+00  0.00000000000E+00 -0.21301552933E+04  0.21301552933E+04  0.50400001928E-02 0. -1.
    10030    2    1    2    0    0  0.00000000000E+00  0.00000000000E+00 -0.18244761648E+04  0.24358344219E+04  0.16138699003E+04 0.  0.
        5    1    3    3  502    0  0.29392043392E+03 -0.24895916407E+03  0.15794026807E+03  0.41633772965E+03  0.46999998093E+01 0.  1.
       -5    1    3    3    0  502 -0.29392043392E+03  0.24895916407E+03 -0.19824164328E+04  0.20194966923E+04  0.46999998093E+01 0. -1.
</event>
<event>
 5   0  0.2730707E-04  0.1614898E+04  0.7818609E-02  0.8811448E-01
       -1   -1    0    0    0  501  0.00000000000E+00  0.00000000000E+00  0.13745307598E+04  0.13745307598E+04  0.50400001928E-02 0.  1.
        1   -1    0    0  501    0  0.00000000000E+00  0.00000000000E+00 -0.47432469474E+03  0.47432469477E+03  0.50400001928E-02 0. -1.
    10030    2    1    2    0    0  0.00000000000E+00  0.00000000000E+00  0.90020606509E+03  0.18488554546E+04  0.16148979944E+04 0.  0.
        5    1    3    3  502    0  0.33699279136E+03 -0.23508705109E+03 -0.34566437863E+03  0.53696928746E+03  0.46999998093E+01 0. -1.
       -5    1    3    3    0  502 -0.33699279136E+03  0.23508705109E+03  0.12458704437E+04  0.13118861672E+04  0.46999998093E+01 0.  1.
</event>
<event>
 5   0  0.2730707E-04  0.1608394E+04  0.7818609E-02  0.8815408E-01
       -1   -1    0    0    0  501  0.00000000000E+00  0.00000000000E+00  0.65772334602E+03  0.65772334604E+03  0.50400001928E-02 0.  1.
        1   -1    0    0  501    0  0.00000000000E+00  0.00000000000E+00 -0.98328992678E+03  0.98328992679E+03  0.50400001928E-02 0. -1.
    10030    2    1    2    0    0  0.00000000000E+00  0.00000000000E+00 -0.32556658076E+03  0.16410132728E+04  0.16083939079E+04 0.  0.
        5    1    3    3  502    0  0.76069717784E+03  0.89166931973E+02  0.87341001450E+02  0.77088357011E+03  0.46999998093E+01 0.  1.
       -5    1    3    3    0  502 -0.76069717784E+03 -0.89166931973E+02 -0.41290758221E+03  0.87012970273E+03  0.46999998093E+01 0. -1.
</event>
<event>
 5   0  0.5381164E-04  0.1516028E+04  0.7818609E-02  0.8873864E-01
        2   -1    0    0  501    0  0.00000000000E+00  0.00000000000E+00  0.12832347651E+04  0.12832347651E+04  0.25500000920E-02 0.  1.
       -2   -1    0    0    0  501  0.00000000000E+00  0.00000000000E+00 -0.44776328661E+03  0.44776328662E+03  0.25500000920E-02 0. -1.
    10030    2    1    2    0    0  0.00000000000E+00  0.00000000000E+00  0.83547147847E+03  0.17309980517E+04  0.15160282529E+04 0.  0.
        5    1    3    3  502    0 -0.17346283330E+02 -0.43126502718E+03  0.11292077648E+04  0.12088931646E+04  0.46999998093E+01 0.  1.
       -5    1    3    3    0  502  0.17346283330E+02  0.43126502718E+03 -0.29373628637E+03  0.52210488711E+03  0.46999998093E+01 0. -1.
</event>
<event>
 5   0  0.5131239E-04  0.1601196E+04  0.7818609E-02  0.8819813E-01
       -2   -1    0    0    0  501  0.00000000000E+00  0.00000000000E+00  0.32720381309E+03  0.32720381310E+03  0.25500000920E-02 0. -1.
        2   -1    0    0  501    0  0.00000000000E+00  0.00000000000E+00 -0.19588933320E+04  0.19588933320E+04  0.25500000920E-02 0.  1.
    10030    2    1    2    0    0  0.00000000000E+00  0.00000000000E+00 -0.16316895189E+04  0.22860971451E+04  0.16011962624E+04 0.  0.
        1    1    3    3  502    0 -0.64321931440E+03  0.39947618747E+03 -0.44450782585E+03  0.87800883711E+03  0.50400001928E-02 0. -1.
       -1    1    3    3    0  502  0.64321931440E+03 -0.39947618747E+03 -0.11871816930E+04  0.14080883080E+04  0.50400001928E-02 0.  1.
</event>
<event>
 5   0  0.2649086E-04  0.1594258E+04  0.7818609E-02  0.8824083E-01
        1   -1    0    0  501    0  0.00000000000E+00  0.00000000000E+00  0.10734157500E+04  0.10734157500E+04  0.50400001928E-02 0.  1.
       -1   -1    0    0    0  501  0.00000000000E+00  0.00000000000E+00 -0.59195592561E+03  0.59195592563E+03  0.50400001928E-02 0. -1.
    10030    2    1    2    0    0  0.00000000000E+00  0.00000000000E+00  0.48145982439E+03  0.16653716756E+04  0.15942582148E+04 0.  0.
        2    1    3    3  502    0 -0.78239702823E+03  0.12995142840E+02  0.81960694101E+02  0.78678557365E+03  0.25500000920E-02 0. -1.
       -2    1    3    3    0  502  0.78239702823E+03 -0.12995142840E+02  0.39949913029E+03  0.87858610200E+03  0.25500000920E-02 0.  1.
</event>
<event>
 5   0  0.1908125E-04  0.1599197E+04  0.7818609E-02  0.8821042E-01
        4   -1    0    0  501    0  0.00000000000E+00  0.00000000000E+00  0.10489960257E+04  0.10489967944E+04  0.12699999809E+01 0.  1.
       -4   -1    0    0    0  501  0.00000000000E+00  0.00000000000E+00 -0.60949323425E+03  0.60949455739E+03  0.12699999809E+01 0. -1.
    10030    2    1    2    0    0  0.00000000000E+00  0.00000000000E+00  0.43950279142E+03  0.16584913518E+04  0.15991969424E+04 0.  0.
        3    1    3    3  502    0  0.23349842437E+03 -0.71483980879E+03 -0.62059516595E+02  0.75456534522E+03  0.10100000352E+00 0. -1.
       -3    1    3    3    0  502 -0.23349842437E+03  0.71483980879E+03  0.50156230801E+03  0.90392600661E+03  0.10100000352E+00 0.  1.
</event>
<event>
 5   0  0.5131239E-04  0.1645779E+04  0.7818609E-02  0.8792908E-01
        2   -1    0    0  501    0  0.00000000000E+00  0.00000000000E+00  0.51936944397E+03  0.51936944398E+03  0.25500000920E-02 0.  1.
       -2   -1    0    0    0  501  0.00000000000E+00  0.00000000000E+00 -0.13037869154E+04  0.13037869154E+04  0.25500000920E-02 0. -1.
    10030    2    1    2    0    0  0.00000000000E+00  0.00000000000E+00 -0.78441747146E+03  0.18231563594E+04  0.16457789467E+04 0.  0.
        1    1    3    3  502    0 -0.10247334565E+03  0.63755126462E+02 -0.12939295493E+04  0.12995457596E+04  0.50400001928E-02 0. -1.
       -1    1    3    3    0  502  0.10247334565E+03 -0.63755126462E+02  0.50951207786E+03  0.52361059980E+03  0.50400001928E-02 0.  1.
</event>
<event>
 5   0  0.5131239E-04  0.1587435E+04  0.7818609E-02  0.8828304E-01
       -2   -1    0    0    0  501  0.00000000000E+00  0.00000000000E+00  0.90983851503E+03  0.90983851503E+03  0.25500000920E-02 0.  1.
        2   -1    0    0  501    0  0.00000000000E+00  0.00000000000E+00 -0.69241714295E+03  0.69241714295E+03  0.25500000920E-02 0. -1.
    10030    2    1    2    0    0  0.00000000000E+00  0.00000000000E+00  0.21742137208E+03  0.16022556580E+04  0.15874353973E+04 0.  0.
        1    1    3    3  502    0  0.22572492030E+03  0.23861321169E+03  0.83802125805E+03  0.90009312485E+03  0.50400001928E-02 0.  1.
       -1    1    3    3    0  502 -0.22572492030E+03 -0.23861321169E+03 -0.62059988597E+03  0.70216253313E+03  0.50400001928E-02 0. -1.
</event>
<event>
 5   0  0.5264308E-04  0.1588333E+04  0.7818609E-02  0.8827748E-01
       -2   -1    0    0    0  501  0.00000000000E+00  0.00000000000E+00  0.29212050772E+03  0.29212050773E+03  0.25500000920E-02 0.  1.
        2   -1    0    0  501    0  0.00000000000E+00  0.00000000000E+00 -0.21590409124E+04  0.21590409124E+04  0.25500000920E-02 0. -1.
    10030    2    1    2    0    0  0.00000000000E+00  0.00000000000E+00 -0.18669204047E+04  0.24511614201E+04  0.15883326195E+04 0.  0.
        3    1    3    3  502    0  0.27036461238E+03 -0.73187692792E+03 -0.70477436516E+03  0.10514027664E+04  0.10100000352E+00 0.  1.
       -3    1    3    3    0  502 -0.27036461238E+03  0.73187692792E+03 -0.11621460395E+04  0.13997586537E+04  0.10100000352E+00 0. -1.
</event>
<event>
 5   0  0.2763895E-04  0.1580943E+04  0.7818609E-02  0.8832342E-01
       -1   -1    0    0    0  501  0.00000000000E+00  0.00000000000E+00  0.37328843282E+03  0.37328843286E+03  0.50400001928E-02 0. -1.
        1   -1    0    0  501    0  0.00000000000E+00  0.00000000000E+00 -0.16738941444E+04  0.16738941444E+04  0.50400001928E-02 0.  1.
    10030    2    1    2    0    0  0.00000000000E+00  0.00000000000E+00 -0.13006057116E+04  0.20471825772E+04  0.15809431639E+04 0.  0.
        4    1    3    3  502    0  0.65156121294E+03  0.26872907718E+03 -0.11137591072E+04  0.13180319772E+04  0.12699999809E+01 0.  1.
       -4    1    3    3    0  502 -0.65156121294E+03 -0.26872907718E+03 -0.18684660438E+03  0.72915060008E+03  0.12699999809E+01 0. -1.
</event>
<event>
 5   0  0.2763895E-04  0.1570088E+04  0.7818609E-02  0.8839138E-01
       -1   -1    0    0    0  501  0.00000000000E+00  0.00000000000E+00  0.99919111096E+03  0.99919111097E+03  0.50400001928E-02 0. -1.
        1   -1    0    0  501    0  0.00000000000E+00  0.00000000000E+00 -0.61679300946E+03  0.61679300948E+03  0.50400001928E-02 0.  1.
    10030    2    1    2    0    0  0.00000000000E+00  0.00000000000E+00  0.38239810151E+03  0.16159841205E+04  0.15700880133E+04 0.  0.
        4    1    3    3  502    0 -0.77300028740E+03 -0.13683227065E+03  0.18469247851E+03  0.80645237871E+03  0.12699999809E+01 0.  1.
       -4    1    3    3    0  502  0.77300028740E+03  0.13683227065E+03  0.19770562299E+03  0.80953174174E+03  0.12699999809E+01 0. -1.
</event>
<event>
 5   0  0.2689675E-04  0.1315851E+04  0.7818609E-02  0.9017089E-01
       -1   -1    0    0    0  501  0.00000000000E+00  0.00000000000E+00  0.86881319846E+03  0.86881319847E+03  0.50400001928E-02 0. -1.
        1   -1    0    0  501    0  0.00000000000E+00  0.00000000000E+00 -0.49822671550E+03  0.49822671553E+03  0.50400001928E-02 0.  1.
    10030    2    1    2    0    0  0.00000000000E+00  0.00000000000E+00  0.37058648296E+03  0.13670399140E+04  0.13158509738E+04 0.  0.
        1    1    3    3  502    0  0.59105802970E+03  0.23852780617E+03  0.35479934696E+03  0.72947082561E+03  0.50400001928E-02 0. -1.
       -1    1    3    3    0  502 -0.59105802970E+03 -0.23852780617E+03  0.15787135999E+02  0.63756908840E+03  0.50400001928E-02 0.  1.
</event>
<event>
 5   0  0.5381164E-04  0.1589063E+04  0.7818609E-02  0.8827295E-01
        2   -1    0    0  501    0  0.00000000000E+00  0.00000000000E+00  0.12857125030E+04  0.12857125030E+04  0.25500000920E-02 0.  1.
       -2   -1    0    0    0  501  0.00000000000E+00  0.00000000000E+00 -0.49099654636E+03  0.49099654637E+03  0.25500000920E-02 0. -1.
    10030    2    1    2    0    0  0.00000000000E+00  0.00000000000E+00  0.79471595662E+03  0.17767090494E+04  0.15890631184E+04 0.  0.
        5    1    3    3  502    0  0.99848103805E+02  0.70110964343E+03 -0.53608716212E+01  0.70821974336E+03  0.46999998093E+01 0. -1.
       -5    1    3    3    0  502 -0.99848103805E+02 -0.70110964343E+03  0.80007682824E+03  0.10684893060E+04  0.46999998093E+01 0.  1.
</event>
<event>
 5   0  0.2689675E-04  0.1592362E+04  0.7818609E-02  0.8825254E-01
        1   -1    0    0  501    0  0.00000000000E+00  0.00000000000E+00  0.41561249968E+03  0.41561249971E+03  0.50400001928E-02 0. -1.
       -1   -1    0    0    0  501  0.00000000000E+00  0.00000000000E+00 -0.15252292246E+04  0.15252292246E+04  0.50400001928E-02 0.  1.
    10030    2    1    2    0    0  0.00000000000E+00  0.00000000000E+00 -0.11096167249E+04  0.19408417243E+04  0.15923621832E+04 0.  0.
        1    1    3    3  502    0 -0.63119000567E+03  0.40564635225E+03 -0.23014119458E+03  0.78480236736E+03  0.50400001928E-02 0. -1.
       -1    1    3    3    0  502  0.63119000567E+03 -0.40564635225E+03 -0.87947553033E+03  0.11560393569E+04  0.50400001928E-02 0.  1.
</event>
<event>
 5   0  0.5381164E-04  0.1594721E+04  0.7818609E-02  0.8823798E-01
        2   -1    0    0  501    0  0.00000000000E+00  0.00000000000E+00  0.61239060071E+03  0.61239060072E+03  0.25500000920E-02 0.  1.
       -2   -1    0    0    0  501  0.00000000000E+00  0.00000000000E+00 -0.10381991644E+04  0.10381991644E+04  0.25500000920E-02 0. -1.
    10030    2    1    2    0    0  0.00000000000E+00  0.00000000000E+00 -0.42580856364E+03  0.16505897651E+04  0.15947205522E+04 0.  0.
        5    1    3    3  502    0 -0.15888076207E+03  0.29890314099E+03  0.53431212731E+03  0.63253278463E+03  0.46999998093E+01 0.  1.
       -5    1    3    3    0  502  0.15888076207E+03 -0.29890314099E+03 -0.96012069095E+03  0.10180569804E+04  0.46999998093E+01 0. -1.
</event>
<event>
 5   0  0.5131239E-04  0.1585046E+04  0.7818609E-02  0.8829788E-01
       -2   -1    0    0    0  501  0.00000000000E+00  0.00000000000E+00  0.45243308809E+03  0.45243308809E+03  0.25500000920E-02 0. -1.
        2   -1    0    0  501    0  0.00000000000E+00  0.00000000000E+00 -0.13882553129E+04  0.13882553129E+04  0.25500000920E-02 0.  1.
    10030    2    1    2    0    0  0.00000000000E+00  0.00000000000E+00 -0.93582222479E+03  0.18406884010E+04  0.15850459151E+04 0.  0.
        1    1    3    3  502    0 -0.11395585454E+03  0.42994268296E+03  0.29382034556E+03  0.53307320595E+03  0.50400001928E-02 0. -1.
       -1    1    3    3    0  502  0.11395585454E+03 -0.42994268296E+03 -0.12296425703E+04  0.13076151950E+04  0.50400001928E-02 0.  1.
</event>
<event>
 5   0  0.5083831E-04  0.1620018E+04  0.7818609E-02  0.8808344E-01
       -2   -1    0    0    0  501  0.00000000000E+00  0.00000000000E+00  0.57878452802E+03  0.57878452802E+03  0.25500000920E-02 0.  1.
        2   -1    0    0  501    0  0.00000000000E+00  0.00000000000E+00 -0.11336074507E+04  0.11336074507E+04  0.25500000920E-02 0. -1.
    10030    2    1    2    0    0  0.00000000000E+00  0.00000000000E+00 -0.55482292266E+03  0.17123919787E+04  0.16200178435E+04 0.  0.
        4    1    3    3  502    0 -0.64996642446E+03 -0.21957009323E+03 -0.73260018151E+03  0.10036792404E+04  0.12699999809E+01 0. -1.
       -4    1    3    3    0  502  0.64996642446E+03  0.21957009323E+03  0.17777725885E+03  0.70871273830E+03  0.12699999809E+01 0.  1.
</event>
<event>
 5   0  0.5381164E-04  0.1600251E+04  0.7818609E-02  0.8820394E-01
        2   -1    0    0  501    0  0.00000000000E+00  0.00000000000E+00  0.16383750336E+04  0.16383750336E+04  0.25500000920E-02 0. -1.
       -2   -1    0    0    0  501  0.00000000000E+00  0.00000000000E+00 -0.39075367835E+03  0.39075367836E+03  0.25500000920E-02 0.  1.
    10030    2    1    2    0    0  0.00000000000E+00  0.00000000000E+00  0.12476213553E+04  0.20291287120E+04  0.16002513189E+04 0.  0.
        5    1    3    3  502    0 -0.46677801250E+03  0.60728707363E+03  0.91710049635E+03  0.11948952729E+04  0.46999998093E+01 0. -1.
       -5    1    3    3    0  502  0.46677801250E+03 -0.60728707363E+03  0.33052085893E+03  0.83423343912E+03  0.46999998093E+01 0.  1.
</event>
<event>
 5   0  0.2763895E-04  0.1618918E+04  0.7818609E-02  0.8809010E-01
       -1   -1    0    0    0  501  0.00000000000E+00  0.00000000000E+00  0.12533429603E+04  0.12533429603E+04  0.50400001928E-02 0.  1.
        1   -1    0    0  501    0  0.00000000000E+00  0.00000000000E+00 -0.52278093477E+03  0.52278093480E+03  0.50400001928E-02 0. -1.
    10030    2    1    2    0    0  0.00000000000E+00  0.00000000000E+00  0.73056202556E+03  0.17761238951E+04  0.16189179157E+04 0.  0.
        4    1    3    3  502    0  0.23188116165E+02  0.78372831768E+03  0.14461702912E+03  0.79729759982E+03  0.12699999809E+01 0. -1.
       -4    1    3    3    0  502 -0.23188116165E+02 -0.78372831768E+03  0.58594499645E+03  0.97882629533E+03  0.12699999809E+01 0.  1.
</event>
<event>
 5   0  0.5131239E-04  0.1523371E+04  0.7818609E-02  0.8869059E-01
        2   -1    0    0  501    0  0.00000000000E+00  0.00000000000E+00  0.18173915836E+04  0.18173915836E+04  0.25500000920E-02 0. -1.
       -2   -1    0    0    0  501  0.00000000000E+00  0.00000000000E+00 -0.31922926235E+03  0.31922926236E+03  0.25500000920E-02 0.  1.
    10030    2    1    2    0    0  0.00000000000E+00  0.00000000000E+00  0.14981623212E+04  0.21366208459E+04  0.15233707029E+04 0.  0.
        1    1    3    3  502    0 -0.14616826991E+03 -0.65657499194E+02  0.17934842205E+04  0.18006281458E+04  0.50400001928E-02 0. -1.
       -1    1    3    3    0  502  0.14616826991E+03  0.65657499194E+02 -0.29532189926E+03  0.33599270012E+03  0.50400001928E-02 0.  1.
</event>
<event>
 5   0  0.2763895E-04  0.1575045E+04  0.7818609E-02  0.8836027E-01
        1   -1    0    0  501    0  0.00000000000E+00  0.00000000000E+00  0.11810603320E+04  0.11810603320E+04  0.50400001928E-02 0. -1.
       -1   -1    0    0    0  501  0.00000000000E+00  0.00000000000E+00 -0.52511443930E+03  0.52511443932E+03  0.50400001928E-02 0.  1.
    10030    2    1    2    0    0  0.00000000000E+00  0.00000000000E+00  0.65594589271E+03  0.17061747713E+04  0.15750451854E+04 0.  0.
        4    1    3    3  502    0  0.31160666524E+03  0.58483660216E+03 -0.13296126702E+03  0.67587933574E+03  0.12699999809E+01 0.  1.
       -4    1    3    3    0  502 -0.31160666524E+03 -0.58483660216E+03  0.78890715973E+03  0.10302954356E+04  0.12699999809E+01 0. -1.
</event>
<event>
 5   0  0.2649086E-04  0.1594215E+04  0.7818609E-02  0.8824110E-01
       -1   -1    0    0    0  501  0.00000000000E+00  0.00000000000E+00  0.43207136773E+03  0.43207136776E+03  0.50400001928E-02 0. -1.
        1   -1    0    0  501    0  0.00000000000E+00  0.00000000000E+00 -0.14705444972E+04  0.14705444973E+04  0.50400001928E-02 0.  1.
    10030    2    1    2    0    0  0.00000000000E+00  0.00000000000E+00 -0.10384731295E+04  0.19026158650E+04  0.15942147563E+04 0.  0.
        2    1    3    3  502    0  0.49787342257E+03 -0.62238405293E+03 -0.50509944225E+03  0.94359170239E+03  0.25500000920E-02 0. -1.
       -2    1    3    3    0  502 -0.49787342257E+03  0.62238405293E+03 -0.53337368726E+03  0.95902416263E+03  0.25500000920E-02 0.  1.
</event>
<event>
 5   0  0.2649086E-04  0.1603736E+04  0.7818609E-02  0.8818256E-01
        1   -1    0    0  501    0  0.00000000000E+00  0.00000000000E+00  0.96584772280E+03  0.96584772281E+03  0.50400001928E-02 0.  1.
       -1   -1    0    0    0  501  0.00000000000E+00  0.00000000000E+00 -0.66572839290E+03  0.66572839292E+03  0.50400001928E-02 0. -1.
    10030    2    1    2    0    0  0.00000000000E+00  0.00000000000E+00  0.30011932990E+03  0.16315761157E+04  0.16037359537E+04 0.  0.
        2    1    3    3  502    0  0.46208546725E+03  0.21200711863E+02  0.81642614546E+03  0.93836245674E+03  0.25500000920E-02 0.  1.
       -2    1    3    3    0  502 -0.46208546725E+03 -0.21200711863E+02 -0.51630681555E+03  0.69321365900E+03  0.25500000920E-02 0. -1.
</event>
<event>
 5   0  0.2689675E-04  0.1624348E+04  0.7818609E-02  0.8805728E-01
       -1   -1    0    0    0  501  0.00000000000E+00  0.00000000000E+00  0.71654262659E+03  0.71654262660E+03  0.50400001928E-02 0. -1.
        1   -1    0    0  501    0  0.00000000000E+00  0.00000000000E+00 -0.92056806320E+03  0.92056806321E+03  0.50400001928E-02 0.  1.
    10030    2    1    2    0    0  0.00000000000E+00  0.00000000000E+00 -0.20402543661E+03  0.16371106898E+04  0.16243475712E+04 0.  0.
        1    1    3    3  502    0  0.74229795628E+03  0.23013510832E+03 -0.33978555082E+03  0.84818785923E+03  0.50400001928E-02 0.  1.
       -1    1    3    3    0  502 -0.74229795628E+03 -0.23013510832E+03  0.13576011421E+03  0.78892283058E+03  0.50400001928E-02 0. -1.
</event>
<event>
 5   0  0.2763895E-04  0.1658191E+04  0.7818609E-02  0.8785575E-01
        1   -1    0    0  501    0  0.00000000000E+00  0.00000000000E+00  0.60281724786E+03  0.60281724788E+03  0.50400001928E-02 0.  1.
       -1   -1    0    0    0  501  0.00000000000E+00  0.00000000000E+00 -0.11403113162E+04  0.11403113162E+04  0.50400001928E-02 0. -1.
    10030    2    1    2    0    0  0.00000000000E+00  0.00000000000E+00 -0.53749406830E+03  0.17431285640E+04  0.16581909773E+04 0.  0.
        4    1    3    3  502    0 -0.17776885103E+03 -0.69984969290E+03 -0.69705606797E+03  0.10036334649E+04  0.12699999809E+01 0. -1.
       -4    1    3    3    0  502  0.17776885103E+03  0.69984969290E+03  0.15956199967E+03  0.73949509916E+03  0.12699999809E+01 0.  1.
</event>
<event>
 5   0  0.5083831E-04  0.1645258E+04  0.7818609E-02  0.8793217E-01
       -2   -1    0    0    0  501  0.00000000000E+00  0.00000000000E+00  0.33600079780E+03  0.33600079781E+03  0.25500000920E-02 0. -1.
        2   -1    0    0  501    0  0.00000000000E+00  0.00000000000E+00 -0.20140387931E+04  0.20140387931E+04  0.25500000920E-02 0.  1.
    10030    2    1    2    0    0  0.00000000000E+00  0.00000000000E+00 -0.16780379953E+04  0.23500395909E+04  0.16452582062E+04 0.  0.
        4    1    3    3  502    0  0.51295386404E+03 -0.55950871688E+03 -0.38609834495E+03  0.85161330178E+03  0.12699999809E+01 0. -1.
       -4    1    3    3    0  502 -0.51295386404E+03  0.55950871688E+03 -0.12919396503E+04  0.14984262891E+04  0.12699999809E+01 0.  1.
</event>
<event>
 5   0  0.5083831E-04  0.1596570E+04  0.7818609E-02  0.8822658E-01
       -2   -1    0    0    0  501  0.00000000000E+00  0.00000000000E+00  0.41266761111E+03  0.41266761112E+03  0.25500000920E-02 0. -1.
        2   -1    0    0  501    0  0.00000000000E+00  0.00000000000E+00 -0.15442432666E+04  0.15442432666E+04  0.25500000920E-02 0.  1.
    10030    2    1    2    0    0  0.00000000000E+00  0.00000000000E+00 -0.11315756555E+04  0.19569108777E+04  0.15965702988E+04 0.  0.
        4    1    3    3  502    0 -0.57399627769E+03  0.31962916149E+03 -0.99873848442E+01  0.65706612181E+03  0.12699999809E+01 0. -1.
       -4    1    3    3    0  502  0.57399627769E+03 -0.31962916149E+03 -0.11215882706E+04  0.12998447559E+04  0.12699999809E+01 0.  1.
</event>
<event>
 5   0  0.2730707E-04  0.1563128E+04  0.7818609E-02  0.8843526E-01
       -1   -1    0    0    0  501  0.00000000000E+00  0.00000000000E+00  0.77630412259E+03  0.77630412261E+03  0.50400001928E-02 0. -1.
        1   -1    0    0  501    0  0.00000000000E+00  0.00000000000E+00 -0.78685966054E+03  0.78685966056E+03  0.50400001928E-02 0.  1.
    10030    2    1    2    0    0  0.00000000000E+00  0.00000000000E+00 -0.10555537953E+02  0.15631637832E+04  0.15631281437E+04 0.  0.
        5    1    3    3  502    0 -0.13236655404E+03  0.74143991549E+03  0.20345230111E+03  0.78017240513E+03  0.46999998093E+01 0.  1.
       -5    1    3    3    0  502  0.13236655404E+03 -0.74143991549E+03 -0.21400783906E+03  0.78299137804E+03  0.46999998093E+01 0. -1.
</event>
<event>
 5   0  0.5315984E-04  0.1560374E+04  0.7818609E-02  0.8845268E-01
        2   -1    0    0  501    0  0.00000000000E+00  0.00000000000E+00  0.24183846677E+04  0.24183846677E+04  0.25500000920E-02 0. -1.
       -2   -1    0    0    0  501  0.00000000000E+00  0.00000000000E+00 -0.25169354677E+03  0.25169354678E+03  0.25500000920E-02 0.  1.
    10030    2    1    2    0    0  0.00000000000E+00  0.00000000000E+00  0.21666911210E+04  0.26700782145E+04  0.15603740763E+04 0.  0.
        2    1    3    3  502    0  0.36426402989E+03  0.43135569238E+03  0.16194986955E+03  0.58735319619E+03  0.25500000920E-02 0.  1.
       -2    1    3    3    0  502 -0.36426402989E+03 -0.43135569238E+03  0.20047412514E+04  0.20827250183E+04  0.25500000920E-02 0. -1.
</event>
<event>
 5   0  0.2730707E-04  0.1608666E+04  0.7818609E-02  0.8815242E-01
       -1   -1    0    0    0  501  0.00000000000E+00  0.00000000000E+00  0.48697578856E+03  0.48697578859E+03  0.50400001928E-02 0.  1.
        1   -1    0    0  501    0  0.00000000000E+00  0.00000000000E+00 -0.13285081464E+04  0.13285081464E+04  0.50400001928E-02 0. -1.
    10030    2    1    2    0    0  0.00000000000E+00  0.00000000000E+00 -0.84153235786E+03  0.18154839350E+04  0.16086656610E+04 0.  0.
        5    1    3    3  502    0 -0.21457188714E+03  0.70450286893E+03 -0.78570271884E+03  0.10769012209E+04  0.46999998093E+01 0. -1.
       -5    1    3    3    0  502  0.21457188714E+03 -0.70450286893E+03 -0.55829639022E+02  0.73858271417E+03  0.46999998093E+01 0.  1.
</event>
<event>
 5   0  0.5131239E-04  0.1569547E+04  0.7818609E-02  0.8839478E-01
        2   -1    0    0  501    0  0.00000000000E+00  0.00000000000E+00  0.23353157574E+04  0.23353157574E+04  0.25500000920E-02 0. -1.
       -2   -1    0    0    0  501  0.00000000000E+00  0.00000000000E+00 -0.26372007334E+03  0.26372007335E+03  0.25500000920E-02 0.  1.
    10030    2    1    2    0    0  0.00000000000E+00  0.00000000000E+00  0.20715956840E+04  0.25990358307E+04  0.15695472504E+04 0.  0.
        1    1    3    3  502    0 -0.11212373238E+03  0.11402803819E+03  0.23080482980E+04  0.23135818703E+04  0.50400001928E-02 0. -1.
       -1    1    3    3    0  502  0.11212373238E+03 -0.11402803819E+03 -0.23645261393E+03  0.28545396041E+03  0.50400001928E-02 0.  1.
</event>
<event>
 5   0  0.5083831E-04  0.1619513E+04  0.7818609E-02  0.8808650E-01
       -2   -1    0    0    0  501  0.00000000000E+00  0.00000000000E+00  0.15135449938E+04  0.15135449938E+04  0.25500000920E-02 0.  1.
        2   -1    0    0  501    0  0.00000000000E+00  0.00000000000E+00 -0.43322486401E+03  0.43322486402E+03  0.25500000920E-02 0. -1.
    10030    2    1    2    0    0  0.00000000000E+00  0.00000000000E+00  0.10803201298E+04  0.19467698578E+04  0.16195126725E+04 0.  0.
        4    1    3    3  502    0  0.77876639267E+03 -0.21719154618E+03  0.59464519086E+03  0.10036203356E+04  0.12699999809E+01 0. -1.
       -4    1    3    3    0  502 -0.77876639267E+03  0.21719154618E+03  0.48567493893E+03  0.94314952224E+03  0.12699999809E+01 0.  1.
</event>
<event>
 5   0  0.2730707E-04  0.1608980E+04  0.7818609E-02  0.8815050E-01
        1   -1    0    0  501    0  0.00000000000E+00  0.00000000000E+00  0.77981260165E+03  0.77981260167E+03  0.50400001928E-02 0. -1.
       -1   -1    0    0    0  501  0.00000000000E+00  0.00000000000E+00 -0.82994789187E+03  0.82994789188E+03  0.50400001928E-02 0.  1.
    10030    2    1    2    0    0  0.00000000000E+00  0.00000000000E+00 -0.50135290218E+02  0.16097604935E+04  0.16089795832E+04 0.  0.
        5    1    3    3  502    0 -0.36347161109E+03  0.93571250064E+02 -0.73697082513E+03  0.82705216159E+03  0.46999998093E+01 0.  1.
       -5    1    3    3    0  502  0.36347161109E+03 -0.93571250064E+02  0.68683553491E+03  0.78270833196E+03  0.46999998093E+01 0. -1.
</event>
<event>
 5   0  0.5083831E-04  0.1603317E+04  0.7818609E-02  0.8818513E-01
       -2   -1    0    0    0  501  0.00000000000E+00  0.00000000000E+00  0.54344749938E+03  0.54344749938E+03  0.25500000920E-02 0. -1.
        2   -1    0    0  501    0  0.00000000000E+00  0.00000000000E+00 -0.11825552709E+04  0.11825552709E+04  0.25500000920E-02 0.  1.
    10030    2    1    2    0    0  0.00000000000E+00  0.00000000000E+00 -0.63910777151E+03  0.17260027703E+04  0.16033174419E+04 0.  0.
        4    1    3    3  502    0 -0.78480647782E+03 -0.16196215511E+03 -0.29543060450E+03  0.85406896812E+03  0.12699999809E+01 0.  1.
       -4    1    3    3    0  502  0.78480647782E+03  0.16196215511E+03 -0.34367716701E+03  0.87193380216E+03  0.12699999809E+01 0. -1.
</event>
<event>
 5   0  0.5381164E-04  0.1592758E+04  0.7818609E-02  0.8825009E-01
        2   -1    0    0  501    0  0.00000000000E+00  0.00000000000E+00  0.10389553904E+04  0.10389553904E+04  0.25500000920E-02 0.  1.
       -2   -1    0    0    0  501  0.00000000000E+00  0.00000000000E+00 -0.61043964241E+03  0.61043964242E+03  0.25500000920E-02 0. -1.
    10030    2    1    2    0    0  0.00000000000E+00  0.00000000000E+00  0.42851574801E+03  0.16493950328E+04  0.15927580570E+04 0.  0.
        5    1    3    3  502    0  0.75557764728E+03 -0.19969729502E+03  0.37273859633E+03  0.86587108850E+03  0.46999998093E+01 0. -1.
       -5    1    3    3    0  502 -0.75557764728E+03  0.19969729502E+03  0.55777151675E+02  0.78352394434E+03  0.46999998093E+01 0.  1.
</event>
<event>
 5   0  0.5131239E-04  0.1565818E+04  0.7818609E-02  0.8841827E-01
       -2   -1    0    0    0  501  0.00000000000E+00  0.00000000000E+00  0.35202339803E+03  0.35202339804E+03  0.25500000920E-02 0.  1.
        2   -1    0    0  501    0  0.00000000000E+00  0.00000000000E+00 -0.17412091105E+04  0.17412091105E+04  0.25500000920E-02 0. -1.
    10030    2    1    2    0    0  0.00000000000E+00  0.00000000000E+00 -0.13891857125E+04  0.20932325086E+04  0.15658178027E+04 0.  0.
        1    1    3    3  502    0  0.40184309812E+03 -0.60147911177E+03 -0.10949536353E+04  0.13123179725E+04  0.50400001928E-02 0. -1.
       -1    1    3    3    0  502 -0.40184309812E+03  0.60147911177E+03 -0.29423207720E+03  0.78091453609E+03  0.50400001928E-02 0.  1.
</event>
<event>
 5   0  0.2763895E-04  0.1567266E+04  0.7818609E-02  0.8840914E-01
        1   -1    0    0  501    0  0.00000000000E+00  0.00000000000E+00  0.63547105726E+03  0.63547105728E+03  0.50400001928E-02 0. -1.
       -1   -1    0    0    0  501  0.00000000000E+00  0.00000000000E+00 -0.96633978948E+03  0.96633978949E+03  0.50400001928E-02 0.  1.
    10030    2    1    2    0    0  0.00000000000E+00  0.00000000000E+00 -0.33086873221E+03  0.16018108468E+04  0.15672663688E+04 0.  0.
        4    1    3    3  502    0  0.47444729393E+03 -0.54481964243E+03 -0.47568857488E+03  0.86499127780E+03  0.12699999809E+01 0.  1.
       -4    1    3    3    0  502 -0.47444729393E+03  0.54481964243E+03  0.14481984267E+03  0.73681956897E+03  0.12699999809E+01 0. -1.
</event>
<event>
 5   0  0.5131239E-04  0.1587355E+04  0.7818609E-02  0.8828354E-01
        2   -1    0    0  501    0  0.00000000000E+00  0.00000000000E+00  0.14258185082E+04  0.14258185082E+04  0.25500000920E-02 0.  1.
       -2   -1    0    0    0  501  0.00000000000E+00  0.00000000000E+00 -0.44179801306E+03  0.44179801307E+03  0.25500000920E-02 0. -1.
    10030    2    1    2    0    0  0.00000000000E+00  0.00000000000E+00  0.98402049517E+03  0.18676165213E+04  0.15873547605E+04 0.  0.
        1    1    3    3  502    0  0.44779034773E+02  0.77257886804E+03  0.28472033679E+03  0.82459016457E+03  0.50400001928E-02 0. -1.
       -1    1    3    3    0  502 -0.44779034773E+02 -0.77257886804E+03  0.69930015838E+03  0.10430263567E+04  0.50400001928E-02 0.  1.
</event>
<event>
 5   0  0.2649086E-04  0.1604677E+04  0.7818609E-02  0.8817680E-01
       -1   -1    0    0    0  501  0.00000000000E+00  0.00000000000E+00  0.34041133894E+03  0.34041133898E+03  0.50400001928E-02 0.  1.
        1   -1    0    0  501    0  0.00000000000E+00  0.00000000000E+00 -0.18910857925E+04  0.18910857925E+04  0.50400001928E-02 0. -1.
    10030    2    1    2    0    0  0.00000000000E+00  0.00000000000E+00 -0.15506744536E+04  0.22314971315E+04  0.16046769728E+04 0.  0.
        2    1    3    3  502    0  0.31408147289E+03 -0.41142674775E+02  0.24977494171E+03  0.40339485967E+03  0.25500000920E-02 0.  1.
       -2    1    3    3    0  502 -0.31408147289E+03  0.41142674775E+02 -0.18004493953E+04  0.18281022718E+04  0.25500000920E-02 0. -1.
</event>
<event>
 5   0  0.5264308E-04  0.1602014E+04  0.7818609E-02  0.8819312E-01
        2   -1    0    0  501    0  0.00000000000E+00  0.00000000000E+00  0.20426469696E+04  0.20426469696E+04  0.25500000920E-02 0.  1.
       -2   -1    0    0    0  501  0.00000000000E+00  0.00000000000E+00 -0.31410830719E+03  0.31410830720E+03  0.25500000920E-02 0. -1.
    10030    2    1    2    0    0  0.00000000000E+00  0.00000000000E+00  0.17285386624E+04  0.23567552768E+04  0.16020142095E+04 0.  0.
        3    1    3    3  502    0  0.36400128775E+03 -0.71278575673E+03  0.91198216101E+03  0.12133721378E+04  0.10100000352E+00 0.  1.
       -3    1    3    3    0  502 -0.36400128775E+03  0.71278575673E+03  0.81655650139E+03  0.11433831390E+04  0.10100000352E+00 0. -1.
</event>
<event>
 5   0  0.2763895E-04  0.1607027E+04  0.7818609E-02  0.8816243E-01
        1   -1    0    0  501    0  0.00000000000E+00  0.00000000000E+00  0.71383559206E+03  0.71383559207E+03  0.50400001928E-02 0.  1.
       -1   -1    0    0    0  501  0.00000000000E+00  0.00000000000E+00 -0.90445721341E+03  0.90445721343E+03  0.50400001928E-02 0. -1.
    10030    2    1    2    0    0  0.00000000000E+00  0.00000000000E+00 -0.19062162136E+03  0.16182928055E+04  0.16070267583E+04 0.  0.
        4    1    3    3  502    0  0.15618695686E+03 -0.49786512837E+03 -0.71063302174E+03  0.88162631314E+03  0.12699999809E+01 0.  1.
       -4    1    3    3    0  502 -0.15618695686E+03  0.49786512837E+03  0.52001140038E+03  0.73666649236E+03  0.12699999809E+01 0. -1.
</event>
<event>
 5   0  0.2689675E-04  0.1613315E+04  0.7818609E-02  0.8812409E-01
       -1   -1    0    0    0  501  0.00000000000E+00  0.00000000000E+00  0.37270420307E+03  0.37270420310E+03  0.50400001928E-02 0. -1.
        1   -1    0    0  501    0  0.00000000000E+00  0.00000000000E+00 -0.17458797344E+04  0.17458797344E+04  0.50400001928E-02 0.  1.
    10030    2    1    2    0    0  0.00000000000E+00  0.00000000000E+00 -0.13731755313E+04  0.21185839375E+04  0.16133154869E+04 0.  0.
        1    1    3    3  502    0  0.37091572353E+03  0.71586216559E+03 -0.72031393501E+03  0.10811518298E+04  0.50400001928E-02 0. -1.
       -1    1    3    3    0  502 -0.37091572353E+03 -0.71586216559E+03 -0.65286159629E+03  0.10374321077E+04  0.50400001928E-02 0.  1.
</event>
<event>
 5   0  0.5131239E-04  0.1598325E+04  0.7818609E-02  0.8821578E-01
        2   -1    0    0  501    0  0.00000000000E+00  0.00000000000E+00  0.86520000511E+03  0.86520000512E+03  0.25500000920E-02 0.  1.
       -2   -1    0    0    0  501  0.00000000000E+00  0.00000000000E+00 -0.73816539997E+03  0.73816539998E+03  0.25500000920E-02 0. -1.
    10030    2    1    2    0    0  0.00000000000E+00  0.00000000000E+00  0.12703460514E+03  0.16033654051E+04  0.15983250080E+04 0.  0.
        1    1    3    3  502    0  0.18640450968E+03  0.35663026897E+03  0.75615027560E+03  0.85655999749E+03  0.50400001928E-02 0.  1.
       -1    1    3    3    0  502 -0.18640450968E+03 -0.35663026897E+03 -0.62911567047E+03  0.74680540761E+03  0.50400001928E-02 0. -1.
</event>
<event>
 5   0  0.5083831E-04  0.1599068E+04  0.7818609E-02  0.8821121E-01
       -2   -1    0    0    0  501  0.00000000000E+00  0.00000000000E+00  0.66607532210E+03  0.66607532210E+03  0.25500000920E-02 0. -1.
        2   -1    0    0  501    0  0.00000000000E+00  0.00000000000E+00 -0.95973288220E+03  0.95973288220E+03  0.25500000920E-02 0.  1.
    10030    2    1    2    0    0  0.00000000000E+00  0.00000000000E+00 -0.29365756010E+03  0.16258082043E+04  0.15990677142E+04 0.  0.
        4    1    3    3  502    0 -0.33143819729E+03  0.60396180701E+03 -0.55936216352E+03  0.88741691771E+03  0.12699999809E+01 0.  1.
       -4    1    3    3    0  502  0.33143819729E+03 -0.60396180701E+03  0.26570460342E+03  0.73839128660E+03  0.12699999809E+01 0. -1.
</event>
<event>
 5   0  0.2730707E-04  0.1705835E+04  0.7818609E-02  0.8758043E-01
       -1   -1    0    0    0  501  0.00000000000E+00  0.00000000000E+00  0.13980882122E+04  0.13980882122E+04  0.50400001928E-02 0.  1.
        1   -1    0    0  501    0  0.00000000000E+00  0.00000000000E+00 -0.52033101514E+03  0.52033101516E+03  0.50400001928E-02 0. -1.
    10030    2    1    2    0    0  0.00000000000E+00  0.00000000000E+00  0.87775719708E+03  0.19184192274E+04  0.17058354654E+04 0.  0.
        5    1    3    3  502    0 -0.58062753917E+03  0.31453347272E+03 -0.16819508753E+03  0.68144795999E+03  0.46999998093E+01 0. -1.
       -5    1    3    3    0  502  0.58062753917E+03 -0.31453347272E+03  0.10459522846E+04  0.12369712674E+04  0.46999998093E+01 0.  1.
</event>
<event>
 5   0  0.5131239E-04  0.1520909E+04  0.7818609E-02  0.8870666E-01
        2   -1    0    0  501    0  0.00000000000E+00  0.00000000000E+00  0.14287207756E+04  0.14287207756E+04  0.25500000920E-02 0.  1.
       -2   -1    0    0    0  501  0.00000000000E+00  0.00000000000E+00 -0.40476164017E+03  0.40476164018E+03  0.25500000920E-02 0. -1.
    10030    2    1    2    0    0  0.00000000000E+00  0.00000000000E+00  0.10239591354E+04  0.18334824157E+04  0.15209094180E+04 0.  0.
        1    1    3    3  502    0 -0.62749992083E+01 -0.56885840646E+03 -0.96361355943E+02  0.57699633721E+03  0.50400001928E-02 0. -1.
       -1    1    3    3    0  502  0.62749992083E+01  0.56885840646E+03  0.11203204913E+04  0.12564860785E+04  0.50400001928E-02 0.  1.
</event>
<event>
 5   0  0.5264308E-04  0.1610503E+04  0.7818609E-02  0.8814121E-01
        2   -1    0    0  501    0  0.00000000000E+00  0.00000000000E+00  0.35573155058E+03  0.35573155058E+03  0.25500000920E-02 0. -1.
       -2   -1    0    0    0  501  0.00000000000E+00  0.00000000000E+00 -0.18228070540E+04  0.18228070540E+04  0.25500000920E-02 0.  1.
    10030    2    1    2    0    0  0.00000000000E+00  0.00000000000E+00 -0.14670755034E+04  0.21785386046E+04  0.16105030018E+04 0.  0.
        3    1    3    3  502    0 -0.61960126190E+03  0.33155261340E+03 -0.20166908314E+03  0.73109731808E+03  0.10100000352E+00 0. -1.
       -3    1    3    3    0  502  0.61960126190E+03 -0.33155261340E+03 -0.12654064203E+04  0.14474412865E+04  0.10100000352E+00 0.  1.
</event>
<event>
 5   0  0.2689675E-04  0.1604829E+04  0.7818609E-02  0.8817587E-01
       -1   -1    0    0    0  501  0.00000000000E+00  0.00000000000E+00  0.55630614060E+03  0.55630614063E+03  0.50400001928E-02 0.  1.
        1   -1    0    0  501    0  0.00000000000E+00  0.00000000000E+00 -0.11574003430E+04  0.11574003430E+04  0.50400001928E-02 0. -1.
    10030    2    1    2    0    0  0.00000000000E+00  0.00000000000E+00 -0.60109420237E+03  0.17137064836E+04  0.16048288606E+04 0.  0.
        1    1    3    3  502    0  0.64202410325E+03 -0.38503765325E+03 -0.60896724826E+03  0.96503370566E+03  0.50400001928E-02 0. -1.
       -1    1    3    3    0  502 -0.64202410325E+03  0.38503765325E+03  0.78730458837E+01  0.74867277796E+03  0.50400001928E-02 0.  1.
</event>
<event>
 5   0  0.2689675E-04  0.1589635E+04  0.7818609E-02  0.8826941E-01
        1   -1    0    0  501    0  0.00000000000E+00  0.00000000000E+00  0.85320984254E+03  0.85320984255E+03  0.50400001928E-02 0. -1.
       -1   -1    0    0    0  501  0.00000000000E+00  0.00000000000E+00 -0.74042168911E+03  0.74042168912E+03  0.50400001928E-02 0.  1.
    10030    2    1    2    0    0  0.00000000000E+00  0.00000000000E+00  0.11278815343E+03  0.15936315317E+04  0.15896352699E+04 0.  0.
        1    1    3    3  502    0 -0.68981354834E+03 -0.29423674715E+03  0.32033731908E+03  0.81549616361E+03  0.50400001928E-02 0. -1.
       -1    1    3    3    0  502  0.68981354834E+03  0.29423674715E+03 -0.20754916565E+03  0.77813536806E+03  0.50400001928E-02 0.  1.
</event>
<event>
 5   0  0.2796994E-04  0.1529645E+04  0.7818609E-02  0.8864975E-01
       -1   -1    0    0    0  501  0.00000000000E+00  0.00000000000E+00  0.61300746404E+03  0.61300746406E+03  0.50400001928E-02 0.  1.
        1   -1    0    0  501    0  0.00000000000E+00  0.00000000000E+00 -0.95423528258E+03  0.95423528259E+03  0.50400001928E-02 0. -1.
    10030    2    1    2    0    0  0.00000000000E+00  0.00000000000E+00 -0.34122781854E+03  0.15672427466E+04  0.15296448617E+04 0.  0.
        3    1    3    3  502    0  0.70296453085E+03  0.22954192964E+03 -0.37061621144E+03  0.82716686072E+03  0.10100000352E+00 0. -1.
       -3    1    3    3    0  502 -0.70296453085E+03 -0.22954192964E+03  0.29388392905E+02  0.74007588593E+03  0.10100000352E+00 0.  1.
</event>
<event>
 5   0  0.2730707E-04  0.1596564E+04  0.7818609E-02  0.8822662E-01
       -1   -1    0    0    0  501  0.00000000000E+00  0.00000000000E+00  0.85006509087E+03  0.85006509089E+03  0.50400001928E-02 0.  1.
        1   -1    0    0  501    0  0.00000000000E+00  0.00000000000E+00 -0.74965291234E+03  0.74965291236E+03  0.50400001928E-02 0. -1.
    10030    2    1    2    0    0  0.00000000000E+00  0.00000000000E+00  0.10041217853E+03  0.15997180032E+04  0.15965635234E+04 0.  0.
        5    1    3    3  502    0 -0.38411040190E+03  0.67193269454E+03 -0.14562144569E+03  0.78756716684E+03  0.46999998093E+01 0.  1.
       -5    1    3    3    0  502  0.38411040190E+03 -0.67193269454E+03  0.24603362422E+03  0.81215083641E+03  0.46999998093E+01 0. -1.
</event>
<event>
 5   0  0.2730707E-04  0.1690920E+04  0.7818609E-02  0.8766560E-01
       -1   -1    0    0    0  501  0.00000000000E+00  0.00000000000E+00  0.52941012446E+03  0.52941012448E+03  0.50400001928E-02 0.  1.
        1   -1    0    0  501    0  0.00000000000E+00  0.00000000000E+00 -0.13501864132E+04  0.13501864132E+04  0.50400001928E-02 0. -1.
    10030    2    1    2    0    0  0.00000000000E+00  0.00000000000E+00 -0.82077628873E+03  0.18795965377E+04  0.16909196990E+04 0.  0.
        5    1    3    3  502    0  0.24345137829E+03  0.17416343951E+03  0.46852056989E+03  0.55599918315E+03  0.46999998093E+01 0.  1.
       -5    1    3    3    0  502 -0.24345137829E+03 -0.17416343951E+03 -0.12892968586E+04  0.13235973545E+04  0.46999998093E+01 0. -1.
</event>
<event>
 5   0  0.5083831E-04  0.1575076E+04  0.7818609E-02  0.8836008E-01
        2   -1    0    0  501    0  0.00000000000E+00  0.00000000000E+00  0.15979724151E+04  0.15979724151E+04  0.25500000920E-02 0.  1.
       -2   -1    0    0    0  501  0.00000000000E+00  0.00000000000E+00 -0.38812702731E+03  0.38812702732E+03  0.25500000920E-02 0. -1.
    10030    2    1    2    0    0  0.00000000000E+00  0.00000000000E+00  0.12098453877E+04  0.19860994424E+04  0.15750762308E+04 0.  0.
        4    1    3    3  502    0 -0.29787481377E+03 -0.53535056785E+02 -0.31186949485E+03  0.43457979900E+03  0.12699999809E+01 0. -1.
       -4    1    3    3    0  502  0.29787481377E+03  0.53535056785E+02  0.15217148826E+04  0.15515196434E+04  0.12699999809E+01 0.  1.
</event>
<event>
 5   0  0.5131239E-04  0.1588252E+04  0.7818609E-02  0.8827798E-01
        2   -1    0    0  501    0  0.00000000000E+00  0.00000000000E+00  0.85466607513E+03  0.85466607513E+03  0.25500000920E-02 0. -1.
       -2   -1    0    0    0  501  0.00000000000E+00  0.00000000000E+00 -0.73787388870E+03  0.73787388871E+03  0.25500000920E-02 0.  1.
    10030    2    1    2    0    0  0.00000000000E+00  0.00000000000E+00  0.11679218643E+03  0.15925399638E+04  0.15882515927E+04 0.  0.
        1    1    3    3  502    0 -0.89235234040E+02  0.55766125741E+02 -0.73085242357E+03  0.73838882226E+03  0.50400001928E-02 0.  1.
       -1    1    3    3    0  502  0.89235234040E+02 -0.55766125741E+02  0.84764461000E+03  0.85415114158E+03  0.50400001928E-02 0. -1.
</event>
<event>
 5   0  0.2649086E-04  0.1511588E+04  0.7818609E-02  0.8876783E-01
        1   -1    0    0  501    0  0.00000000000E+00  0.00000000000E+00  0.90064763554E+03  0.90064763555E+03  0.50400001928E-02 0.  1.
       -1   -1    0    0    0  501  0.00000000000E+00  0.00000000000E+00 -0.63423762689E+03  0.63423762691E+03  0.50400001928E-02 0. -1.
    10030    2    1    2    0    0  0.00000000000E+00  0.00000000000E+00  0.26641000865E+03  0.15348852625E+04  0.15115880643E+04 0.  0.
        2    1    3    3  502    0  0.86697100836E+02 -0.27765198671E+03 -0.57512619464E+03  0.64449759719E+03  0.25500000920E-02 0. -1.
       -2    1    3    3    0  502 -0.86697100836E+02  0.27765198671E+03  0.84153620329E+03  0.89038766527E+03  0.25500000920E-02 0.  1.
</event>
<event>
 5   0  0.5381164E-04  0.1606931E+04  0.7818609E-02  0.8816301E-01
       -2   -1    0    0    0  501  0.00000000000E+00  0.00000000000E+00  0.70465702023E+03  0.70465702023E+03  0.25500000920E-02 0. -1.
        2   -1    0    0  501    0  0.00000000000E+00  0.00000000000E+00 -0.91612937006E+03  0.91612937007E+03  0.25500000920E-02 0.  1.
    10030    2    1    2    0    0  0.00000000000E+00  0.00000000000E+00 -0.21147234983E+03  0.16207863903E+04  0.16069312270E+04 0.  0.
        5    1    3    3  502    0  0.54094750754E+03 -0.43623005934E+03 -0.51246738551E+03  0.86346151147E+03  0.46999998093E+01 0.  1.
       -5    1    3    3    0  502 -0.54094750754E+03  0.43623005934E+03  0.30099503568E+03  0.75732487883E+03  0.46999998093E+01 0. -1.
</event>
<event>
 5   0  0.2649086E-04  0.1541348E+04  0.7818609E-02  0.8857413E-01
       -1   -1    0    0    0  501  0.00000000000E+00  0.00000000000E+00  0.36206059057E+03  0.36206059060E+03  0.50400001928E-02 0.  1.
        1   -1    0    0  501    0  0.00000000000E+00  0.00000000000E+00 -0.16404399247E+04  0.16404399247E+04  0.50400001928E-02 0. -1.
    10030    2    1    2    0    0  0.00000000000E+00  0.00000000000E+00 -0.12783793341E+04  0.20025005153E+04  0.15413483032E+04 0.  0.
        2    1    3    3  502    0 -0.30931837121E+03 -0.14108661256E+03 -0.15377498508E+04  0.15748834530E+04  0.25500000920E-02 0. -1.
       -2    1    3    3    0  502  0.30931837121E+03  0.14108661256E+03  0.25937051668E+03  0.42761706226E+03  0.25500000920E-02 0.  1.
</event>
<event>
 5   0  0.5315984E-04  0.1586412E+04  0.7818609E-02  0.8828940E-01
        2   -1    0    0  501    0  0.00000000000E+00  0.00000000000E+00  0.15681573367E+04  0.15681573367E+04  0.25500000920E-02 0.  1.
       -2   -1    0    0    0  501  0.00000000000E+00  0.00000000000E+00 -0.40121967806E+03  0.40121967807E+03  0.25500000920E-02 0. -1.
    10030    2    1    2    0    0  0.00000000000E+00  0.00000000000E+00  0.11669376586E+04  0.19693770148E+04  0.15864117773E+04 0.  0.
        2    1    3    3  502    0  0.64852832457E+03 -0.43760950664E+03  0.74572986750E+03  0.10808349103E+04  0.25500000920E-02 0.  1.
       -2    1    3    3    0  502 -0.64852832457E+03  0.43760950664E+03  0.42120779114E+03  0.88854210446E+03  0.25500000920E-02 0. -1.
</event>
<event>
 5   0  0.5264308E-04  0.1623831E+04  0.7818609E-02  0.8806040E-01
        2   -1    0    0  501    0  0.00000000000E+00  0.00000000000E+00  0.11692562454E+04  0.11692562454E+04  0.25500000920E-02 0.  1.
       -2   -1    0    0    0  501  0.00000000000E+00  0.00000000000E+00 -0.56378315757E+03  0.56378315757E+03  0.25500000920E-02 0. -1.
    10030    2    1    2    0    0  0.00000000000E+00  0.00000000000E+00  0.60547308784E+03  0.17330394030E+04  0.16238312450E+04 0.  0.
        3    1    3    3  502    0 -0.38258470265E+03  0.13506710459E+03 -0.44783385762E+03  0.60429243887E+03  0.10100000352E+00 0. -1.
       -3    1    3    3    0  502  0.38258470265E+03 -0.13506710459E+03  0.10533069455E+04  0.11287469641E+04  0.10100000352E+00 0.  1.
</event>
<event>
 5   0  0.5131239E-04  0.1602721E+04  0.7818609E-02  0.8818878E-01
        2   -1    0    0  501    0  0.00000000000E+00  0.00000000000E+00  0.69639420875E+03  0.69639420875E+03  0.25500000920E-02 0. -1.
       -2   -1    0    0    0  501  0.00000000000E+00  0.00000000000E+00 -0.92214797406E+03  0.92214797406E+03  0.25500000920E-02 0.  1.
    10030    2    1    2    0    0  0.00000000000E+00  0.00000000000E+00 -0.22575376531E+03  0.16185421828E+04  0.16027208225E+04 0.  0.
        1    1    3    3  502    0  0.60693791153E+02 -0.78641445683E+03  0.30108501257E+02  0.78932753408E+03  0.50400001928E-02 0.  1.
       -1    1    3    3    0  502 -0.60693791153E+02  0.78641445683E+03 -0.25586226657E+03  0.82921464873E+03  0.50400001928E-02 0. -1.
</event>
<event>
 5   0  0.5083831E-04  0.1655492E+04  0.7818609E-02  0.8787164E-01
        2   -1    0    0  501    0  0.00000000000E+00  0.00000000000E+00  0.11955210915E+04  0.11955210915E+04  0.25500000920E-02 0. -1.
       -2   -1    0    0    0  501  0.00000000000E+00  0.00000000000E+00 -0.57310829581E+03  0.57310829582E+03  0.25500000920E-02 0.  1.
    10030    2    1    2    0    0  0.00000000000E+00  0.00000000000E+00  0.62241279571E+03  0.17686293873E+04  0.16554915347E+04 0.  0.
        4    1    3    3  502    0 -0.21588136716E+03  0.19801972931E+03  0.11382878219E+04  0.11753796647E+04  0.12699999809E+01 0. -1.
       -4    1    3    3    0  502  0.21588136716E+03 -0.19801972931E+03 -0.51587502616E+03  0.59324972263E+03  0.12699999809E+01 0.  1.
</event>
<event>
 5   0  0.2730707E-04  0.1804784E+04  0.7818609E-02  0.8703760E-01
        1   -1    0    0  501    0  0.00000000000E+00  0.00000000000E+00  0.89342453014E+03  0.89342453015E+03  0.50400001928E-02 0.  1.
       -1   -1    0    0    0  501  0.00000000000E+00  0.00000000000E+00 -0.91144901058E+03  0.91144901060E+03  0.50400001928E-02 0. -1.
    10030    2    1    2    0    0  0.00000000000E+00  0.00000000000E+00 -0.18024480445E+02  0.18048735407E+04  0.18047835372E+04 0.  0.
        5    1    3    3  502    0  0.10513192187E+02  0.49986117683E+01 -0.91136167668E+03  0.91144813843E+03  0.46999998093E+01 0. -1.
       -5    1    3    3    0  502 -0.10513192187E+02 -0.49986117683E+01  0.89333719623E+03  0.89342540232E+03  0.46999998093E+01 0.  1.
</event>
<event>
 5   0  0.2763895E-04  0.1604584E+04  0.7818609E-02  0.8817737E-01
       -1   -1    0    0    0  501  0.00000000000E+00  0.00000000000E+00  0.12814102175E+04  0.12814102175E+04  0.50400001928E-02 0.  1.
        1   -1    0    0  501    0  0.00000000000E+00  0.00000000000E+00 -0.50231578444E+03  0.50231578446E+03  0.50400001928E-02 0. -1.
    10030    2    1    2    0    0  0.00000000000E+00  0.00000000000E+00  0.77909443302E+03  0.17837260019E+04  0.16045841562E+04 0.  0.
        4    1    3    3  502    0  0.67561362401E+03  0.41327477484E+03  0.24709555361E+03  0.82964307626E+03  0.12699999809E+01 0.  1.
       -4    1    3    3    0  502 -0.67561362401E+03 -0.41327477484E+03  0.53199887941E+03  0.95408292567E+03  0.12699999809E+01 0. -1.
</event>
<event>
 5   0  0.1908125E-04  0.1591858E+04  0.7818609E-02  0.8825566E-01
       -3   -1    0    0    0  501  0.00000000000E+00  0.00000000000E+00  0.78381270739E+03  0.78381271389E+03  0.10100000352E+00 0.  1.
        3   -1    0    0  501    0  0.00000000000E+00  0.00000000000E+00 -0.80823264156E+03  0.80823264787E+03  0.10100000352E+00 0. -1.
    10030    2    1    2    0    0  0.00000000000E+00  0.00000000000E+00 -0.24419934169E+02  0.15920453618E+04  0.15918580655E+04 0.  0.
        2    1    3    3  502    0  0.40000242245E+03 -0.49755681487E+03  0.46317563809E+03  0.78873087534E+03  0.25500000920E-02 0.  1.
       -2    1    3    3    0  502 -0.40000242245E+03  0.49755681487E+03 -0.48759557226E+03  0.80331448642E+03  0.25500000920E-02 0. -1.
</event>
<event>
 5   0  0.5264308E-04  0.1599324E+04  0.7818609E-02  0.8820963E-01
       -2   -1    0    0    0  501  0.00000000000E+00  0.00000000000E+00  0.38134609457E+03  0.38134609458E+03  0.25500000920E-02 0. -1.
        2   -1    0    0  501    0  0.00000000000E+00  0.00000000000E+00 -0.16768476305E+04  0.16768476305E+04  0.25500000920E-02 0.  1.
    10030    2    1    2    0    0  0.00000000000E+00  0.00000000000E+00 -0.12955015359E+04  0.20581937251E+04  0.15993239760E+04 0.  0.
        3    1    3    3  502    0  0.24415283717E+03  0.53466821006E+03  0.50011767337E+02  0.58989989814E+03  0.10100000352E+00 0. -1.
       -3    1    3    3    0  502 -0.24415283717E+03 -0.53466821006E+03 -0.13455133033E+04  0.14682938269E+04  0.10100000352E+00 0.  1.
</event>
<event>
 5   0  0.5315984E-04  0.1603014E+04  0.7818609E-02  0.8818698E-01
       -2   -1    0    0    0  501  0.00000000000E+00  0.00000000000E+00  0.62678057081E+03  0.62678057081E+03  0.25500000920E-02 0. -1.
        2   -1    0    0  501    0  0.00000000000E+00  0.00000000000E+00 -0.10249418015E+04  0.10249418015E+04  0.25500000920E-02 0.  1.
    10030    2    1    2    0    0  0.00000000000E+00  0.00000000000E+00 -0.39816123067E+03  0.16517223723E+04  0.16030141701E+04 0.  0.
        2    1    3    3  502    0  0.56762638759E+01 -0.73962549752E+03  0.11906580336E+03  0.74916938144E+03  0.25500000920E-02 0. -1.
       -2    1    3    3    0  502 -0.56762638759E+01  0.73962549752E+03 -0.51722703403E+03  0.90255299085E+03  0.25500000920E-02 0.  1.
</event>
<event>
 5   0  0.5381164E-04  0.1592271E+04  0.7818609E-02  0.8825310E-01
        2   -1    0    0  501    0  0.00000000000E+00  0.00000000000E+00  0.10680893934E+04  0.10680893934E+04  0.25500000920E-02 0.  1.
       -2   -1    0    0    0  501  0.00000000000E+00  0.00000000000E+00 -0.59342585326E+03  0.59342585327E+03  0.25500000920E-02 0. -1.
    10030    2    1    2    0    0  0.00000000000E+00  0.00000000000E+00  0.47466354012E+03  0.16615152467E+04  0.15922711574E+04 0.  0.
        5    1    3    3  502    0  0.43268181362E+03 -0.87416567496E+02  0.92868036703E+03  0.10282628663E+04  0.46999998093E+01 0.  1.
       -5    1    3    3    0  502 -0.43268181362E+03  0.87416567496E+02 -0.45401682691E+03  0.63325238036E+03  0.46999998093E+01 0. -1.
</event>
<event>
 5   0  0.2763895E-04  0.1585400E+04  0.7818609E-02  0.8829568E-01
        1   -1    0    0  501    0  0.00000000000E+00  0.00000000000E+00  0.76851210400E+03  0.76851210402E+03  0.50400001928E-02 0.  1.
       -1   -1    0    0    0  501  0.00000000000E+00  0.00000000000E+00 -0.81764934588E+03  0.81764934590E+03  0.50400001928E-02 0. -1.
    10030    2    1    2    0    0  0.00000000000E+00  0.00000000000E+00 -0.49137241881E+02  0.15861614499E+04  0.15854001629E+04 0.  0.
        4    1    3    3  502    0 -0.55494694380E+03 -0.54138850059E+03 -0.18988775393E+03  0.79820209909E+03  0.12699999809E+01 0. -1.
       -4    1    3    3    0  502  0.55494694380E+03  0.54138850059E+03  0.14075051205E+03  0.78795935082E+03  0.12699999809E+01 0.  1.
</event>
<event>
 5   0  0.2689675E-04  0.1616849E+04  0.7818609E-02  0.8810263E-01
       -1   -1    0    0    0  501  0.00000000000E+00  0.00000000000E+00  0.63931838649E+03  0.63931838651E+03  0.50400001928E-02 0.  1.
        1   -1    0    0  501    0  0.00000000000E+00  0.00000000000E+00 -0.10222613004E+04  0.10222613004E+04  0.50400001928E-02 0. -1.
    10030    2    1    2    0    0  0.00000000000E+00  0.00000000000E+00 -0.38294291394E+03  0.16615796870E+04  0.16168493377E+04 0.  0.
        1    1    3    3  502    0 -0.27898479683E+03 -0.64886817539E+03  0.21271332744E+03  0.73763770619E+03  0.50400001928E-02 0.  1.
       -1    1    3    3    0  502  0.27898479683E+03  0.64886817539E+03 -0.59565624139E+03  0.92394198077E+03  0.50400001928E-02 0. -1.
</event>
<event>
 5   0  0.5315984E-04  0.1617617E+04  0.7818609E-02  0.8809798E-01
       -2   -1    0    0    0  501  0.00000000000E+00  0.00000000000E+00  0.42322201979E+03  0.42322201980E+03  0.25500000920E-02 0.  1.
        2   -1    0    0  501    0  0.00000000000E+00  0.00000000000E+00 -0.15456931113E+04  0.15456931113E+04  0.25500000920E-02 0. -1.
    10030    2    1    2    0    0  0.00000000000E+00  0.00000000000E+00 -0.11224710915E+04  0.19689151311E+04  0.16176172113E+04 0.  0.
        2    1    3    3  502    0 -0.69908439764E+03 -0.26248481723E+03 -0.18302244639E+03  0.76883970383E+03  0.25500000920E-02 0.  1.
       -2    1    3    3    0  502  0.69908439764E+03  0.26248481723E+03 -0.93944864508E+03  0.12000754272E+04  0.25500000920E-02 0. -1.
</event>
<event>
 5   0  0.1908125E-04  0.1559599E+04  0.7818609E-02  0.8845759E-01
        3   -1    0    0  501    0  0.00000000000E+00  0.00000000000E+00  0.58361746234E+03  0.58361747108E+03  0.10100000352E+00 0. -1.
       -3   -1    0    0    0  501  0.00000000000E+00  0.00000000000E+00 -0.10419282073E+04  0.10419282122E+04  0.10100000352E+00 0.  1.
    10030    2    1    2    0    0  0.00000000000E+00  0.00000000000E+00 -0.45831074494E+03  0.16255456833E+04  0.15595993169E+04 0.  0.
        5    1    3    3  502    0  0.72126152988E+02 -0.48809584566E+03  0.40022003542E+03  0.63532503748E+03  0.46999998093E+01 0. -1.
       -5    1    3    3    0  502 -0.72126152988E+02  0.48809584566E+03 -0.85853078036E+03  0.99022064577E+03  0.46999998093E+01 0.  1.
</event>
<event>
 5   0  0.2763895E-04  0.1607059E+04  0.7818609E-02  0.8816223E-01
        1   -1    0    0  501    0  0.00000000000E+00  0.00000000000E+00  0.80695212879E+03  0.80695212880E+03  0.50400001928E-02 0. -1.
       -1   -1    0    0    0  501  0.00000000000E+00  0.00000000000E+00 -0.80012127867E+03  0.80012127869E+03  0.50400001928E-02 0.  1.
    10030    2    1    2    0    0  0.00000000000E+00  0.00000000000E+00  0.68308501117E+01  0.16070734075E+04  0.16070588902E+04 0.  0.
        4    1    3    3  502    0 -0.79755662808E+03 -0.97234324568E+02  0.13753185541E+02  0.80358064430E+03  0.12699999809E+01 0. -1.
       -4    1    3    3    0  502  0.79755662808E+03  0.97234324568E+02 -0.69223354294E+01  0.80349276319E+03  0.12699999809E+01 0.  1.
</event>
<event>
 5   0  0.5083831E-04  0.1603345E+04  0.7818609E-02  0.8818496E-01
        2   -1    0    0  501    0  0.00000000000E+00  0.00000000000E+00  0.51156004000E+03  0.51156004000E+03  0.25500000920E-02 0.  1.
       -2   -1    0    0    0  501  0.00000000000E+00  0.00000000000E+00 -0.12563114437E+04  0.12563114437E+04  0.25500000920E-02 0. -1.
    10030    2    1    2    0    0  0.00000000000E+00  0.00000000000E+00 -0.74475140368E+03  0.17678714837E+04  0.16033449191E+04 0.  0.
        4    1    3    3  502    0  0.86766283426E+02  0.37324396914E+03  0.40403853483E+03  0.55685563566E+03  0.12699999809E+01 0.  1.
       -4    1    3    3    0  502 -0.86766283426E+02 -0.37324396914E+03 -0.11487899385E+04  0.12110158480E+04  0.12699999809E+01 0. -1.
</event>
<event>
 5   0  0.2730707E-04  0.1645945E+04  0.7818609E-02  0.8792809E-01
       -1   -1    0    0    0  501  0.00000000000E+00  0.00000000000E+00  0.36232787478E+03  0.36232787481E+03  0.50400001928E-02 0. -1.
        1   -1    0    0  501    0  0.00000000000E+00  0.00000000000E+00 -0.18692553946E+04  0.18692553946E+04  0.50400001928E-02 0.  1.
    10030    2    1    2    0    0  0.00000000000E+00  0.00000000000E+00 -0.15069275198E+04  0.22315832694E+04  0.16459445125E+04 0.  0.
        5    1    3    3  502    0  0.70729123795E+03 -0.17046029664E+03 -0.12749538397E+04  0.14679397097E+04  0.46999998093E+01 0. -1.
       -5    1    3    3    0  502 -0.70729123795E+03  0.17046029664E+03 -0.23197368014E+03  0.76364355971E+03  0.46999998093E+01 0.  1.
</event>
<event>
 5   0  0.5381164E-04  0.1597304E+04  0.7818609E-02  0.8822206E-01
        2   -1    0    0  501    0  0.00000000000E+00  0.00000000000E+00  0.71553623580E+03  0.71553623580E+03  0.25500000920E-02 0.  1.
       -2   -1    0    0    0  501  0.00000000000E+00  0.00000000000E+00 -0.89142230895E+03  0.89142230896E+03  0.25500000920E-02 0. -1.
    10030    2    1    2    0    0  0.00000000000E+00  0.00000000000E+00 -0.17588607315E+03  0.16069585448E+04  0.15973039328E+04 0.  0.
        5    1    3    3  502    0 -0.66700991713E+03 -0.15221304189E+03 -0.50244285972E+03  0.84884742855E+03  0.46999998093E+01 0. -1.
       -5    1    3    3    0  502  0.66700991713E+03  0.15221304189E+03  0.32655678657E+03  0.75811111621E+03  0.46999998093E+01 0.  1.
</event>
<event>
 5   0  0.5131239E-04  0.1595191E+04  0.7818609E-02  0.8823508E-01
        2   -1    0    0  501    0  0.00000000000E+00  0.00000000000E+00  0.13386618629E+04  0.13386618629E+04  0.25500000920E-02 0.  1.
       -2   -1    0    0    0  501  0.00000000000E+00  0.00000000000E+00 -0.47521986267E+03  0.47521986268E+03  0.25500000920E-02 0. -1.
    10030    2    1    2    0    0  0.00000000000E+00  0.00000000000E+00  0.86344200020E+03  0.18138817255E+04  0.15951911568E+04 0.  0.
        1    1    3    3  502    0  0.38076386234E+03 -0.60896688570E+02 -0.36218633393E+03  0.52902595972E+03  0.50400001928E-02 0. -1.
       -1    1    3    3    0  502 -0.38076386234E+03  0.60896688570E+02  0.12256283341E+04  0.12848557658E+04  0.50400001928E-02 0.  1.
</event>
<event>
 5   0  0.2796994E-04  0.1602789E+04  0.7818609E-02  0.8818836E-01
       -1   -1    0    0    0  501  0.00000000000E+00  0.00000000000E+00  0.10713540915E+04  0.10713540915E+04  0.50400001928E-02 0.  1.
        1   -1    0    0  501    0  0.00000000000E+00  0.00000000000E+00 -0.59945930302E+03  0.59945930304E+03  0.50400001928E-02 0. -1.
    10030    2    1    2    0    0  0.00000000000E+00  0.00000000000E+00  0.47189478845E+03  0.16708133945E+04  0.16027890404E+04 0.  0.
        3    1    3    3  502    0  0.18563029698E+03 -0.31485997459E+03 -0.50750965116E+03  0.62542902633E+03  0.10100000352E+00 0. -1.
       -3    1    3    3    0  502 -0.18563029698E+03  0.31485997459E+03  0.97940443961E+03  0.10453843682E+04  0.10100000352E+00 0.  1.
</event>
<event>
 5   0  0.2763895E-04  0.1603544E+04  0.7818609E-02  0.8818374E-01
        1   -1    0    0  501    0  0.00000000000E+00  0.00000000000E+00  0.11265895724E+04  0.11265895724E+04  0.50400001928E-02 0. -1.
       -1   -1    0    0    0  501  0.00000000000E+00  0.00000000000E+00 -0.57060541891E+03  0.57060541893E+03  0.50400001928E-02 0.  1.
    10030    2    1    2    0    0  0.00000000000E+00  0.00000000000E+00  0.55598415346E+03  0.16971949913E+04  0.16035437193E+04 0.  0.
        4    1    3    3  502    0  0.79196723378E+03 -0.10683998714E+03  0.34666291852E+03  0.87109337859E+03  0.12699999809E+01 0. -1.
       -4    1    3    3    0  502 -0.79196723378E+03  0.10683998714E+03  0.20932123494E+03  0.82610161272E+03  0.12699999809E+01 0.  1.
</event>
<event>
 5   0  0.2763895E-04  0.1595731E+04  0.7818609E-02  0.8823175E-01
        1   -1    0    0  501    0  0.00000000000E+00  0.00000000000E+00  0.15136790241E+04  0.15136790241E+04  0.50400001928E-02 0.  1.
       -1   -1    0    0    0  501  0.00000000000E+00  0.00000000000E+00 -0.42055780709E+03  0.42055780712E+03  0.50400001928E-02 0. -1.
    10030    2    1    2    0    0  0.00000000000E+00  0.00000000000E+00  0.10931212170E+04  0.19342368312E+04  0.15957312193E+04 0.  0.
        4    1    3    3  502    0 -0.24217050086E+03 -0.44005903999E+03 -0.20485310044E+03  0.54246190265E+03  0.12699999809E+01 0. -1.
       -4    1    3    3    0  502  0.24217050086E+03  0.44005903999E+03  0.12979743174E+04  0.13917749286E+04  0.12699999809E+01 0.  1.
</event>
<event>
 5   0  0.2763895E-04  0.1612887E+04  0.7818609E-02  0.8812670E-01
       -1   -1    0    0    0  501  0.00000000000E+00  0.00000000000E+00  0.50943122177E+03  0.50943122179E+03  0.50400001928E-02 0.  1.
        1   -1    0    0  501    0  0.00000000000E+00  0.00000000000E+00 -0.12766222263E+04  0.12766222263E+04  0.50400001928E-02 0. -1.
    10030    2    1    2    0    0  0.00000000000E+00  0.00000000000E+00 -0.76719100453E+03  0.17860534481E+04  0.16128871263E+04 0.  0.
        4    1    3    3  502    0  0.54277726031E+03  0.57904050631E+03 -0.22522095333E+03  0.82499766847E+03  0.12699999809E+01 0. -1.
       -4    1    3    3    0  502 -0.54277726031E+03 -0.57904050631E+03 -0.54197005120E+03  0.96105577963E+03  0.12699999809E+01 0.  1.
</event>
<event>
 5   0  0.2796994E-04  0.1595436E+04  0.7818609E-02  0.8823357E-01
       -1   -1    0    0    0  501  0.00000000000E+00  0.00000000000E+00  0.76823575820E+03  0.76823575822E+03  0.50400001928E-02 0.  1.
        1   -1    0    0  501    0  0.00000000000E+00  0.00000000000E+00 -0.82833141639E+03  0.82833141641E+03  0.50400001928E-02 0. -1.
    10030    2    1    2    0    0  0.00000000000E+00  0.00000000000E+00 -0.60095658195E+02  0.15965671746E+04  0.15954357571E+04 0.  0.
        3    1    3    3  502    0  0.43415026748E+03 -0.36152663896E+03 -0.59362199423E+03  0.81949682590E+03  0.10100000352E+00 0. -1.
       -3    1    3    3    0  502 -0.43415026748E+03  0.36152663896E+03  0.53352633603E+03  0.77707034873E+03  0.10100000352E+00 0.  1.
</event>
<event>
 5   0  0.5381164E-04  0.1610800E+04  0.7818609E-02  0.8813941E-01
       -2   -1    0    0    0  501  0.00000000000E+00  0.00000000000E+00  0.47202125252E+03  0.47202125253E+03  0.25500000920E-02 0. -1.
        2   -1    0    0  501    0  0.00000000000E+00  0.00000000000E+00 -0.13742365787E+04  0.13742365787E+04  0.25500000920E-02 0.  1.
    10030    2    1    2    0    0  0.00000000000E+00  0.00000000000E+00 -0.90221532620E+03  0.18462578313E+04  0.16107996414E+04 0.  0.
        5    1    3    3  502    0  0.52682169471E+03  0.30096245219E+03 -0.10581771170E+04  0.12197870292E+04  0.46999998093E+01 0.  1.
       -5    1    3    3    0  502 -0.52682169471E+03 -0.30096245219E+03  0.15596179079E+03  0.62647080206E+03  0.46999998093E+01 0. -1.
</event>
<event>
 5   0  0.5315984E-04  0.1590364E+04  0.7818609E-02  0.8826490E-01
       -2   -1    0    0    0  501  0.00000000000E+00  0.00000000000E+00  0.72427731901E+03  0.72427731901E+03  0.25500000920E-02 0. -1.
        2   -1    0    0  501    0  0.00000000000E+00  0.00000000000E+00 -0.87302826850E+03  0.87302826850E+03  0.25500000920E-02 0.  1.
    10030    2    1    2    0    0  0.00000000000E+00  0.00000000000E+00 -0.14875094949E+03  0.15973055875E+04  0.15903642020E+04 0.  0.
        2    1    3    3  502    0  0.38724173380E+03  0.27231802189E+03  0.56731946642E+03  0.73889420246E+03  0.25500000920E-02 0. -1.
       -2    1    3    3    0  502 -0.38724173380E+03 -0.27231802189E+03 -0.71607041591E+03  0.85841138505E+03  0.25500000920E-02 0.  1.
</event>
<event>
 5   0  0.2649086E-04  0.1587357E+04  0.7818609E-02  0.8828353E-01
        1   -1    0    0  501    0  0.00000000000E+00  0.00000000000E+00  0.84422675627E+03  0.84422675629E+03  0.50400001928E-02 0. -1.
       -1   -1    0    0    0  501  0.00000000000E+00  0.00000000000E+00 -0.74615681941E+03  0.74615681943E+03  0.50400001928E-02 0.  1.
    10030    2    1    2    0    0  0.00000000000E+00  0.00000000000E+00  0.98069936861E+02  0.15903835757E+04  0.15873569874E+04 0.  0.
        2    1    3    3  502    0  0.49229490627E+02 -0.27307414255E+03  0.79404709365E+03  0.84113246104E+03  0.25500000920E-02 0. -1.
       -2    1    3    3    0  502 -0.49229490627E+02  0.27307414255E+03 -0.69597715679E+03  0.74925111468E+03  0.25500000920E-02 0.  1.
</event>
<event>
 5   0  0.2689675E-04  0.1591000E+04  0.7818609E-02  0.8826096E-01
        1   -1    0    0  501    0  0.00000000000E+00  0.00000000000E+00  0.20741898645E+04  0.20741898645E+04  0.50400001928E-02 0. -1.
       -1   -1    0    0    0  501  0.00000000000E+00  0.00000000000E+00 -0.30509268122E+03  0.30509268126E+03  0.50400001928E-02 0.  1.
    10030    2    1    2    0    0  0.00000000000E+00  0.00000000000E+00  0.17690971833E+04  0.23792825458E+04  0.15909998707E+04 0.  0.
        1    1    3    3  502    0 -0.33523277552E+03  0.11243644902E+03 -0.18111717788E+03  0.39727371043E+03  0.50400001928E-02 0.  1.
       -1    1    3    3    0  502  0.33523277552E+03 -0.11243644902E+03  0.19502143611E+04  0.19820088353E+04  0.50400001928E-02 0. -1.
</event>
<event>
 5   0  0.2796994E-04  0.1565408E+04  0.7818609E-02  0.8842085E-01
        1   -1    0    0  501    0  0.00000000000E+00  0.00000000000E+00  0.82763424947E+03  0.82763424948E+03  0.50400001928E-02 0.  1.
       -1   -1    0    0    0  501  0.00000000000E+00  0.00000000000E+00 -0.74021315727E+03  0.74021315728E+03  0.50400001928E-02 0. -1.
    10030    2    1    2    0    0  0.00000000000E+00  0.00000000000E+00  0.87421092200E+02  0.15678474068E+04  0.15654082674E+04 0.  0.
        3    1    3    3  502    0  0.66316594105E+03  0.25235287431E+03  0.37461103835E+03  0.80237427601E+03  0.10100000352E+00 0.  1.
       -3    1    3    3    0  502 -0.66316594105E+03 -0.25235287431E+03 -0.28718994615E+03  0.76547313076E+03  0.10100000352E+00 0. -1.
</event>
<event>
 5   0  0.2689675E-04  0.1596066E+04  0.7818609E-02  0.8822969E-01
       -1   -1    0    0    0  501  0.00000000000E+00  0.00000000000E+00  0.57379231616E+03  0.57379231618E+03  0.50400001928E-02 0.  1.
        1   -1    0    0  501    0  0.00000000000E+00  0.00000000000E+00 -0.11099078020E+04  0.11099078020E+04  0.50400001928E-02 0. -1.
    10030    2    1    2    0    0  0.00000000000E+00  0.00000000000E+00 -0.53611548582E+03  0.16837001182E+04  0.15960658739E+04 0.  0.
        1    1    3    3  502    0  0.77403135470E+03  0.37948967898E+02 -0.67093486567E+02  0.77786001195E+03  0.50400001928E-02 0.  1.
       -1    1    3    3    0  502 -0.77403135470E+03 -0.37948967898E+02 -0.46902199925E+03  0.90584010621E+03  0.50400001928E-02 0. -1.
</event>
<event>
 5   0  0.2763895E-04  0.1670532E+04  0.7818609E-02  0.8778352E-01
       -1   -1    0    0    0  501  0.00000000000E+00  0.00000000000E+00  0.64624404417E+03  0.64624404419E+03  0.50400001928E-02 0.  1.
        1   -1    0    0  501    0  0.00000000000E+00  0.00000000000E+00 -0.10795757801E+04  0.10795757801E+04  0.50400001928E-02 0. -1.
    10030    2    1    2    0    0  0.00000000000E+00  0.00000000000E+00 -0.43333173596E+03  0.17258198243E+04  0.16705321525E+04 0.  0.
        4    1    3    3  502    0 -0.16157537686E+03 -0.68135827193E+03 -0.68705030944E+03  0.98101755221E+03  0.12699999809E+01 0. -1.
       -4    1    3    3    0  502  0.16157537686E+03  0.68135827193E+03  0.25371857348E+03  0.74480227213E+03  0.12699999809E+01 0.  1.
</event>
<event>
 5   0  0.2763895E-04  0.1605183E+04  0.7818609E-02  0.8817370E-01
       -1   -1    0    0    0  501  0.00000000000E+00  0.00000000000E+00  0.48891342122E+03  0.48891342125E+03  0.50400001928E-02 0. -1.
        1   -1    0    0  501    0  0.00000000000E+00  0.00000000000E+00 -0.13175197099E+04  0.13175197100E+04  0.50400001928E-02 0.  1.
    10030    2    1    2    0    0  0.00000000000E+00  0.00000000000E+00 -0.82860628872E+03  0.18064331312E+04  0.16051829415E+04 0.  0.
        4    1    3    3  502    0  0.58222917368E+03  0.17677174194E+03 -0.10032867387E+04  0.11733818442E+04  0.12699999809E+01 0.  1.
       -4    1    3    3    0  502 -0.58222917368E+03 -0.17677174194E+03  0.17468044996E+03  0.63305128697E+03  0.12699999809E+01 0. -1.
</event>
<event>
 5   0  0.2796994E-04  0.1562968E+04  0.7818609E-02  0.8843627E-01
        1   -1    0    0  501    0  0.00000000000E+00  0.00000000000E+00  0.95727918728E+03  0.95727918729E+03  0.50400001928E-02 0.  1.
       -1   -1    0    0    0  501  0.00000000000E+00  0.00000000000E+00 -0.63797167539E+03  0.63797167541E+03  0.50400001928E-02 0. -1.
    10030    2    1    2    0    0  0.00000000000E+00  0.00000000000E+00  0.31930751189E+03  0.15952508627E+04  0.15629676989E+04 0.  0.
        3    1    3    3  502    0  0.52569708688E+03  0.47649571815E+03 -0.17469669721E+03  0.73070140467E+03  0.10100000352E+00 0. -1.
       -3    1    3    3    0  502 -0.52569708688E+03 -0.47649571815E+03  0.49400420910E+03  0.86454945803E+03  0.10100000352E+00 0.  1.
</event>
<event>
 5   0  0.5315984E-04  0.1530080E+04  0.7818609E-02  0.8864693E-01
        2   -1    0    0  501    0  0.00000000000E+00  0.00000000000E+00  0.11635238641E+04  0.11635238641E+04  0.25500000920E-02 0. -1.
       -2   -1    0    0    0  501  0.00000000000E+00  0.00000000000E+00 -0.50302915655E+03  0.50302915655E+03  0.25500000920E-02 0.  1.
    10030    2    1    2    0    0  0.00000000000E+00  0.00000000000E+00  0.66049470752E+03  0.16665530206E+04  0.15300802959E+04 0.  0.
        2    1    3    3  502    0 -0.52607808173E+03  0.11908190224E+03  0.92117634248E+03  0.10674757615E+04  0.25500000920E-02 0. -1.
       -2    1    3    3    0  502  0.52607808173E+03 -0.11908190224E+03 -0.26068163497E+03  0.59907725907E+03  0.25500000920E-02 0.  1.
</event>
<event>
 5   0  0.1908125E-04  0.1589906E+04  0.7818609E-02  0.8826773E-01
       -3   -1    0    0    0  501  0.00000000000E+00  0.00000000000E+00  0.14504389187E+04  0.14504389222E+04  0.10100000352E+00 0. -1.
        3   -1    0    0  501    0  0.00000000000E+00  0.00000000000E+00 -0.43569597935E+03  0.43569599106E+03  0.10100000352E+00 0.  1.
    10030    2    1    2    0    0  0.00000000000E+00  0.00000000000E+00  0.10147429394E+04  0.18861349133E+04  0.15899061853E+04 0.  0.
        2    1    3    3  502    0 -0.18900288124E+03  0.11506569825E+03  0.14131690230E+04  0.14303876718E+04  0.25500000920E-02 0. -1.
       -2    1    3    3    0  502  0.18900288124E+03 -0.11506569825E+03 -0.39842608362E+03  0.45574724152E+03  0.25500000920E-02 0.  1.
</event>
<event>
 5   0  0.5131239E-04  0.1604098E+04  0.7818609E-02  0.8818034E-01
        2   -1    0    0  501    0  0.00000000000E+00  0.00000000000E+00  0.16891524222E+04  0.16891524222E+04  0.25500000920E-02 0.  1.
       -2   -1    0    0    0  501  0.00000000000E+00  0.00000000000E+00 -0.38083169438E+03  0.38083169439E+03  0.25500000920E-02 0. -1.
    10030    2    1    2    0    0  0.00000000000E+00  0.00000000000E+00  0.13083207278E+04  0.20699841166E+04  0.16040982252E+04 0.  0.
        1    1    3    3  502    0 -0.26368280254E+03 -0.75519012291E+03  0.57845200802E+03  0.98714105765E+03  0.50400001928E-02 0. -1.
       -1    1    3    3    0  502  0.26368280254E+03  0.75519012291E+03  0.72986871978E+03  0.10828430589E+04  0.50400001928E-02 0.  1.
</event>
<event>
 5   0  0.2796994E-04  0.1595213E+04  0.7818609E-02  0.8823494E-01
       -1   -1    0    0    0  501  0.00000000000E+00  0.00000000000E+00  0.11780478391E+04  0.11780478391E+04  0.50400001928E-02 0.  1.
        1   -1    0    0  501    0  0.00000000000E+00  0.00000000000E+00 -0.54002600348E+03  0.54002600350E+03  0.50400001928E-02 0. -1.
    10030    2    1    2    0    0  0.00000000000E+00  0.00000000000E+00  0.63802183561E+03  0.17180738426E+04  0.15952134233E+04 0.  0.
        3    1    3    3  502    0 -0.16423916499E+03 -0.77331492381E+03  0.43292045310E+03  0.90133822931E+03  0.10100000352E+00 0.  1.
       -3    1    3    3    0  502  0.16423916499E+03  0.77331492381E+03  0.20510138250E+03  0.81673561328E+03  0.10100000352E+00 0. -1.
</event>
<event>
 5   0  0.5131239E-04  0.1688138E+04  0.7818609E-02  0.8768159E-01
       -2   -1    0    0    0  501  0.00000000000E+00  0.00000000000E+00  0.41198794860E+03  0.41198794860E+03  0.25500000920E-02 0.  1.
        2   -1    0    0  501    0  0.00000000000E+00  0.00000000000E+00 -0.17293040398E+04  0.17293040398E+04  0.25500000920E-02 0. -1.
    10030    2    1    2    0    0  0.00000000000E+00  0.00000000000E+00 -0.13173160912E+04  0.21412919885E+04  0.16881379374E+04 0.  0.
        1    1    3    3  502    0  0.49372967683E+03  0.56914951259E+03 -0.17606546323E+03  0.77375655657E+03  0.50400001928E-02 0.  1.
       -1    1    3    3    0  502 -0.49372967683E+03 -0.56914951259E+03 -0.11412506280E+04  0.13675354319E+04  0.50400001928E-02 0. -1.
</event>
<event>
 5   0  0.2689675E-04  0.1604186E+04  0.7818609E-02  0.8817981E-01
        1   -1    0    0  501    0  0.00000000000E+00  0.00000000000E+00  0.11837411837E+04  0.11837411837E+04  0.50400001928E-02 0.  1.
       -1   -1    0    0    0  501  0.00000000000E+00  0.00000000000E+00 -0.54349110520E+03  0.54349110522E+03  0.50400001928E-02 0. -1.
    10030    2    1    2    0    0  0.00000000000E+00  0.00000000000E+00  0.64025007853E+03  0.17272322890E+04  0.16041855307E+04 0.  0.
        1    1    3    3  502    0  0.23420824702E+03  0.76690290163E+03  0.34053249812E+03  0.87118077676E+03  0.50400001928E-02 0.  1.
       -1    1    3    3    0  502 -0.23420824702E+03 -0.76690290163E+03  0.29971758041E+03  0.85605151220E+03  0.50400001928E-02 0. -1.
</event>
<event>
 5   0  0.5381164E-04  0.1620829E+04  0.7818609E-02  0.8807853E-01
       -2   -1    0    0    0  501  0.00000000000E+00  0.00000000000E+00  0.55117893147E+03  0.55117893148E+03  0.25500000920E-02 0.  1.
        2   -1    0    0  501    0  0.00000000000E+00  0.00000000000E+00 -0.11915755895E+04  0.11915755895E+04  0.25500000920E-02 0. -1.
    10030    2    1    2    0    0  0.00000000000E+00  0.00000000000E+00 -0.64039665800E+03  0.17427545210E+04  0.16208286278E+04 0.  0.
        5    1    3    3  502    0 -0.69145144918E+03  0.10416875783E+03  0.12024098960E+03  0.70953239691E+03  0.46999998093E+01 0.  1.
       -5    1    3    3    0  502  0.69145144918E+03 -0.10416875783E+03 -0.76063764760E+03  0.10332221240E+04  0.46999998093E+01 0. -1.
</event>
<event>
 5   0  0.2649086E-04  0.1570934E+04  0.7818609E-02  0.8838606E-01
        1   -1    0    0  501    0  0.00000000000E+00  0.00000000000E+00  0.48671384399E+03  0.48671384402E+03  0.50400001928E-02 0.  1.
       -1   -1    0    0    0  501  0.00000000000E+00  0.00000000000E+00 -0.12676002333E+04  0.12676002333E+04  0.50400001928E-02 0. -1.
    10030    2    1    2    0    0  0.00000000000E+00  0.00000000000E+00 -0.78088638930E+03  0.17543140773E+04  0.15709342217E+04 0.  0.
        2    1    3    3  502    0  0.63082740206E+03 -0.19720542146E+03 -0.86439787700E+03  0.10881253968E+04  0.25500000920E-02 0.  1.
       -2    1    3    3    0  502 -0.63082740206E+03  0.19720542146E+03  0.83511487698E+02  0.66618868050E+03  0.25500000920E-02 0. -1.
</event>
<event>
 5   0  0.5264308E-04  0.1590759E+04  0.7818609E-02  0.8826246E-01
        2   -1    0    0  501    0  0.00000000000E+00  0.00000000000E+00  0.15487730265E+04  0.15487730265E+04  0.25500000920E-02 0. -1.
       -2   -1    0    0    0  501  0.00000000000E+00  0.00000000000E+00 -0.40847056815E+03  0.40847056816E+03  0.25500000920E-02 0.  1.
    10030    2    1    2    0    0  0.00000000000E+00  0.00000000000E+00  0.11403024583E+04  0.19572435946E+04  0.15907585588E+04 0.  0.
        3    1    3    3  502    0  0.78986919134E+03  0.75153789281E+02  0.63850961358E+03  0.10184478231E+04  0.10100000352E+00 0.  1.
       -3    1    3    3    0  502 -0.78986919134E+03 -0.75153789281E+02  0.50179284472E+03  0.93879577155E+03  0.10100000352E+00 0. -1.
</event>
<event>
 5   0  0.5315984E-04  0.1606483E+04  0.7818609E-02  0.8816575E-01
        2   -1    0    0  501    0  0.00000000000E+00  0.00000000000E+00  0.12142079752E+04  0.12142079752E+04  0.25500000920E-02 0.  1.
       -2   -1    0    0    0  501  0.00000000000E+00  0.00000000000E+00 -0.53137270461E+03  0.53137270462E+03  0.25500000920E-02 0. -1.
    10030    2    1    2    0    0  0.00000000000E+00  0.00000000000E+00  0.68283527057E+03  0.17455806798E+04  0.16064830852E+04 0.  0.
        2    1    3    3  502    0 -0.44021234541E+03 -0.33805484960E+03  0.97231950727E+03  0.11195861801E+04  0.25500000920E-02 0.  1.
       -2    1    3    3    0  502  0.44021234541E+03  0.33805484960E+03 -0.28948423670E+03  0.62599449973E+03  0.25500000920E-02 0. -1.
</event>
<event>
 5   0  0.2649086E-04  0.1613824E+04  0.7818609E-02  0.8812100E-01
        1   -1    0    0  501    0  0.00000000000E+00  0.00000000000E+00  0.90493955262E+03  0.90493955264E+03  0.50400001928E-02 0.  1.
       -1   -1    0    0    0  501  0.00000000000E+00  0.00000000000E+00 -0.71950331335E+03  0.71950331337E+03  0.50400001928E-02 0. -1.
    10030    2    1    2    0    0  0.00000000000E+00  0.00000000000E+00  0.18543623927E+03  0.16244428660E+04  0.16138240381E+04 0.  0.
        2    1    3    3  502    0  0.53010347107E+03 -0.18976717269E+03 -0.48908658443E+03  0.74580624625E+03  0.25500000920E-02 0. -1.
       -2    1    3    3    0  502 -0.53010347107E+03  0.18976717269E+03  0.67452282370E+03  0.87863661975E+03  0.25500000920E-02 0.  1.
</event>
<event>
 5   0  0.1908125E-04  0.1610087E+04  0.7818609E-02  0.8814375E-01
       -4   -1    0    0    0  501  0.00000000000E+00  0.00000000000E+00  0.37096156669E+03  0.37096374063E+03  0.12699999809E+01 0.  1.
        4   -1    0    0  501    0  0.00000000000E+00  0.00000000000E+00 -0.17470595805E+04  0.17470600421E+04  0.12699999809E+01 0. -1.
    10030    2    1    2    0    0  0.00000000000E+00  0.00000000000E+00 -0.13760980138E+04  0.21180237827E+04  0.16100866438E+04 0.  0.
        2    1    3    3  502    0 -0.47410546846E+03  0.11570736255E+03 -0.15302906946E+04  0.16062234586E+04  0.25500000920E-02 0. -1.
       -2    1    3    3    0  502  0.47410546846E+03 -0.11570736255E+03  0.15419268079E+03  0.51180032413E+03  0.25500000920E-02 0.  1.
</event>
<event>
 5   0  0.5381164E-04  0.1594855E+04  0.7818609E-02  0.8823715E-01
        2   -1    0    0  501    0  0.00000000000E+00  0.00000000000E+00  0.20296599226E+04  0.20296599226E+04  0.25500000920E-02 0. -1.
       -2   -1    0    0    0  501  0.00000000000E+00  0.00000000000E+00 -0.31329891323E+03  0.31329891324E+03  0.25500000920E-02 0.  1.
    10030    2    1    2    0    0  0.00000000000E+00  0.00000000000E+00  0.17163610094E+04  0.23429588358E+04  0.15948545363E+04 0.  0.
        5    1    3    3  502    0 -0.51154640971E+03 -0.25525532799E+03  0.41511426401E+02  0.57321924276E+03  0.46999998093E+01 0.  1.
       -5    1    3    3    0  502  0.51154640971E+03  0.25525532799E+03  0.16748495830E+04  0.17697395931E+04  0.46999998093E+01 0. -1.
</event>
<event>
 5   0  0.5264308E-04  0.1598648E+04  0.7818609E-02  0.8821379E-01
        2   -1    0    0  501    0  0.00000000000E+00  0.00000000000E+00  0.10866873932E+04  0.10866873932E+04  0.25500000920E-02 0.  1.
       -2   -1    0    0    0  501  0.00000000000E+00  0.00000000000E+00 -0.58795060095E+03  0.58795060095E+03  0.25500000920E-02 0. -1.
    10030    2    1    2    0    0  0.00000000000E+00  0.00000000000E+00  0.49873679221E+03  0.16746379941E+04  0.15986475607E+04 0.  0.
        3    1    3    3  502    0 -0.16053868673E+03 -0.69855625503E+02 -0.56761830630E+03  0.59400591765E+03  0.10100000352E+00 0. -1.
       -3    1    3    3    0  502  0.16053868673E+03  0.69855625503E+02  0.10663550985E+04  0.10806320765E+04  0.10100000352E+00 0.  1.
</event>
<event>
 5   0  0.5131239E-04  0.1585696E+04  0.7818609E-02  0.8829384E-01
       -2   -1    0    0    0  501  0.00000000000E+00  0.00000000000E+00  0.47499652441E+03  0.47499652442E+03  0.25500000920E-02 0.  1.
        2   -1    0    0  501    0  0.00000000000E+00  0.00000000000E+00 -0.13233954538E+04  0.13233954538E+04  0.25500000920E-02 0. -1.
    10030    2    1    2    0    0  0.00000000000E+00  0.00000000000E+00 -0.84839892934E+03  0.17983919782E+04  0.15856963656E+04 0.  0.
        1    1    3    3  502    0 -0.14719306213E+03 -0.72847794408E+03 -0.73739773594E+03  0.10469485821E+04  0.50400001928E-02 0. -1.
       -1    1    3    3    0  502  0.14719306213E+03  0.72847794408E+03 -0.11100119340E+03  0.75144339608E+03  0.50400001928E-02 0.  1.
</event>
<event>
 5   0  0.2730707E-04  0.1567132E+04  0.7818609E-02  0.8840998E-01
        1   -1    0    0  501    0  0.00000000000E+00  0.00000000000E+00  0.61507208306E+03  0.61507208308E+03  0.50400001928E-02 0.  1.
       -1   -1    0    0    0  501  0.00000000000E+00  0.00000000000E+00 -0.99821794674E+03  0.99821794675E+03  0.50400001928E-02 0. -1.
    10030    2    1    2    0    0  0.00000000000E+00  0.00000000000E+00 -0.38314586368E+03  0.16132900298E+04  0.15671324027E+04 0.  0.
        5    1    3    3  502    0 -0.44420156374E+03  0.39910885440E+03  0.33066653018E+03  0.68261654761E+03  0.46999998093E+01 0.  1.
       -5    1    3    3    0  502  0.44420156374E+03 -0.39910885440E+03 -0.71381239386E+03  0.93067348222E+03  0.46999998093E+01 0. -1.
</event>
<event>
 5   0  0.2689675E-04  0.1603231E+04  0.7818609E-02  0.8818566E-01
       -1   -1    0    0    0  501  0.00000000000E+00  0.00000000000E+00  0.37370308648E+03  0.37370308652E+03  0.50400001928E-02 0.  1.
        1   -1    0    0  501    0  0.00000000000E+00  0.00000000000E+00 -0.17195124471E+04  0.17195124471E+04  0.50400001928E-02 0. -1.
    10030    2    1    2    0    0  0.00000000000E+00  0.00000000000E+00 -0.13458093606E+04  0.20932155336E+04  0.16032306244E+04 0.  0.
        1    1    3    3  502    0  0.87180716509E+02 -0.76852492011E+03 -0.39792885068E+03  0.86981515300E+03  0.50400001928E-02 0. -1.
       -1    1    3    3    0  502 -0.87180716509E+02  0.76852492011E+03 -0.94788050995E+03  0.12234003806E+04  0.50400001928E-02 0.  1.
</event>
<event>
 5   0  0.5315984E-04  0.1590035E+04  0.7818609E-02  0.8826694E-01
       -2   -1    0    0    0  501  0.00000000000E+00  0.00000000000E+00  0.35958388288E+03  0.35958388289E+03  0.25500000920E-02 0. -1.
        2   -1    0    0  501    0  0.00000000000E+00  0.00000000000E+00 -0.17577335195E+04  0.17577335195E+04  0.25500000920E-02 0.  1.
    10030    2    1    2    0    0  0.00000000000E+00  0.00000000000E+00 -0.13981496366E+04  0.21173174024E+04  0.15900347720E+04 0.  0.
        2    1    3    3  502    0  0.70982010790E+03 -0.35193986758E+03 -0.61128511250E+03  0.10006876360E+04  0.25500000920E-02 0.  1.
       -2    1    3    3    0  502 -0.70982010790E+03  0.35193986758E+03 -0.78686452414E+03  0.11166297665E+04  0.25500000920E-02 0. -1.
</event>
<event>
 5   0  0.2649086E-04  0.1598874E+04  0.7818609E-02  0.8821240E-01
       -1   -1    0    0    0  501  0.00000000000E+00  0.00000000000E+00  0.48160033571E+03  0.48160033573E+03  0.50400001928E-02 0. -1.
        1   -1    0    0  501    0  0.00000000000E+00  0.00000000000E+00 -0.13270331450E+04  0.13270331450E+04  0.50400001928E-02 0.  1.
    10030    2    1    2    0    0  0.00000000000E+00  0.00000000000E+00 -0.84543280925E+03  0.18086334807E+04  0.15988741140E+04 0.  0.
        2    1    3    3  502    0 -0.27214507464E+03  0.36443899742E+03  0.32096884586E+03  0.55668637896E+03  0.25500000920E-02 0. -1.
       -2    1    3    3    0  502  0.27214507464E+03 -0.36443899742E+03 -0.11664016551E+04  0.12519471017E+04  0.25500000920E-02 0.  1.
</event>
<event>
 5   0  0.5131239E-04  0.1623335E+04  0.7818609E-02  0.8806339E-01
       -2   -1    0    0    0  501  0.00000000000E+00  0.00000000000E+00  0.10972472829E+04  0.10972472829E+04  0.25500000920E-02 0.  1.
        2   -1    0    0  501    0  0.00000000000E+00  0.00000000000E+00 -0.60041513495E+03  0.60041513496E+03  0.25500000920E-02 0. -1.
    10030    2    1    2    0    0  0.00000000000E+00  0.00000000000E+00  0.49683214791E+03  0.16976624178E+04  0.16233346857E+04 0.  0.
        1    1    3    3  502    0  0.45081627258E+03 -0.62669451140E+03  0.51053661607E+03  0.92554252123E+03  0.50400001928E-02 0.  1.
       -1    1    3    3    0  502 -0.45081627258E+03  0.62669451140E+03 -0.13704468158E+02  0.77211989659E+03  0.50400001928E-02 0. -1.
</event>
<event>
 5   0  0.5381164E-04  0.1586607E+04  0.7818609E-02  0.8828818E-01
       -2   -1    0    0    0  501  0.00000000000E+00  0.00000000000E+00  0.50774220132E+03  0.50774220133E+03  0.25500000920E-02 0. -1.
        2   -1    0    0  501    0  0.00000000000E+00  0.00000000000E+00 -0.12394682997E+04  0.12394682998E+04  0.25500000920E-02 0.  1.
    10030    2    1    2    0    0  0.00000000000E+00  0.00000000000E+00 -0.73172609843E+03  0.17472105011E+04  0.15866068990E+04 0.  0.
        5    1    3    3  502    0 -0.72298697054E+03 -0.27556945246E+03 -0.17303994673E+03  0.79285155979E+03  0.46999998093E+01 0.  1.
       -5    1    3    3    0  502  0.72298697054E+03  0.27556945246E+03 -0.55868615170E+03  0.95435894128E+03  0.46999998093E+01 0. -1.
</event>
<event>
 5   0  0.2730707E-04  0.1590953E+04  0.7818609E-02  0.8826126E-01
        1   -1    0    0  501    0  0.00000000000E+00  0.00000000000E+00  0.44394170146E+03  0.44394170148E+03  0.50400001928E-02 0. -1.
       -1   -1    0    0    0  501  0.00000000000E+00  0.00000000000E+00 -0.14253729478E+04  0.14253729478E+04  0.50400001928E-02 0.  1.
    10030    2    1    2    0    0  0.00000000000E+00  0.00000000000E+00 -0.98143124637E+03  0.18693146493E+04  0.15909525344E+04 0.  0.
        5    1    3    3  502    0 -0.20295218942E+03  0.63806321543E+03 -0.99533041443E+03  0.11995911728E+04  0.46999998093E+01 0.  1.
       -5    1    3    3    0  502  0.20295218942E+03 -0.63806321543E+03  0.13899168062E+02  0.66972347648E+03  0.46999998093E+01 0. -1.
</event>
<event>
 5   0  0.2730707E-04  0.1595714E+04  0.7818609E-02  0.8823186E-01
        1   -1    0    0  501    0  0.00000000000E+00  0.00000000000E+00  0.10133050694E+04  0.10133050694E+04  0.50400001928E-02 0.  1.
       -1   -1    0    0    0  501  0.00000000000E+00  0.00000000000E+00 -0.62821696681E+03  0.62821696683E+03  0.50400001928E-02 0. -1.
    10030    2    1    2    0    0  0.00000000000E+00  0.00000000000E+00  0.38508810257E+03  0.16415220362E+04  0.15957135547E+04 0.  0.
        5    1    3    3  502    0 -0.59492342397E+03  0.34735564477E+03 -0.22145599555E+03  0.72363987750E+03  0.46999998093E+01 0. -1.
       -5    1    3    3    0  502  0.59492342397E+03 -0.34735564477E+03  0.60654409813E+03  0.91788215873E+03  0.46999998093E+01 0.  1.
</event>
<event>
 5   0  0.5131239E-04  0.1589414E+04  0.7818609E-02  0.8827078E-01
       -2   -1    0    0    0  501  0.00000000000E+00  0.00000000000E+00  0.39042088609E+03  0.39042088609E+03  0.25500000920E-02 0. -1.
        2   -1    0    0  501    0  0.00000000000E+00  0.00000000000E+00 -0.16176376265E+04  0.16176376265E+04  0.25500000920E-02 0.  1.
    10030    2    1    2    0    0  0.00000000000E+00  0.00000000000E+00 -0.12272167404E+04  0.20080585125E+04  0.15894143771E+04 0.  0.
        1    1    3    3  502    0  0.51715197705E+03  0.54326116690E+02 -0.13728679212E+04  0.14680476230E+04  0.50400001928E-02 0.  1.
       -1    1    3    3    0  502 -0.51715197705E+03 -0.54326116690E+02  0.14565118083E+03  0.54001088955E+03  0.50400001928E-02 0. -1.
</event>
<event>
 5   0  0.5083831E-04  0.1613358E+04  0.7818609E-02  0.8812383E-01
        2   -1    0    0  501    0  0.00000000000E+00  0.00000000000E+00  0.11394647144E+04  0.11394647144E+04  0.25500000920E-02 0. -1.
       -2   -1    0    0    0  501  0.00000000000E+00  0.00000000000E+00 -0.57108496470E+03  0.57108496470E+03  0.25500000920E-02 0.  1.
    10030    2    1    2    0    0  0.00000000000E+00  0.00000000000E+00  0.56837974974E+03  0.17105496791E+04  0.16133581949E+04 0.  0.
        4    1    3    3  502    0  0.20666753112E+03 -0.67713339694E+03 -0.12576660805E+03  0.71905490629E+03  0.12699999809E+01 0.  1.
       -4    1    3    3    0  502 -0.20666753112E+03  0.67713339694E+03  0.69414635779E+03  0.99149477286E+03  0.12699999809E+01 0. -1.
</event>
<event>
 5   0  0.2649086E-04  0.1643584E+04  0.7818609E-02  0.8794211E-01
       -1   -1    0    0    0  501  0.00000000000E+00  0.00000000000E+00  0.97098668719E+03  0.97098668721E+03  0.50400001928E-02 0. -1.
        1   -1    0    0  501    0  0.00000000000E+00  0.00000000000E+00 -0.69552113322E+03  0.69552113323E+03  0.50400001928E-02 0.  1.
    10030    2    1    2    0    0  0.00000000000E+00  0.00000000000E+00  0.27546555398E+03  0.16665078204E+04  0.16435835982E+04 0.  0.
        2    1    3    3  502    0 -0.62747289070E+02 -0.75624522153E+03  0.45756490391E+03  0.88612058924E+03  0.25500000920E-02 0. -1.
       -2    1    3    3    0  502  0.62747289070E+02  0.75624522153E+03 -0.18209934993E+03  0.78038723120E+03  0.25500000920E-02 0.  1.
</event>
<event>
 5   0  0.2763895E-04  0.1588568E+04  0.7818609E-02  0.8827602E-01
        1   -1    0    0  501    0  0.00000000000E+00  0.00000000000E+00  0.64492305537E+03  0.64492305539E+03  0.50400001928E-02 0.  1.
       -1   -1    0    0    0  501  0.00000000000E+00  0.00000000000E+00 -0.97823599762E+03  0.97823599763E+03  0.50400001928E-02 0. -1.
    10030    2    1    2    0    0  0.00000000000E+00  0.00000000000E+00 -0.33331294225E+03  0.16231590530E+04  0.15885678437E+04 0.  0.
        4    1    3    3  502    0  0.25859952019E+03 -0.71702254037E+03 -0.39488155238E+03  0.85844515757E+03  0.12699999809E+01 0. -1.
       -4    1    3    3    0  502 -0.25859952019E+03  0.71702254037E+03  0.61568610129E+02  0.76471389545E+03  0.12699999809E+01 0.  1.
</event>
<event>
 5   0  0.5264308E-04  0.1581513E+04  0.7818609E-02  0.8831986E-01
        2   -1    0    0  501    0  0.00000000000E+00  0.00000000000E+00  0.22476213517E+04  0.22476213517E+04  0.25500000920E-02 0.  1.
       -2   -1    0    0    0  501  0.00000000000E+00  0.00000000000E+00 -0.27820350848E+03  0.27820350849E+03  0.25500000920E-02 0. -1.
    10030    2    1    2    0    0  0.00000000000E+00  0.00000000000E+00  0.19694178432E+04  0.25258248601E+04  0.15815133838E+04 0.  0.
        3    1    3    3  502    0 -0.23810148169E+03  0.16819583088E+03  0.21586693692E+04  0.21782643569E+04  0.10100000352E+00 0.  1.
       -3    1    3    3    0  502  0.23810148169E+03 -0.16819583088E+03 -0.18925152599E+03  0.34756050322E+03  0.10100000352E+00 0. -1.
</event>
<event>
 5   0  0.2689675E-04  0.1590212E+04  0.7818609E-02  0.8826584E-01
       -1   -1    0    0    0  501  0.00000000000E+00  0.00000000000E+00  0.73328385492E+03  0.73328385494E+03  0.50400001928E-02 0.  1.
        1   -1    0    0  501    0  0.00000000000E+00  0.00000000000E+00 -0.86214045829E+03  0.86214045830E+03  0.50400001928E-02 0. -1.
    10030    2    1    2    0    0  0.00000000000E+00  0.00000000000E+00 -0.12885660336E+03  0.15954243132E+04  0.15902121604E+04 0.  0.
        1    1    3    3  502    0  0.43029433278E+03 -0.41821287558E+03 -0.58780706257E+03  0.83998355041E+03  0.50400001928E-02 0. -1.
       -1    1    3    3    0  502 -0.43029433278E+03  0.41821287558E+03  0.45895045920E+03  0.75544076284E+03  0.50400001928E-02 0.  1.
</event>
<event>
 5   0  0.5381164E-04  0.1597700E+04  0.7818609E-02  0.8821962E-01
        2   -1    0    0  501    0  0.00000000000E+00  0.00000000000E+00  0.62658351996E+03  0.62658351996E+03  0.25500000920E-02 0.  1.
       -2   -1    0    0    0  501  0.00000000000E+00  0.00000000000E+00 -0.10184772434E+04  0.10184772434E+04  0.25500000920E-02 0. -1.
    10030    2    1    2    0    0  0.00000000000E+00  0.00000000000E+00 -0.39189372345E+03  0.16450607634E+04  0.15976996666E+04 0.  0.
        5    1    3    3  502    0  0.85697444528E+02  0.41511512190E+03 -0.89312590027E+03  0.98861548651E+03  0.46999998093E+01 0. -1.
       -5    1    3    3    0  502 -0.85697444528E+02 -0.41511512190E+03  0.50123217682E+03  0.65644527686E+03  0.46999998093E+01 0.  1.
</event>
<event>
 5   0  0.2649086E-04  0.1650308E+04  0.7818609E-02  0.8790224E-01
       -1   -1    0    0    0  501  0.00000000000E+00  0.00000000000E+00  0.78384420112E+03  0.78384420114E+03  0.50400001928E-02 0. -1.
        1   -1    0    0  501    0  0.00000000000E+00  0.00000000000E+00 -0.86864080008E+03  0.86864080009E+03  0.50400001928E-02 0.  1.
    10030    2    1    2    0    0  0.00000000000E+00  0.00000000000E+00 -0.84796598955E+02  0.16524850012E+04  0.16503079155E+04 0.  0.
        2    1    3    3  502    0  0.67767079166E+03 -0.40906810314E+03  0.19094267628E+03  0.81426870290E+03  0.25500000920E-02 0.  1.
       -2    1    3    3    0  502 -0.67767079166E+03  0.40906810314E+03 -0.27573927524E+03  0.83821629834E+03  0.25500000920E-02 0. -1.
</event>
<event>
 5   0  0.5131239E-04  0.1620730E+04  0.7818609E-02  0.8807913E-01
       -2   -1    0    0    0  501  0.00000000000E+00  0.00000000000E+00  0.44539502575E+03  0.44539502576E+03  0.25500000920E-02 0.  1.
        2   -1    0    0  501    0  0.00000000000E+00  0.00000000000E+00 -0.14744022769E+04  0.14744022769E+04  0.25500000920E-02 0. -1.
    10030    2    1    2    0    0  0.00000000000E+00  0.00000000000E+00 -0.10290072512E+04  0.19197973027E+04  0.16207300085E+04 0.  0.
        1    1    3    3  502    0  0.11736799039E+03  0.58161101387E+03  0.13929139004E+03  0.60946592029E+03  0.50400001928E-02 0.  1.
       -1    1    3    3    0  502 -0.11736799039E+03 -0.58161101387E+03 -0.11682986412E+04  0.13103313824E+04  0.50400001928E-02 0. -1.
</event>
<event>
 5   0  0.5315984E-04  0.1596800E+04  0.7818609E-02  0.8822516E-01
        2   -1    0    0  501    0  0.00000000000E+00  0.00000000000E+00  0.60109187751E+03  0.60109187752E+03  0.25500000920E-02 0.  1.
       -2   -1    0    0    0  501  0.00000000000E+00  0.00000000000E+00 -0.10604742630E+04  0.10604742630E+04  0.25500000920E-02 0. -1.
    10030    2    1    2    0    0  0.00000000000E+00  0.00000000000E+00 -0.45938238548E+03  0.16615661405E+04  0.15967998820E+04 0.  0.
        2    1    3    3  502    0  0.52259192231E+03  0.81775184337E+02 -0.85198869557E+03  0.10028331045E+04  0.25500000920E-02 0. -1.
       -2    1    3    3    0  502 -0.52259192231E+03 -0.81775184337E+02  0.39260631009E+03  0.65873303604E+03  0.25500000920E-02 0.  1.
</event>
<event>
 5   0  0.1908125E-04  0.1575733E+04  0.7818609E-02  0.8835597E-01
        3   -1    0    0  501    0  0.00000000000E+00  0.00000000000E+00  0.96948797530E+03  0.96948798056E+03  0.10100000352E+00 0. -1.
       -3   -1    0    0    0  501  0.00000000000E+00  0.00000000000E+00 -0.64026920267E+03  0.64026921064E+03  0.10100000352E+00 0.  1.
    10030    2    1    2    0    0  0.00000000000E+00  0.00000000000E+00  0.32921877263E+03  0.16097571912E+04  0.15757325961E+04 0.  0.
        3    1    3    3  502    0  0.28856829541E+03 -0.57421516010E+03  0.63023454322E+03  0.90010571650E+03  0.10100000352E+00 0. -1.
       -3    1    3    3    0  502 -0.28856829541E+03  0.57421516010E+03 -0.30101577059E+03  0.70965147470E+03  0.10100000352E+00 0.  1.
</event>
<event>
 5   0  0.2763895E-04  0.1570707E+04  0.7818609E-02  0.8838749E-01
       -1   -1    0    0    0  501  0.00000000000E+00  0.00000000000E+00  0.16176790642E+04  0.16176790642E+04  0.50400001928E-02 0. -1.
        1   -1    0    0  501    0  0.00000000000E+00  0.00000000000E+00 -0.38127464786E+03  0.38127464790E+03  0.50400001928E-02 0.  1.
    10030    2    1    2    0    0  0.00000000000E+00  0.00000000000E+00  0.12364044163E+04  0.19989537121E+04  0.15707068671E+04 0.  0.
        4    1    3    3  502    0  0.54237124914E+03 -0.55466457063E+03  0.77385593657E+03  0.10957527008E+04  0.12699999809E+01 0. -1.
       -4    1    3    3    0  502 -0.54237124914E+03  0.55466457063E+03  0.46254847974E+03  0.90320101130E+03  0.12699999809E+01 0.  1.
</event>
<event>
 5   0  0.5083831E-04  0.1546101E+04  0.7818609E-02  0.8854362E-01
       -2   -1    0    0    0  501  0.00000000000E+00  0.00000000000E+00  0.28681588786E+03  0.28681588787E+03  0.25500000920E-02 0. -1.
        2   -1    0    0  501    0  0.00000000000E+00  0.00000000000E+00 -0.20835922648E+04  0.20835922648E+04  0.25500000920E-02 0.  1.
    10030    2    1    2    0    0  0.00000000000E+00  0.00000000000E+00 -0.17967763770E+04  0.23704081527E+04  0.15461013749E+04 0.  0.
        4    1    3    3  502    0  0.55757932161E+03 -0.41674152384E+03 -0.38292632057E+03  0.79448245887E+03  0.12699999809E+01 0. -1.
       -4    1    3    3    0  502 -0.55757932161E+03  0.41674152384E+03 -0.14138500564E+04  0.15759256938E+04  0.12699999809E+01 0.  1.
</event>
<event>
 5   0  0.5381164E-04  0.1578789E+04  0.7818609E-02  0.8833686E-01
       -2   -1    0    0    0  501  0.00000000000E+00  0.00000000000E+00  0.68575327387E+03  0.68575327388E+03  0.25500000920E-02 0. -1.
        2   -1    0    0  501    0  0.00000000000E+00  0.00000000000E+00 -0.90869905108E+03  0.90869905108E+03  0.25500000920E-02 0.  1.
    10030    2    1    2    0    0  0.00000000000E+00  0.00000000000E+00 -0.22294577720E+03  0.15944523250E+04  0.15787885853E+04 0.  0.
        5    1    3    3  502    0  0.24139894237E+02 -0.19366538915E+03  0.66098971035E+03  0.68921586215E+03  0.46999998093E+01 0. -1.
       -5    1    3    3    0  502 -0.24139894237E+02  0.19366538915E+03 -0.88393548755E+03  0.90523646281E+03  0.46999998093E+01 0.  1.
</event>
<event>
 5   0  0.2689675E-04  0.1602080E+04  0.7818609E-02  0.8819271E-01
       -1   -1    0    0    0  501  0.00000000000E+00  0.00000000000E+00  0.81740745090E+03  0.81740745091E+03  0.50400001928E-02 0. -1.
        1   -1    0    0  501    0  0.00000000000E+00  0.00000000000E+00 -0.78500073443E+03  0.78500073445E+03  0.50400001928E-02 0.  1.
    10030    2    1    2    0    0  0.00000000000E+00  0.00000000000E+00  0.32406716465E+02  0.16024081854E+04  0.16020804590E+04 0.  0.
        1    1    3    3  502    0  0.27941024517E+03  0.14606070470E+03  0.75273815761E+03  0.81609959473E+03  0.50400001928E-02 0. -1.
       -1    1    3    3    0  502 -0.27941024517E+03 -0.14606070470E+03 -0.72033144115E+03  0.78630859063E+03  0.50400001928E-02 0.  1.
</event>
<event>
 5   0  0.5083831E-04  0.1610184E+04  0.7818609E-02  0.8814316E-01
        2   -1    0    0  501    0  0.00000000000E+00  0.00000000000E+00  0.10294937760E+04  0.10294937760E+04  0.25500000920E-02 0.  1.
       -2   -1    0    0    0  501  0.00000000000E+00  0.00000000000E+00 -0.62960393248E+03  0.62960393249E+03  0.25500000920E-02 0. -1.
    10030    2    1    2    0    0  0.00000000000E+00  0.00000000000E+00  0.39988984355E+03  0.16590977085E+04  0.16101842502E+04 0.  0.
        4    1    3    3  502    0  0.39691685625E+03  0.64217887776E+03  0.48814691139E+03  0.89901374951E+03  0.12699999809E+01 0.  1.
       -4    1    3    3    0  502 -0.39691685625E+03 -0.64217887776E+03 -0.88257067840E+02  0.76008395901E+03  0.12699999809E+01 0. -1.
</event>
<event>
 5   0  0.2796994E-04  0.1597870E+04  0.7818609E-02  0.8821858E-01
        1   -1    0    0  501    0  0.00000000000E+00  0.00000000000E+00  0.21261135752E+04  0.21261135752E+04  0.50400001928E-02 0. -1.
       -1   -1    0    0    0  501  0.00000000000E+00  0.00000000000E+00 -0.30021775955E+03  0.30021775959E+03  0.50400001928E-02 0.  1.
    10030    2    1    2    0    0  0.00000000000E+00  0.00000000000E+00  0.18258958157E+04  0.24263313348E+04  0.15978698998E+04 0.  0.
        3    1    3    3  502    0 -0.45320464284E+03 -0.42794160378E+03  0.16718357463E+04  0.17842542524E+04  0.10100000352E+00 0. -1.
       -3    1    3    3    0  502  0.45320464284E+03  0.42794160378E+03  0.15406006938E+03  0.64207708238E+03  0.10100000352E+00 0.  1.
</event>
<event>
 5   0  0.2649086E-04  0.1571911E+04  0.7818609E-02  0.8837992E-01
        1   -1    0    0  501    0  0.00000000000E+00  0.00000000000E+00  0.17670729795E+04  0.17670729795E+04  0.50400001928E-02 0.  1.
       -1   -1    0    0    0  501  0.00000000000E+00  0.00000000000E+00 -0.34957592808E+03  0.34957592812E+03  0.50400001928E-02 0. -1.
    10030    2    1    2    0    0  0.00000000000E+00  0.00000000000E+00  0.14174970514E+04  0.21166489076E+04  0.15719111639E+04 0.  0.
        2    1    3    3  502    0 -0.32194123417E+03  0.45922982789E+03  0.14501899064E+04  0.15548597871E+04  0.25500000920E-02 0.  1.
       -2    1    3    3    0  502  0.32194123417E+03 -0.45922982789E+03 -0.32692855004E+02  0.56178912045E+03  0.25500000920E-02 0. -1.
</event>
<event>
 5   0  0.2649086E-04  0.1607059E+04  0.7818609E-02  0.8816223E-01
       -1   -1    0    0    0  501  0.00000000000E+00  0.00000000000E+00  0.35867944898E+03  0.35867944901E+03  0.50400001928E-02 0.  1.
        1   -1    0    0  501    0  0.00000000000E+00  0.00000000000E+00 -0.18001030857E+04  0.18001030857E+04  0.50400001928E-02 0. -1.
    10030    2    1    2    0    0  0.00000000000E+00  0.00000000000E+00 -0.14414236367E+04  0.21587825347E+04  0.16070594052E+04 0.  0.
        2    1    3    3  502    0  0.78201634906E+03  0.18462776735E+03 -0.72715415078E+03  0.10836928263E+04  0.25500000920E-02 0.  1.
       -2    1    3    3    0  502 -0.78201634906E+03 -0.18462776735E+03 -0.71426948594E+03  0.10750897085E+04  0.25500000920E-02 0. -1.
</event>
<event>
 5   0  0.2689675E-04  0.1564799E+04  0.7818609E-02  0.8842470E-01
        1   -1    0    0  501    0  0.00000000000E+00  0.00000000000E+00  0.30660911608E+03  0.30660911613E+03  0.50400001928E-02 0. -1.
       -1   -1    0    0    0  501  0.00000000000E+00  0.00000000000E+00 -0.19965138675E+04  0.19965138676E+04  0.50400001928E-02 0.  1.
    10030    2    1    2    0    0  0.00000000000E+00  0.00000000000E+00 -0.16899047515E+04  0.23031229837E+04  0.15647994788E+04 0.  0.
        1    1    3    3  502    0  0.83939650564E+02 -0.70595477470E+03 -0.13257966227E+04  0.15043785075E+04  0.50400001928E-02 0.  1.
       -1    1    3    3    0  502 -0.83939650564E+02  0.70595477470E+03 -0.36410812874E+03  0.79874447622E+03  0.50400001928E-02 0. -1.
</event>
<event>
 5   0  0.2730707E-04  0.1615852E+04  0.7818609E-02  0.8810868E-01
       -1   -1    0    0    0  501  0.00000000000E+00  0.00000000000E+00  0.34005555872E+03  0.34005555876E+03  0.50400001928E-02 0. -1.
        1   -1    0    0  501    0  0.00000000000E+00  0.00000000000E+00 -0.19195221544E+04  0.19195221544E+04  0.50400001928E-02 0.  1.
    10030    2    1    2    0    0  0.00000000000E+00  0.00000000000E+00 -0.15794665957E+04  0.22595777132E+04  0.16158516996E+04 0.  0.
        5    1    3    3  502    0  0.10513783765E+03  0.23402766428E+03 -0.18610244871E+04  0.18786317212E+04  0.46999998093E+01 0.  1.
       -5    1    3    3    0  502 -0.10513783765E+03 -0.23402766428E+03  0.28155789140E+03  0.38094599193E+03  0.46999998093E+01 0. -1.
</event>
<event>
 5   0  0.2649086E-04  0.1607454E+04  0.7818609E-02  0.8815982E-01
        1   -1    0    0  501    0  0.00000000000E+00  0.00000000000E+00  0.76833856757E+03  0.76833856758E+03  0.50400001928E-02 0. -1.
       -1   -1    0    0    0  501  0.00000000000E+00  0.00000000000E+00 -0.84074561188E+03  0.84074561189E+03  0.50400001928E-02 0.  1.
    10030    2    1    2    0    0  0.00000000000E+00  0.00000000000E+00 -0.72407044311E+02  0.16090841795E+04  0.16074542347E+04 0.  0.
        2    1    3    3  502    0  0.52055572563E+03 -0.12464943202E+03  0.56395552856E+03  0.77753558285E+03  0.25500000920E-02 0. -1.
       -2    1    3    3    0  502 -0.52055572563E+03  0.12464943202E+03 -0.63636257287E+03  0.83154859663E+03  0.25500000920E-02 0.  1.
</event>
<event>
 5   0  0.5083831E-04  0.1617672E+04  0.7818609E-02  0.8809764E-01
       -2   -1    0    0    0  501  0.00000000000E+00  0.00000000000E+00  0.19521242739E+03  0.19521242741E+03  0.25500000920E-02 0.  1.
        2   -1    0    0  501    0  0.00000000000E+00  0.00000000000E+00 -0.33513018025E+04  0.33513018025E+04  0.25500000920E-02 0. -1.
    10030    2    1    2    0    0  0.00000000000E+00  0.00000000000E+00 -0.31560893752E+04  0.35465142300E+04  0.16176721050E+04 0.  0.
        4    1    3    3  502    0  0.74213380257E+02  0.18312021600E+03  0.14148636202E+03  0.24302395531E+03  0.12699999809E+01 0.  1.
       -4    1    3    3    0  502 -0.74213380257E+02 -0.18312021600E+03 -0.32975757372E+04  0.33034902746E+04  0.12699999809E+01 0. -1.
</event>
<event>
 5   0  0.5083831E-04  0.1608736E+04  0.7818609E-02  0.8815199E-01
        2   -1    0    0  501    0  0.00000000000E+00  0.00000000000E+00  0.85117722443E+03  0.85117722443E+03  0.25500000920E-02 0.  1.
       -2   -1    0    0    0  501  0.00000000000E+00  0.00000000000E+00 -0.76013332537E+03  0.76013332537E+03  0.25500000920E-02 0. -1.
    10030    2    1    2    0    0  0.00000000000E+00  0.00000000000E+00  0.91043899060E+02  0.16113105498E+04  0.16087363663E+04 0.  0.
        4    1    3    3  502    0  0.69330647124E+03  0.33883845423E+03 -0.18182407080E+03  0.79280954003E+03  0.12699999809E+01 0. -1.
       -4    1    3    3    0  502 -0.69330647124E+03 -0.33883845423E+03  0.27286796986E+03  0.81850100978E+03  0.12699999809E+01 0.  1.
</event>
<event>
 5   0  0.5131239E-04  0.1639884E+04  0.7818609E-02  0.8796413E-01
       -2   -1    0    0    0  501  0.00000000000E+00  0.00000000000E+00  0.11289334849E+04  0.11289334849E+04  0.25500000920E-02 0. -1.
        2   -1    0    0  501    0  0.00000000000E+00  0.00000000000E+00 -0.59552227977E+03  0.59552227977E+03  0.25500000920E-02 0.  1.
    10030    2    1    2    0    0  0.00000000000E+00  0.00000000000E+00  0.53341120516E+03  0.17244557647E+04  0.16398841943E+04 0.  0.
        1    1    3    3  502    0 -0.44216742723E+03  0.66186527018E+03  0.47364724804E+03  0.92623937790E+03  0.50400001928E-02 0. -1.
       -1    1    3    3    0  502  0.44216742723E+03 -0.66186527018E+03  0.59763957125E+02  0.79821638681E+03  0.50400001928E-02 0.  1.
</event>
<event>
 5   0  0.2763895E-04  0.1595024E+04  0.7818609E-02  0.8823611E-01
        1   -1    0    0  501    0  0.00000000000E+00  0.00000000000E+00  0.12226486824E+04  0.12226486824E+04  0.50400001928E-02 0. -1.
       -1   -1    0    0    0  501  0.00000000000E+00  0.00000000000E+00 -0.52020276228E+03  0.52020276230E+03  0.50400001928E-02 0.  1.
    10030    2    1    2    0    0  0.00000000000E+00  0.00000000000E+00  0.70244592015E+03  0.17428514447E+04  0.15950237891E+04 0.  0.
        4    1    3    3  502    0  0.52070969925E+03 -0.49507107968E+03  0.72940669231E+03  0.10238504288E+04  0.12699999809E+01 0. -1.
       -4    1    3    3    0  502 -0.52070969925E+03  0.49507107968E+03 -0.26960772156E+02  0.71900101597E+03  0.12699999809E+01 0.  1.
</event>
<event>
 5   0  0.2763895E-04  0.1610579E+04  0.7818609E-02  0.8814075E-01
        1   -1    0    0  501    0  0.00000000000E+00  0.00000000000E+00  0.14352224317E+04  0.14352224318E+04  0.50400001928E-02 0.  1.
       -1   -1    0    0    0  501  0.00000000000E+00  0.00000000000E+00 -0.45183996613E+03  0.45183996615E+03  0.50400001928E-02 0. -1.
    10030    2    1    2    0    0  0.00000000000E+00  0.00000000000E+00  0.98338246562E+03  0.18870623979E+04  0.16105785979E+04 0.  0.
        4    1    3    3  502    0 -0.74441256254E+03 -0.12780591629E+03  0.16445221915E+03  0.77300100957E+03  0.12699999809E+01 0. -1.
       -4    1    3    3    0  502  0.74441256254E+03  0.12780591629E+03  0.81893024647E+03  0.11140613883E+04  0.12699999809E+01 0.  1.
</event>
<event>
 5   0  0.5381164E-04  0.1587258E+04  0.7818609E-02  0.8828414E-01
        2   -1    0    0  501    0  0.00000000000E+00  0.00000000000E+00  0.15009973304E+04  0.15009973305E+04  0.25500000920E-02 0.  1.
       -2   -1    0    0    0  501  0.00000000000E+00  0.00000000000E+00 -0.41961890194E+03  0.41961890195E+03  0.25500000920E-02 0. -1.
    10030    2    1    2    0    0  0.00000000000E+00  0.00000000000E+00  0.10813784285E+04  0.19206162324E+04  0.15872578261E+04 0.  0.
        5    1    3    3  502    0 -0.30556312919E+03  0.55864975958E+03  0.11138441151E+04  0.12830156595E+04  0.46999998093E+01 0.  1.
       -5    1    3    3    0  502  0.30556312919E+03 -0.55864975958E+03 -0.32465686553E+02  0.63760057293E+03  0.46999998093E+01 0. -1.
</event>
<event>
 5   0  0.2730707E-04  0.1600453E+04  0.7818609E-02  0.8820270E-01
       -1   -1    0    0    0  501  0.00000000000E+00  0.00000000000E+00  0.82220761625E+03  0.82220761627E+03  0.50400001928E-02 0.  1.
        1   -1    0    0  501    0  0.00000000000E+00  0.00000000000E+00 -0.77883292410E+03  0.77883292411E+03  0.50400001928E-02 0. -1.
    10030    2    1    2    0    0  0.00000000000E+00  0.00000000000E+00  0.43374692154E+02  0.16010405404E+04  0.16004528884E+04 0.  0.
        5    1    3    3  502    0 -0.39742558857E+03  0.49086777324E+03  0.51323524807E+03  0.81383707160E+03  0.46999998093E+01 0.  1.
       -5    1    3    3    0  502  0.39742558857E+03 -0.49086777324E+03 -0.46986055591E+03  0.78720346878E+03  0.46999998093E+01 0. -1.
</event>
<event>
 5   0  0.1908125E-04  0.1595682E+04  0.7818609E-02  0.8823205E-01
       -3   -1    0    0    0  501  0.00000000000E+00  0.00000000000E+00  0.70865126887E+03  0.70865127607E+03  0.10100000352E+00 0.  1.
        3   -1    0    0  501    0  0.00000000000E+00  0.00000000000E+00 -0.89825575085E+03  0.89825575653E+03  0.10100000352E+00 0. -1.
    10030    2    1    2    0    0  0.00000000000E+00  0.00000000000E+00 -0.18960448198E+03  0.16069070326E+04  0.15956817828E+04 0.  0.
        2    1    3    3  502    0  0.61594820911E+03 -0.40435696577E+03  0.21337892230E+03  0.76709016195E+03  0.25500000920E-02 0.  1.
       -2    1    3    3    0  502 -0.61594820911E+03  0.40435696577E+03 -0.40298340428E+03  0.83981687064E+03  0.25500000920E-02 0. -1.
</event>
<event>
 5   0  0.5315984E-04  0.1591247E+04  0.7818609E-02  0.8825944E-01
        2   -1    0    0  501    0  0.00000000000E+00  0.00000000000E+00  0.12769368587E+04  0.12769368587E+04  0.25500000920E-02 0. -1.
       -2   -1    0    0    0  501  0.00000000000E+00  0.00000000000E+00 -0.49573047212E+03  0.49573047213E+03  0.25500000920E-02 0.  1.
    10030    2    1    2    0    0  0.00000000000E+00  0.00000000000E+00  0.78120638656E+03  0.17726673308E+04  0.15912466959E+04 0.  0.
        2    1    3    3  502    0 -0.27018724534E+03 -0.34329287206E+02  0.12233869575E+04  0.12533376621E+04  0.25500000920E-02 0. -1.
       -2    1    3    3    0  502  0.27018724534E+03  0.34329287206E+02 -0.44218057092E+03  0.51932966872E+03  0.25500000920E-02 0.  1.
</event>
<event>
 5   0  0.2796994E-04  0.1570191E+04  0.7818609E-02  0.8839073E-01
        1   -1    0    0  501    0  0.00000000000E+00  0.00000000000E+00  0.96830215096E+03  0.96830215097E+03  0.50400001928E-02 0.  1.
       -1   -1    0    0    0  501  0.00000000000E+00  0.00000000000E+00 -0.63655210810E+03  0.63655210812E+03  0.50400001928E-02 0. -1.
    10030    2    1    2    0    0  0.00000000000E+00  0.00000000000E+00  0.33175004286E+03  0.16048542591E+04  0.15701907852E+04 0.  0.
        3    1    3    3  502    0 -0.50455246957E+03 -0.59481477836E+03  0.25727484773E+03  0.82132099241E+03  0.10100000352E+00 0.  1.
       -3    1    3    3    0  502  0.50455246957E+03  0.59481477836E+03  0.74475195123E+02  0.78353326668E+03  0.10100000352E+00 0. -1.
</event>
<event>
 5   0  0.5264308E-04  0.1587200E+04  0.7818609E-02  0.8828450E-01
        2   -1    0    0  501    0  0.00000000000E+00  0.00000000000E+00  0.83227811889E+03  0.83227811889E+03  0.25500000920E-02 0.  1.
       -2   -1    0    0    0  501  0.00000000000E+00  0.00000000000E+00 -0.75671945207E+03  0.75671945208E+03  0.25500000920E-02 0. -1.
    10030    2    1    2    0    0  0.00000000000E+00  0.00000000000E+00  0.75558666814E+02  0.15889975710E+04  0.15872001035E+04 0.  0.
        3    1    3    3  502    0 -0.51592889436E+03 -0.38009518727E+03 -0.43088119752E+03  0.77221343681E+03  0.10100000352E+00 0. -1.
       -3    1    3    3    0  502  0.51592889436E+03  0.38009518727E+03  0.50643986433E+03  0.81678413415E+03  0.10100000352E+00 0.  1.
</event>
<event>
 5   0  0.5083831E-04  0.1595785E+04  0.7818609E-02  0.8823141E-01
       -2   -1    0    0    0  501  0.00000000000E+00  0.00000000000E+00  0.28821403803E+03  0.28821403804E+03  0.25500000920E-02 0.  1.
        2   -1    0    0  501    0  0.00000000000E+00  0.00000000000E+00 -0.22088886571E+04  0.22088886571E+04  0.25500000920E-02 0. -1.
    10030    2    1    2    0    0  0.00000000000E+00  0.00000000000E+00 -0.19206746191E+04  0.24971026951E+04  0.15957853483E+04 0.  0.
        4    1    3    3  502    0  0.53724317460E+03 -0.29384332546E+03 -0.17607760330E+04  0.18642177930E+04  0.12699999809E+01 0. -1.
       -4    1    3    3    0  502 -0.53724317460E+03  0.29384332546E+03 -0.15989858606E+03  0.63288490209E+03  0.12699999809E+01 0.  1.
</event>
<event>
 5   0  0.5083831E-04  0.1565356E+04  0.7818609E-02  0.8842118E-01
        2   -1    0    0  501    0  0.00000000000E+00  0.00000000000E+00  0.13060289293E+04  0.13060289293E+04  0.25500000920E-02 0. -1.
       -2   -1    0    0    0  501  0.00000000000E+00  0.00000000000E+00 -0.46904401233E+03  0.46904401234E+03  0.25500000920E-02 0.  1.
    10030    2    1    2    0    0  0.00000000000E+00  0.00000000000E+00  0.83698491699E+03  0.17750729417E+04  0.15653562524E+04 0.  0.
        4    1    3    3  502    0  0.33848308043E+03  0.65317621123E+03  0.72144279611E+03  0.10303840447E+04  0.12699999809E+01 0. -1.
       -4    1    3    3    0  502 -0.33848308043E+03 -0.65317621123E+03  0.11554212088E+03  0.74468889695E+03  0.12699999809E+01 0.  1.
</event>
<event>
 5   0  0.2649086E-04  0.1607889E+04  0.7818609E-02  0.8815716E-01
       -1   -1    0    0    0  501  0.00000000000E+00  0.00000000000E+00  0.56789295833E+03  0.56789295835E+03  0.50400001928E-02 0.  1.
        1   -1    0    0  501    0  0.00000000000E+00  0.00000000000E+00 -0.11381139972E+04  0.11381139973E+04  0.50400001928E-02 0. -1.
    10030    2    1    2    0    0  0.00000000000E+00  0.00000000000E+00 -0.57022103891E+03  0.17060069556E+04  0.16078892062E+04 0.  0.
        2    1    3    3  502    0  0.14208435722E+02  0.77012513087E+03 -0.40770263950E+02  0.77133443543E+03  0.25500000920E-02 0.  1.
       -2    1    3    3    0  502 -0.14208435722E+02 -0.77012513087E+03 -0.52945077496E+03  0.93467252017E+03  0.25500000920E-02 0. -1.
</event>
<event>
 5   0  0.5131239E-04  0.1598448E+04  0.7818609E-02  0.8821502E-01
       -2   -1    0    0    0  501  0.00000000000E+00  0.00000000000E+00  0.49271183417E+03  0.49271183417E+03  0.25500000920E-02 0.  1.
        2   -1    0    0  501    0  0.00000000000E+00  0.00000000000E+00 -0.12964155718E+04  0.12964155718E+04  0.25500000920E-02 0. -1.
    10030    2    1    2    0    0  0.00000000000E+00  0.00000000000E+00 -0.80370373761E+03  0.17891274060E+04  0.15984483654E+04 0.  0.
        1    1    3    3  502    0 -0.60253422573E+03  0.37272051194E+03  0.12120895615E+02  0.70860072632E+03  0.50400001928E-02 0.  1.
       -1    1    3    3    0  502  0.60253422573E+03 -0.37272051194E+03 -0.81582463322E+03  0.10805266796E+04  0.50400001928E-02 0. -1.
</event>
<event>
 5   0  0.2689675E-04  0.1550145E+04  0.7818609E-02  0.8851775E-01
       -1   -1    0    0    0  501  0.00000000000E+00  0.00000000000E+00  0.39417869665E+03  0.39417869668E+03  0.50400001928E-02 0. -1.
        1   -1    0    0  501    0  0.00000000000E+00  0.00000000000E+00 -0.15240233909E+04  0.15240233909E+04  0.50400001928E-02 0.  1.
    10030    2    1    2    0    0  0.00000000000E+00  0.00000000000E+00 -0.11298446943E+04  0.19182020876E+04  0.15501452241E+04 0.  0.
        1    1    3    3  502    0  0.35484581718E+03  0.30157554459E+03 -0.13316063996E+04  0.14106874092E+04  0.50400001928E-02 0.  1.
       -1    1    3    3    0  502 -0.35484581718E+03 -0.30157554459E+03  0.20176170529E+03  0.50751467842E+03  0.50400001928E-02 0. -1.
</event>
<event>
 5   0  0.2730707E-04  0.1611021E+04  0.7818609E-02  0.8813806E-01
        1   -1    0    0  501    0  0.00000000000E+00  0.00000000000E+00  0.67365580269E+03  0.67365580271E+03  0.50400001928E-02 0.  1.
       -1   -1    0    0    0  501  0.00000000000E+00  0.00000000000E+00 -0.96317263186E+03  0.96317263188E+03  0.50400001928E-02 0. -1.
    10030    2    1    2    0    0  0.00000000000E+00  0.00000000000E+00 -0.28951682917E+03  0.16368284346E+04  0.16110205864E+04 0.  0.
        5    1    3    3  502    0  0.72755836859E+01  0.63066689869E+03  0.36429787831E+03  0.72837401474E+03  0.46999998093E+01 0.  1.
       -5    1    3    3    0  502 -0.72755836859E+01 -0.63066689869E+03 -0.65381470748E+03  0.90845441984E+03  0.46999998093E+01 0. -1.
</event>
<event>
 5   0  0.5131239E-04  0.1607027E+04  0.7818609E-02  0.8816242E-01
       -2   -1    0    0    0  501  0.00000000000E+00  0.00000000000E+00  0.85863457185E+03  0.85863457185E+03  0.25500000920E-02 0. -1.
        2   -1    0    0  501    0  0.00000000000E+00  0.00000000000E+00 -0.75193131523E+03  0.75193131523E+03  0.25500000920E-02 0.  1.
    10030    2    1    2    0    0  0.00000000000E+00  0.00000000000E+00  0.10670325662E+03  0.16105658871E+04  0.16070273463E+04 0.  0.
        1    1    3    3  502    0  0.65825719373E+02 -0.13675027066E+03  0.84413946913E+03  0.85767424190E+03  0.50400001928E-02 0. -1.
       -1    1    3    3    0  502 -0.65825719373E+02  0.13675027066E+03 -0.73743621250E+03  0.75289164518E+03  0.50400001928E-02 0.  1.
</event>
<event>
 5   0  0.2730707E-04  0.1602089E+04  0.7818609E-02  0.8819266E-01
        1   -1    0    0  501    0  0.00000000000E+00  0.00000000000E+00  0.12845043763E+04  0.12845043763E+04  0.50400001928E-02 0. -1.
       -1   -1    0    0    0  501  0.00000000000E+00  0.00000000000E+00 -0.49954866885E+03  0.49954866888E+03  0.50400001928E-02 0.  1.
    10030    2    1    2    0    0  0.00000000000E+00  0.00000000000E+00  0.78495570742E+03  0.17840530452E+04  0.16020892002E+04 0.  0.
        5    1    3    3  502    0 -0.37639963222E+03  0.16383753586E+01 -0.39491863703E+03  0.54558426231E+03  0.46999998093E+01 0.  1.
       -5    1    3    3    0  502  0.37639963222E+03 -0.16383753586E+01  0.11798743445E+04  0.12384687829E+04  0.46999998093E+01 0. -1.
</event>
<event>
 5   0  0.2796994E-04  0.1615442E+04  0.7818609E-02  0.8811117E-01
       -1   -1    0    0    0  501  0.00000000000E+00  0.00000000000E+00  0.43951526795E+03  0.43951526798E+03  0.50400001928E-02 0. -1.
        1   -1    0    0  501    0  0.00000000000E+00  0.00000000000E+00 -0.14843932937E+04  0.14843932937E+04  0.50400001928E-02 0.  1.
    10030    2    1    2    0    0  0.00000000000E+00  0.00000000000E+00 -0.10448780257E+04  0.19239085617E+04  0.16154423744E+04 0.  0.
        3    1    3    3  502    0  0.33313149198E+03 -0.30947614082E+02 -0.13979919985E+04  0.14374686027E+04  0.10100000352E+00 0.  1.
       -3    1    3    3    0  502 -0.33313149198E+03  0.30947614082E+02  0.35311397272E+03  0.48643995898E+03  0.10100000352E+00 0. -1.
</event>
<event>
 5   0  0.2763895E-04  0.1853068E+04  0.7818609E-02  0.8678576E-01
       -1   -1    0    0    0  501  0.00000000000E+00  0.00000000000E+00  0.68063237613E+03  0.68063237614E+03  0.50400001928E-02 0. -1.
        1   -1    0    0  501    0  0.00000000000E+00  0.00000000000E+00 -0.12612765651E+04  0.12612765651E+04  0.50400001928E-02 0.  1.
    10030    2    1    2    0    0  0.00000000000E+00  0.00000000000E+00 -0.58064418900E+03  0.19419089413E+04  0.18530684450E+04 0.  0.
        4    1    3    3  502    0  0.89802056504E+03 -0.12140330012E+03 -0.87973252129E+02  0.91045076886E+03  0.12699999809E+01 0. -1.
       -4    1    3    3    0  502 -0.89802056504E+03  0.12140330012E+03 -0.49267093687E+03  0.10314581724E+04  0.12699999809E+01 0.  1.
</event>
<event>
 5   0  0.5381164E-04  0.1629490E+04  0.7818609E-02  0.8802633E-01
        2   -1    0    0  501    0  0.00000000000E+00  0.00000000000E+00  0.46037105278E+03  0.46037105279E+03  0.25500000920E-02 0. -1.
       -2   -1    0    0    0  501  0.00000000000E+00  0.00000000000E+00 -0.14419010469E+04  0.14419010469E+04  0.25500000920E-02 0.  1.
    10030    2    1    2    0    0  0.00000000000E+00  0.00000000000E+00 -0.98152999415E+03  0.19022720997E+04  0.16294901080E+04 0.  0.
        5    1    3    3  502    0 -0.62445335407E+03 -0.51218394935E+03 -0.61602592007E+03  0.10157678936E+04  0.46999998093E+01 0.  1.
       -5    1    3    3    0  502  0.62445335407E+03  0.51218394935E+03 -0.36550407409E+03  0.88650420617E+03  0.46999998093E+01 0. -1.
</event>
<event>
 5   0  0.5131239E-04  0.1585611E+04  0.7818609E-02  0.8829437E-01
        2   -1    0    0  501    0  0.00000000000E+00  0.00000000000E+00  0.56361654862E+03  0.56361654863E+03  0.25500000920E-02 0.  1.
       -2   -1    0    0    0  501  0.00000000000E+00  0.00000000000E+00 -0.11151924401E+04  0.11151924401E+04  0.25500000920E-02 0. -1.
    10030    2    1    2    0    0  0.00000000000E+00  0.00000000000E+00 -0.55157589150E+03  0.16788089887E+04  0.15856114457E+04 0.  0.
        1    1    3    3  502    0 -0.65192129261E+03 -0.21541820741E+03  0.14391337962E+03  0.70151082436E+03  0.50400001928E-02 0.  1.
       -1    1    3    3    0  502  0.65192129261E+03  0.21541820741E+03 -0.69548927112E+03  0.97729816438E+03  0.50400001928E-02 0. -1.
</event>
<event>
 5   0  0.2649086E-04  0.1582374E+04  0.7818609E-02  0.8831450E-01
        1   -1    0    0  501    0  0.00000000000E+00  0.00000000000E+00  0.40673887219E+03  0.40673887222E+03  0.50400001928E-02 0. -1.
       -1   -1    0    0    0  501  0.00000000000E+00  0.00000000000E+00 -0.15390137025E+04  0.15390137025E+04  0.50400001928E-02 0.  1.
    10030    2    1    2    0    0  0.00000000000E+00  0.00000000000E+00 -0.11322748303E+04  0.19457525747E+04  0.15823737835E+04 0.  0.
        2    1    3    3  502    0 -0.59076683611E+03  0.35846770279E+03 -0.92330895687E+02  0.69715819073E+03  0.25500000920E-02 0. -1.
       -2    1    3    3    0  502  0.59076683611E+03 -0.35846770279E+03 -0.10399439346E+04  0.12485943840E+04  0.25500000920E-02 0.  1.
</event>
<event>
 5   0  0.2730707E-04  0.1578403E+04  0.7818609E-02  0.8833927E-01
       -1   -1    0    0    0  501  0.00000000000E+00  0.00000000000E+00  0.45490340334E+03  0.45490340337E+03  0.50400001928E-02 0. -1.
        1   -1    0    0  501    0  0.00000000000E+00  0.00000000000E+00 -0.13691678584E+04  0.13691678584E+04  0.50400001928E-02 0.  1.
    10030    2    1    2    0    0  0.00000000000E+00  0.00000000000E+00 -0.91426445506E+03  0.18240712618E+04  0.15784031406E+04 0.  0.
        5    1    3    3  502    0  0.16977845775E+03 -0.42301865748E+03  0.28738161340E+03  0.53886899244E+03  0.46999998093E+01 0. -1.
       -5    1    3    3    0  502 -0.16977845775E+03  0.42301865748E+03 -0.12016460685E+04  0.12852022693E+04  0.46999998093E+01 0.  1.
</event>
<event>
 5   0  0.5264308E-04  0.1583695E+04  0.7818609E-02  0.8830628E-01
       -2   -1    0    0    0  501  0.00000000000E+00  0.00000000000E+00  0.31798434032E+03  0.31798434033E+03  0.25500000920E-02 0.  1.
        2   -1    0    0  501    0  0.00000000000E+00  0.00000000000E+00 -0.19718652808E+04  0.19718652808E+04  0.25500000920E-02 0. -1.
    10030    2    1    2    0    0  0.00000000000E+00  0.00000000000E+00 -0.16538809404E+04  0.22898496211E+04  0.15836947692E+04 0.  0.
        3    1    3    3  502    0 -0.18601191459E+03 -0.58094929464E+03 -0.15569646184E+04  0.16721965640E+04  0.10100000352E+00 0.  1.
       -3    1    3    3    0  502  0.18601191459E+03  0.58094929464E+03 -0.96916322018E+02  0.61765305714E+03  0.10100000352E+00 0. -1.
</event>
<event>
 5   0  0.5131239E-04  0.1589704E+04  0.7818609E-02  0.8826898E-01
        2   -1    0    0  501    0  0.00000000000E+00  0.00000000000E+00  0.11007969436E+04  0.11007969436E+04  0.25500000920E-02 0.  1.
       -2   -1    0    0    0  501  0.00000000000E+00  0.00000000000E+00 -0.57393855429E+03  0.57393855429E+03  0.25500000920E-02 0. -1.
    10030    2    1    2    0    0  0.00000000000E+00  0.00000000000E+00  0.52685838932E+03  0.16747354979E+04  0.15897041314E+04 0.  0.
        1    1    3    3  502    0 -0.16643541533E+03 -0.68394636493E+02 -0.55219924666E+03  0.58077756655E+03  0.50400001928E-02 0. -1.
       -1    1    3    3    0  502  0.16643541533E+03  0.68394636493E+02  0.10790576360E+04  0.10939579314E+04  0.50400001928E-02 0.  1.
</event>
<event>
 5   0  0.1908125E-04  0.1583527E+04  0.7818609E-02  0.8830732E-01
        3   -1    0    0  501    0  0.00000000000E+00  0.00000000000E+00  0.45975326446E+03  0.45975327556E+03  0.10100000352E+00 0.  1.
       -3   -1    0    0    0  501  0.00000000000E+00  0.00000000000E+00 -0.13635349539E+04  0.13635349577E+04  0.10100000352E+00 0. -1.
    10030    2    1    2    0    0  0.00000000000E+00  0.00000000000E+00 -0.90378168946E+03  0.18232882332E+04  0.15835272777E+04 0.  0.
        4    1    3    3  502    0 -0.73613315749E+03  0.21724050432E+03 -0.22802361377E+03  0.80067586676E+03  0.12699999809E+01 0.  1.
       -4    1    3    3    0  502  0.73613315749E+03 -0.21724050432E+03 -0.67575807569E+03  0.10226123665E+04  0.12699999809E+01 0. -1.
</event>
<event>
 5   0  0.2649086E-04  0.1588118E+04  0.7818609E-02  0.8827881E-01
        1   -1    0    0  501    0  0.00000000000E+00  0.00000000000E+00  0.80298628516E+03  0.80298628518E+03  0.50400001928E-02 0.  1.
       -1   -1    0    0    0  501  0.00000000000E+00  0.00000000000E+00 -0.78523116790E+03  0.78523116791E+03  0.50400001928E-02 0. -1.
    10030    2    1    2    0    0  0.00000000000E+00  0.00000000000E+00  0.17755117270E+02  0.15882174531E+04  0.15881182053E+04 0.  0.
        2    1    3    3  502    0 -0.55124648589E+03  0.53607846198E+03  0.20707433517E+03  0.79632442252E+03  0.25500000920E-02 0.  1.
       -2    1    3    3    0  502  0.55124648589E+03 -0.53607846198E+03 -0.18931921790E+03  0.79189303058E+03  0.25500000920E-02 0. -1.
</event>
<event>
 5   0  0.2730707E-04  0.1615228E+04  0.7818609E-02  0.8811247E-01
        1   -1    0    0  501    0  0.00000000000E+00  0.00000000000E+00  0.13250118114E+04  0.13250118114E+04  0.50400001928E-02 0. -1.
       -1   -1    0    0    0  501  0.00000000000E+00  0.00000000000E+00 -0.49225221087E+03  0.49225221090E+03  0.50400001928E-02 0.  1.
    10030    2    1    2    0    0  0.00000000000E+00  0.00000000000E+00  0.83275960050E+03  0.18172640223E+04  0.16152275302E+04 0.  0.
        5    1    3    3  502    0 -0.77668642031E+03  0.20225898315E+03  0.51743331776E+03  0.95493969447E+03  0.46999998093E+01 0. -1.
       -5    1    3    3    0  502  0.77668642031E+03 -0.20225898315E+03  0.31532628274E+03  0.86232432781E+03  0.46999998093E+01 0.  1.
</event>
<event>
 5   0  0.2649086E-04  0.1553923E+04  0.7818609E-02  0.8849366E-01
       -1   -1    0    0    0  501  0.00000000000E+00  0.00000000000E+00  0.44523602034E+03  0.44523602037E+03  0.50400001928E-02 0.  1.
        1   -1    0    0  501    0  0.00000000000E+00  0.00000000000E+00 -0.13558406511E+04  0.13558406511E+04  0.50400001928E-02 0. -1.
    10030    2    1    2    0    0  0.00000000000E+00  0.00000000000E+00 -0.91060463072E+03  0.18010766714E+04  0.15539229012E+04 0.  0.
        2    1    3    3  502    0  0.73882564704E+03  0.14985416343E+03 -0.67322091631E+03  0.10107155926E+04  0.25500000920E-02 0. -1.
       -2    1    3    3    0  502 -0.73882564704E+03 -0.14985416343E+03 -0.23738371441E+03  0.79036107881E+03  0.25500000920E-02 0.  1.
</event>
<event>
 5   0  0.2730707E-04  0.1595450E+04  0.7818609E-02  0.8823348E-01
        1   -1    0    0  501    0  0.00000000000E+00  0.00000000000E+00  0.80556293800E+03  0.80556293802E+03  0.50400001928E-02 0. -1.
       -1   -1    0    0    0  501  0.00000000000E+00  0.00000000000E+00 -0.78996337917E+03  0.78996337919E+03  0.50400001928E-02 0.  1.
    10030    2    1    2    0    0  0.00000000000E+00  0.00000000000E+00  0.15599558833E+02  0.15955263172E+04  0.15954500565E+04 0.  0.
        5    1    3    3  502    0 -0.75016166059E+03 -0.20643890614E+03 -0.16823020018E+03  0.79604210268E+03  0.46999998093E+01 0.  1.
       -5    1    3    3    0  502  0.75016166059E+03  0.20643890614E+03  0.18382975901E+03  0.79948421453E+03  0.46999998093E+01 0. -1.
</event>
<event>
 5   0  0.2649086E-04  0.1598993E+04  0.7818609E-02  0.8821167E-01
        1   -1    0    0  501    0  0.00000000000E+00  0.00000000000E+00  0.20755083455E+04  0.20755083456E+04  0.50400001928E-02 0. -1.
       -1   -1    0    0    0  501  0.00000000000E+00  0.00000000000E+00 -0.30797010347E+03  0.30797010351E+03  0.50400001928E-02 0.  1.
    10030    2    1    2    0    0  0.00000000000E+00  0.00000000000E+00  0.17675382421E+04  0.23834784491E+04  0.15989928330E+04 0.  0.
        2    1    3    3  502    0  0.53553008141E+02  0.78033766220E+03  0.63703009841E+03  0.10087626768E+04  0.25500000920E-02 0. -1.
       -2    1    3    3    0  502 -0.53553008141E+02 -0.78033766220E+03  0.11305081437E+04  0.13747157723E+04  0.25500000920E-02 0.  1.
</event>
<event>
 5   0  0.5264308E-04  0.1659464E+04  0.7818609E-02  0.8784827E-01
        2   -1    0    0  501    0  0.00000000000E+00  0.00000000000E+00  0.10359435643E+04  0.10359435643E+04  0.25500000920E-02 0.  1.
       -2   -1    0    0    0  501  0.00000000000E+00  0.00000000000E+00 -0.66456821417E+03  0.66456821418E+03  0.25500000920E-02 0. -1.
    10030    2    1    2    0    0  0.00000000000E+00  0.00000000000E+00  0.37137535009E+03  0.17005117784E+04  0.16594639671E+04 0.  0.
        3    1    3    3  502    0  0.35926313706E+03 -0.74089422966E+03  0.80879248888E+02  0.82736674111E+03  0.10100000352E+00 0. -1.
       -3    1    3    3    0  502 -0.35926313706E+03  0.74089422966E+03  0.29049610121E+03  0.87314503733E+03  0.10100000352E+00 0.  1.
</event>
<event>
 5   0  0.5315984E-04  0.1617609E+04  0.7818609E-02  0.8809803E-01
       -2   -1    0    0    0  501  0.00000000000E+00  0.00000000000E+00  0.66153491356E+03  0.66153491356E+03  0.25500000920E-02 0. -1.
        2   -1    0    0  501    0  0.00000000000E+00  0.00000000000E+00 -0.98885869735E+03  0.98885869735E+03  0.25500000920E-02 0.  1.
    10030    2    1    2    0    0  0.00000000000E+00  0.00000000000E+00 -0.32732378379E+03  0.16503936109E+04  0.16176087943E+04 0.  0.
        2    1    3    3  502    0  0.68046157739E+03  0.19025737663E+03 -0.56526218726E+03  0.90484648865E+03  0.25500000920E-02 0.  1.
       -2    1    3    3    0  502 -0.68046157739E+03 -0.19025737663E+03  0.23793840347E+03  0.74554712226E+03  0.25500000920E-02 0. -1.
</event>
<event>
 5   0  0.5131239E-04  0.1607654E+04  0.7818609E-02  0.8815860E-01
        2   -1    0    0  501    0  0.00000000000E+00  0.00000000000E+00  0.61555091667E+03  0.61555091668E+03  0.25500000920E-02 0.  1.
       -2   -1    0    0    0  501  0.00000000000E+00  0.00000000000E+00 -0.10496896919E+04  0.10496896919E+04  0.25500000920E-02 0. -1.
    10030    2    1    2    0    0  0.00000000000E+00  0.00000000000E+00 -0.43413877522E+03  0.16652406086E+04  0.16076535100E+04 0.  0.
        1    1    3    3  502    0 -0.18981504362E+02  0.80354928580E+03 -0.22665841397E+03  0.83512022420E+03  0.50400001928E-02 0.  1.
       -1    1    3    3    0  502  0.18981504362E+02 -0.80354928580E+03 -0.20748036125E+03  0.83012038437E+03  0.50400001928E-02 0. -1.
</event>
<event>
 5   0  0.2649086E-04  0.1575059E+04  0.7818609E-02  0.8836019E-01
       -1   -1    0    0    0  501  0.00000000000E+00  0.00000000000E+00  0.42063151595E+03  0.42063151598E+03  0.50400001928E-02 0. -1.
        1   -1    0    0  501    0  0.00000000000E+00  0.00000000000E+00 -0.14744555354E+04  0.14744555354E+04  0.50400001928E-02 0.  1.
    10030    2    1    2    0    0  0.00000000000E+00  0.00000000000E+00 -0.10538240195E+04  0.18950870514E+04  0.15750586873E+04 0.  0.
        2    1    3    3  502    0  0.16444185798E+03  0.53973916918E+03  0.13412071164E+03  0.57995505058E+03  0.25500000920E-02 0. -1.
       -2    1    3    3    0  502 -0.16444185798E+03 -0.53973916918E+03 -0.11879447311E+04  0.13151320008E+04  0.25500000920E-02 0.  1.
</event>
<event>
 5   0  0.5083831E-04  0.1588164E+04  0.7818609E-02  0.8827853E-01
       -2   -1    0    0    0  501  0.00000000000E+00  0.00000000000E+00  0.96737097167E+03  0.96737097167E+03  0.25500000920E-02 0.  1.
        2   -1    0    0  501    0  0.00000000000E+00  0.00000000000E+00 -0.65183476327E+03  0.65183476327E+03  0.25500000920E-02 0. -1.
    10030    2    1    2    0    0  0.00000000000E+00  0.00000000000E+00  0.31553620840E+03  0.16192057349E+04  0.15881637552E+04 0.  0.
        4    1    3    3  502    0 -0.17097970824E+03  0.36707871858E+03 -0.53865227842E+03  0.67389074501E+03  0.12699999809E+01 0. -1.
       -4    1    3    3    0  502  0.17097970824E+03 -0.36707871858E+03  0.85418848683E+03  0.94531498993E+03  0.12699999809E+01 0.  1.
</event>
<event>
 5   0  0.2689675E-04  0.1620726E+04  0.7818609E-02  0.8807916E-01
        1   -1    0    0  501    0  0.00000000000E+00  0.00000000000E+00  0.10076119230E+04  0.10076119231E+04  0.50400001928E-02 0.  1.
       -1   -1    0    0    0  501  0.00000000000E+00  0.00000000000E+00 -0.65172711533E+03  0.65172711535E+03  0.50400001928E-02 0. -1.
    10030    2    1    2    0    0  0.00000000000E+00  0.00000000000E+00  0.35588480771E+03  0.16593390384E+04  0.16207257782E+04 0.  0.
        1    1    3    3  502    0  0.22557941706E+03  0.35836280524E+03  0.88532897130E+03  0.98138542940E+03  0.50400001928E-02 0.  1.
       -1    1    3    3    0  502 -0.22557941706E+03 -0.35836280524E+03 -0.52944416359E+03  0.67795360901E+03  0.50400001928E-02 0. -1.
</event>
<event>
 5   0  0.2763895E-04  0.1597022E+04  0.7818609E-02  0.8822380E-01
        1   -1    0    0  501    0  0.00000000000E+00  0.00000000000E+00  0.41981949872E+03  0.41981949875E+03  0.50400001928E-02 0. -1.
       -1   -1    0    0    0  501  0.00000000000E+00  0.00000000000E+00 -0.15187949984E+04  0.15187949984E+04  0.50400001928E-02 0.  1.
    10030    2    1    2    0    0  0.00000000000E+00  0.00000000000E+00 -0.10989754997E+04  0.19386144972E+04  0.15970219221E+04 0.  0.
        4    1    3    3  502    0 -0.20823935875E+02 -0.32434772734E+03 -0.14348672843E+04  0.14712174621E+04  0.12699999809E+01 0.  1.
       -4    1    3    3    0  502  0.20823935875E+02  0.32434772734E+03  0.33589178456E+03  0.46739703505E+03  0.12699999809E+01 0. -1.
</event>
<event>
 5   0  0.5264308E-04  0.1612316E+04  0.7818609E-02  0.8813018E-01
       -2   -1    0    0    0  501  0.00000000000E+00  0.00000000000E+00  0.10271578194E+04  0.10271578194E+04  0.25500000920E-02 0. -1.
        2   -1    0    0  501    0  0.00000000000E+00  0.00000000000E+00 -0.63270755834E+03  0.63270755834E+03  0.25500000920E-02 0.  1.
    10030    2    1    2    0    0  0.00000000000E+00  0.00000000000E+00  0.39445026106E+03  0.16598653777E+04  0.16123157457E+04 0.  0.
        3    1    3    3  502    0  0.26378757174E+03 -0.56262320850E+03 -0.33149844666E+03  0.70428686491E+03  0.10100000352E+00 0.  1.
       -3    1    3    3    0  502 -0.26378757174E+03  0.56262320850E+03  0.72594870772E+03  0.95557851283E+03  0.10100000352E+00 0. -1.
</event>
<event>
 5   0  0.2730707E-04  0.1605377E+04  0.7818609E-02  0.8817251E-01
       -1   -1    0    0    0  501  0.00000000000E+00  0.00000000000E+00  0.89321685012E+03  0.89321685014E+03  0.50400001928E-02 0. -1.
        1   -1    0    0  501    0  0.00000000000E+00  0.00000000000E+00 -0.72133559548E+03  0.72133559550E+03  0.50400001928E-02 0.  1.
    10030    2    1    2    0    0  0.00000000000E+00  0.00000000000E+00  0.17188125464E+03  0.16145524456E+04  0.16053773494E+04 0.  0.
        5    1    3    3  502    0 -0.99460080875E+02 -0.70398144529E+03  0.46063513187E+03  0.84716527178E+03  0.46999998093E+01 0. -1.
       -5    1    3    3    0  502  0.99460080875E+02  0.70398144529E+03 -0.28875387723E+03  0.76738717386E+03  0.46999998093E+01 0.  1.
</event>
<event>
 5   0  0.5264308E-04  0.1603822E+04  0.7818609E-02  0.8818204E-01
       -2   -1    0    0    0  501  0.00000000000E+00  0.00000000000E+00  0.80519634535E+03  0.80519634536E+03  0.25500000920E-02 0. -1.
        2   -1    0    0  501    0  0.00000000000E+00  0.00000000000E+00 -0.79863871622E+03  0.79863871622E+03  0.25500000920E-02 0.  1.
    10030    2    1    2    0    0  0.00000000000E+00  0.00000000000E+00  0.65576291348E+01  0.16038350616E+04  0.16038216554E+04 0.  0.
        3    1    3    3  502    0 -0.95355435627E+02 -0.35557844668E+03  0.71569776391E+03  0.80483041090E+03  0.10100000352E+00 0. -1.
       -3    1    3    3    0  502  0.95355435627E+02  0.35557844668E+03 -0.70914013478E+03  0.79900465067E+03  0.10100000352E+00 0.  1.
</event>
<event>
 5   0  0.2763895E-04  0.1584092E+04  0.7818609E-02  0.8830381E-01
        1   -1    0    0  501    0  0.00000000000E+00  0.00000000000E+00  0.16903480971E+04  0.16903480971E+04  0.50400001928E-02 0.  1.
       -1   -1    0    0    0  501  0.00000000000E+00  0.00000000000E+00 -0.37112889446E+03  0.37112889449E+03  0.50400001928E-02 0. -1.
    10030    2    1    2    0    0  0.00000000000E+00  0.00000000000E+00  0.13192192027E+04  0.20614769916E+04  0.15840921950E+04 0.  0.
        4    1    3    3  502    0  0.25447467285E+03  0.66623194021E+03  0.11079906724E+04  0.13176749601E+04  0.12699999809E+01 0.  1.
       -4    1    3    3    0  502 -0.25447467285E+03 -0.66623194021E+03  0.21122853025E+03  0.74380203157E+03  0.12699999809E+01 0. -1.
</event>
<event>
 5   0  0.2730707E-04  0.1603386E+04  0.7818609E-02  0.8818470E-01
       -1   -1    0    0    0  501  0.00000000000E+00  0.00000000000E+00  0.35667922710E+03  0.35667922713E+03  0.50400001928E-02 0. -1.
        1   -1    0    0  501    0  0.00000000000E+00  0.00000000000E+00 -0.18019321524E+04  0.18019321524E+04  0.50400001928E-02 0.  1.
    10030    2    1    2    0    0  0.00000000000E+00  0.00000000000E+00 -0.14452529253E+04  0.21586113795E+04  0.16033861262E+04 0.  0.
        5    1    3    3  502    0  0.37213241707E+03 -0.40746330922E+02  0.23176079109E+03  0.44031574308E+03  0.46999998093E+01 0. -1.
       -5    1    3    3    0  502 -0.37213241707E+03  0.40746330922E+02 -0.16770137164E+04  0.17182956365E+04  0.46999998093E+01 0.  1.
</event>
<event>
 5   0  0.5381164E-04  0.1611163E+04  0.7818609E-02  0.8813719E-01
       -2   -1    0    0    0  501  0.00000000000E+00  0.00000000000E+00  0.67122182357E+03  0.67122182358E+03  0.25500000920E-02 0. -1.
        2   -1    0    0  501    0  0.00000000000E+00  0.00000000000E+00 -0.96683639677E+03  0.96683639677E+03  0.25500000920E-02 0.  1.
    10030    2    1    2    0    0  0.00000000000E+00  0.00000000000E+00 -0.29561457319E+03  0.16380582203E+04  0.16111631691E+04 0.  0.
        5    1    3    3  502    0 -0.11055692339E+03 -0.34006050629E+03 -0.88171285740E+03  0.95147445270E+03  0.46999998093E+01 0.  1.
       -5    1    3    3    0  502  0.11055692339E+03  0.34006050629E+03  0.58609828421E+03  0.68658376764E+03  0.46999998093E+01 0. -1.
</event>
<event>
 5   0  0.2689675E-04  0.1624773E+04  0.7818609E-02  0.8805472E-01
       -1   -1    0    0    0  501  0.00000000000E+00  0.00000000000E+00  0.13268297460E+04  0.13268297460E+04  0.50400001928E-02 0. -1.
        1   -1    0    0  501    0  0.00000000000E+00  0.00000000000E+00 -0.49740479578E+03  0.49740479581E+03  0.50400001928E-02 0.  1.
    10030    2    1    2    0    0  0.00000000000E+00  0.00000000000E+00  0.82942495021E+03  0.18242345418E+04  0.16247725735E+04 0.  0.
        1    1    3    3  502    0 -0.63965628068E+02  0.79408197699E+02  0.13196164253E+04  0.13235500646E+04  0.50400001928E-02 0. -1.
       -1    1    3    3    0  502  0.63965628068E+02 -0.79408197699E+02 -0.49019147512E+03  0.50068447723E+03  0.50400001928E-02 0.  1.
</event>
<event>
 5   0  0.5381164E-04  0.1607799E+04  0.7818609E-02  0.8815771E-01
       -2   -1    0    0    0  501  0.00000000000E+00  0.00000000000E+00  0.82988869955E+03  0.82988869955E+03  0.25500000920E-02 0. -1.
        2   -1    0    0  501    0  0.00000000000E+00  0.00000000000E+00 -0.77872448798E+03  0.77872448798E+03  0.25500000920E-02 0.  1.
    10030    2    1    2    0    0  0.00000000000E+00  0.00000000000E+00  0.51164211568E+02  0.16086131875E+04  0.16077993067E+04 0.  0.
        5    1    3    3  502    0  0.64534509290E+03 -0.46777101860E+03 -0.79125292294E+02  0.80097622727E+03  0.46999998093E+01 0. -1.
       -5    1    3    3    0  502 -0.64534509290E+03  0.46777101860E+03  0.13028950386E+03  0.80763696026E+03  0.46999998093E+01 0.  1.
</event>
<event>
 5   0  0.2649086E-04  0.1598843E+04  0.7818609E-02  0.8821259E-01
        1   -1    0    0  501    0  0.00000000000E+00  0.00000000000E+00  0.88970870114E+03  0.88970870115E+03  0.50400001928E-02 0.  1.
       -1   -1    0    0    0  501  0.00000000000E+00  0.00000000000E+00 -0.71829642666E+03  0.71829642668E+03  0.50400001928E-02 0. -1.
    10030    2    1    2    0    0  0.00000000000E+00  0.00000000000E+00  0.17141227448E+03  0.16080051278E+04  0.15988428076E+04 0.  0.
        2    1    3    3  502    0 -0.17177314946E+03  0.77999241508E+03  0.51152325793E+02  0.80031915065E+03  0.25500000920E-02 0.  1.
       -2    1    3    3    0  502  0.17177314946E+03 -0.77999241508E+03  0.12025994868E+03  0.80768597717E+03  0.25500000920E-02 0. -1.
</event>
<event>
 5   0  0.2796994E-04  0.1612322E+04  0.7818609E-02  0.8813014E-01
       -1   -1    0    0    0  501  0.00000000000E+00  0.00000000000E+00  0.30603571484E+03  0.30603571488E+03  0.50400001928E-02 0.  1.
        1   -1    0    0  501    0  0.00000000000E+00  0.00000000000E+00 -0.21235937754E+04  0.21235937754E+04  0.50400001928E-02 0. -1.
    10030    2    1    2    0    0  0.00000000000E+00  0.00000000000E+00 -0.18175580606E+04  0.24296294903E+04  0.16123219767E+04 0.  0.
        3    1    3    3  502    0 -0.42983962537E+03 -0.71960520683E+02 -0.19307675098E+04  0.19793442366E+04  0.10100000352E+00 0. -1.
       -3    1    3    3    0  502  0.42983962537E+03  0.71960520683E+02  0.11320944920E+03  0.45028525366E+03  0.10100000352E+00 0.  1.
</event>
<event>
 5   0  0.2730707E-04  0.1607328E+04  0.7818609E-02  0.8816059E-01
        1   -1    0    0  501    0  0.00000000000E+00  0.00000000000E+00  0.18342185451E+04  0.18342185451E+04  0.50400001928E-02 0. -1.
       -1   -1    0    0    0  501  0.00000000000E+00  0.00000000000E+00 -0.35212566664E+03  0.35212566667E+03  0.50400001928E-02 0.  1.
    10030    2    1    2    0    0  0.00000000000E+00  0.00000000000E+00  0.14820928785E+04  0.21863442118E+04  0.16073275061E+04 0.  0.
        5    1    3    3  502    0  0.57447184235E+03 -0.18216394294E+03  0.14642157548E+04  0.15833987074E+04  0.46999998093E+01 0. -1.
       -5    1    3    3    0  502 -0.57447184235E+03  0.18216394294E+03  0.17877123630E+02  0.60294550442E+03  0.46999998093E+01 0.  1.
</event>
<event>
 5   0  0.5315984E-04  0.1605402E+04  0.7818609E-02  0.8817236E-01
       -2   -1    0    0    0  501  0.00000000000E+00  0.00000000000E+00  0.62734439023E+03  0.62734439023E+03  0.25500000920E-02 0.  1.
        2   -1    0    0  501    0  0.00000000000E+00  0.00000000000E+00 -0.10270742353E+04  0.10270742353E+04  0.25500000920E-02 0. -1.
    10030    2    1    2    0    0  0.00000000000E+00  0.00000000000E+00 -0.39972984507E+03  0.16544186255E+04  0.16054024540E+04 0.  0.
        2    1    3    3  502    0 -0.58727892150E+03 -0.21959594111E+03 -0.71637672921E+03  0.95200552895E+03  0.25500000920E-02 0. -1.
       -2    1    3    3    0  502  0.58727892150E+03  0.21959594111E+03  0.31664688415E+03  0.70241309658E+03  0.25500000920E-02 0.  1.
</event>
<event>
 5   0  0.5131239E-04  0.1594221E+04  0.7818609E-02  0.8824106E-01
       -2   -1    0    0    0  501  0.00000000000E+00  0.00000000000E+00  0.57377072178E+03  0.57377072179E+03  0.25500000920E-02 0. -1.
        2   -1    0    0  501    0  0.00000000000E+00  0.00000000000E+00 -0.11073855442E+04  0.11073855442E+04  0.25500000920E-02 0.  1.
    10030    2    1    2    0    0  0.00000000000E+00  0.00000000000E+00 -0.53361482239E+03  0.16811562660E+04  0.15942213184E+04 0.  0.
        1    1    3    3  502    0  0.82242801446E+02  0.39258587617E+03 -0.99320868615E+03  0.10711447348E+04  0.50400001928E-02 0.  1.
       -1    1    3    3    0  502 -0.82242801446E+02 -0.39258587617E+03  0.45959386376E+03  0.61001153119E+03  0.50400001928E-02 0. -1.
</event>
<event>
 5   0  0.2689675E-04  0.1604750E+04  0.7818609E-02  0.8817635E-01
        1   -1    0    0  501    0  0.00000000000E+00  0.00000000000E+00  0.11663162889E+04  0.11663162889E+04  0.50400001928E-02 0.  1.
       -1   -1    0    0    0  501  0.00000000000E+00  0.00000000000E+00 -0.55199892883E+03  0.55199892885E+03  0.50400001928E-02 0. -1.
    10030    2    1    2    0    0  0.00000000000E+00  0.00000000000E+00  0.61431736009E+03  0.17183152178E+04  0.16047496281E+04 0.  0.
        1    1    3    3  502    0  0.52481483525E+03  0.51352176209E+02 -0.34040190738E+03  0.62764728620E+03  0.50400001928E-02 0. -1.
       -1    1    3    3    0  502 -0.52481483525E+03 -0.51352176209E+02  0.95471926747E+03  0.10906679316E+04  0.50400001928E-02 0.  1.
</event>
<event>
 5   0  0.2796994E-04  0.1626407E+04  0.7818609E-02  0.8804488E-01
        1   -1    0    0  501    0  0.00000000000E+00  0.00000000000E+00  0.21030496043E+04  0.21030496043E+04  0.50400001928E-02 0. -1.
       -1   -1    0    0    0  501  0.00000000000E+00  0.00000000000E+00 -0.31444797490E+03  0.31444797494E+03  0.50400001928E-02 0.  1.
    10030    2    1    2    0    0  0.00000000000E+00  0.00000000000E+00  0.17886016294E+04  0.24174975792E+04  0.16264067010E+04 0.  0.
        3    1    3    3  502    0  0.37848423697E+03 -0.69581700889E+03  0.62067303125E+03  0.10063034579E+04  0.10100000352E+00 0.  1.
       -3    1    3    3    0  502 -0.37848423697E+03  0.69581700889E+03  0.11679285981E+04  0.14111941213E+04  0.10100000352E+00 0. -1.
</event>
<event>
 5   0  0.2796994E-04  0.1611338E+04  0.7818609E-02  0.8813613E-01
        1   -1    0    0  501    0  0.00000000000E+00  0.00000000000E+00  0.61297015126E+03  0.61297015129E+03  0.50400001928E-02 0. -1.
       -1   -1    0    0    0  501  0.00000000000E+00  0.00000000000E+00 -0.10589464465E+04  0.10589464465E+04  0.50400001928E-02 0.  1.
    10030    2    1    2    0    0  0.00000000000E+00  0.00000000000E+00 -0.44597629523E+03  0.16719165978E+04  0.16113380322E+04 0.  0.
        3    1    3    3  502    0 -0.13529967670E+03  0.72451340727E+03  0.11463211669E+03  0.74589959928E+03  0.10100000352E+00 0. -1.
       -3    1    3    3    0  502  0.13529967670E+03 -0.72451340727E+03 -0.56060841192E+03  0.92601699851E+03  0.10100000352E+00 0.  1.
</event>
<event>
 5   0  0.2649086E-04  0.1608694E+04  0.7818609E-02  0.8815225E-01
       -1   -1    0    0    0  501  0.00000000000E+00  0.00000000000E+00  0.44541643517E+03  0.44541643520E+03  0.50400001928E-02 0. -1.
        1   -1    0    0  501    0  0.00000000000E+00  0.00000000000E+00 -0.14525150079E+04  0.14525150079E+04  0.50400001928E-02 0.  1.
    10030    2    1    2    0    0  0.00000000000E+00  0.00000000000E+00 -0.10070985727E+04  0.18979314431E+04  0.16086939509E+04 0.  0.
        2    1    3    3  502    0  0.33417341879E+03  0.32370528094E+03 -0.12776585812E+04  0.13597310149E+04  0.25500000920E-02 0.  1.
       -2    1    3    3    0  502 -0.33417341879E+03 -0.32370528094E+03  0.27056000848E+03  0.53820042821E+03  0.25500000920E-02 0. -1.
</event>
<event>
 5   0  0.5131239E-04  0.1601125E+04  0.7818609E-02  0.8819857E-01
        2   -1    0    0  501    0  0.00000000000E+00  0.00000000000E+00  0.12515082725E+04  0.12515082725E+04  0.25500000920E-02 0.  1.
       -2   -1    0    0    0  501  0.00000000000E+00  0.00000000000E+00 -0.51210237928E+03  0.51210237929E+03  0.25500000920E-02 0. -1.
    10030    2    1    2    0    0  0.00000000000E+00  0.00000000000E+00  0.73940589321E+03  0.17636106518E+04  0.16011250595E+04 0.  0.
        1    1    3    3  502    0  0.66168408906E+03 -0.41742112001E+03  0.18266447232E+03  0.80338815938E+03  0.50400001928E-02 0.  1.
       -1    1    3    3    0  502 -0.66168408906E+03  0.41742112001E+03  0.55674142089E+03  0.96022249240E+03  0.50400001928E-02 0. -1.
</event>
<event>
 5   0  0.5264308E-04  0.1691268E+04  0.7818609E-02  0.8766360E-01
       -2   -1    0    0    0  501  0.00000000000E+00  0.00000000000E+00  0.86875399975E+03  0.86875399975E+03  0.25500000920E-02 0. -1.
        2   -1    0    0  501    0  0.00000000000E+00  0.00000000000E+00 -0.82312945415E+03  0.82312945415E+03  0.25500000920E-02 0.  1.
    10030    2    1    2    0    0  0.00000000000E+00  0.00000000000E+00  0.45624545599E+02  0.16918834539E+04  0.16912681699E+04 0.  0.
        3    1    3    3  502    0  0.15517034688E+02  0.66558097879E+03  0.54440216717E+03  0.86000729504E+03  0.10100000352E+00 0. -1.
       -3    1    3    3    0  502 -0.15517034688E+02 -0.66558097879E+03 -0.49877762158E+03  0.83187615886E+03  0.10100000352E+00 0.  1.
</event>
<event>
 5   0  0.2796994E-04  0.1591366E+04  0.7818609E-02  0.8825870E-01
        1   -1    0    0  501    0  0.00000000000E+00  0.00000000000E+00  0.77296320334E+03  0.77296320336E+03  0.50400001928E-02 0.  1.
       -1   -1    0    0    0  501  0.00000000000E+00  0.00000000000E+00 -0.81907097534E+03  0.81907097535E+03  0.50400001928E-02 0. -1.
    10030    2    1    2    0    0  0.00000000000E+00  0.00000000000E+00 -0.46107771997E+02  0.15920341787E+04  0.15913663625E+04 0.  0.
        3    1    3    3  502    0  0.49085663032E+03 -0.32183496866E+03  0.51438076437E+03  0.78045215070E+03  0.10100000352E+00 0.  1.
       -3    1    3    3    0  502 -0.49085663032E+03  0.32183496866E+03 -0.56048853637E+03  0.81158202801E+03  0.10100000352E+00 0. -1.
</event>
<event>
 5   0  0.5083831E-04  0.1558446E+04  0.7818609E-02  0.8846491E-01
       -2   -1    0    0    0  501  0.00000000000E+00  0.00000000000E+00  0.10623732760E+04  0.10623732760E+04  0.25500000920E-02 0. -1.
        2   -1    0    0  501    0  0.00000000000E+00  0.00000000000E+00 -0.57153996506E+03  0.57153996506E+03  0.25500000920E-02 0.  1.
    10030    2    1    2    0    0  0.00000000000E+00  0.00000000000E+00  0.49083331096E+03  0.16339132411E+04  0.15584463867E+04 0.  0.
        4    1    3    3  502    0 -0.52168787684E+03 -0.41856017280E+03  0.66457184981E+03  0.94287232198E+03  0.12699999809E+01 0. -1.
       -4    1    3    3    0  502  0.52168787684E+03  0.41856017280E+03 -0.17373853885E+03  0.69104091910E+03  0.12699999809E+01 0.  1.
</event>
<event>
 5   0  0.2796994E-04  0.1592456E+04  0.7818609E-02  0.8825196E-01
       -1   -1    0    0    0  501  0.00000000000E+00  0.00000000000E+00  0.39155806981E+03  0.39155806984E+03  0.50400001928E-02 0. -1.
        1   -1    0    0  501    0  0.00000000000E+00  0.00000000000E+00 -0.16191192748E+04  0.16191192748E+04  0.50400001928E-02 0.  1.
    10030    2    1    2    0    0  0.00000000000E+00  0.00000000000E+00 -0.12275612050E+04  0.20106773447E+04  0.15924562387E+04 0.  0.
        3    1    3    3  502    0 -0.14275359033E+02  0.14937946205E+03  0.37354256871E+03  0.40255691572E+03  0.10100000352E+00 0. -1.
       -3    1    3    3    0  502  0.14275359033E+02 -0.14937946205E+03 -0.16011037737E+04  0.16081204290E+04  0.10100000352E+00 0.  1.
</event>
<event>
 5   0  0.2796994E-04  0.1612604E+04  0.7818609E-02  0.8812842E-01
        1   -1    0    0  501    0  0.00000000000E+00  0.00000000000E+00  0.76908400037E+03  0.76908400039E+03  0.50400001928E-02 0.  1.
       -1   -1    0    0    0  501  0.00000000000E+00  0.00000000000E+00 -0.84532098696E+03  0.84532098698E+03  0.50400001928E-02 0. -1.
    10030    2    1    2    0    0  0.00000000000E+00  0.00000000000E+00 -0.76236986591E+02  0.16144049874E+04  0.16126039145E+04 0.  0.
        3    1    3    3  502    0  0.39219016838E+03  0.14414866022E+03  0.65223915277E+03  0.77460176028E+03  0.10100000352E+00 0.  1.
       -3    1    3    3    0  502 -0.39219016838E+03 -0.14414866022E+03 -0.72847613936E+03  0.83980322709E+03  0.10100000352E+00 0. -1.
</event>
<event>
 5   0  0.5381164E-04  0.1578514E+04  0.7818609E-02  0.8833857E-01
       -2   -1    0    0    0  501  0.00000000000E+00  0.00000000000E+00  0.12048967362E+04  0.12048967362E+04  0.25500000920E-02 0.  1.
        2   -1    0    0  501    0  0.00000000000E+00  0.00000000000E+00 -0.51699613614E+03  0.51699613614E+03  0.25500000920E-02 0. -1.
    10030    2    1    2    0    0  0.00000000000E+00  0.00000000000E+00  0.68790060008E+03  0.17218928724E+04  0.15785144372E+04 0.  0.
        5    1    3    3  502    0 -0.25070293133E+03 -0.24319067781E+03  0.11159869931E+04  0.11693770668E+04  0.46999998093E+01 0.  1.
       -5    1    3    3    0  502  0.25070293133E+03  0.24319067781E+03 -0.42808639301E+03  0.55251580559E+03  0.46999998093E+01 0. -1.
</event>
<event>
 5   0  0.2763895E-04  0.1618883E+04  0.7818609E-02  0.8809031E-01
        1   -1    0    0  501    0  0.00000000000E+00  0.00000000000E+00  0.17509833876E+04  0.17509833876E+04  0.50400001928E-02 0.  1.
       -1   -1    0    0    0  501  0.00000000000E+00  0.00000000000E+00 -0.37418723515E+03  0.37418723519E+03  0.50400001928E-02 0. -1.
    10030    2    1    2    0    0  0.00000000000E+00  0.00000000000E+00  0.13767961525E+04  0.21251706228E+04  0.16188831121E+04 0.  0.
        4    1    3    3  502    0 -0.34874310689E+03  0.60373646539E+03  0.12281788674E+04  0.14122834055E+04  0.12699999809E+01 0.  1.
       -4    1    3    3    0  502  0.34874310689E+03 -0.60373646539E+03  0.14861728504E+03  0.71288721728E+03  0.12699999809E+01 0. -1.
</event>
<event>
 5   0  0.2796994E-04  0.1579511E+04  0.7818609E-02  0.8833235E-01
       -1   -1    0    0    0  501  0.00000000000E+00  0.00000000000E+00  0.73876269224E+03  0.73876269226E+03  0.50400001928E-02 0.  1.
        1   -1    0    0  501    0  0.00000000000E+00  0.00000000000E+00 -0.84426819653E+03  0.84426819655E+03  0.50400001928E-02 0. -1.
    10030    2    1    2    0    0  0.00000000000E+00  0.00000000000E+00 -0.10550550429E+03  0.15830308888E+04  0.15795111217E+04 0.  0.
        3    1    3    3  502    0 -0.15540403232E+03 -0.42343199602E+03 -0.70247877111E+03  0.83481824523E+03  0.10100000352E+00 0. -1.
       -3    1    3    3    0  502  0.15540403232E+03  0.42343199602E+03  0.59697326682E+03  0.74821264358E+03  0.10100000352E+00 0.  1.
</event>
<event>
 5   0  0.5315984E-04  0.1599719E+04  0.7818609E-02  0.8820720E-01
        2   -1    0    0  501    0  0.00000000000E+00  0.00000000000E+00  0.21425947934E+04  0.21425947934E+04  0.25500000920E-02 0.  1.
       -2   -1    0    0    0  501  0.00000000000E+00  0.00000000000E+00 -0.29859847739E+03  0.29859847740E+03  0.25500000920E-02 0. -1.
    10030    2    1    2    0    0  0.00000000000E+00  0.00000000000E+00  0.18439963160E+04  0.24411932708E+04  0.15997194041E+04 0.  0.
        2    1    3    3  502    0 -0.31386183770E+03 -0.10328503675E+03  0.20335797770E+04  0.20602484708E+04  0.25500000920E-02 0.  1.
       -2    1    3    3    0  502  0.31386183770E+03  0.10328503675E+03 -0.18958346098E+03  0.38094480002E+03  0.25500000920E-02 0. -1.
</event>
<event>
 5   0  0.2763895E-04  0.1603549E+04  0.7818609E-02  0.8818371E-01
        1   -1    0    0  501    0  0.00000000000E+00  0.00000000000E+00  0.10143919679E+04  0.10143919679E+04  0.50400001928E-02 0. -1.
       -1   -1    0    0    0  501  0.00000000000E+00  0.00000000000E+00 -0.63372177723E+03  0.63372177725E+03  0.50400001928E-02 0.  1.
    10030    2    1    2    0    0  0.00000000000E+00  0.00000000000E+00  0.38067019069E+03  0.16481137452E+04  0.16035489150E+04 0.  0.
        4    1    3    3  502    0  0.74967297026E+02 -0.39721589448E+03  0.90199442822E+03  0.98843114271E+03  0.12699999809E+01 0. -1.
       -4    1    3    3    0  502 -0.74967297026E+02  0.39721589448E+03 -0.52132423753E+03  0.65968260246E+03  0.12699999809E+01 0.  1.
</event>
<event>
 5   0  0.5131239E-04  0.1589396E+04  0.7818609E-02  0.8827089E-01
        2   -1    0    0  501    0  0.00000000000E+00  0.00000000000E+00  0.16884768942E+04  0.16884768942E+04  0.25500000920E-02 0.  1.
       -2   -1    0    0    0  501  0.00000000000E+00  0.00000000000E+00 -0.37403247193E+03  0.37403247194E+03  0.25500000920E-02 0. -1.
    10030    2    1    2    0    0  0.00000000000E+00  0.00000000000E+00  0.13144444223E+04  0.20625093661E+04  0.15893963465E+04 0.  0.
        1    1    3    3  502    0  0.13793466208E+02 -0.44101196035E+03  0.15149244400E+04  0.15778713090E+04  0.50400001928E-02 0.  1.
       -1    1    3    3    0  502 -0.13793466208E+02  0.44101196035E+03 -0.20048001773E+03  0.48463805712E+03  0.50400001928E-02 0. -1.
</event>
<event>
 5   0  0.2649086E-04  0.1617725E+04  0.7818609E-02  0.8809732E-01
        1   -1    0    0  501    0  0.00000000000E+00  0.00000000000E+00  0.16820549301E+04  0.16820549301E+04  0.50400001928E-02 0.  1.
       -1   -1    0    0    0  501  0.00000000000E+00  0.00000000000E+00 -0.38896367307E+03  0.38896367310E+03  0.50400001928E-02 0. -1.
    10030    2    1    2    0    0  0.00000000000E+00  0.00000000000E+00  0.12930912570E+04  0.20710186032E+04  0.16177246539E+04 0.  0.
        2    1    3    3  502    0 -0.79572580915E+03 -0.14672014613E+02  0.46163057083E+03  0.92005305026E+03  0.25500000920E-02 0. -1.
       -2    1    3    3    0  502  0.79572580915E+03  0.14672014613E+02  0.83146068616E+03  0.11509655529E+04  0.25500000920E-02 0.  1.
</event>
<event>
 5   0  0.2763895E-04  0.1589582E+04  0.7818609E-02  0.8826974E-01
        1   -1    0    0  501    0  0.00000000000E+00  0.00000000000E+00  0.74053381054E+03  0.74053381056E+03  0.50400001928E-02 0.  1.
       -1   -1    0    0    0  501  0.00000000000E+00  0.00000000000E+00 -0.85302339864E+03  0.85302339866E+03  0.50400001928E-02 0. -1.
    10030    2    1    2    0    0  0.00000000000E+00  0.00000000000E+00 -0.11248958811E+03  0.15935572092E+04  0.15895819172E+04 0.  0.
        4    1    3    3  502    0 -0.41675808360E+03 -0.66320020664E+03 -0.19137521651E+03  0.80631749375E+03  0.12699999809E+01 0. -1.
       -4    1    3    3    0  502  0.41675808360E+03  0.66320020664E+03  0.78885628403E+02  0.78723971546E+03  0.12699999809E+01 0.  1.
</event>
<event>
 5   0  0.5264308E-04  0.1594271E+04  0.7818609E-02  0.8824075E-01
        2   -1    0    0  501    0  0.00000000000E+00  0.00000000000E+00  0.21686142733E+04  0.21686142733E+04  0.25500000920E-02 0. -1.
       -2   -1    0    0    0  501  0.00000000000E+00  0.00000000000E+00 -0.29300974508E+03  0.29300974509E+03  0.25500000920E-02 0.  1.
    10030    2    1    2    0    0  0.00000000000E+00  0.00000000000E+00  0.18756045282E+04  0.24616240184E+04  0.15942711381E+04 0.  0.
        3    1    3    3  502    0  0.18191369245E+03  0.18213345311E+03  0.21026702005E+04  0.21183689878E+04  0.10100000352E+00 0. -1.
       -3    1    3    3    0  502 -0.18191369245E+03 -0.18213345311E+03 -0.22706567232E+03  0.34325503054E+03  0.10100000352E+00 0.  1.
</event>
<event>
 5   0  0.2796994E-04  0.1597936E+04  0.7818609E-02  0.8821817E-01
       -1   -1    0    0    0  501  0.00000000000E+00  0.00000000000E+00  0.83476631302E+03  0.83476631304E+03  0.50400001928E-02 0.  1.
        1   -1    0    0  501    0  0.00000000000E+00  0.00000000000E+00 -0.76470507897E+03  0.76470507899E+03  0.50400001928E-02 0. -1.
    10030    2    1    2    0    0  0.00000000000E+00  0.00000000000E+00  0.70061234050E+02  0.15994713920E+04  0.15979362182E+04 0.  0.
        3    1    3    3  502    0  0.20763855512E+03  0.29732979346E+03 -0.67757416126E+03  0.76852165217E+03  0.10100000352E+00 0. -1.
       -3    1    3    3    0  502 -0.20763855512E+03 -0.29732979346E+03  0.74763539531E+03  0.83094973986E+03  0.10100000352E+00 0.  1.
</event>
<event>
 5   0  0.5315984E-04  0.1603163E+04  0.7818609E-02  0.8818607E-01
        2   -1    0    0  501    0  0.00000000000E+00  0.00000000000E+00  0.21028946362E+04  0.21028946362E+04  0.25500000920E-02 0. -1.
       -2   -1    0    0    0  501  0.00000000000E+00  0.00000000000E+00 -0.30554672533E+03  0.30554672534E+03  0.25500000920E-02 0.  1.
    10030    2    1    2    0    0  0.00000000000E+00  0.00000000000E+00  0.17973479108E+04  0.24084413615E+04  0.16031625867E+04 0.  0.
        2    1    3    3  502    0 -0.55507571156E+02  0.30657084341E+03 -0.21086427226E+03  0.37620541438E+03  0.25500000920E-02 0.  1.
       -2    1    3    3    0  502  0.55507571156E+02 -0.30657084341E+03  0.20082121831E+04  0.20322359471E+04  0.25500000920E-02 0. -1.
</event>
<event>
 5   0  0.5264308E-04  0.1603880E+04  0.7818609E-02  0.8818168E-01
        2   -1    0    0  501    0  0.00000000000E+00  0.00000000000E+00  0.10958755971E+04  0.10958755971E+04  0.25500000920E-02 0. -1.
       -2   -1    0    0    0  501  0.00000000000E+00  0.00000000000E+00 -0.58684342801E+03  0.58684342801E+03  0.25500000920E-02 0.  1.
    10030    2    1    2    0    0  0.00000000000E+00  0.00000000000E+00  0.50903216911E+03  0.16827190251E+04  0.16038795367E+04 0.  0.
        3    1    3    3  502    0 -0.26651255435E+02 -0.14346921430E+03 -0.57279719167E+03  0.59109249517E+03  0.10100000352E+00 0.  1.
       -3    1    3    3    0  502  0.26651255435E+02  0.14346921430E+03  0.10818293608E+04  0.10916265300E+04  0.10100000352E+00 0. -1.
</event>
<event>
 5   0  0.5315984E-04  0.1589099E+04  0.7818609E-02  0.8827273E-01
        2   -1    0    0  501    0  0.00000000000E+00  0.00000000000E+00  0.13469110729E+04  0.13469110730E+04  0.25500000920E-02 0. -1.
       -2   -1    0    0    0  501  0.00000000000E+00  0.00000000000E+00 -0.46870858115E+03  0.46870858116E+03  0.25500000920E-02 0.  1.
    10030    2    1    2    0    0  0.00000000000E+00  0.00000000000E+00  0.87820249180E+03  0.18156196541E+04  0.15890988364E+04 0.  0.
        2    1    3    3  502    0  0.40243504656E+03  0.43951713112E+02 -0.34203903210E+03  0.52997775356E+03  0.25500000920E-02 0.  1.
       -2    1    3    3    0  502 -0.40243504656E+03 -0.43951713112E+02  0.12202415239E+04  0.12856419005E+04  0.25500000920E-02 0. -1.
</event>
<event>
 5   0  0.5083831E-04  0.1622061E+04  0.7818609E-02  0.8807109E-01
        2   -1    0    0  501    0  0.00000000000E+00  0.00000000000E+00  0.22942082950E+04  0.22942082950E+04  0.25500000920E-02 0. -1.
       -2   -1    0    0    0  501  0.00000000000E+00  0.00000000000E+00 -0.28670900640E+03  0.28670900642E+03  0.25500000920E-02 0.  1.
    10030    2    1    2    0    0  0.00000000000E+00  0.00000000000E+00  0.20074992886E+04  0.25809173014E+04  0.16220606410E+04 0.  0.
        4    1    3    3  502    0  0.59073022699E+03 -0.55066902680E+03  0.11224998030E+04  0.13828253681E+04  0.12699999809E+01 0. -1.
       -4    1    3    3    0  502 -0.59073022699E+03  0.55066902680E+03  0.88499948561E+03  0.11980919333E+04  0.12699999809E+01 0.  1.
</event>
<event>
 5   0  0.2730707E-04  0.1603920E+04  0.7818609E-02  0.8818143E-01
       -1   -1    0    0    0  501  0.00000000000E+00  0.00000000000E+00  0.69762018191E+03  0.69762018193E+03  0.50400001928E-02 0. -1.
        1   -1    0    0  501    0  0.00000000000E+00  0.00000000000E+00 -0.92190539491E+03  0.92190539493E+03  0.50400001928E-02 0.  1.
    10030    2    1    2    0    0  0.00000000000E+00  0.00000000000E+00 -0.22428521300E+03  0.16195255769E+04  0.16039199598E+04 0.  0.
        5    1    3    3  502    0 -0.68129031096E+03 -0.14559150109E+03 -0.51320279202E+03  0.86530489929E+03  0.46999998093E+01 0.  1.
       -5    1    3    3    0  502  0.68129031096E+03  0.14559150109E+03  0.28891757901E+03  0.75422067756E+03  0.46999998093E+01 0. -1.
</event>
<event>
 5   0  0.2763895E-04  0.1580968E+04  0.7818609E-02  0.8832326E-01
        1   -1    0    0  501    0  0.00000000000E+00  0.00000000000E+00  0.22888425292E+04  0.22888425292E+04  0.50400001928E-02 0. -1.
       -1   -1    0    0    0  501  0.00000000000E+00  0.00000000000E+00 -0.27300483499E+03  0.27300483504E+03  0.50400001928E-02 0.  1.
    10030    2    1    2    0    0  0.00000000000E+00  0.00000000000E+00  0.20158376942E+04  0.25618473642E+04  0.15809681553E+04 0.  0.
        4    1    3    3  502    0 -0.76758316948E+03 -0.49602875938E+02  0.13032600494E+04  0.15133184518E+04  0.12699999809E+01 0. -1.
       -4    1    3    3    0  502  0.76758316948E+03  0.49602875938E+02  0.71257764476E+03  0.10485289124E+04  0.12699999809E+01 0.  1.
</event>
<event>
 5   0  0.5315984E-04  0.1542498E+04  0.7818609E-02  0.8856674E-01
        2   -1    0    0  501    0  0.00000000000E+00  0.00000000000E+00  0.56422860780E+03  0.56422860781E+03  0.25500000920E-02 0.  1.
       -2   -1    0    0    0  501  0.00000000000E+00  0.00000000000E+00 -0.10542266173E+04  0.10542266173E+04  0.25500000920E-02 0. -1.
    10030    2    1    2    0    0  0.00000000000E+00  0.00000000000E+00 -0.48999800949E+03  0.16184552251E+04  0.15424977363E+04 0.  0.
        2    1    3    3  502    0  0.41905257217E+03 -0.25371182910E+03  0.38002773692E+03  0.61999663814E+03  0.25500000920E-02 0.  1.
       -2    1    3    3    0  502 -0.41905257217E+03  0.25371182910E+03 -0.87002574641E+03  0.99845858696E+03  0.25500000920E-02 0. -1.
</event>
<event>
 5   0  0.5315984E-04  0.1601442E+04  0.7818609E-02  0.8819663E-01
        2   -1    0    0  501    0  0.00000000000E+00  0.00000000000E+00  0.77787380101E+03  0.77787380101E+03  0.25500000920E-02 0. -1.
       -2   -1    0    0    0  501  0.00000000000E+00  0.00000000000E+00 -0.82423892508E+03  0.82423892508E+03  0.25500000920E-02 0.  1.
    10030    2    1    2    0    0  0.00000000000E+00  0.00000000000E+00 -0.46365124069E+02  0.16021127261E+04  0.16014416825E+04 0.  0.
        2    1    3    3  502    0  0.95258016085E+02  0.71488699257E+03 -0.37120239300E+03  0.81112805299E+03  0.25500000920E-02 0.  1.
       -2    1    3    3    0  502 -0.95258016085E+02 -0.71488699257E+03  0.32483726893E+03  0.79098467310E+03  0.25500000920E-02 0. -1.
</event>
<event>
 5   0  0.1908125E-04  0.1611650E+04  0.7818609E-02  0.8813423E-01
        3   -1    0    0  501    0  0.00000000000E+00  0.00000000000E+00  0.40785925673E+03  0.40785926924E+03  0.10100000352E+00 0.  1.
       -3   -1    0    0    0  501  0.00000000000E+00  0.00000000000E+00 -0.15921025074E+04  0.15921025106E+04  0.10100000352E+00 0. -1.
    10030    2    1    2    0    0  0.00000000000E+00  0.00000000000E+00 -0.11842432507E+04  0.19999617798E+04  0.16116497895E+04 0.  0.
        5    1    3    3  502    0 -0.59682571141E+02 -0.36484060451E+03  0.29639622750E+03  0.47386020055E+03  0.46999998093E+01 0.  1.
       -5    1    3    3    0  502  0.59682571141E+02  0.36484060451E+03 -0.14806394782E+04  0.15261015793E+04  0.46999998093E+01 0. -1.
</event>
<event>
 5   0  0.5264308E-04  0.1606008E+04  0.7818609E-02  0.8816866E-01
       -2   -1    0    0    0  501  0.00000000000E+00  0.00000000000E+00  0.13038742459E+04  0.13038742459E+04  0.25500000920E-02 0.  1.
        2   -1    0    0  501    0  0.00000000000E+00  0.00000000000E+00 -0.49453793427E+03  0.49453793427E+03  0.25500000920E-02 0. -1.
    10030    2    1    2    0    0  0.00000000000E+00  0.00000000000E+00  0.80933631162E+03  0.17984121802E+04  0.16060078158E+04 0.  0.
        3    1    3    3  502    0 -0.16120153519E+03  0.75844524766E+03  0.63846341425E+03  0.10044205644E+04  0.10100000352E+00 0.  1.
       -3    1    3    3    0  502  0.16120153519E+03 -0.75844524766E+03  0.17087289736E+03  0.79399161576E+03  0.10100000352E+00 0. -1.
</event>
<event>
 5   0  0.2649086E-04  0.1598444E+04  0.7818609E-02  0.8821504E-01
        1   -1    0    0  501    0  0.00000000000E+00  0.00000000000E+00  0.16637707750E+04  0.16637707750E+04  0.50400001928E-02 0. -1.
       -1   -1    0    0    0  501  0.00000000000E+00  0.00000000000E+00 -0.38392061087E+03  0.38392061091E+03  0.50400001928E-02 0.  1.
    10030    2    1    2    0    0  0.00000000000E+00  0.00000000000E+00  0.12798501641E+04  0.20476913859E+04  0.15984441089E+04 0.  0.
        2    1    3    3  502    0  0.70168937478E+03  0.24631981065E+03  0.26487081908E+03  0.78942889395E+03  0.25500000920E-02 0.  1.
       -2    1    3    3    0  502 -0.70168937478E+03 -0.24631981065E+03  0.10149793450E+04  0.12582624920E+04  0.25500000920E-02 0. -1.
</event>
<event>
 5   0  0.2689675E-04  0.1598665E+04  0.7818609E-02  0.8821368E-01
        1   -1    0    0  501    0  0.00000000000E+00  0.00000000000E+00  0.12032558264E+04  0.12032558264E+04  0.50400001928E-02 0. -1.
       -1   -1    0    0    0  501  0.00000000000E+00  0.00000000000E+00 -0.53100320268E+03  0.53100320270E+03  0.50400001928E-02 0.  1.
    10030    2    1    2    0    0  0.00000000000E+00  0.00000000000E+00  0.67225262371E+03  0.17342590291E+04  0.15986653152E+04 0.  0.
        1    1    3    3  502    0 -0.17247491869E+03 -0.33063843752E+03 -0.43085017127E+03  0.56982562600E+03  0.50400001928E-02 0.  1.
       -1    1    3    3    0  502  0.17247491869E+03  0.33063843752E+03  0.11031027950E+04  0.11644334031E+04  0.50400001928E-02 0. -1.
</event>
<event>
 5   0  0.5315984E-04  0.1578981E+04  0.7818609E-02  0.8833566E-01
        2   -1    0    0  501    0  0.00000000000E+00  0.00000000000E+00  0.64904473802E+03  0.64904473802E+03  0.25500000920E-02 0. -1.
       -2   -1    0    0    0  501  0.00000000000E+00  0.00000000000E+00 -0.96032764473E+03  0.96032764474E+03  0.25500000920E-02 0.  1.
    10030    2    1    2    0    0  0.00000000000E+00  0.00000000000E+00 -0.31128290671E+03  0.16093723828E+04  0.15789814497E+04 0.  0.
        2    1    3    3  502    0  0.72987584046E+02  0.18935317265E+03 -0.93329017361E+03  0.95509808898E+03  0.25500000920E-02 0.  1.
       -2    1    3    3    0  502 -0.72987584046E+02 -0.18935317265E+03  0.62200726690E+03  0.65427429378E+03  0.25500000920E-02 0. -1.
</event>
<event>
 5   0  0.5381164E-04  0.1601144E+04  0.7818609E-02  0.8819845E-01
        2   -1    0    0  501    0  0.00000000000E+00  0.00000000000E+00  0.10625552317E+04  0.10625552317E+04  0.25500000920E-02 0.  1.
       -2   -1    0    0    0  501  0.00000000000E+00  0.00000000000E+00 -0.60318350159E+03  0.60318350159E+03  0.25500000920E-02 0. -1.
    10030    2    1    2    0    0  0.00000000000E+00  0.00000000000E+00  0.45937173010E+03  0.16657387333E+04  0.16011443224E+04 0.  0.
        5    1    3    3  502    0 -0.67077878927E+03 -0.43359634364E+03  0.28613077649E+03  0.84843555124E+03  0.46999998093E+01 0.  1.
       -5    1    3    3    0  502  0.67077878927E+03  0.43359634364E+03  0.17324095360E+03  0.81730318203E+03  0.46999998093E+01 0. -1.
</event>
<event>
 5   0  0.2649086E-04  0.1594957E+04  0.7818609E-02  0.8823652E-01
       -1   -1    0    0    0  501  0.00000000000E+00  0.00000000000E+00  0.49440034833E+03  0.49440034835E+03  0.50400001928E-02 0. -1.
        1   -1    0    0  501    0  0.00000000000E+00  0.00000000000E+00 -0.12863501762E+04  0.12863501762E+04  0.50400001928E-02 0.  1.
    10030    2    1    2    0    0  0.00000000000E+00  0.00000000000E+00 -0.79194982785E+03  0.17807505245E+04  0.15949570216E+04 0.  0.
        2    1    3    3  502    0  0.45020010650E+03  0.31666129204E+03 -0.10402741280E+04  0.11769132386E+04  0.25500000920E-02 0.  1.
       -2    1    3    3    0  502 -0.45020010650E+03 -0.31666129204E+03  0.24832430020E+03  0.60383728591E+03  0.25500000920E-02 0. -1.
</event>
<event>
 5   0  0.2730707E-04  0.1599396E+04  0.7818609E-02  0.8820919E-01
       -1   -1    0    0    0  501  0.00000000000E+00  0.00000000000E+00  0.13011501728E+04  0.13011501728E+04  0.50400001928E-02 0.  1.
        1   -1    0    0  501    0  0.00000000000E+00  0.00000000000E+00 -0.49150138744E+03  0.49150138747E+03  0.50400001928E-02 0. -1.
    10030    2    1    2    0    0  0.00000000000E+00  0.00000000000E+00  0.80964878535E+03  0.17926515603E+04  0.15993962801E+04 0.  0.
        5    1    3    3  502    0 -0.23317269810E+03  0.11455367257E+03 -0.44286928743E+03  0.51346601327E+03  0.46999998093E+01 0. -1.
       -5    1    3    3    0  502  0.23317269810E+03 -0.11455367257E+03  0.12525180728E+04  0.12791855470E+04  0.46999998093E+01 0.  1.
</event>
<event>
 5   0  0.5083831E-04  0.1592902E+04  0.7818609E-02  0.8824921E-01
        2   -1    0    0  501    0  0.00000000000E+00  0.00000000000E+00  0.11000919079E+04  0.11000919079E+04  0.25500000920E-02 0. -1.
       -2   -1    0    0    0  501  0.00000000000E+00  0.00000000000E+00 -0.57661906204E+03  0.57661906204E+03  0.25500000920E-02 0.  1.
    10030    2    1    2    0    0  0.00000000000E+00  0.00000000000E+00  0.52347284588E+03  0.16767109700E+04  0.15929017096E+04 0.  0.
        4    1    3    3  502    0  0.13556435920E+03 -0.28199925371E+03  0.10326863863E+04  0.10790477561E+04  0.12699999809E+01 0. -1.
       -4    1    3    3    0  502 -0.13556435920E+03  0.28199925371E+03 -0.50921354041E+03  0.59766321387E+03  0.12699999809E+01 0.  1.
</event>
<event>
 5   0  0.2796994E-04  0.1594196E+04  0.7818609E-02  0.8824122E-01
       -1   -1    0    0    0  501  0.00000000000E+00  0.00000000000E+00  0.43687957823E+03  0.43687957825E+03  0.50400001928E-02 0.  1.
        1   -1    0    0  501    0  0.00000000000E+00  0.00000000000E+00 -0.14543255133E+04  0.14543255133E+04  0.50400001928E-02 0. -1.
    10030    2    1    2    0    0  0.00000000000E+00  0.00000000000E+00 -0.10174459351E+04  0.18912050915E+04  0.15941958686E+04 0.  0.
        3    1    3    3  502    0  0.50809626345E+03 -0.48292819001E+03 -0.58576808169E+02  0.70342924470E+03  0.10100000352E+00 0.  1.
       -3    1    3    3    0  502 -0.50809626345E+03  0.48292819001E+03 -0.95886912689E+03  0.11877758468E+04  0.10100000352E+00 0. -1.
</event>
<event>
 5   0  0.2649086E-04  0.1579258E+04  0.7818609E-02  0.8833393E-01
        1   -1    0    0  501    0  0.00000000000E+00  0.00000000000E+00  0.11327717911E+04  0.11327717912E+04  0.50400001928E-02 0. -1.
       -1   -1    0    0    0  501  0.00000000000E+00  0.00000000000E+00 -0.55043222453E+03  0.55043222455E+03  0.50400001928E-02 0.  1.
    10030    2    1    2    0    0  0.00000000000E+00  0.00000000000E+00  0.58233956662E+03  0.16832040157E+04  0.15792581764E+04 0.  0.
        2    1    3    3  502    0 -0.35167361842E+03 -0.48650568494E+03 -0.25557789410E+03  0.65244323533E+03  0.25500000920E-02 0.  1.
       -2    1    3    3    0  502  0.35167361842E+03  0.48650568494E+03  0.83791746072E+03  0.10307607804E+04  0.25500000920E-02 0. -1.
</event>
<event>
 5   0  0.5315984E-04  0.1593070E+04  0.7818609E-02  0.8824817E-01
       -2   -1    0    0    0  501  0.00000000000E+00  0.00000000000E+00  0.53288616584E+03  0.53288616585E+03  0.25500000920E-02 0. -1.
        2   -1    0    0  501    0  0.00000000000E+00  0.00000000000E+00 -0.11906252305E+04  0.11906252305E+04  0.25500000920E-02 0.  1.
    10030    2    1    2    0    0  0.00000000000E+00  0.00000000000E+00 -0.65773906465E+03  0.17235113963E+04  0.15930696332E+04 0.  0.
        2    1    3    3  502    0 -0.63947958162E+03 -0.46298244862E+03 -0.44326700803E+03  0.90541290220E+03  0.25500000920E-02 0.  1.
       -2    1    3    3    0  502  0.63947958162E+03  0.46298244862E+03 -0.21447205662E+03  0.81809849415E+03  0.25500000920E-02 0. -1.
</event>
<event>
 5   0  0.5381164E-04  0.1326769E+04  0.7818609E-02  0.9008602E-01
       -2   -1    0    0    0  501  0.00000000000E+00  0.00000000000E+00  0.31272874495E+03  0.31272874496E+03  0.25500000920E-02 0. -1.
        2   -1    0    0  501    0  0.00000000000E+00  0.00000000000E+00 -0.14072229480E+04  0.14072229480E+04  0.25500000920E-02 0.  1.
    10030    2    1    2    0    0  0.00000000000E+00  0.00000000000E+00 -0.10944942030E+04  0.17199516929E+04  0.13267691079E+04 0.  0.
        5    1    3    3  502    0  0.53534803917E+03  0.32584118373E+03 -0.26534931172E+03  0.68058970554E+03  0.46999998093E+01 0. -1.
       -5    1    3    3    0  502 -0.53534803917E+03 -0.32584118373E+03 -0.82914489130E+03  0.10393619874E+04  0.46999998093E+01 0.  1.
</event>
<event>
 5   0  0.2763895E-04  0.1593689E+04  0.7818609E-02  0.8824434E-01
       -1   -1    0    0    0  501  0.00000000000E+00  0.00000000000E+00  0.66056855392E+03  0.66056855394E+03  0.50400001928E-02 0. -1.
        1   -1    0    0  501    0  0.00000000000E+00  0.00000000000E+00 -0.96123433170E+03  0.96123433172E+03  0.50400001928E-02 0.  1.
    10030    2    1    2    0    0  0.00000000000E+00  0.00000000000E+00 -0.30066577779E+03  0.16218028857E+04  0.15936890192E+04 0.  0.
        4    1    3    3  502    0 -0.56617664369E+03  0.41787979975E+03  0.23013417754E+03  0.74036671418E+03  0.12699999809E+01 0. -1.
       -4    1    3    3    0  502  0.56617664369E+03 -0.41787979975E+03 -0.53079995533E+03  0.88143617147E+03  0.12699999809E+01 0.  1.
</event>
<event>
 5   0  0.5381164E-04  0.1595957E+04  0.7818609E-02  0.8823036E-01
        2   -1    0    0  501    0  0.00000000000E+00  0.00000000000E+00  0.35804338011E+03  0.35804338011E+03  0.25500000920E-02 0.  1.
       -2   -1    0    0    0  501  0.00000000000E+00  0.00000000000E+00 -0.17784706638E+04  0.17784706638E+04  0.25500000920E-02 0. -1.
    10030    2    1    2    0    0  0.00000000000E+00  0.00000000000E+00 -0.14204272837E+04  0.21365140439E+04  0.15959569517E+04 0.  0.
        5    1    3    3  502    0 -0.55594246206E+03  0.53304196024E+03 -0.43087064028E+03  0.88254028302E+03  0.46999998093E+01 0. -1.
       -5    1    3    3    0  502  0.55594246206E+03 -0.53304196024E+03 -0.98955664342E+03  0.12539737609E+04  0.46999998093E+01 0.  1.
</event>
<event>
 5   0  0.2796994E-04  0.1603118E+04  0.7818609E-02  0.8818635E-01
       -1   -1    0    0    0  501  0.00000000000E+00  0.00000000000E+00  0.70702584976E+03  0.70702584977E+03  0.50400001928E-02 0. -1.
        1   -1    0    0  501    0  0.00000000000E+00  0.00000000000E+00 -0.90873194955E+03  0.90873194956E+03  0.50400001928E-02 0.  1.
    10030    2    1    2    0    0  0.00000000000E+00  0.00000000000E+00 -0.20170609979E+03  0.16157577993E+04  0.16031181851E+04 0.  0.
        3    1    3    3  502    0  0.31827758331E+03  0.10507991378E+03  0.63300484560E+03  0.71626639812E+03  0.10100000352E+00 0. -1.
       -3    1    3    3    0  502 -0.31827758331E+03 -0.10507991378E+03 -0.83471094539E+03  0.89949140122E+03  0.10100000352E+00 0.  1.
</event>
<event>
 5   0  0.5315984E-04  0.1605373E+04  0.7818609E-02  0.8817254E-01
        2   -1    0    0  501    0  0.00000000000E+00  0.00000000000E+00  0.14853092507E+04  0.14853092507E+04  0.25500000920E-02 0. -1.
       -2   -1    0    0    0  501  0.00000000000E+00  0.00000000000E+00 -0.43378540529E+03  0.43378540530E+03  0.25500000920E-02 0.  1.
    10030    2    1    2    0    0  0.00000000000E+00  0.00000000000E+00  0.10515238454E+04  0.19190946560E+04  0.16053728231E+04 0.  0.
        2    1    3    3  502    0 -0.28577486973E+03  0.62137833838E+03  0.10280192211E+04  0.12347476805E+04  0.25500000920E-02 0. -1.
       -2    1    3    3    0  502  0.28577486973E+03 -0.62137833838E+03  0.23504624392E+02  0.68434697556E+03  0.25500000920E-02 0.  1.
</event>
<event>
 5   0  0.5264308E-04  0.1617144E+04  0.7818609E-02  0.8810085E-01
       -2   -1    0    0    0  501  0.00000000000E+00  0.00000000000E+00  0.96987413426E+03  0.96987413426E+03  0.25500000920E-02 0. -1.
        2   -1    0    0  501    0  0.00000000000E+00  0.00000000000E+00 -0.67409602923E+03  0.67409602923E+03  0.25500000920E-02 0.  1.
    10030    2    1    2    0    0  0.00000000000E+00  0.00000000000E+00  0.29577810503E+03  0.16439701635E+04  0.16171435345E+04 0.  0.
        3    1    3    3  502    0  0.40731137752E+03 -0.14199809669E+03  0.84313647769E+03  0.94707188108E+03  0.10100000352E+00 0. -1.
       -3    1    3    3    0  502 -0.40731137752E+03  0.14199809669E+03 -0.54735837266E+03  0.69689828242E+03  0.10100000352E+00 0.  1.
</event>
<event>
 5   0  0.5131239E-04  0.1547272E+04  0.7818609E-02  0.8853612E-01
        2   -1    0    0  501    0  0.00000000000E+00  0.00000000000E+00  0.68063946759E+03  0.68063946760E+03  0.25500000920E-02 0. -1.
       -2   -1    0    0    0  501  0.00000000000E+00  0.00000000000E+00 -0.87933928783E+03  0.87933928783E+03  0.25500000920E-02 0.  1.
    10030    2    1    2    0    0  0.00000000000E+00  0.00000000000E+00 -0.19869982024E+03  0.15599787554E+04  0.15472724708E+04 0.  0.
        1    1    3    3  502    0  0.48393118531E+03 -0.30659601275E+03 -0.62354505848E+03  0.84675790349E+03  0.50400001928E-02 0.  1.
       -1    1    3    3    0  502 -0.48393118531E+03  0.30659601275E+03  0.42484523824E+03  0.71322085193E+03  0.50400001928E-02 0. -1.
</event>
<event>
 5   0  0.2689675E-04  0.1592257E+04  0.7818609E-02  0.8825319E-01
        1   -1    0    0  501    0  0.00000000000E+00  0.00000000000E+00  0.14981888315E+04  0.14981888315E+04  0.50400001928E-02 0.  1.
       -1   -1    0    0    0  501  0.00000000000E+00  0.00000000000E+00 -0.42305806664E+03  0.42305806667E+03  0.50400001928E-02 0. -1.
    10030    2    1    2    0    0  0.00000000000E+00  0.00000000000E+00  0.10751307649E+04  0.19212468982E+04  0.15922573543E+04 0.  0.
        1    1    3    3  502    0  0.63719154398E+03  0.38288380498E+03  0.88141518950E+03  0.11530419802E+04  0.50400001928E-02 0.  1.
       -1    1    3    3    0  502 -0.63719154398E+03 -0.38288380498E+03  0.19371557538E+03  0.76820491798E+03  0.50400001928E-02 0. -1.
</event>
<event>
 5   0  0.5264308E-04  0.1597047E+04  0.7818609E-02  0.8822364E-01
        2   -1    0    0  501    0  0.00000000000E+00  0.00000000000E+00  0.64769358073E+03  0.64769358074E+03  0.25500000920E-02 0.  1.
       -2   -1    0    0    0  501  0.00000000000E+00  0.00000000000E+00 -0.98447800377E+03  0.98447800378E+03  0.25500000920E-02 0. -1.
    10030    2    1    2    0    0  0.00000000000E+00  0.00000000000E+00 -0.33678442304E+03  0.16321715845E+04  0.15970473799E+04 0.  0.
        3    1    3    3  502    0  0.47688681757E+03  0.25498540405E+03  0.43206814071E+03  0.69218601652E+03  0.10100000352E+00 0.  1.
       -3    1    3    3    0  502 -0.47688681757E+03 -0.25498540405E+03 -0.76885256375E+03  0.93998556799E+03  0.10100000352E+00 0. -1.
</event>
<event>
 5   0  0.2763895E-04  0.1601337E+04  0.7818609E-02  0.8819727E-01
        1   -1    0    0  501    0  0.00000000000E+00  0.00000000000E+00  0.89086720108E+03  0.89086720110E+03  0.50400001928E-02 0. -1.
       -1   -1    0    0    0  501  0.00000000000E+00  0.00000000000E+00 -0.71960213189E+03  0.71960213191E+03  0.50400001928E-02 0.  1.
    10030    2    1    2    0    0  0.00000000000E+00  0.00000000000E+00  0.17126506919E+03  0.16104693330E+04  0.16013368629E+04 0.  0.
        4    1    3    3  502    0 -0.16227508811E+03  0.70713261871E+03 -0.25497070773E+03  0.76901327646E+03  0.12699999809E+01 0.  1.
       -4    1    3    3    0  502  0.16227508811E+03 -0.70713261871E+03  0.42623577692E+03  0.84145605655E+03  0.12699999809E+01 0. -1.
</event>
<event>
 5   0  0.5381164E-04  0.1611705E+04  0.7818609E-02  0.8813389E-01
       -2   -1    0    0    0  501  0.00000000000E+00  0.00000000000E+00  0.59277256967E+03  0.59277256967E+03  0.25500000920E-02 0. -1.
        2   -1    0    0  501    0  0.00000000000E+00  0.00000000000E+00 -0.10955269676E+04  0.10955269676E+04  0.25500000920E-02 0.  1.
    10030    2    1    2    0    0  0.00000000000E+00  0.00000000000E+00 -0.50275439795E+03  0.16882995373E+04  0.16117051042E+04 0.  0.
        5    1    3    3  502    0 -0.61243682757E+03 -0.30178846762E+03  0.19700840629E+03  0.71062616692E+03  0.46999998093E+01 0. -1.
       -5    1    3    3    0  502  0.61243682757E+03  0.30178846762E+03 -0.69976280424E+03  0.97767337038E+03  0.46999998093E+01 0.  1.
</event>
<event>
 5   0  0.2763895E-04  0.1610715E+04  0.7818609E-02  0.8813992E-01
       -1   -1    0    0    0  501  0.00000000000E+00  0.00000000000E+00  0.37419533250E+03  0.37419533253E+03  0.50400001928E-02 0.  1.
        1   -1    0    0  501    0  0.00000000000E+00  0.00000000000E+00 -0.17333205512E+04  0.17333205512E+04  0.50400001928E-02 0. -1.
    10030    2    1    2    0    0  0.00000000000E+00  0.00000000000E+00 -0.13591252187E+04  0.21075158837E+04  0.16107146985E+04 0.  0.
        4    1    3    3  502    0 -0.20581621928E+03  0.31201561440E+03  0.25382486542E+03  0.45182157424E+03  0.12699999809E+01 0.  1.
       -4    1    3    3    0  502  0.20581621928E+03 -0.31201561440E+03 -0.16129500841E+04  0.16556943095E+04  0.12699999809E+01 0. -1.
</event>
<event>
 5   0  0.2796994E-04  0.1605198E+04  0.7818609E-02  0.8817361E-01
       -1   -1    0    0    0  501  0.00000000000E+00  0.00000000000E+00  0.50458216564E+03  0.50458216566E+03  0.50400001928E-02 0. -1.
        1   -1    0    0  501    0  0.00000000000E+00  0.00000000000E+00 -0.12766310886E+04  0.12766310886E+04  0.50400001928E-02 0.  1.
    10030    2    1    2    0    0  0.00000000000E+00  0.00000000000E+00 -0.77204892298E+03  0.17812132543E+04  0.16051981553E+04 0.  0.
        3    1    3    3  502    0 -0.11937197166E+03  0.44446424136E+03  0.34362389080E+03  0.57434790676E+03  0.10100000352E+00 0. -1.
       -3    1    3    3    0  502  0.11937197166E+03 -0.44446424136E+03 -0.11156728138E+04  0.12068653475E+04  0.10100000352E+00 0.  1.
</event>
<event>
 5   0  0.5131239E-04  0.1553141E+04  0.7818609E-02  0.8849864E-01
       -2   -1    0    0    0  501  0.00000000000E+00  0.00000000000E+00  0.50226576602E+03  0.50226576603E+03  0.25500000920E-02 0.  1.
        2   -1    0    0  501    0  0.00000000000E+00  0.00000000000E+00 -0.12006828279E+04  0.12006828279E+04  0.25500000920E-02 0. -1.
    10030    2    1    2    0    0  0.00000000000E+00  0.00000000000E+00 -0.69841706187E+03  0.17029485939E+04  0.15531411788E+04 0.  0.
        1    1    3    3  502    0  0.66766733550E+03 -0.39539597298E+03 -0.38290081121E+03  0.86529224982E+03  0.50400001928E-02 0.  1.
       -1    1    3    3    0  502 -0.66766733550E+03  0.39539597298E+03 -0.31551625066E+03  0.83765634410E+03  0.50400001928E-02 0. -1.
</event>
<event>
 5   0  0.5083831E-04  0.1599272E+04  0.7818609E-02  0.8820995E-01
        2   -1    0    0  501    0  0.00000000000E+00  0.00000000000E+00  0.15847688147E+04  0.15847688147E+04  0.25500000920E-02 0.  1.
       -2   -1    0    0    0  501  0.00000000000E+00  0.00000000000E+00 -0.40347695788E+03  0.40347695788E+03  0.25500000920E-02 0. -1.
    10030    2    1    2    0    0  0.00000000000E+00  0.00000000000E+00  0.11812918568E+04  0.19882457726E+04  0.15992719597E+04 0.  0.
        4    1    3    3  502    0 -0.12091641999E+03 -0.75847121708E+03  0.86729147155E+03  0.11584884450E+04  0.12699999809E+01 0.  1.
       -4    1    3    3    0  502  0.12091641999E+03  0.75847121708E+03  0.31400038526E+03  0.82975732754E+03  0.12699999809E+01 0. -1.
</event>
<event>
 5   0  0.5264308E-04  0.1593952E+04  0.7818609E-02  0.8824272E-01
       -2   -1    0    0    0  501  0.00000000000E+00  0.00000000000E+00  0.29881358807E+03  0.29881358808E+03  0.25500000920E-02 0.  1.
        2   -1    0    0  501    0  0.00000000000E+00  0.00000000000E+00 -0.21256428342E+04  0.21256428342E+04  0.25500000920E-02 0. -1.
    10030    2    1    2    0    0  0.00000000000E+00  0.00000000000E+00 -0.18268292461E+04  0.24244564222E+04  0.15939522731E+04 0.  0.
        3    1    3    3  502    0  0.72985619614E+03  0.25109591441E+03 -0.12154528880E+04  0.14398142097E+04  0.10100000352E+00 0. -1.
       -3    1    3    3    0  502 -0.72985619614E+03 -0.25109591441E+03 -0.61137635807E+03  0.98464221253E+03  0.10100000352E+00 0.  1.
</event>
<event>
 5   0  0.2763895E-04  0.1597056E+04  0.7818609E-02  0.8822359E-01
        1   -1    0    0  501    0  0.00000000000E+00  0.00000000000E+00  0.74287602621E+03  0.74287602623E+03  0.50400001928E-02 0.  1.
       -1   -1    0    0    0  501  0.00000000000E+00  0.00000000000E+00 -0.85834863923E+03  0.85834863924E+03  0.50400001928E-02 0. -1.
    10030    2    1    2    0    0  0.00000000000E+00  0.00000000000E+00 -0.11547261301E+03  0.16012246655E+04  0.15970555735E+04 0.  0.
        4    1    3    3  502    0  0.46124456170E+03 -0.33393969383E+03 -0.61900366433E+03  0.84108823209E+03  0.12699999809E+01 0. -1.
       -4    1    3    3    0  502 -0.46124456170E+03  0.33393969383E+03  0.50353105131E+03  0.76013643338E+03  0.12699999809E+01 0.  1.
</event>
<event>
 5   0  0.2649086E-04  0.1605092E+04  0.7818609E-02  0.8817426E-01
        1   -1    0    0  501    0  0.00000000000E+00  0.00000000000E+00  0.11768456220E+04  0.11768456220E+04  0.50400001928E-02 0.  1.
       -1   -1    0    0    0  501  0.00000000000E+00  0.00000000000E+00 -0.54729390259E+03  0.54729390262E+03  0.50400001928E-02 0. -1.
    10030    2    1    2    0    0  0.00000000000E+00  0.00000000000E+00  0.62955171942E+03  0.17241395246E+04  0.16050924375E+04 0.  0.
        2    1    3    3  502    0 -0.43162165184E+03  0.31478773712E+03  0.95810484929E+03  0.10969746907E+04  0.25500000920E-02 0.  1.
       -2    1    3    3    0  502  0.43162165184E+03 -0.31478773712E+03 -0.32855312987E+03  0.62716483395E+03  0.25500000920E-02 0. -1.
</event>
<event>
 5   0  0.5381164E-04  0.1631212E+04  0.7818609E-02  0.8801600E-01
       -2   -1    0    0    0  501  0.00000000000E+00  0.00000000000E+00  0.23926429235E+03  0.23926429236E+03  0.25500000920E-02 0. -1.
        2   -1    0    0  501    0  0.00000000000E+00  0.00000000000E+00 -0.27802436553E+04  0.27802436553E+04  0.25500000920E-02 0.  1.
    10030    2    1    2    0    0  0.00000000000E+00  0.00000000000E+00 -0.25409793629E+04  0.30195079476E+04  0.16312118572E+04 0.  0.
        5    1    3    3  502    0 -0.35934459492E+03  0.64510193181E+03 -0.62950731112E+03  0.97035384529E+03  0.46999998093E+01 0. -1.
       -5    1    3    3    0  502  0.35934459492E+03 -0.64510193181E+03 -0.19114720518E+04  0.20491541023E+04  0.46999998093E+01 0.  1.
</event>
<event>
 5   0  0.2689675E-04  0.1642976E+04  0.7818609E-02  0.8794573E-01
       -1   -1    0    0    0  501  0.00000000000E+00  0.00000000000E+00  0.50066869862E+03  0.50066869864E+03  0.50400001928E-02 0. -1.
        1   -1    0    0  501    0  0.00000000000E+00  0.00000000000E+00 -0.13478827715E+04  0.13478827715E+04  0.50400001928E-02 0.  1.
    10030    2    1    2    0    0  0.00000000000E+00  0.00000000000E+00 -0.84721407286E+03  0.18485514701E+04  0.16429762179E+04 0.  0.
        1    1    3    3  502    0 -0.67930320968E+03 -0.14378466404E+03 -0.91752971613E+03  0.11506466270E+04  0.50400001928E-02 0.  1.
       -1    1    3    3    0  502  0.67930320968E+03  0.14378466404E+03  0.70315643267E+02  0.69790484309E+03  0.50400001928E-02 0. -1.
</event>
<event>
 5   0  0.5264308E-04  0.1611702E+04  0.7818609E-02  0.8813391E-01
        2   -1    0    0  501    0  0.00000000000E+00  0.00000000000E+00  0.10161819874E+04  0.10161819874E+04  0.25500000920E-02 0. -1.
       -2   -1    0    0    0  501  0.00000000000E+00  0.00000000000E+00 -0.63905427927E+03  0.63905427928E+03  0.25500000920E-02 0.  1.
    10030    2    1    2    0    0  0.00000000000E+00  0.00000000000E+00  0.37712770809E+03  0.16552362666E+04  0.16117015202E+04 0.  0.
        3    1    3    3  502    0  0.47722025886E+03 -0.50457192272E+03 -0.23121067520E+03  0.73197704007E+03  0.10100000352E+00 0.  1.
       -3    1    3    3    0  502 -0.47722025886E+03  0.50457192272E+03  0.60833838329E+03  0.92325922657E+03  0.10100000352E+00 0. -1.
</event>
<event>
 5   0  0.2649086E-04  0.1595999E+04  0.7818609E-02  0.8823010E-01
        1   -1    0    0  501    0  0.00000000000E+00  0.00000000000E+00  0.50487720552E+03  0.50487720555E+03  0.50400001928E-02 0. -1.
       -1   -1    0    0    0  501  0.00000000000E+00  0.00000000000E+00 -0.12613033590E+04  0.12613033590E+04  0.50400001928E-02 0.  1.
    10030    2    1    2    0    0  0.00000000000E+00  0.00000000000E+00 -0.75642615347E+03  0.17661805645E+04  0.15959991419E+04 0.  0.
        2    1    3    3  502    0  0.65590876855E+03  0.45203030118E+03 -0.43077053979E+03  0.90559978125E+03  0.25500000920E-02 0. -1.
       -2    1    3    3    0  502 -0.65590876855E+03 -0.45203030118E+03 -0.32565561367E+03  0.86058078329E+03  0.25500000920E-02 0.  1.
</event>
<event>
 5   0  0.2763895E-04  0.1590382E+04  0.7818609E-02  0.8826479E-01
        1   -1    0    0  501    0  0.00000000000E+00  0.00000000000E+00  0.97222504930E+03  0.97222504931E+03  0.50400001928E-02 0.  1.
       -1   -1    0    0    0  501  0.00000000000E+00  0.00000000000E+00 -0.65039309676E+03  0.65039309678E+03  0.50400001928E-02 0. -1.
    10030    2    1    2    0    0  0.00000000000E+00  0.00000000000E+00  0.32183195254E+03  0.16226181461E+04  0.15903816656E+04 0.  0.
        4    1    3    3  502    0 -0.37125288242E+03  0.40410206852E+03 -0.42624868743E+03  0.69485015717E+03  0.12699999809E+01 0. -1.
       -4    1    3    3    0  502  0.37125288242E+03 -0.40410206852E+03  0.74808063997E+03  0.92776798893E+03  0.12699999809E+01 0.  1.
</event>
<event>
 5   0  0.1908125E-04  0.1592285E+04  0.7818609E-02  0.8825302E-01
        3   -1    0    0  501    0  0.00000000000E+00  0.00000000000E+00  0.45221287244E+03  0.45221288372E+03  0.10100000352E+00 0. -1.
       -3   -1    0    0    0  501  0.00000000000E+00  0.00000000000E+00 -0.14016466548E+04  0.14016466584E+04  0.10100000352E+00 0.  1.
    10030    2    1    2    0    0  0.00000000000E+00  0.00000000000E+00 -0.94943378236E+03  0.18538595422E+04  0.15922847405E+04 0.  0.
        4    1    3    3  502    0 -0.44299063204E+03 -0.65056571477E+03 -0.61425827850E+03  0.99839435841E+03  0.12699999809E+01 0.  1.
       -4    1    3    3    0  502  0.44299063204E+03  0.65056571477E+03 -0.33517550386E+03  0.85546518374E+03  0.12699999809E+01 0. -1.
</event>
<event>
 5   0  0.5083831E-04  0.1623130E+04  0.7818609E-02  0.8806463E-01
        2   -1    0    0  501    0  0.00000000000E+00  0.00000000000E+00  0.11759426073E+04  0.11759426073E+04  0.25500000920E-02 0. -1.
       -2   -1    0    0    0  501  0.00000000000E+00  0.00000000000E+00 -0.56009378959E+03  0.56009378959E+03  0.25500000920E-02 0.  1.
    10030    2    1    2    0    0  0.00000000000E+00  0.00000000000E+00  0.61584881771E+03  0.17360363969E+04  0.16231304954E+04 0.  0.
        4    1    3    3  502    0  0.23694353269E+02  0.56373212424E+03 -0.31598907529E+03  0.64668851766E+03  0.12699999809E+01 0.  1.
       -4    1    3    3    0  502 -0.23694353269E+02 -0.56373212424E+03  0.93183789300E+03  0.10893478792E+04  0.12699999809E+01 0. -1.
</event>
<event>
 5   0  0.2730707E-04  0.1636287E+04  0.7818609E-02  0.8798561E-01
        1   -1    0    0  501    0  0.00000000000E+00  0.00000000000E+00  0.55861118504E+03  0.55861118506E+03  0.50400001928E-02 0.  1.
       -1   -1    0    0    0  501  0.00000000000E+00  0.00000000000E+00 -0.11982547972E+04  0.11982547972E+04  0.50400001928E-02 0. -1.
    10030    2    1    2    0    0  0.00000000000E+00  0.00000000000E+00 -0.63964361219E+03  0.17568659823E+04  0.16362866892E+04 0.  0.
        5    1    3    3  502    0 -0.48129766714E+02  0.23504815691E+03 -0.11596184835E+04  0.11841880036E+04  0.46999998093E+01 0. -1.
       -5    1    3    3    0  502  0.48129766714E+02 -0.23504815691E+03  0.51997487132E+03  0.57267797873E+03  0.46999998093E+01 0.  1.
</event>
<event>
 5   0  0.5315984E-04  0.1585897E+04  0.7818609E-02  0.8829259E-01
       -2   -1    0    0    0  501  0.00000000000E+00  0.00000000000E+00  0.46942464252E+03  0.46942464252E+03  0.25500000920E-02 0.  1.
        2   -1    0    0  501    0  0.00000000000E+00  0.00000000000E+00 -0.13394430216E+04  0.13394430216E+04  0.25500000920E-02 0. -1.
    10030    2    1    2    0    0  0.00000000000E+00  0.00000000000E+00 -0.87001837913E+03  0.18088676642E+04  0.15858973001E+04 0.  0.
        2    1    3    3  502    0 -0.53181074109E+03 -0.23032768175E+03 -0.10522960246E+04  0.12013327719E+04  0.25500000920E-02 0. -1.
       -2    1    3    3    0  502  0.53181074109E+03  0.23032768175E+03  0.18227764548E+03  0.60753489231E+03  0.25500000920E-02 0.  1.
</event>
<event>
 5   0  0.2763895E-04  0.1595202E+04  0.7818609E-02  0.8823501E-01
        1   -1    0    0  501    0  0.00000000000E+00  0.00000000000E+00  0.90621232249E+03  0.90621232250E+03  0.50400001928E-02 0. -1.
       -1   -1    0    0    0  501  0.00000000000E+00  0.00000000000E+00 -0.70200692792E+03  0.70200692794E+03  0.50400001928E-02 0.  1.
    10030    2    1    2    0    0  0.00000000000E+00  0.00000000000E+00  0.20420539457E+03  0.16082192504E+04  0.15952019666E+04 0.  0.
        4    1    3    3  502    0 -0.16641897937E+02 -0.34918740341E+03 -0.62065535516E+03  0.71233663268E+03  0.12699999809E+01 0.  1.
       -4    1    3    3    0  502  0.16641897937E+02  0.34918740341E+03  0.82486074972E+03  0.89588261776E+03  0.12699999809E+01 0. -1.
</event>
<event>
 5   0  0.2689675E-04  0.1519502E+04  0.7818609E-02  0.8871587E-01
       -1   -1    0    0    0  501  0.00000000000E+00  0.00000000000E+00  0.44058103819E+03  0.44058103822E+03  0.50400001928E-02 0. -1.
        1   -1    0    0  501    0  0.00000000000E+00  0.00000000000E+00 -0.13101371475E+04  0.13101371475E+04  0.50400001928E-02 0.  1.
    10030    2    1    2    0    0  0.00000000000E+00  0.00000000000E+00 -0.86955610934E+03  0.17507181858E+04  0.15195020035E+04 0.  0.
        1    1    3    3  502    0 -0.31079856529E+03  0.65568432597E+03 -0.17533882060E+03  0.74649942099E+03  0.50400001928E-02 0. -1.
       -1    1    3    3    0  502  0.31079856529E+03 -0.65568432597E+03 -0.69421728874E+03  0.10042187648E+04  0.50400001928E-02 0.  1.
</event>
<event>
 5   0  0.5315984E-04  0.1610734E+04  0.7818609E-02  0.8813980E-01
       -2   -1    0    0    0  501  0.00000000000E+00  0.00000000000E+00  0.25881090869E+03  0.25881090870E+03  0.25500000920E-02 0.  1.
        2   -1    0    0  501    0  0.00000000000E+00  0.00000000000E+00 -0.25061397160E+04  0.25061397160E+04  0.25500000920E-02 0. -1.
    10030    2    1    2    0    0  0.00000000000E+00  0.00000000000E+00 -0.22473288073E+04  0.27649506247E+04  0.16107343632E+04 0.  0.
        2    1    3    3  502    0 -0.14018999736E+03 -0.75736663086E+03 -0.15275487113E+04  0.17107491091E+04  0.25500000920E-02 0. -1.
       -2    1    3    3    0  502  0.14018999736E+03  0.75736663086E+03 -0.71978009606E+03  0.10542015156E+04  0.25500000920E-02 0.  1.
</event>
<event>
 5   0  0.5131239E-04  0.1576064E+04  0.7818609E-02  0.8835389E-01
        2   -1    0    0  501    0  0.00000000000E+00  0.00000000000E+00  0.10398481881E+04  0.10398481881E+04  0.25500000920E-02 0.  1.
       -2   -1    0    0    0  501  0.00000000000E+00  0.00000000000E+00 -0.59719731738E+03  0.59719731738E+03  0.25500000920E-02 0. -1.
    10030    2    1    2    0    0  0.00000000000E+00  0.00000000000E+00  0.44265087075E+03  0.16370455055E+04  0.15760641465E+04 0.  0.
        1    1    3    3  502    0  0.58402761870E+03  0.51493354561E+03  0.34747301898E+03  0.85263257899E+03  0.50400001928E-02 0.  1.
       -1    1    3    3    0  502 -0.58402761870E+03 -0.51493354561E+03  0.95177851763E+02  0.78441292652E+03  0.50400001928E-02 0. -1.
</event>
<event>
 5   0  0.2649086E-04  0.1588855E+04  0.7818609E-02  0.8827424E-01
        1   -1    0    0  501    0  0.00000000000E+00  0.00000000000E+00  0.90161292590E+03  0.90161292591E+03  0.50400001928E-02 0. -1.
       -1   -1    0    0    0  501  0.00000000000E+00  0.00000000000E+00 -0.69998426342E+03  0.69998426344E+03  0.50400001928E-02 0.  1.
    10030    2    1    2    0    0  0.00000000000E+00  0.00000000000E+00  0.20162866248E+03  0.16015971894E+04  0.15888547572E+04 0.  0.
        2    1    3    3  502    0 -0.47114082908E+03 -0.39703140598E+03 -0.40471265765E+03  0.73715666817E+03  0.25500000920E-02 0.  1.
       -2    1    3    3    0  502  0.47114082908E+03  0.39703140598E+03  0.60634132013E+03  0.86444052118E+03  0.25500000920E-02 0. -1.
</event>
<event>
 5   0  0.2689675E-04  0.1586537E+04  0.7818609E-02  0.8828862E-01
       -1   -1    0    0    0  501  0.00000000000E+00  0.00000000000E+00  0.60461463518E+03  0.60461463520E+03  0.50400001928E-02 0. -1.
        1   -1    0    0  501    0  0.00000000000E+00  0.00000000000E+00 -0.10407865042E+04  0.10407865042E+04  0.50400001928E-02 0.  1.
    10030    2    1    2    0    0  0.00000000000E+00  0.00000000000E+00 -0.43617186904E+03  0.16454011394E+04  0.15865367977E+04 0.  0.
        1    1    3    3  502    0 -0.55837164710E+03  0.37219382469E+03  0.22065571861E+03  0.70639654982E+03  0.50400001928E-02 0. -1.
       -1    1    3    3    0  502  0.55837164710E+03 -0.37219382469E+03 -0.65682758765E+03  0.93900458962E+03  0.50400001928E-02 0.  1.
</event>
<event>
 5   0  0.2763895E-04  0.1593038E+04  0.7818609E-02  0.8824837E-01
       -1   -1    0    0    0  501  0.00000000000E+00  0.00000000000E+00  0.78835193473E+03  0.78835193475E+03  0.50400001928E-02 0. -1.
        1   -1    0    0  501    0  0.00000000000E+00  0.00000000000E+00 -0.80477031864E+03  0.80477031865E+03  0.50400001928E-02 0.  1.
    10030    2    1    2    0    0  0.00000000000E+00  0.00000000000E+00 -0.16418383902E+02  0.15931222534E+04  0.15930376489E+04 0.  0.
        4    1    3    3  502    0 -0.30233577137E+03 -0.42402070956E+03  0.59451688816E+03  0.79034955810E+03  0.12699999809E+01 0. -1.
       -4    1    3    3    0  502  0.30233577137E+03  0.42402070956E+03 -0.61093527206E+03  0.80277269530E+03  0.12699999809E+01 0.  1.
</event>
<event>
 5   0  0.5083831E-04  0.1600418E+04  0.7818609E-02  0.8820292E-01
        2   -1    0    0  501    0  0.00000000000E+00  0.00000000000E+00  0.73947403971E+03  0.73947403972E+03  0.25500000920E-02 0. -1.
       -2   -1    0    0    0  501  0.00000000000E+00  0.00000000000E+00 -0.86593180954E+03  0.86593180954E+03  0.25500000920E-02 0.  1.
    10030    2    1    2    0    0  0.00000000000E+00  0.00000000000E+00 -0.12645776982E+03  0.16054058493E+04  0.16004175622E+04 0.  0.
        4    1    3    3  502    0  0.65549055231E+03  0.35033053142E+03  0.23423059278E+03  0.77927205064E+03  0.12699999809E+01 0. -1.
       -4    1    3    3    0  502 -0.65549055231E+03 -0.35033053142E+03 -0.36068836260E+03  0.82613379862E+03  0.12699999809E+01 0.  1.
</event>
<event>
 5   0  0.2796994E-04  0.1605831E+04  0.7818609E-02  0.8816974E-01
       -1   -1    0    0    0  501  0.00000000000E+00  0.00000000000E+00  0.81829027903E+03  0.81829027904E+03  0.50400001928E-02 0. -1.
        1   -1    0    0  501    0  0.00000000000E+00  0.00000000000E+00 -0.78782974260E+03  0.78782974261E+03  0.50400001928E-02 0.  1.
    10030    2    1    2    0    0  0.00000000000E+00  0.00000000000E+00  0.30460536430E+02  0.16061200217E+04  0.16058311492E+04 0.  0.
        3    1    3    3  502    0  0.44895749705E+02 -0.79688404999E+03  0.10261641651E+03  0.80471731472E+03  0.10100000352E+00 0. -1.
       -3    1    3    3    0  502 -0.44895749705E+02  0.79688404999E+03 -0.72155880084E+02  0.80140270694E+03  0.10100000352E+00 0.  1.
</event>
<event>
 5   0  0.2689675E-04  0.1584839E+04  0.7818609E-02  0.8829916E-01
       -1   -1    0    0    0  501  0.00000000000E+00  0.00000000000E+00  0.62583759827E+03  0.62583759830E+03  0.50400001928E-02 0.  1.
        1   -1    0    0  501    0  0.00000000000E+00  0.00000000000E+00 -0.10033413475E+04  0.10033413475E+04  0.50400001928E-02 0. -1.
    10030    2    1    2    0    0  0.00000000000E+00  0.00000000000E+00 -0.37750374920E+03  0.16291789458E+04  0.15848390949E+04 0.  0.
        1    1    3    3  502    0  0.18061616962E+03  0.48331061374E+03 -0.80700782768E+03  0.95784810072E+03  0.50400001928E-02 0. -1.
       -1    1    3    3    0  502 -0.18061616962E+03 -0.48331061374E+03  0.42950407848E+03  0.67133084507E+03  0.50400001928E-02 0.  1.
</event>
<event>
 5   0  0.2689675E-04  0.1584990E+04  0.7818609E-02  0.8829823E-01
       -1   -1    0    0    0  501  0.00000000000E+00  0.00000000000E+00  0.83472746257E+03  0.83472746258E+03  0.50400001928E-02 0.  1.
        1   -1    0    0  501    0  0.00000000000E+00  0.00000000000E+00 -0.75239892240E+03  0.75239892241E+03  0.50400001928E-02 0. -1.
    10030    2    1    2    0    0  0.00000000000E+00  0.00000000000E+00  0.82328540173E+02  0.15871263850E+04  0.15849896446E+04 0.  0.
        1    1    3    3  502    0 -0.56852028280E+03  0.23598214242E+03 -0.45865305935E+03  0.76763631517E+03  0.50400001928E-02 0. -1.
       -1    1    3    3    0  502  0.56852028280E+03 -0.23598214242E+03  0.54098159952E+03  0.81949006982E+03  0.50400001928E-02 0.  1.
</event>
<event>
 5   0  0.5083831E-04  0.1604157E+04  0.7818609E-02  0.8817998E-01
       -2   -1    0    0    0  501  0.00000000000E+00  0.00000000000E+00  0.16797633372E+04  0.16797633372E+04  0.25500000920E-02 0. -1.
        2   -1    0    0  501    0  0.00000000000E+00  0.00000000000E+00 -0.38298844075E+03  0.38298844076E+03  0.25500000920E-02 0.  1.
    10030    2    1    2    0    0  0.00000000000E+00  0.00000000000E+00  0.12967748965E+04  0.20627517780E+04  0.16041570264E+04 0.  0.
        4    1    3    3  502    0 -0.32765110442E+03  0.67058258514E+03  0.27065390037E+03  0.79390893458E+03  0.12699999809E+01 0.  1.
       -4    1    3    3    0  502  0.32765110442E+03 -0.67058258514E+03  0.10261209961E+04  0.12688428434E+04  0.12699999809E+01 0. -1.
</event>
<event>
 5   0  0.5264308E-04  0.1590055E+04  0.7818609E-02  0.8826681E-01
       -2   -1    0    0    0  501  0.00000000000E+00  0.00000000000E+00  0.36847882323E+03  0.36847882324E+03  0.25500000920E-02 0.  1.
        2   -1    0    0  501    0  0.00000000000E+00  0.00000000000E+00 -0.17153467754E+04  0.17153467754E+04  0.25500000920E-02 0. -1.
    10030    2    1    2    0    0  0.00000000000E+00  0.00000000000E+00 -0.13468679522E+04  0.20838255986E+04  0.15900552962E+04 0.  0.
        3    1    3    3  502    0 -0.28545627443E+03  0.42044041650E+03 -0.14746998473E+04  0.15598061028E+04  0.10100000352E+00 0. -1.
       -3    1    3    3    0  502  0.28545627443E+03 -0.42044041650E+03  0.12783189512E+03  0.52401949587E+03  0.10100000352E+00 0.  1.
</event>
<event>
 5   0  0.5381164E-04  0.1589470E+04  0.7818609E-02  0.8827044E-01
        2   -1    0    0  501    0  0.00000000000E+00  0.00000000000E+00  0.85315227562E+03  0.85315227562E+03  0.25500000920E-02 0.  1.
       -2   -1    0    0    0  501  0.00000000000E+00  0.00000000000E+00 -0.74031722785E+03  0.74031722785E+03  0.25500000920E-02 0. -1.
    10030    2    1    2    0    0  0.00000000000E+00  0.00000000000E+00  0.11283504777E+03  0.15934695035E+04  0.15894695060E+04 0.  0.
        5    1    3    3  502    0 -0.65144965109E+03  0.42220961477E+03 -0.11410942610E+03  0.78465958086E+03  0.46999998093E+01 0.  1.
       -5    1    3    3    0  502  0.65144965109E+03 -0.42220961477E+03  0.22694447387E+03  0.80880992262E+03  0.46999998093E+01 0. -1.
</event>
<event>
 5   0  0.5264308E-04  0.1606769E+04  0.7818609E-02  0.8816400E-01
       -2   -1    0    0    0  501  0.00000000000E+00  0.00000000000E+00  0.41780899784E+03  0.41780899785E+03  0.25500000920E-02 0.  1.
        2   -1    0    0  501    0  0.00000000000E+00  0.00000000000E+00 -0.15447885389E+04  0.15447885389E+04  0.25500000920E-02 0. -1.
    10030    2    1    2    0    0  0.00000000000E+00  0.00000000000E+00 -0.11269795411E+04  0.19625975367E+04  0.16067688711E+04 0.  0.
        3    1    3    3  502    0 -0.26082351202E+03  0.76296940283E+02  0.35996364018E+03  0.45102545380E+03  0.10100000352E+00 0.  1.
       -3    1    3    3    0  502  0.26082351202E+03 -0.76296940283E+02 -0.14869431812E+04  0.15115720829E+04  0.10100000352E+00 0. -1.
</event>
<event>
 5   0  0.2730707E-04  0.1605007E+04  0.7818609E-02  0.8817478E-01
        1   -1    0    0  501    0  0.00000000000E+00  0.00000000000E+00  0.25617517292E+03  0.25617517297E+03  0.50400001928E-02 0. -1.
       -1   -1    0    0    0  501  0.00000000000E+00  0.00000000000E+00 -0.25139524475E+04  0.25139524475E+04  0.50400001928E-02 0.  1.
    10030    2    1    2    0    0  0.00000000000E+00  0.00000000000E+00 -0.22577772745E+04  0.27701276204E+04  0.16050074181E+04 0.  0.
        5    1    3    3  502    0 -0.72983709051E+03 -0.66917751754E+02 -0.16930585129E+04  0.18448873630E+04  0.46999998093E+01 0.  1.
       -5    1    3    3    0  502  0.72983709051E+03  0.66917751754E+02 -0.56471876166E+03  0.92524025742E+03  0.46999998093E+01 0. -1.
</event>
<event>
 5   0  0.5381164E-04  0.1598339E+04  0.7818609E-02  0.8821569E-01
       -2   -1    0    0    0  501  0.00000000000E+00  0.00000000000E+00  0.52812185796E+03  0.52812185797E+03  0.25500000920E-02 0. -1.
        2   -1    0    0  501    0  0.00000000000E+00  0.00000000000E+00 -0.12093266083E+04  0.12093266083E+04  0.25500000920E-02 0.  1.
    10030    2    1    2    0    0  0.00000000000E+00  0.00000000000E+00 -0.68120475036E+03  0.17374484663E+04  0.15983389068E+04 0.  0.
        5    1    3    3  502    0 -0.43849984434E+03  0.11767713321E+03  0.37429879747E+03  0.58843156012E+03  0.46999998093E+01 0. -1.
       -5    1    3    3    0  502  0.43849984434E+03 -0.11767713321E+03 -0.10555035478E+04  0.11490169062E+04  0.46999998093E+01 0.  1.
</event>
<event>
 5   0  0.5315984E-04  0.1599719E+04  0.7818609E-02  0.8820721E-01
       -2   -1    0    0    0  501  0.00000000000E+00  0.00000000000E+00  0.46541046832E+03  0.46541046833E+03  0.25500000920E-02 0. -1.
        2   -1    0    0  501    0  0.00000000000E+00  0.00000000000E+00 -0.13746468448E+04  0.13746468448E+04  0.25500000920E-02 0.  1.
    10030    2    1    2    0    0  0.00000000000E+00  0.00000000000E+00 -0.90923637651E+03  0.18400573132E+04  0.15997187651E+04 0.  0.
        2    1    3    3  502    0 -0.36024541068E+03 -0.13939431139E+03  0.35101453566E+03  0.52193748114E+03  0.25500000920E-02 0. -1.
       -2    1    3    3    0  502  0.36024541068E+03  0.13939431139E+03 -0.12602509122E+04  0.13181198320E+04  0.25500000920E-02 0.  1.
</event>
<event>
 5   0  0.5381164E-04  0.1611764E+04  0.7818609E-02  0.8813353E-01
       -2   -1    0    0    0  501  0.00000000000E+00  0.00000000000E+00  0.30314825020E+03  0.30314825022E+03  0.25500000920E-02 0. -1.
        2   -1    0    0  501    0  0.00000000000E+00  0.00000000000E+00 -0.21423370270E+04  0.21423370270E+04  0.25500000920E-02 0.  1.
    10030    2    1    2    0    0  0.00000000000E+00  0.00000000000E+00 -0.18391887768E+04  0.24454852772E+04  0.16117639047E+04 0.  0.
        5    1    3    3  502    0  0.51628921725E+03 -0.61565046483E+03 -0.10136601580E+04  0.12934871691E+04  0.46999998093E+01 0. -1.
       -5    1    3    3    0  502 -0.51628921725E+03  0.61565046483E+03 -0.82552861880E+03  0.11519981081E+04  0.46999998093E+01 0.  1.
</event>
<event>
 5   0  0.2689675E-04  0.1567082E+04  0.7818609E-02  0.8841030E-01
        1   -1    0    0  501    0  0.00000000000E+00  0.00000000000E+00  0.71367672126E+03  0.71367672128E+03  0.50400001928E-02 0. -1.
       -1   -1    0    0    0  501  0.00000000000E+00  0.00000000000E+00 -0.86024467131E+03  0.86024467132E+03  0.50400001928E-02 0.  1.
    10030    2    1    2    0    0  0.00000000000E+00  0.00000000000E+00 -0.14656795005E+03  0.15739213926E+04  0.15670821249E+04 0.  0.
        1    1    3    3  502    0  0.47738224585E+03 -0.60386306550E+03  0.73615033370E+02  0.77328105091E+03  0.50400001928E-02 0.  1.
       -1    1    3    3    0  502 -0.47738224585E+03  0.60386306550E+03 -0.22018298342E+03  0.80064034169E+03  0.50400001928E-02 0. -1.
</event>
<event>
 5   0  0.5315984E-04  0.1445426E+04  0.7818609E-02  0.8921578E-01
       -2   -1    0    0    0  501  0.00000000000E+00  0.00000000000E+00  0.49888867525E+03  0.49888867525E+03  0.25500000920E-02 0.  1.
        2   -1    0    0  501    0  0.00000000000E+00  0.00000000000E+00 -0.10469553970E+04  0.10469553971E+04  0.25500000920E-02 0. -1.
    10030    2    1    2    0    0  0.00000000000E+00  0.00000000000E+00 -0.54806672180E+03  0.15458440723E+04  0.14454261532E+04 0.  0.
        2    1    3    3  502    0 -0.27002064067E+03  0.46155667590E+03  0.24592020063E+03  0.58857663608E+03  0.25500000920E-02 0.  1.
       -2    1    3    3    0  502  0.27002064067E+03 -0.46155667590E+03 -0.79398692243E+03  0.95726743622E+03  0.25500000920E-02 0. -1.
</event>
<event>
 5   0  0.2730707E-04  0.1586014E+04  0.7818609E-02  0.8829187E-01
       -1   -1    0    0    0  501  0.00000000000E+00  0.00000000000E+00  0.62528076284E+03  0.62528076286E+03  0.50400001928E-02 0.  1.
        1   -1    0    0  501    0  0.00000000000E+00  0.00000000000E+00 -0.10057242393E+04  0.10057242393E+04  0.50400001928E-02 0. -1.
    10030    2    1    2    0    0  0.00000000000E+00  0.00000000000E+00 -0.38044347645E+03  0.16310050022E+04  0.15860138960E+04 0.  0.
        5    1    3    3  502    0 -0.90077094141E+02  0.31163820681E+02 -0.99979764644E+03  0.10043418195E+04  0.46999998093E+01 0. -1.
       -5    1    3    3    0  502  0.90077094141E+02 -0.31163820681E+02  0.61935416998E+03  0.62666318264E+03  0.46999998093E+01 0.  1.
</event>
<event>
 5   0  0.2796994E-04  0.1600380E+04  0.7818609E-02  0.8820315E-01
       -1   -1    0    0    0  501  0.00000000000E+00  0.00000000000E+00  0.80934628525E+03  0.80934628526E+03  0.50400001928E-02 0.  1.
        1   -1    0    0  501    0  0.00000000000E+00  0.00000000000E+00 -0.79113725034E+03  0.79113725035E+03  0.50400001928E-02 0. -1.
    10030    2    1    2    0    0  0.00000000000E+00  0.00000000000E+00  0.18209034910E+02  0.16004835356E+04  0.16003799483E+04 0.  0.
        3    1    3    3  502    0 -0.38723524670E+03 -0.46037448407E+03  0.53678266244E+03  0.80624527209E+03  0.10100000352E+00 0.  1.
       -3    1    3    3    0  502  0.38723524670E+03  0.46037448407E+03 -0.51857362753E+03  0.79423826352E+03  0.10100000352E+00 0. -1.
</event>
<event>
 5   0  0.5083831E-04  0.1604622E+04  0.7818609E-02  0.8817713E-01
       -2   -1    0    0    0  501  0.00000000000E+00  0.00000000000E+00  0.10022807423E+04  0.10022807423E+04  0.25500000920E-02 0. -1.
        2   -1    0    0  501    0  0.00000000000E+00  0.00000000000E+00 -0.64223832988E+03  0.64223832988E+03  0.25500000920E-02 0.  1.
    10030    2    1    2    0    0  0.00000000000E+00  0.00000000000E+00  0.36004241247E+03  0.16445190722E+04  0.16046222110E+04 0.  0.
        4    1    3    3  502    0  0.22954602028E+03 -0.10447487973E+03  0.96059815441E+03  0.99315497435E+03  0.12699999809E+01 0. -1.
       -4    1    3    3    0  502 -0.22954602028E+03  0.10447487973E+03 -0.60055574195E+03  0.65136409788E+03  0.12699999809E+01 0.  1.
</event>
<event>
 5   0  0.2730707E-04  0.1600858E+04  0.7818609E-02  0.8820021E-01
       -1   -1    0    0    0  501  0.00000000000E+00  0.00000000000E+00  0.52345564077E+03  0.52345564079E+03  0.50400001928E-02 0.  1.
        1   -1    0    0  501    0  0.00000000000E+00  0.00000000000E+00 -0.12239555138E+04  0.12239555138E+04  0.50400001928E-02 0. -1.
    10030    2    1    2    0    0  0.00000000000E+00  0.00000000000E+00 -0.70049987306E+03  0.17474111546E+04  0.16008577923E+04 0.  0.
        5    1    3    3  502    0 -0.52361808023E+03 -0.59980205527E+03 -0.43976960546E+03  0.90959210382E+03  0.46999998093E+01 0.  1.
       -5    1    3    3    0  502  0.52361808023E+03  0.59980205527E+03 -0.26073026760E+03  0.83781905081E+03  0.46999998093E+01 0. -1.
</event>
<event>
 5   0  0.2689675E-04  0.1592544E+04  0.7818609E-02  0.8825142E-01
       -1   -1    0    0    0  501  0.00000000000E+00  0.00000000000E+00  0.78140222798E+03  0.78140222799E+03  0.50400001928E-02 0. -1.
        1   -1    0    0  501    0  0.00000000000E+00  0.00000000000E+00 -0.81142423396E+03  0.81142423397E+03  0.50400001928E-02 0.  1.
    10030    2    1    2    0    0  0.00000000000E+00  0.00000000000E+00 -0.30022005978E+02  0.15928264620E+04  0.15925435056E+04 0.  0.
        1    1    3    3  502    0 -0.26641268715E+03 -0.34139995047E+03 -0.68335054509E+03  0.80901026789E+03  0.50400001928E-02 0.  1.
       -1    1    3    3    0  502  0.26641268715E+03  0.34139995047E+03  0.65332853911E+03  0.78381619408E+03  0.50400001928E-02 0. -1.
</event>
<event>
 5   0  0.2730707E-04  0.1616364E+04  0.7818609E-02  0.8810557E-01
        1   -1    0    0  501    0  0.00000000000E+00  0.00000000000E+00  0.11241304145E+04  0.11241304145E+04  0.50400001928E-02 0. -1.
       -1   -1    0    0    0  501  0.00000000000E+00  0.00000000000E+00 -0.58103449503E+03  0.58103449505E+03  0.50400001928E-02 0.  1.
    10030    2    1    2    0    0  0.00000000000E+00  0.00000000000E+00  0.54309591943E+03  0.17051649095E+04  0.16163644982E+04 0.  0.
        5    1    3    3  502    0  0.32820744795E+02  0.13500335426E+03  0.11114229077E+04  0.11200830669E+04  0.46999998093E+01 0. -1.
       -5    1    3    3    0  502 -0.32820744795E+02 -0.13500335426E+03 -0.56832698829E+03  0.58508184263E+03  0.46999998093E+01 0.  1.
</event>
<event>
 5   0  0.5381164E-04  0.1600159E+04  0.7818609E-02  0.8820450E-01
        2   -1    0    0  501    0  0.00000000000E+00  0.00000000000E+00  0.11647866082E+04  0.11647866082E+04  0.25500000920E-02 0. -1.
       -2   -1    0    0    0  501  0.00000000000E+00  0.00000000000E+00 -0.54956632562E+03  0.54956632563E+03  0.25500000920E-02 0.  1.
    10030    2    1    2    0    0  0.00000000000E+00  0.00000000000E+00  0.61522028255E+03  0.17143529338E+04  0.16001593626E+04 0.  0.
        5    1    3    3  502    0  0.50496674287E+03 -0.58870217083E+03  0.97273964513E+02  0.78169429544E+03  0.46999998093E+01 0.  1.
       -5    1    3    3    0  502 -0.50496674287E+03  0.58870217083E+03  0.51794631804E+03  0.93265863837E+03  0.46999998093E+01 0. -1.
</event>
<event>
 5   0  0.2763895E-04  0.1618326E+04  0.7818609E-02  0.8809368E-01
        1   -1    0    0  501    0  0.00000000000E+00  0.00000000000E+00  0.57641780724E+03  0.57641780726E+03  0.50400001928E-02 0. -1.
       -1   -1    0    0    0  501  0.00000000000E+00  0.00000000000E+00 -0.11358850944E+04  0.11358850945E+04  0.50400001928E-02 0.  1.
    10030    2    1    2    0    0  0.00000000000E+00  0.00000000000E+00 -0.55946728721E+03  0.17123029017E+04  0.16183255488E+04 0.  0.
        4    1    3    3  502    0  0.48593686974E+03  0.40852399357E+03 -0.81058185865E+03  0.10295975219E+04  0.12699999809E+01 0.  1.
       -4    1    3    3    0  502 -0.48593686974E+03 -0.40852399357E+03  0.25111457144E+03  0.68270537978E+03  0.12699999809E+01 0. -1.
</event>
<event>
 5   0  0.1908125E-04  0.1594652E+04  0.7818609E-02  0.8823840E-01
        3   -1    0    0  501    0  0.00000000000E+00  0.00000000000E+00  0.14781161150E+04  0.14781161185E+04  0.10100000352E+00 0. -1.
       -3   -1    0    0    0  501  0.00000000000E+00  0.00000000000E+00 -0.43009391071E+03  0.43009392257E+03  0.10100000352E+00 0.  1.
    10030    2    1    2    0    0  0.00000000000E+00  0.00000000000E+00  0.10480222043E+04  0.19082100410E+04  0.15946520059E+04 0.  0.
        2    1    3    3  502    0  0.53474960527E+03  0.22332893037E+03  0.11793190686E+04  0.13140115742E+04  0.25500000920E-02 0. -1.
       -2    1    3    3    0  502 -0.53474960527E+03 -0.22332893037E+03 -0.13129686428E+03  0.59419846689E+03  0.25500000920E-02 0.  1.
</event>
<event>
 5   0  0.5381164E-04  0.1596696E+04  0.7818609E-02  0.8822581E-01
       -2   -1    0    0    0  501  0.00000000000E+00  0.00000000000E+00  0.80533445575E+03  0.80533445575E+03  0.25500000920E-02 0.  1.
        2   -1    0    0  501    0  0.00000000000E+00  0.00000000000E+00 -0.79142175044E+03  0.79142175045E+03  0.25500000920E-02 0. -1.
    10030    2    1    2    0    0  0.00000000000E+00  0.00000000000E+00  0.13912705307E+02  0.15967562062E+04  0.15966955936E+04 0.  0.
        5    1    3    3  502    0 -0.43053623756E+03 -0.66230408450E+03 -0.10849915588E+03  0.79737212707E+03  0.46999998093E+01 0. -1.
       -5    1    3    3    0  502  0.43053623756E+03  0.66230408450E+03  0.12241186119E+03  0.79938407913E+03  0.46999998093E+01 0.  1.
</event>
<event>
 5   0  0.2730707E-04  0.1591383E+04  0.7818609E-02  0.8825860E-01
        1   -1    0    0  501    0  0.00000000000E+00  0.00000000000E+00  0.83087693003E+03  0.83087693005E+03  0.50400001928E-02 0. -1.
       -1   -1    0    0    0  501  0.00000000000E+00  0.00000000000E+00 -0.76199561700E+03  0.76199561702E+03  0.50400001928E-02 0.  1.
    10030    2    1    2    0    0  0.00000000000E+00  0.00000000000E+00  0.68881313033E+02  0.15928725471E+04  0.15913825172E+04 0.  0.
        5    1    3    3  502    0  0.54052257690E+03 -0.50705256863E+03  0.32425540999E+03  0.80896886491E+03  0.46999998093E+01 0.  1.
       -5    1    3    3    0  502 -0.54052257690E+03  0.50705256863E+03 -0.25537409696E+03  0.78390368215E+03  0.46999998093E+01 0. -1.
</event>
<event>
 5   0  0.5083831E-04  0.1630513E+04  0.7818609E-02  0.8802019E-01
       -2   -1    0    0    0  501  0.00000000000E+00  0.00000000000E+00  0.84627964473E+03  0.84627964473E+03  0.25500000920E-02 0. -1.
        2   -1    0    0  501    0  0.00000000000E+00  0.00000000000E+00 -0.78537083504E+03  0.78537083505E+03  0.25500000920E-02 0.  1.
    10030    2    1    2    0    0  0.00000000000E+00  0.00000000000E+00  0.60908809686E+02  0.16316504798E+04  0.16305132336E+04 0.  0.
        4    1    3    3  502    0 -0.52197586055E+03  0.62613734917E+03  0.42079707891E+02  0.81625920745E+03  0.12699999809E+01 0.  1.
       -4    1    3    3    0  502  0.52197586055E+03 -0.62613734917E+03  0.18829101795E+02  0.81539127234E+03  0.12699999809E+01 0. -1.
</event>
<event>
 5   0  0.2763895E-04  0.1618241E+04  0.7818609E-02  0.8809419E-01
        1   -1    0    0  501    0  0.00000000000E+00  0.00000000000E+00  0.52859261387E+03  0.52859261390E+03  0.50400001928E-02 0. -1.
       -1   -1    0    0    0  501  0.00000000000E+00  0.00000000000E+00 -0.12385272436E+04  0.12385272436E+04  0.50400001928E-02 0.  1.
    10030    2    1    2    0    0  0.00000000000E+00  0.00000000000E+00 -0.70993462973E+03  0.17671198575E+04  0.16182414567E+04 0.  0.
        4    1    3    3  502    0  0.63203324713E+03 -0.37928690722E+03  0.94240699687E+01  0.73716688033E+03  0.12699999809E+01 0. -1.
       -4    1    3    3    0  502 -0.63203324713E+03  0.37928690722E+03 -0.71935869970E+03  0.10299529772E+04  0.12699999809E+01 0.  1.
</event>
<event>
 5   0  0.2649086E-04  0.1604406E+04  0.7818609E-02  0.8817846E-01
       -1   -1    0    0    0  501  0.00000000000E+00  0.00000000000E+00  0.85389553417E+03  0.85389553419E+03  0.50400001928E-02 0. -1.
        1   -1    0    0  501    0  0.00000000000E+00  0.00000000000E+00 -0.75363971260E+03  0.75363971262E+03  0.50400001928E-02 0.  1.
    10030    2    1    2    0    0  0.00000000000E+00  0.00000000000E+00  0.10025582157E+03  0.16075352468E+04  0.16044059150E+04 0.  0.
        2    1    3    3  502    0  0.59074339097E+03 -0.25571895677E+03  0.52976782994E+03  0.83368092966E+03  0.25500000920E-02 0. -1.
       -2    1    3    3    0  502 -0.59074339097E+03  0.25571895677E+03 -0.42951200837E+03  0.77385431715E+03  0.25500000920E-02 0.  1.
</event>
<event>
 5   0  0.2796994E-04  0.1604278E+04  0.7818609E-02  0.8817924E-01
        1   -1    0    0  501    0  0.00000000000E+00  0.00000000000E+00  0.21674125438E+04  0.21674125438E+04  0.50400001928E-02 0. -1.
       -1   -1    0    0    0  501  0.00000000000E+00  0.00000000000E+00 -0.29686421053E+03  0.29686421058E+03  0.50400001928E-02 0.  1.
    10030    2    1    2    0    0  0.00000000000E+00  0.00000000000E+00  0.18705483332E+04  0.24642767544E+04  0.16042782973E+04 0.  0.
        3    1    3    3  502    0 -0.29675899035E+03  0.22895665244E+03  0.20246253970E+04  0.20590276966E+04  0.10100000352E+00 0. -1.
       -3    1    3    3    0  502  0.29675899035E+03 -0.22895665244E+03 -0.15407706373E+03  0.40524905777E+03  0.10100000352E+00 0.  1.
</event>
<event>
 5   0  0.5264308E-04  0.1612714E+04  0.7818609E-02  0.8812775E-01
        2   -1    0    0  501    0  0.00000000000E+00  0.00000000000E+00  0.10217837685E+04  0.10217837685E+04  0.25500000920E-02 0.  1.
       -2   -1    0    0    0  501  0.00000000000E+00  0.00000000000E+00 -0.63634988393E+03  0.63634988394E+03  0.25500000920E-02 0. -1.
    10030    2    1    2    0    0  0.00000000000E+00  0.00000000000E+00  0.38543388456E+03  0.16581336524E+04  0.16127144601E+04 0.  0.
        3    1    3    3  502    0 -0.36972763775E+03  0.35577794050E+03  0.83227701563E+03  0.97773284184E+03  0.10100000352E+00 0.  1.
       -3    1    3    3    0  502  0.36972763775E+03 -0.35577794050E+03 -0.44684313107E+03  0.68040081059E+03  0.10100000352E+00 0. -1.
</event>
<event>
 5   0  0.2649086E-04  0.1601858E+04  0.7818609E-02  0.8819407E-01
        1   -1    0    0  501    0  0.00000000000E+00  0.00000000000E+00  0.13535096644E+04  0.13535096644E+04  0.50400001928E-02 0.  1.
       -1   -1    0    0    0  501  0.00000000000E+00  0.00000000000E+00 -0.47394359828E+03  0.47394359830E+03  0.50400001928E-02 0. -1.
    10030    2    1    2    0    0  0.00000000000E+00  0.00000000000E+00  0.87956606612E+03  0.18274532627E+04  0.16018579721E+04 0.  0.
        2    1    3    3  502    0 -0.13282967087E+02 -0.68143010764E+03  0.91969823166E+03  0.11447131807E+04  0.25500000920E-02 0.  1.
       -2    1    3    3    0  502  0.13282967087E+02  0.68143010764E+03 -0.40132165544E+02  0.68274008198E+03  0.25500000920E-02 0. -1.
</event>
<event>
 5   0  0.2649086E-04  0.1596039E+04  0.7818609E-02  0.8822985E-01
       -1   -1    0    0    0  501  0.00000000000E+00  0.00000000000E+00  0.61075197744E+03  0.61075197746E+03  0.50400001928E-02 0.  1.
        1   -1    0    0  501    0  0.00000000000E+00  0.00000000000E+00 -0.10427071217E+04  0.10427071218E+04  0.50400001928E-02 0. -1.
    10030    2    1    2    0    0  0.00000000000E+00  0.00000000000E+00 -0.43195514430E+03  0.16534590992E+04  0.15960393937E+04 0.  0.
        2    1    3    3  502    0 -0.67532949592E+03  0.32240550051E+03 -0.50311352290E+03  0.90174189863E+03  0.25500000920E-02 0. -1.
       -2    1    3    3    0  502  0.67532949592E+03 -0.32240550051E+03  0.71158378597E+02  0.75171720059E+03  0.25500000920E-02 0.  1.
</event>
<event>
 5   0  0.5381164E-04  0.1359042E+04  0.7818609E-02  0.8984011E-01
        2   -1    0    0  501    0  0.00000000000E+00  0.00000000000E+00  0.17306445373E+04  0.17306445373E+04  0.25500000920E-02 0. -1.
       -2   -1    0    0    0  501  0.00000000000E+00  0.00000000000E+00 -0.26680755759E+03  0.26680755760E+03  0.25500000920E-02 0.  1.
    10030    2    1    2    0    0  0.00000000000E+00  0.00000000000E+00  0.14638369797E+04  0.19974520949E+04  0.13590423718E+04 0.  0.
        5    1    3    3  502    0  0.52639498908E+03 -0.37936007139E+03  0.43533041908E+03  0.78137085438E+03  0.46999998093E+01 0.  1.
       -5    1    3    3    0  502 -0.52639498908E+03  0.37936007139E+03  0.10285065606E+04  0.12160812405E+04  0.46999998093E+01 0. -1.
</event>
<event>
 5   0  0.5083831E-04  0.1605402E+04  0.7818609E-02  0.8817236E-01
       -2   -1    0    0    0  501  0.00000000000E+00  0.00000000000E+00  0.37085195156E+03  0.37085195157E+03  0.25500000920E-02 0. -1.
        2   -1    0    0  501    0  0.00000000000E+00  0.00000000000E+00 -0.17374289840E+04  0.17374289840E+04  0.25500000920E-02 0.  1.
    10030    2    1    2    0    0  0.00000000000E+00  0.00000000000E+00 -0.13665770325E+04  0.21082809356E+04  0.16054020424E+04 0.  0.
        4    1    3    3  502    0 -0.62566375786E+03  0.21301666366E+03 -0.85084095271E+02  0.66638738964E+03  0.12699999809E+01 0. -1.
       -4    1    3    3    0  502  0.62566375786E+03 -0.21301666366E+03 -0.12814929372E+04  0.14418935460E+04  0.12699999809E+01 0.  1.
</event>
<event>
 5   0  0.2649086E-04  0.1594140E+04  0.7818609E-02  0.8824156E-01
       -1   -1    0    0    0  501  0.00000000000E+00  0.00000000000E+00  0.59538879368E+03  0.59538879370E+03  0.50400001928E-02 0.  1.
        1   -1    0    0  501    0  0.00000000000E+00  0.00000000000E+00 -0.10670678616E+04  0.10670678617E+04  0.50400001928E-02 0. -1.
    10030    2    1    2    0    0  0.00000000000E+00  0.00000000000E+00 -0.47167906796E+03  0.16624566554E+04  0.15941395760E+04 0.  0.
        2    1    3    3  502    0  0.60041199933E+03  0.50067164374E+03 -0.73765004041E+02  0.78524387270E+03  0.25500000920E-02 0.  1.
       -2    1    3    3    0  502 -0.60041199933E+03 -0.50067164374E+03 -0.39791406392E+03  0.87721278266E+03  0.25500000920E-02 0. -1.
</event>
<event>
 5   0  0.2796994E-04  0.1298005E+04  0.7818609E-02  0.9031149E-01
        1   -1    0    0  501    0  0.00000000000E+00  0.00000000000E+00  0.19179295377E+04  0.19179295378E+04  0.50400001928E-02 0. -1.
       -1   -1    0    0    0  501  0.00000000000E+00  0.00000000000E+00 -0.21961398394E+03  0.21961398400E+03  0.50400001928E-02 0.  1.
    10030    2    1    2    0    0  0.00000000000E+00  0.00000000000E+00  0.16983155538E+04  0.21375435218E+04  0.12980048486E+04 0.  0.
        3    1    3    3  502    0  0.19567922415E+02  0.49297339814E+03  0.15435464865E+04  0.16204756836E+04  0.10100000352E+00 0. -1.
       -3    1    3    3    0  502 -0.19567922415E+02 -0.49297339814E+03  0.15476906727E+03  0.51706783814E+03  0.10100000352E+00 0.  1.
</event>
<event>
 5   0  0.2796994E-04  0.1594869E+04  0.7818609E-02  0.8823707E-01
        1   -1    0    0  501    0  0.00000000000E+00  0.00000000000E+00  0.16880243512E+04  0.16880243512E+04  0.50400001928E-02 0.  1.
       -1   -1    0    0    0  501  0.00000000000E+00  0.00000000000E+00 -0.37671339782E+03  0.37671339786E+03  0.50400001928E-02 0. -1.
    10030    2    1    2    0    0  0.00000000000E+00  0.00000000000E+00  0.13113109533E+04  0.20647377490E+04  0.15948685074E+04 0.  0.
        3    1    3    3  502    0 -0.33808865638E+03 -0.50378232496E+03  0.13256109773E+04  0.14578563179E+04  0.10100000352E+00 0.  1.
       -3    1    3    3    0  502  0.33808865638E+03  0.50378232496E+03 -0.14300023930E+02  0.60688143108E+03  0.10100000352E+00 0. -1.
</event>
<event>
 5   0  0.5315984E-04  0.1634611E+04  0.7818609E-02  0.8799563E-01
       -2   -1    0    0    0  501  0.00000000000E+00  0.00000000000E+00  0.48089535980E+03  0.48089535981E+03  0.25500000920E-02 0. -1.
        2   -1    0    0  501    0  0.00000000000E+00  0.00000000000E+00 -0.13890506555E+04  0.13890506555E+04  0.25500000920E-02 0.  1.
    10030    2    1    2    0    0  0.00000000000E+00  0.00000000000E+00 -0.90815529565E+03  0.18699460153E+04  0.16346106750E+04 0.  0.
        2    1    3    3  502    0 -0.25939273374E+03 -0.67056415444E+03 -0.94760797566E+01  0.71904844874E+03  0.25500000920E-02 0. -1.
       -2    1    3    3    0  502  0.25939273374E+03  0.67056415444E+03 -0.89867921589E+03  0.11508975665E+04  0.25500000920E-02 0.  1.
</event>
<event>
 5   0  0.2689675E-04  0.1626207E+04  0.7818609E-02  0.8804608E-01
        1   -1    0    0  501    0  0.00000000000E+00  0.00000000000E+00  0.16298367127E+04  0.16298367127E+04  0.50400001928E-02 0. -1.
       -1   -1    0    0    0  501  0.00000000000E+00  0.00000000000E+00 -0.40564652691E+03  0.40564652694E+03  0.50400001928E-02 0.  1.
    10030    2    1    2    0    0  0.00000000000E+00  0.00000000000E+00  0.12241901857E+04  0.20354832396E+04  0.16262073693E+04 0.  0.
        1    1    3    3  502    0  0.59113708771E+02 -0.55702428043E+02  0.16247461917E+04  0.16267751469E+04  0.50400001928E-02 0. -1.
       -1    1    3    3    0  502 -0.59113708771E+02  0.55702428043E+02 -0.40055600599E+03  0.40870809267E+03  0.50400001928E-02 0.  1.
</event>
<event>
 5   0  0.5381164E-04  0.1595581E+04  0.7818609E-02  0.8823268E-01
       -2   -1    0    0    0  501  0.00000000000E+00  0.00000000000E+00  0.10617552476E+04  0.10617552476E+04  0.25500000920E-02 0.  1.
        2   -1    0    0  501    0  0.00000000000E+00  0.00000000000E+00 -0.59945020751E+03  0.59945020752E+03  0.25500000920E-02 0. -1.
    10030    2    1    2    0    0  0.00000000000E+00  0.00000000000E+00  0.46230504006E+03  0.16612054551E+04  0.15955806510E+04 0.  0.
        5    1    3    3  502    0 -0.55231524763E+03  0.18284666469E+02 -0.36789117483E+03  0.66389191011E+03  0.46999998093E+01 0. -1.
       -5    1    3    3    0  502  0.55231524763E+03 -0.18284666469E+02  0.83019621489E+03  0.99731354499E+03  0.46999998093E+01 0.  1.
</event>
<event>
 5   0  0.2796994E-04  0.1629404E+04  0.7818609E-02  0.8802685E-01
       -1   -1    0    0    0  501  0.00000000000E+00  0.00000000000E+00  0.81091247371E+03  0.81091247373E+03  0.50400001928E-02 0. -1.
        1   -1    0    0  501    0  0.00000000000E+00  0.00000000000E+00 -0.81850915921E+03  0.81850915923E+03  0.50400001928E-02 0.  1.
    10030    2    1    2    0    0  0.00000000000E+00  0.00000000000E+00 -0.75966854990E+01  0.16294216330E+04  0.16294039242E+04 0.  0.
        3    1    3    3  502    0 -0.57339028611E+03 -0.57098025191E+03  0.90777568687E+02  0.81426988490E+03  0.10100000352E+00 0. -1.
       -3    1    3    3    0  502  0.57339028611E+03  0.57098025191E+03 -0.98374254186E+02  0.81515174806E+03  0.10100000352E+00 0.  1.
</event>
<event>
 5   0  0.5315984E-04  0.1603922E+04  0.7818609E-02  0.8818142E-01
        2   -1    0    0  501    0  0.00000000000E+00  0.00000000000E+00  0.16613874585E+04  0.16613874585E+04  0.25500000920E-02 0.  1.
       -2   -1    0    0    0  501  0.00000000000E+00  0.00000000000E+00 -0.38711117947E+03  0.38711117947E+03  0.25500000920E-02 0. -1.
    10030    2    1    2    0    0  0.00000000000E+00  0.00000000000E+00  0.12742762790E+04  0.20484986379E+04  0.16039222657E+04 0.  0.
        2    1    3    3  502    0 -0.87486807022E+02 -0.79706038585E+03  0.65438993963E+03  0.10349808661E+04  0.25500000920E-02 0.  1.
       -2    1    3    3    0  502  0.87486807022E+02  0.79706038585E+03  0.61988633937E+03  0.10135177718E+04  0.25500000920E-02 0. -1.
</event>
<event>
 5   0  0.1908125E-04  0.1602089E+04  0.7818609E-02  0.8819266E-01
        3   -1    0    0  501    0  0.00000000000E+00  0.00000000000E+00  0.58652337309E+03  0.58652338179E+03  0.10100000352E+00 0.  1.
       -3   -1    0    0    0  501  0.00000000000E+00  0.00000000000E+00 -0.10940269305E+04  0.10940269352E+04  0.10100000352E+00 0. -1.
    10030    2    1    2    0    0  0.00000000000E+00  0.00000000000E+00 -0.50750355744E+03  0.16805503170E+04  0.16020891071E+04 0.  0.
        5    1    3    3  502    0  0.14200042047E+03 -0.65101830910E+03  0.21261296118E+03  0.69943928933E+03  0.46999998093E+01 0.  1.
       -5    1    3    3    0  502 -0.14200042047E+03  0.65101830910E+03 -0.72011651862E+03  0.98111102765E+03  0.46999998093E+01 0. -1.
</event>
<event>
 5   0  0.5381164E-04  0.1598648E+04  0.7818609E-02  0.8821379E-01
       -2   -1    0    0    0  501  0.00000000000E+00  0.00000000000E+00  0.59868100111E+03  0.59868100111E+03  0.25500000920E-02 0.  1.
        2   -1    0    0  501    0  0.00000000000E+00  0.00000000000E+00 -0.10672107400E+04  0.10672107400E+04  0.25500000920E-02 0. -1.
    10030    2    1    2    0    0  0.00000000000E+00  0.00000000000E+00 -0.46852973885E+03  0.16658917411E+04  0.15986479215E+04 0.  0.
        5    1    3    3  502    0 -0.24629967976E+03 -0.47868479044E+03 -0.84995921764E+03  0.10061090510E+04  0.46999998093E+01 0. -1.
       -5    1    3    3    0  502  0.24629967976E+03  0.47868479044E+03  0.38142947879E+03  0.65978269008E+03  0.46999998093E+01 0.  1.
</event>
<event>
 5   0  0.2689675E-04  0.1584121E+04  0.7818609E-02  0.8830363E-01
       -1   -1    0    0    0  501  0.00000000000E+00  0.00000000000E+00  0.15247938979E+04  0.15247938979E+04  0.50400001928E-02 0. -1.
        1   -1    0    0  501    0  0.00000000000E+00  0.00000000000E+00 -0.41143934974E+03  0.41143934977E+03  0.50400001928E-02 0.  1.
    10030    2    1    2    0    0  0.00000000000E+00  0.00000000000E+00  0.11133545482E+04  0.19362332477E+04  0.15841214724E+04 0.  0.
        1    1    3    3  502    0  0.60625777634E+03  0.42021094975E+03  0.20404600684E+03  0.76534992427E+03  0.50400001928E-02 0.  1.
       -1    1    3    3    0  502 -0.60625777634E+03 -0.42021094975E+03  0.90930854132E+03  0.11708833234E+04  0.50400001928E-02 0. -1.
</event>
<event>
 5   0  0.2763895E-04  0.1601642E+04  0.7818609E-02  0.8819540E-01
       -1   -1    0    0    0  501  0.00000000000E+00  0.00000000000E+00  0.55183546731E+03  0.55183546733E+03  0.50400001928E-02 0.  1.
        1   -1    0    0  501    0  0.00000000000E+00  0.00000000000E+00 -0.11621469313E+04  0.11621469313E+04  0.50400001928E-02 0. -1.
    10030    2    1    2    0    0  0.00000000000E+00  0.00000000000E+00 -0.61031146395E+03  0.17139823986E+04  0.16016415266E+04 0.  0.
        4    1    3    3  502    0  0.72276975406E+03 -0.27041903720E+03 -0.53415019363E+03  0.93853109449E+03  0.12699999809E+01 0. -1.
       -4    1    3    3    0  502 -0.72276975406E+03  0.27041903720E+03 -0.76161270319E+02  0.77545130412E+03  0.12699999809E+01 0.  1.
</event>
<event>
 5   0  0.5264308E-04  0.1600224E+04  0.7818609E-02  0.8820410E-01
        2   -1    0    0  501    0  0.00000000000E+00  0.00000000000E+00  0.15048038566E+04  0.15048038566E+04  0.25500000920E-02 0. -1.
       -2   -1    0    0    0  501  0.00000000000E+00  0.00000000000E+00 -0.42542383614E+03  0.42542383615E+03  0.25500000920E-02 0.  1.
    10030    2    1    2    0    0  0.00000000000E+00  0.00000000000E+00  0.10793800204E+04  0.19302276927E+04  0.16002242709E+04 0.  0.
        3    1    3    3  502    0 -0.33496854166E+03 -0.55061543605E+03  0.11115952066E+04  0.12849222528E+04  0.10100000352E+00 0. -1.
       -3    1    3    3    0  502  0.33496854166E+03  0.55061543605E+03 -0.32215186163E+02  0.64530543988E+03  0.10100000352E+00 0.  1.
</event>
<event>
 5   0  0.2730707E-04  0.1603696E+04  0.7818609E-02  0.8818281E-01
        1   -1    0    0  501    0  0.00000000000E+00  0.00000000000E+00  0.12081912024E+04  0.12081912024E+04  0.50400001928E-02 0. -1.
       -1   -1    0    0    0  501  0.00000000000E+00  0.00000000000E+00 -0.53216756339E+03  0.53216756341E+03  0.50400001928E-02 0.  1.
    10030    2    1    2    0    0  0.00000000000E+00  0.00000000000E+00  0.67602363900E+03  0.17403587658E+04  0.16036959416E+04 0.  0.
        5    1    3    3  502    0 -0.76862499343E+03  0.22542160692E+03  0.37771946228E+03  0.88560338955E+03  0.46999998093E+01 0. -1.
       -5    1    3    3    0  502  0.76862499343E+03 -0.22542160692E+03  0.29830417672E+03  0.85475537626E+03  0.46999998093E+01 0.  1.
</event>
<event>
 5   0  0.5131239E-04  0.1602999E+04  0.7818609E-02  0.8818708E-01
       -2   -1    0    0    0  501  0.00000000000E+00  0.00000000000E+00  0.40359376166E+03  0.40359376167E+03  0.25500000920E-02 0.  1.
        2   -1    0    0  501    0  0.00000000000E+00  0.00000000000E+00 -0.15917022375E+04  0.15917022375E+04  0.25500000920E-02 0. -1.
    10030    2    1    2    0    0  0.00000000000E+00  0.00000000000E+00 -0.11881084758E+04  0.19952959991E+04  0.16029985571E+04 0.  0.
        1    1    3    3  502    0  0.29516120345E+03 -0.74373561512E+03 -0.53649596830E+03  0.96337465466E+03  0.50400001928E-02 0. -1.
       -1    1    3    3    0  502 -0.29516120345E+03  0.74373561512E+03 -0.65161250750E+03  0.10319213445E+04  0.50400001928E-02 0.  1.
</event>
<event>
 5   0  0.2689675E-04  0.1591178E+04  0.7818609E-02  0.8825986E-01
        1   -1    0    0  501    0  0.00000000000E+00  0.00000000000E+00  0.12084597338E+04  0.12084597338E+04  0.50400001928E-02 0. -1.
       -1   -1    0    0    0  501  0.00000000000E+00  0.00000000000E+00 -0.52377574996E+03  0.52377574999E+03  0.50400001928E-02 0.  1.
    10030    2    1    2    0    0  0.00000000000E+00  0.00000000000E+00  0.68468398379E+03  0.17322354838E+04  0.15911780584E+04 0.  0.
        1    1    3    3  502    0 -0.18325788777E+03  0.38263977044E+03 -0.39034856600E+03  0.57651422390E+03  0.50400001928E-02 0.  1.
       -1    1    3    3    0  502  0.18325788777E+03 -0.38263977044E+03  0.10750325498E+04  0.11557212599E+04  0.50400001928E-02 0. -1.
</event>
<event>
 5   0  0.5315984E-04  0.1595151E+04  0.7818609E-02  0.8823533E-01
       -2   -1    0    0    0  501  0.00000000000E+00  0.00000000000E+00  0.92016838328E+03  0.92016838328E+03  0.25500000920E-02 0.  1.
        2   -1    0    0  501    0  0.00000000000E+00  0.00000000000E+00 -0.69131538834E+03  0.69131538834E+03  0.25500000920E-02 0. -1.
    10030    2    1    2    0    0  0.00000000000E+00  0.00000000000E+00  0.22885299494E+03  0.16114837716E+04  0.15951508559E+04 0.  0.
        2    1    3    3  502    0 -0.30249105573E+03  0.48753843829E+03  0.67411354529E+03  0.88522519143E+03  0.25500000920E-02 0.  1.
       -2    1    3    3    0  502  0.30249105573E+03 -0.48753843829E+03 -0.44526055035E+03  0.72625858019E+03  0.25500000920E-02 0. -1.
</event>
<event>
 5   0  0.2796994E-04  0.1608881E+04  0.7818609E-02  0.8815111E-01
       -1   -1    0    0    0  501  0.00000000000E+00  0.00000000000E+00  0.45447496130E+03  0.45447496133E+03  0.50400001928E-02 0. -1.
        1   -1    0    0  501    0  0.00000000000E+00  0.00000000000E+00 -0.14238946195E+04  0.14238946195E+04  0.50400001928E-02 0.  1.
    10030    2    1    2    0    0  0.00000000000E+00  0.00000000000E+00 -0.96941965822E+03  0.18783695809E+04  0.16088809181E+04 0.  0.
        3    1    3    3  502    0 -0.45959356304E+02 -0.75780019092E+03 -0.79525414955E+03  0.10994555764E+04  0.10100000352E+00 0.  1.
       -3    1    3    3    0  502  0.45959356304E+02  0.75780019092E+03 -0.17416550867E+03  0.77891400450E+03  0.10100000352E+00 0. -1.
</event>
<event>
 5   0  0.5083831E-04  0.1595478E+04  0.7818609E-02  0.8823331E-01
       -2   -1    0    0    0  501  0.00000000000E+00  0.00000000000E+00  0.12536343412E+04  0.12536343412E+04  0.25500000920E-02 0. -1.
        2   -1    0    0  501    0  0.00000000000E+00  0.00000000000E+00 -0.50763375926E+03  0.50763375926E+03  0.25500000920E-02 0.  1.
    10030    2    1    2    0    0  0.00000000000E+00  0.00000000000E+00  0.74600058190E+03  0.17612681004E+04  0.15954775001E+04 0.  0.
        4    1    3    3  502    0 -0.11712795984E+02 -0.40330452916E+03 -0.38669209658E+03  0.55885966332E+03  0.12699999809E+01 0.  1.
       -4    1    3    3    0  502  0.11712795984E+02  0.40330452916E+03  0.11326926785E+04  0.12024084371E+04  0.12699999809E+01 0. -1.
</event>
<event>
 5   0  0.5131239E-04  0.1626860E+04  0.7818609E-02  0.8804215E-01
        2   -1    0    0  501    0  0.00000000000E+00  0.00000000000E+00  0.13399440172E+04  0.13399440172E+04  0.25500000920E-02 0.  1.
       -2   -1    0    0    0  501  0.00000000000E+00  0.00000000000E+00 -0.49380293482E+03  0.49380293482E+03  0.25500000920E-02 0. -1.
    10030    2    1    2    0    0  0.00000000000E+00  0.00000000000E+00  0.84614108236E+03  0.18337469520E+04  0.16268599057E+04 0.  0.
        1    1    3    3  502    0 -0.62422769791E+03  0.21580570945E+03  0.95825174282E+03  0.11638207447E+04  0.50400001928E-02 0.  1.
       -1    1    3    3    0  502  0.62422769791E+03 -0.21580570945E+03 -0.11211066046E+03  0.66992620734E+03  0.50400001928E-02 0. -1.
</event>
<event>
 5   0  0.2796994E-04  0.1606728E+04  0.7818609E-02  0.8816425E-01
        1   -1    0    0  501    0  0.00000000000E+00  0.00000000000E+00  0.12279544169E+04  0.12279544169E+04  0.50400001928E-02 0.  1.
       -1   -1    0    0    0  501  0.00000000000E+00  0.00000000000E+00 -0.52558474788E+03  0.52558474791E+03  0.50400001928E-02 0. -1.
    10030    2    1    2    0    0  0.00000000000E+00  0.00000000000E+00  0.70236966900E+03  0.17535391648E+04  0.16067284931E+04 0.  0.
        3    1    3    3  502    0  0.65416668325E+03  0.23059820473E+03  0.79354019824E+03  0.10539523888E+04  0.10100000352E+00 0.  1.
       -3    1    3    3    0  502 -0.65416668325E+03 -0.23059820473E+03 -0.91170529247E+02  0.69958677596E+03  0.10100000352E+00 0. -1.
</event>
<event>
 5   0  0.2730707E-04  0.1573195E+04  0.7818609E-02  0.8837187E-01
       -1   -1    0    0    0  501  0.00000000000E+00  0.00000000000E+00  0.10958280271E+04  0.10958280271E+04  0.50400001928E-02 0.  1.
        1   -1    0    0  501    0  0.00000000000E+00  0.00000000000E+00 -0.56462815640E+03  0.56462815642E+03  0.50400001928E-02 0. -1.
    10030    2    1    2    0    0  0.00000000000E+00  0.00000000000E+00  0.53119987071E+03  0.16604561835E+04  0.15731946589E+04 0.  0.
        5    1    3    3  502    0  0.55690689357E+03 -0.31145863785E+03 -0.21987104305E+03  0.67492009658E+03  0.46999998093E+01 0. -1.
       -5    1    3    3    0  502 -0.55690689357E+03  0.31145863785E+03  0.75107091376E+03  0.98553608695E+03  0.46999998093E+01 0.  1.
</event>
<event>
 5   0  0.2796994E-04  0.1612551E+04  0.7818609E-02  0.8812874E-01
        1   -1    0    0  501    0  0.00000000000E+00  0.00000000000E+00  0.14954610547E+04  0.14954610547E+04  0.50400001928E-02 0. -1.
       -1   -1    0    0    0  501  0.00000000000E+00  0.00000000000E+00 -0.43470205265E+03  0.43470205268E+03  0.50400001928E-02 0.  1.
    10030    2    1    2    0    0  0.00000000000E+00  0.00000000000E+00  0.10607590020E+04  0.19301631074E+04  0.16125507622E+04 0.  0.
        3    1    3    3  502    0  0.64051725024E+03 -0.40974537704E+03  0.20936500002E+03  0.78866173693E+03  0.10100000352E+00 0. -1.
       -3    1    3    3    0  502 -0.64051725024E+03  0.40974537704E+03  0.85139400200E+03  0.11415013704E+04  0.10100000352E+00 0.  1.
</event>
<event>
 5   0  0.1908125E-04  0.1671005E+04  0.7818609E-02  0.8778076E-01
       -3   -1    0    0    0  501  0.00000000000E+00  0.00000000000E+00  0.60519045120E+03  0.60519045963E+03  0.10100000352E+00 0. -1.
        3   -1    0    0  501    0  0.00000000000E+00  0.00000000000E+00 -0.11534622164E+04  0.11534622209E+04  0.10100000352E+00 0.  1.
    10030    2    1    2    0    0  0.00000000000E+00  0.00000000000E+00 -0.54827176524E+03  0.17586526805E+04  0.16710048839E+04 0.  0.
        2    1    3    3  502    0 -0.52677742701E+03 -0.73505872386E+02  0.40399519261E+03  0.66791443055E+03  0.25500000920E-02 0. -1.
       -2    1    3    3    0  502  0.52677742701E+03  0.73505872386E+02 -0.95226695785E+03  0.10907382499E+04  0.25500000920E-02 0.  1.
</event>
<event>
 5   0  0.5315984E-04  0.1613652E+04  0.7818609E-02  0.8812205E-01
        2   -1    0    0  501    0  0.00000000000E+00  0.00000000000E+00  0.19769719721E+04  0.19769719721E+04  0.25500000920E-02 0. -1.
       -2   -1    0    0    0  501  0.00000000000E+00  0.00000000000E+00 -0.32927543933E+03  0.32927543934E+03  0.25500000920E-02 0.  1.
    10030    2    1    2    0    0  0.00000000000E+00  0.00000000000E+00  0.16476965328E+04  0.23062474115E+04  0.16136521492E+04 0.  0.
        2    1    3    3  502    0 -0.72659256412E+02  0.79102206515E+03  0.10258327724E+04  0.12974313670E+04  0.25500000920E-02 0. -1.
       -2    1    3    3    0  502  0.72659256412E+02 -0.79102206515E+03  0.62186376038E+03  0.10088160445E+04  0.25500000920E-02 0.  1.
</event>
<event>
 5   0  0.2796994E-04  0.1589620E+04  0.7818609E-02  0.8826950E-01
        1   -1    0    0  501    0  0.00000000000E+00  0.00000000000E+00  0.61449645683E+03  0.61449645685E+03  0.50400001928E-02 0.  1.
       -1   -1    0    0    0  501  0.00000000000E+00  0.00000000000E+00 -0.10280338363E+04  0.10280338363E+04  0.50400001928E-02 0. -1.
    10030    2    1    2    0    0  0.00000000000E+00  0.00000000000E+00 -0.41353737942E+03  0.16425302931E+04  0.15896202690E+04 0.  0.
        3    1    3    3  502    0  0.15548383153E+03 -0.34703483323E+03 -0.92793533675E+03  0.10028321877E+04  0.10100000352E+00 0. -1.
       -3    1    3    3    0  502 -0.15548383153E+03  0.34703483323E+03  0.51439795733E+03  0.63969810540E+03  0.10100000352E+00 0.  1.
</event>
<event>
 5   0  0.5131239E-04  0.1571044E+04  0.7818609E-02  0.8838537E-01
       -2   -1    0    0    0  501  0.00000000000E+00  0.00000000000E+00  0.35169311335E+03  0.35169311336E+03  0.25500000920E-02 0. -1.
        2   -1    0    0  501    0  0.00000000000E+00  0.00000000000E+00 -0.17544983122E+04  0.17544983122E+04  0.25500000920E-02 0.  1.
    10030    2    1    2    0    0  0.00000000000E+00  0.00000000000E+00 -0.14028051988E+04  0.21061914255E+04  0.15710442053E+04 0.  0.
        1    1    3    3  502    0  0.62099113018E+03 -0.44462000068E+03 -0.94761222030E+03  0.12170808719E+04  0.50400001928E-02 0.  1.
       -1    1    3    3    0  502 -0.62099113018E+03  0.44462000068E+03 -0.45519297852E+03  0.88911055358E+03  0.50400001928E-02 0. -1.
</event>
<event>
 5   0  0.5083831E-04  0.1718476E+04  0.7818609E-02  0.8750897E-01
        2   -1    0    0  501    0  0.00000000000E+00  0.00000000000E+00  0.18634364434E+04  0.18634364434E+04  0.25500000920E-02 0.  1.
       -2   -1    0    0    0  501  0.00000000000E+00  0.00000000000E+00 -0.39619790841E+03  0.39619790841E+03  0.25500000920E-02 0. -1.
    10030    2    1    2    0    0  0.00000000000E+00  0.00000000000E+00  0.14672385350E+04  0.22596343518E+04  0.17184756284E+04 0.  0.
        4    1    3    3  502    0  0.24098450379E+03  0.67862053533E+03  0.11731014290E+03  0.72963185550E+03  0.12699999809E+01 0. -1.
       -4    1    3    3    0  502 -0.24098450379E+03 -0.67862053533E+03  0.13499283921E+04  0.15300024963E+04  0.12699999809E+01 0.  1.
</event>
<event>
 5   0  0.2730707E-04  0.1611506E+04  0.7818609E-02  0.8813511E-01
       -1   -1    0    0    0  501  0.00000000000E+00  0.00000000000E+00  0.55775492996E+03  0.55775492999E+03  0.50400001928E-02 0.  1.
        1   -1    0    0  501    0  0.00000000000E+00  0.00000000000E+00 -0.11640194435E+04  0.11640194435E+04  0.50400001928E-02 0. -1.
    10030    2    1    2    0    0  0.00000000000E+00  0.00000000000E+00 -0.60626451354E+03  0.17217743735E+04  0.16115056106E+04 0.  0.
        5    1    3    3  502    0  0.19523765380E+03 -0.52747091400E+03 -0.91956141317E+03  0.10779418301E+04  0.46999998093E+01 0. -1.
       -5    1    3    3    0  502 -0.19523765380E+03  0.52747091400E+03  0.31329689963E+03  0.64383254336E+03  0.46999998093E+01 0.  1.
</event>
<event>
 5   0  0.5264308E-04  0.1610755E+04  0.7818609E-02  0.8813968E-01
        2   -1    0    0  501    0  0.00000000000E+00  0.00000000000E+00  0.15218177394E+04  0.15218177394E+04  0.25500000920E-02 0.  1.
       -2   -1    0    0    0  501  0.00000000000E+00  0.00000000000E+00 -0.42622257408E+03  0.42622257409E+03  0.25500000920E-02 0. -1.
    10030    2    1    2    0    0  0.00000000000E+00  0.00000000000E+00  0.10955951653E+04  0.19480403135E+04  0.16107551945E+04 0.  0.
        3    1    3    3  502    0  0.59127800888E+03 -0.19349249465E+03  0.11663464508E+04  0.13218975311E+04  0.10100000352E+00 0.  1.
       -3    1    3    3    0  502 -0.59127800888E+03  0.19349249465E+03 -0.70751285514E+02  0.62614278234E+03  0.10100000352E+00 0. -1.
</event>
<event>
 5   0  0.5264308E-04  0.1482494E+04  0.7818609E-02  0.8896179E-01
        2   -1    0    0  501    0  0.00000000000E+00  0.00000000000E+00  0.23796500719E+04  0.23796500719E+04  0.25500000920E-02 0.  1.
       -2   -1    0    0    0  501  0.00000000000E+00  0.00000000000E+00 -0.23089393857E+03  0.23089393858E+03  0.25500000920E-02 0. -1.
    10030    2    1    2    0    0  0.00000000000E+00  0.00000000000E+00  0.21487561333E+04  0.26105440104E+04  0.14824935447E+04 0.  0.
        3    1    3    3  502    0 -0.94558769158E+02 -0.79043409978E+02  0.23614817724E+04  0.23646956238E+04  0.10100000352E+00 0.  1.
       -3    1    3    3    0  502  0.94558769158E+02  0.79043409978E+02 -0.21272563912E+03  0.24584838666E+03  0.10100000352E+00 0. -1.
</event>
<event>
 5   0  0.2649086E-04  0.1324788E+04  0.7818609E-02  0.9010136E-01
       -1   -1    0    0    0  501  0.00000000000E+00  0.00000000000E+00  0.48676808146E+03  0.48676808149E+03  0.50400001928E-02 0. -1.
        1   -1    0    0  501    0  0.00000000000E+00  0.00000000000E+00 -0.90138536868E+03  0.90138536870E+03  0.50400001928E-02 0.  1.
    10030    2    1    2    0    0  0.00000000000E+00  0.00000000000E+00 -0.41461728722E+03  0.13881534502E+04  0.13247877213E+04 0.  0.
        2    1    3    3  502    0 -0.59064121441E+03 -0.29520852731E+03 -0.15225504972E+03  0.67763317431E+03  0.25500000920E-02 0. -1.
       -2    1    3    3    0  502  0.59064121441E+03  0.29520852731E+03 -0.26236223750E+03  0.71052027587E+03  0.25500000920E-02 0.  1.
</event>
<event>
 5   0  0.2730707E-04  0.1605330E+04  0.7818609E-02  0.8817280E-01
       -1   -1    0    0    0  501  0.00000000000E+00  0.00000000000E+00  0.72999009149E+03  0.72999009151E+03  0.50400001928E-02 0. -1.
        1   -1    0    0  501    0  0.00000000000E+00  0.00000000000E+00 -0.88257565375E+03  0.88257565377E+03  0.50400001928E-02 0.  1.
    10030    2    1    2    0    0  0.00000000000E+00  0.00000000000E+00 -0.15258556227E+03  0.16125657453E+04  0.16053304735E+04 0.  0.
        5    1    3    3  502    0  0.60157297500E+03  0.17855285076E+02 -0.60976123946E+03  0.85676117711E+03  0.46999998093E+01 0.  1.
       -5    1    3    3    0  502 -0.60157297500E+03 -0.17855285076E+02  0.45717567719E+03  0.75580456817E+03  0.46999998093E+01 0. -1.
</event>
<event>
 5   0  0.2689675E-04  0.1606411E+04  0.7818609E-02  0.8816619E-01
       -1   -1    0    0    0  501  0.00000000000E+00  0.00000000000E+00  0.34335782399E+03  0.34335782402E+03  0.50400001928E-02 0. -1.
        1   -1    0    0  501    0  0.00000000000E+00  0.00000000000E+00 -0.18789124527E+04  0.18789124527E+04  0.50400001928E-02 0.  1.
    10030    2    1    2    0    0  0.00000000000E+00  0.00000000000E+00 -0.15355546287E+04  0.22222702767E+04  0.16064112690E+04 0.  0.
        1    1    3    3  502    0  0.66103270654E+03 -0.35806867447E+03 -0.11589618015E+04  0.13814376107E+04  0.50400001928E-02 0. -1.
       -1    1    3    3    0  502 -0.66103270654E+03  0.35806867447E+03 -0.37659282715E+03  0.84083266602E+03  0.50400001928E-02 0.  1.
</event>
<event>
 5   0  0.5381164E-04  0.1581258E+04  0.7818609E-02  0.8832145E-01
        2   -1    0    0  501    0  0.00000000000E+00  0.00000000000E+00  0.12974705051E+04  0.12974705051E+04  0.25500000920E-02 0. -1.
       -2   -1    0    0    0  501  0.00000000000E+00  0.00000000000E+00 -0.48177924610E+03  0.48177924611E+03  0.25500000920E-02 0.  1.
    10030    2    1    2    0    0  0.00000000000E+00  0.00000000000E+00  0.81569125898E+03  0.17792497512E+04  0.15812581849E+04 0.  0.
        5    1    3    3  502    0  0.19888537280E+03 -0.72388523695E+03  0.12878629443E+03  0.76169103147E+03  0.46999998093E+01 0. -1.
       -5    1    3    3    0  502 -0.19888537280E+03  0.72388523695E+03  0.68690496455E+03  0.10175587197E+04  0.46999998093E+01 0.  1.
</event>
<event>
 5   0  0.5264308E-04  0.1569046E+04  0.7818609E-02  0.8839793E-01
        2   -1    0    0  501    0  0.00000000000E+00  0.00000000000E+00  0.15535924081E+04  0.15535924081E+04  0.25500000920E-02 0.  1.
       -2   -1    0    0    0  501  0.00000000000E+00  0.00000000000E+00 -0.39616349849E+03  0.39616349850E+03  0.25500000920E-02 0. -1.
    10030    2    1    2    0    0  0.00000000000E+00  0.00000000000E+00  0.11574289096E+04  0.19497559066E+04  0.15690463392E+04 0.  0.
        3    1    3    3  502    0 -0.37347567003E+03  0.31339554070E+03 -0.18505364329E+03  0.52148413411E+03  0.10100000352E+00 0. -1.
       -3    1    3    3    0  502  0.37347567003E+03 -0.31339554070E+03  0.13424825529E+04  0.14282717725E+04  0.10100000352E+00 0.  1.
</event>
<event>
 5   0  0.5083831E-04  0.1595191E+04  0.7818609E-02  0.8823508E-01
       -2   -1    0    0    0  501  0.00000000000E+00  0.00000000000E+00  0.32353270859E+03  0.32353270860E+03  0.25500000920E-02 0.  1.
        2   -1    0    0  501    0  0.00000000000E+00  0.00000000000E+00 -0.19662891046E+04  0.19662891046E+04  0.25500000920E-02 0. -1.
    10030    2    1    2    0    0  0.00000000000E+00  0.00000000000E+00 -0.16427563960E+04  0.22898218132E+04  0.15951913238E+04 0.  0.
        4    1    3    3  502    0 -0.53420477162E+03  0.48777644496E+03 -0.33915017339E+03  0.79895247124E+03  0.12699999809E+01 0.  1.
       -4    1    3    3    0  502  0.53420477162E+03 -0.48777644496E+03 -0.13036062227E+04  0.14908693420E+04  0.12699999809E+01 0. -1.
</event>
<event>
 5   0  0.5264308E-04  0.1621688E+04  0.7818609E-02  0.8807334E-01
        2   -1    0    0  501    0  0.00000000000E+00  0.00000000000E+00  0.10371160851E+04  0.10371160851E+04  0.25500000920E-02 0. -1.
       -2   -1    0    0    0  501  0.00000000000E+00  0.00000000000E+00 -0.63393896629E+03  0.63393896629E+03  0.25500000920E-02 0.  1.
    10030    2    1    2    0    0  0.00000000000E+00  0.00000000000E+00  0.40317711881E+03  0.16710550514E+04  0.16216883781E+04 0.  0.
        3    1    3    3  502    0 -0.14334751487E+03 -0.79224805247E+03  0.10241530964E+03  0.81159989682E+03  0.10100000352E+00 0. -1.
       -3    1    3    3    0  502  0.14334751487E+03  0.79224805247E+03  0.30076180918E+03  0.85945515458E+03  0.10100000352E+00 0.  1.
</event>
<event>
 5   0  0.2730707E-04  0.1574526E+04  0.7818609E-02  0.8836352E-01
        1   -1    0    0  501    0  0.00000000000E+00  0.00000000000E+00  0.19023526345E+04  0.19023526345E+04  0.50400001928E-02 0. -1.
       -1   -1    0    0    0  501  0.00000000000E+00  0.00000000000E+00 -0.32579837199E+03  0.32579837203E+03  0.50400001928E-02 0.  1.
    10030    2    1    2    0    0  0.00000000000E+00  0.00000000000E+00  0.15765542625E+04  0.22281510066E+04  0.15745264575E+04 0.  0.
        5    1    3    3  502    0 -0.63043730029E+03 -0.41423684820E+03  0.46958195987E+03  0.88857901339E+03  0.46999998093E+01 0.  1.
       -5    1    3    3    0  502  0.63043730029E+03  0.41423684820E+03  0.11069723027E+04  0.13395719932E+04  0.46999998093E+01 0. -1.
</event>
<event>
 5   0  0.2763895E-04  0.1585181E+04  0.7818609E-02  0.8829704E-01
        1   -1    0    0  501    0  0.00000000000E+00  0.00000000000E+00  0.11063876978E+04  0.11063876978E+04  0.50400001928E-02 0. -1.
       -1   -1    0    0    0  501  0.00000000000E+00  0.00000000000E+00 -0.56779374759E+03  0.56779374761E+03  0.50400001928E-02 0.  1.
    10030    2    1    2    0    0  0.00000000000E+00  0.00000000000E+00  0.53859395024E+03  0.16741814455E+04  0.15851813994E+04 0.  0.
        4    1    3    3  502    0 -0.64245162544E+03 -0.38641575951E+03 -0.23134117747E+01  0.74971207473E+03  0.12699999809E+01 0.  1.
       -4    1    3    3    0  502  0.64245162544E+03  0.38641575951E+03  0.54090736202E+03  0.92446937073E+03  0.12699999809E+01 0. -1.
</event>
<event>
 5   0  0.2730707E-04  0.1655229E+04  0.7818609E-02  0.8787319E-01
        1   -1    0    0  501    0  0.00000000000E+00  0.00000000000E+00  0.80505639171E+03  0.80505639173E+03  0.50400001928E-02 0.  1.
       -1   -1    0    0    0  501  0.00000000000E+00  0.00000000000E+00 -0.85080430895E+03  0.85080430897E+03  0.50400001928E-02 0. -1.
    10030    2    1    2    0    0  0.00000000000E+00  0.00000000000E+00 -0.45747917238E+02  0.16558607007E+04  0.16552286211E+04 0.  0.
        5    1    3    3  502    0  0.21257614983E+03 -0.11346911792E+02  0.77718514489E+03  0.80582641513E+03  0.46999998093E+01 0.  1.
       -5    1    3    3    0  502 -0.21257614983E+03  0.11346911792E+02 -0.82293306213E+03  0.85003428556E+03  0.46999998093E+01 0. -1.
</event>
<event>
 5   0  0.2763895E-04  0.1596835E+04  0.7818609E-02  0.8822495E-01
        1   -1    0    0  501    0  0.00000000000E+00  0.00000000000E+00  0.12126087299E+04  0.12126087300E+04  0.50400001928E-02 0.  1.
       -1   -1    0    0    0  501  0.00000000000E+00  0.00000000000E+00 -0.52570180864E+03  0.52570180867E+03  0.50400001928E-02 0. -1.
    10030    2    1    2    0    0  0.00000000000E+00  0.00000000000E+00  0.68690692130E+03  0.17383105386E+04  0.15968351230E+04 0.  0.
        4    1    3    3  502    0 -0.56195241169E+03  0.51402511134E+03  0.82515369724E+02  0.76604355440E+03  0.12699999809E+01 0.  1.
       -4    1    3    3    0  502  0.56195241169E+03 -0.51402511134E+03  0.60439155158E+03  0.97226698422E+03  0.12699999809E+01 0. -1.
</event>
<event>
 5   0  0.5264308E-04  0.1598566E+04  0.7818609E-02  0.8821429E-01
        2   -1    0    0  501    0  0.00000000000E+00  0.00000000000E+00  0.61582304173E+03  0.61582304173E+03  0.25500000920E-02 0. -1.
       -2   -1    0    0    0  501  0.00000000000E+00  0.00000000000E+00 -0.10373980723E+04  0.10373980723E+04  0.25500000920E-02 0.  1.
    10030    2    1    2    0    0  0.00000000000E+00  0.00000000000E+00 -0.42157503054E+03  0.16532211140E+04  0.15985664032E+04 0.  0.
        3    1    3    3  502    0 -0.33618267576E+03  0.61156551666E+03 -0.61375338570E+03  0.92936774277E+03  0.10100000352E+00 0.  1.
       -3    1    3    3    0  502  0.33618267576E+03 -0.61156551666E+03  0.19217835516E+03  0.72385337123E+03  0.10100000352E+00 0. -1.
</event>
<event>
 5   0  0.2796994E-04  0.1628140E+04  0.7818609E-02  0.8803445E-01
        1   -1    0    0  501    0  0.00000000000E+00  0.00000000000E+00  0.27375215349E+04  0.27375215350E+04  0.50400001928E-02 0. -1.
       -1   -1    0    0    0  501  0.00000000000E+00  0.00000000000E+00 -0.24208385536E+03  0.24208385541E+03  0.50400001928E-02 0.  1.
    10030    2    1    2    0    0  0.00000000000E+00  0.00000000000E+00  0.24954376796E+04  0.29796053904E+04  0.16281397574E+04 0.  0.
        3    1    3    3  502    0 -0.75130061463E+02 -0.70172632452E+03  0.50514120297E+03  0.86788939721E+03  0.10100000352E+00 0.  1.
       -3    1    3    3    0  502  0.75130061463E+02  0.70172632452E+03  0.19902964766E+04  0.21117159932E+04  0.10100000352E+00 0. -1.
</event>
<event>
 5   0  0.1908125E-04  0.1595217E+04  0.7818609E-02  0.8823492E-01
        4   -1    0    0  501    0  0.00000000000E+00  0.00000000000E+00  0.66765834510E+03  0.66765955298E+03  0.12699999809E+01 0. -1.
       -4   -1    0    0    0  501  0.00000000000E+00  0.00000000000E+00 -0.95284956053E+03  0.95285040688E+03  0.12699999809E+01 0.  1.
    10030    2    1    2    0    0  0.00000000000E+00  0.00000000000E+00 -0.28519121543E+03  0.16205099599E+04  0.15952173835E+04 0.  0.
        4    1    3    3  502    0 -0.36180474207E+03 -0.25352154682E+02 -0.86423376105E+03  0.93725503988E+03  0.12699999809E+01 0.  1.
       -4    1    3    3    0  502  0.36180474207E+03  0.25352154682E+02  0.57904254563E+03  0.68325491998E+03  0.12699999809E+01 0. -1.
</event>
<event>
 5   0  0.5264308E-04  0.1586978E+04  0.7818609E-02  0.8828588E-01
       -2   -1    0    0    0  501  0.00000000000E+00  0.00000000000E+00  0.15892325519E+04  0.15892325519E+04  0.25500000920E-02 0.  1.
        2   -1    0    0  501    0  0.00000000000E+00  0.00000000000E+00 -0.39618188446E+03  0.39618188447E+03  0.25500000920E-02 0. -1.
    10030    2    1    2    0    0  0.00000000000E+00  0.00000000000E+00  0.11930506675E+04  0.19854144364E+04  0.15869784463E+04 0.  0.
        3    1    3    3  502    0  0.33954750750E+03  0.26125472078E+03 -0.23905044164E+03  0.49060336610E+03  0.10100000352E+00 0. -1.
       -3    1    3    3    0  502 -0.33954750750E+03 -0.26125472078E+03  0.14321011091E+04  0.14948110703E+04  0.10100000352E+00 0.  1.
</event>
<event>
 5   0  0.2796994E-04  0.1610178E+04  0.7818609E-02  0.8814320E-01
       -1   -1    0    0    0  501  0.00000000000E+00  0.00000000000E+00  0.58228272292E+03  0.58228272294E+03  0.50400001928E-02 0.  1.
        1   -1    0    0  501    0  0.00000000000E+00  0.00000000000E+00 -0.11131501822E+04  0.11131501822E+04  0.50400001928E-02 0. -1.
    10030    2    1    2    0    0  0.00000000000E+00  0.00000000000E+00 -0.53086745931E+03  0.16954329052E+04  0.16101777780E+04 0.  0.
        3    1    3    3  502    0  0.17223704603E+03 -0.40805375080E+03  0.44246873446E+03  0.62606074365E+03  0.10100000352E+00 0.  1.
       -3    1    3    3    0  502 -0.17223704603E+03  0.40805375080E+03 -0.97333619377E+03  0.10693721615E+04  0.10100000352E+00 0. -1.
</event>
<event>
 5   0  0.5083831E-04  0.1601294E+04  0.7818609E-02  0.8819753E-01
        2   -1    0    0  501    0  0.00000000000E+00  0.00000000000E+00  0.81065694837E+03  0.81065694837E+03  0.25500000920E-02 0. -1.
       -2   -1    0    0    0  501  0.00000000000E+00  0.00000000000E+00 -0.79076106472E+03  0.79076106472E+03  0.25500000920E-02 0.  1.
    10030    2    1    2    0    0  0.00000000000E+00  0.00000000000E+00  0.19895883648E+02  0.16014180131E+04  0.16012944159E+04 0.  0.
        4    1    3    3  502    0  0.65069285390E+03  0.32512582902E+03  0.34452771230E+03  0.80486579767E+03  0.12699999809E+01 0. -1.
       -4    1    3    3    0  502 -0.65069285390E+03 -0.32512582902E+03 -0.32463182865E+03  0.79655221542E+03  0.12699999809E+01 0.  1.
</event>
<event>
 5   0  0.1908125E-04  0.1588586E+04  0.7818609E-02  0.8827591E-01
       -4   -1    0    0    0  501  0.00000000000E+00  0.00000000000E+00  0.17335691931E+04  0.17335696583E+04  0.12699999809E+01 0.  1.
        4   -1    0    0  501    0  0.00000000000E+00  0.00000000000E+00 -0.36393042848E+03  0.36393264442E+03  0.12699999809E+01 0. -1.
    10030    2    1    2    0    0  0.00000000000E+00  0.00000000000E+00  0.13696387646E+04  0.20975023027E+04  0.15885860267E+04 0.  0.
        3    1    3    3  502    0  0.61809741112E+03  0.45002259014E+03  0.40059981388E+03  0.86315987068E+03  0.10100000352E+00 0. -1.
       -3    1    3    3    0  502 -0.61809741112E+03 -0.45002259014E+03  0.96903895076E+03  0.12343424321E+04  0.10100000352E+00 0.  1.
</event>
<event>
 5   0  0.2649086E-04  0.1609587E+04  0.7818609E-02  0.8814680E-01
        1   -1    0    0  501    0  0.00000000000E+00  0.00000000000E+00  0.47748528294E+03  0.47748528297E+03  0.50400001928E-02 0. -1.
       -1   -1    0    0    0  501  0.00000000000E+00  0.00000000000E+00 -0.13564664637E+04  0.13564664637E+04  0.50400001928E-02 0.  1.
    10030    2    1    2    0    0  0.00000000000E+00  0.00000000000E+00 -0.87898118079E+03  0.18339517467E+04  0.16095872431E+04 0.  0.
        2    1    3    3  502    0 -0.48289125569E+03 -0.88312242288E+02 -0.11661245294E+04  0.12652388845E+04  0.25500000920E-02 0.  1.
       -2    1    3    3    0  502  0.48289125569E+03  0.88312242288E+02  0.28714334858E+03  0.56871286217E+03  0.25500000920E-02 0. -1.
</event>
<event>
 5   0  0.2763895E-04  0.1605090E+04  0.7818609E-02  0.8817427E-01
        1   -1    0    0  501    0  0.00000000000E+00  0.00000000000E+00  0.83563084355E+03  0.83563084357E+03  0.50400001928E-02 0. -1.
       -1   -1    0    0    0  501  0.00000000000E+00  0.00000000000E+00 -0.77076899278E+03  0.77076899279E+03  0.50400001928E-02 0.  1.
    10030    2    1    2    0    0  0.00000000000E+00  0.00000000000E+00  0.64861850775E+02  0.16063998364E+04  0.16050898338E+04 0.  0.
        4    1    3    3  502    0  0.70930465667E+03  0.36280981059E+03  0.12911554750E+03  0.80710376789E+03  0.12699999809E+01 0.  1.
       -4    1    3    3    0  502 -0.70930465667E+03 -0.36280981059E+03 -0.64253696726E+02  0.79929606847E+03  0.12699999809E+01 0. -1.
</event>
<event>
 5   0  0.2796994E-04  0.1544544E+04  0.7818609E-02  0.8855360E-01
       -1   -1    0    0    0  501  0.00000000000E+00  0.00000000000E+00  0.64922679338E+03  0.64922679340E+03  0.50400001928E-02 0. -1.
        1   -1    0    0  501    0  0.00000000000E+00  0.00000000000E+00 -0.91863745715E+03  0.91863745716E+03  0.50400001928E-02 0.  1.
    10030    2    1    2    0    0  0.00000000000E+00  0.00000000000E+00 -0.26941066377E+03  0.15678642506E+04  0.15445440112E+04 0.  0.
        3    1    3    3  502    0 -0.83453898713E+02  0.75570801682E+03  0.27829273782E+01  0.76030711873E+03  0.10100000352E+00 0. -1.
       -3    1    3    3    0  502  0.83453898713E+02 -0.75570801682E+03 -0.27219359115E+03  0.80755713183E+03  0.10100000352E+00 0.  1.
</event>
<event>
 5   0  0.2730707E-04  0.1629404E+04  0.7818609E-02  0.8802685E-01
        1   -1    0    0  501    0  0.00000000000E+00  0.00000000000E+00  0.17110871842E+04  0.17110871842E+04  0.50400001928E-02 0. -1.
       -1   -1    0    0    0  501  0.00000000000E+00  0.00000000000E+00 -0.38790505969E+03  0.38790505972E+03  0.50400001928E-02 0.  1.
    10030    2    1    2    0    0  0.00000000000E+00  0.00000000000E+00  0.13231821245E+04  0.20989922440E+04  0.16294040338E+04 0.  0.
        5    1    3    3  502    0  0.95415592848E+01  0.65479363870E+03  0.12858966764E+04  0.14430516634E+04  0.46999998093E+01 0. -1.
       -5    1    3    3    0  502 -0.95415592848E+01 -0.65479363870E+03  0.37285448093E+02  0.65594058060E+03  0.46999998093E+01 0.  1.
</event>
<event>
 5   0  0.5264308E-04  0.1616510E+04  0.7818609E-02  0.8810469E-01
        2   -1    0    0  501    0  0.00000000000E+00  0.00000000000E+00  0.14732187729E+04  0.14732187729E+04  0.25500000920E-02 0.  1.
       -2   -1    0    0    0  501  0.00000000000E+00  0.00000000000E+00 -0.44343443044E+03  0.44343443045E+03  0.25500000920E-02 0. -1.
    10030    2    1    2    0    0  0.00000000000E+00  0.00000000000E+00  0.10297843424E+04  0.19166532033E+04  0.16165097308E+04 0.  0.
        3    1    3    3  502    0  0.42138094559E+03 -0.65068476703E+03  0.24367761996E+03  0.81260775287E+03  0.10100000352E+00 0. -1.
       -3    1    3    3    0  502 -0.42138094559E+03  0.65068476703E+03  0.78610672245E+03  0.11040454504E+04  0.10100000352E+00 0.  1.
</event>
<event>
 5   0  0.2689675E-04  0.1605358E+04  0.7818609E-02  0.8817263E-01
       -1   -1    0    0    0  501  0.00000000000E+00  0.00000000000E+00  0.57912167044E+03  0.57912167046E+03  0.50400001928E-02 0. -1.
        1   -1    0    0  501    0  0.00000000000E+00  0.00000000000E+00 -0.11125354652E+04  0.11125354652E+04  0.50400001928E-02 0.  1.
    10030    2    1    2    0    0  0.00000000000E+00  0.00000000000E+00 -0.53341379477E+03  0.16916571357E+04  0.16053577758E+04 0.  0.
        1    1    3    3  502    0  0.48889143011E+03 -0.24189478361E+03 -0.88723068971E+03  0.10414923012E+04  0.50400001928E-02 0.  1.
       -1    1    3    3    0  502 -0.48889143011E+03  0.24189478361E+03  0.35381689494E+03  0.65016483444E+03  0.50400001928E-02 0. -1.
</event>
<event>
 5   0  0.5131239E-04  0.1601979E+04  0.7818609E-02  0.8819333E-01
       -2   -1    0    0    0  501  0.00000000000E+00  0.00000000000E+00  0.48938433310E+03  0.48938433311E+03  0.25500000920E-02 0.  1.
        2   -1    0    0  501    0  0.00000000000E+00  0.00000000000E+00 -0.13110031390E+04  0.13110031391E+04  0.25500000920E-02 0. -1.
    10030    2    1    2    0    0  0.00000000000E+00  0.00000000000E+00 -0.82161880594E+03  0.18003874722E+04  0.16019792719E+04 0.  0.
        1    1    3    3  502    0 -0.76377736151E+03  0.17762988290E+03 -0.59436632905E+03  0.98396116101E+03  0.50400001928E-02 0. -1.
       -1    1    3    3    0  502  0.76377736151E+03 -0.17762988290E+03 -0.22725247690E+03  0.81642631115E+03  0.50400001928E-02 0.  1.
</event>
<event>
 5   0  0.2796994E-04  0.1567110E+04  0.7818609E-02  0.8841012E-01
        1   -1    0    0  501    0  0.00000000000E+00  0.00000000000E+00  0.12585471904E+04  0.12585471904E+04  0.50400001928E-02 0.  1.
       -1   -1    0    0    0  501  0.00000000000E+00  0.00000000000E+00 -0.48783114670E+03  0.48783114673E+03  0.50400001928E-02 0. -1.
    10030    2    1    2    0    0  0.00000000000E+00  0.00000000000E+00  0.77071604367E+03  0.17463783371E+04  0.15671101035E+04 0.  0.
        3    1    3    3  502    0  0.89039519253E+02 -0.51070340959E+03 -0.26940189012E+03  0.58422889107E+03  0.10100000352E+00 0. -1.
       -3    1    3    3    0  502 -0.89039519253E+02  0.51070340959E+03  0.10401179338E+04  0.11621494460E+04  0.10100000352E+00 0.  1.
</event>
<event>
 5   0  0.2649086E-04  0.1630695E+04  0.7818609E-02  0.8801910E-01
        1   -1    0    0  501    0  0.00000000000E+00  0.00000000000E+00  0.10971741509E+04  0.10971741510E+04  0.50400001928E-02 0. -1.
       -1   -1    0    0    0  501  0.00000000000E+00  0.00000000000E+00 -0.60591264655E+03  0.60591264657E+03  0.50400001928E-02 0.  1.
    10030    2    1    2    0    0  0.00000000000E+00  0.00000000000E+00  0.49126150440E+03  0.17030867975E+04  0.16306951813E+04 0.  0.
        2    1    3    3  502    0  0.70168326515E+03  0.38613892381E+03  0.40514968904E+03  0.89755720910E+03  0.25500000920E-02 0. -1.
       -2    1    3    3    0  502 -0.70168326515E+03 -0.38613892381E+03  0.86111815360E+02  0.80552958843E+03  0.25500000920E-02 0.  1.
</event>
<event>
 5   0  0.2730707E-04  0.1603292E+04  0.7818609E-02  0.8818528E-01
        1   -1    0    0  501    0  0.00000000000E+00  0.00000000000E+00  0.10178845217E+04  0.10178845217E+04  0.50400001928E-02 0. -1.
       -1   -1    0    0    0  501  0.00000000000E+00  0.00000000000E+00 -0.63134491849E+03  0.63134491851E+03  0.50400001928E-02 0.  1.
    10030    2    1    2    0    0  0.00000000000E+00  0.00000000000E+00  0.38653960324E+03  0.16492294403E+04  0.16032918891E+04 0.  0.
        5    1    3    3  502    0 -0.20650900821E+03  0.56636167353E+03  0.73680568873E+03  0.95200642259E+03  0.46999998093E+01 0. -1.
       -5    1    3    3    0  502  0.20650900821E+03 -0.56636167353E+03 -0.35026608549E+03  0.69722301766E+03  0.46999998093E+01 0.  1.
</event>
<event>
 5   0  0.5381164E-04  0.1603279E+04  0.7818609E-02  0.8818536E-01
       -2   -1    0    0    0  501  0.00000000000E+00  0.00000000000E+00  0.52630964102E+03  0.52630964102E+03  0.25500000920E-02 0.  1.
        2   -1    0    0  501    0  0.00000000000E+00  0.00000000000E+00 -0.12210041903E+04  0.12210041903E+04  0.25500000920E-02 0. -1.
    10030    2    1    2    0    0  0.00000000000E+00  0.00000000000E+00 -0.69469454926E+03  0.17473138313E+04  0.16032794854E+04 0.  0.
        5    1    3    3  502    0  0.31784372827E+03 -0.49314561285E+03  0.24797426473E+03  0.63696982428E+03  0.46999998093E+01 0.  1.
       -5    1    3    3    0  502 -0.31784372827E+03  0.49314561285E+03 -0.94266881398E+03  0.11103440070E+04  0.46999998093E+01 0. -1.
</event>
<event>
 5   0  0.5381164E-04  0.1600078E+04  0.7818609E-02  0.8820500E-01
        2   -1    0    0  501    0  0.00000000000E+00  0.00000000000E+00  0.98163036817E+03  0.98163036817E+03  0.25500000920E-02 0.  1.
       -2   -1    0    0    0  501  0.00000000000E+00  0.00000000000E+00 -0.65204047766E+03  0.65204047767E+03  0.25500000920E-02 0. -1.
    10030    2    1    2    0    0  0.00000000000E+00  0.00000000000E+00  0.32958989050E+03  0.16336708458E+04  0.16000784158E+04 0.  0.
        5    1    3    3  502    0  0.36832622340E+03 -0.51779273128E+03 -0.33148295953E+03  0.71671232853E+03  0.46999998093E+01 0. -1.
       -5    1    3    3    0  502 -0.36832622340E+03  0.51779273128E+03  0.66107285003E+03  0.91695851731E+03  0.46999998093E+01 0.  1.
</event>
<event>
 5   0  0.5381164E-04  0.1599797E+04  0.7818609E-02  0.8820673E-01
       -2   -1    0    0    0  501  0.00000000000E+00  0.00000000000E+00  0.39260341253E+03  0.39260341254E+03  0.25500000920E-02 0. -1.
        2   -1    0    0  501    0  0.00000000000E+00  0.00000000000E+00 -0.16297308810E+04  0.16297308810E+04  0.25500000920E-02 0.  1.
    10030    2    1    2    0    0  0.00000000000E+00  0.00000000000E+00 -0.12371274684E+04  0.20223342935E+04  0.15997973689E+04 0.  0.
        5    1    3    3  502    0 -0.69957041777E+03  0.52942515266E+02 -0.11042456609E+04  0.13082745312E+04  0.46999998093E+01 0.  1.
       -5    1    3    3    0  502  0.69957041777E+03 -0.52942515266E+02 -0.13288180749E+03  0.71405976228E+03  0.46999998093E+01 0. -1.
</event>
<event>
 5   0  0.2763895E-04  0.1763075E+04  0.7818609E-02  0.8726186E-01
       -1   -1    0    0    0  501  0.00000000000E+00  0.00000000000E+00  0.25238026888E+03  0.25238026893E+03  0.50400001928E-02 0. -1.
        1   -1    0    0  501    0  0.00000000000E+00  0.00000000000E+00 -0.30791161058E+04  0.30791161058E+04  0.50400001928E-02 0.  1.
    10030    2    1    2    0    0  0.00000000000E+00  0.00000000000E+00 -0.28267358369E+04  0.33314963747E+04  0.17630747582E+04 0.  0.
        4    1    3    3  502    0  0.84976738145E+03  0.23291160347E+03 -0.13614772913E+04  0.16217195952E+04  0.12699999809E+01 0.  1.
       -4    1    3    3    0  502 -0.84976738145E+03 -0.23291160347E+03 -0.14652585455E+04  0.17097767795E+04  0.12699999809E+01 0. -1.
</event>
<event>
 5   0  0.5315984E-04  0.1625188E+04  0.7818609E-02  0.8805222E-01
       -2   -1    0    0    0  501  0.00000000000E+00  0.00000000000E+00  0.69798366238E+03  0.69798366239E+03  0.25500000920E-02 0.  1.
        2   -1    0    0  501    0  0.00000000000E+00  0.00000000000E+00 -0.94602330986E+03  0.94602330986E+03  0.25500000920E-02 0. -1.
    10030    2    1    2    0    0  0.00000000000E+00  0.00000000000E+00 -0.24803964748E+03  0.16440069722E+04  0.16251877609E+04 0.  0.
        2    1    3    3  502    0  0.75274914548E+03 -0.29744937368E+03 -0.51063893819E+02  0.81099625596E+03  0.25500000920E-02 0.  1.
       -2    1    3    3    0  502 -0.75274914548E+03  0.29744937368E+03 -0.19697575366E+03  0.83301071629E+03  0.25500000920E-02 0. -1.
</event>
<event>
 5   0  0.5264308E-04  0.1585334E+04  0.7818609E-02  0.8829609E-01
        2   -1    0    0  501    0  0.00000000000E+00  0.00000000000E+00  0.13583692035E+04  0.13583692035E+04  0.25500000920E-02 0.  1.
       -2   -1    0    0    0  501  0.00000000000E+00  0.00000000000E+00 -0.46255535371E+03  0.46255535372E+03  0.25500000920E-02 0. -1.
    10030    2    1    2    0    0  0.00000000000E+00  0.00000000000E+00  0.89581384980E+03  0.18209245572E+04  0.15853339679E+04 0.  0.
        3    1    3    3  502    0  0.67140634409E+02  0.69312528603E+03  0.88284881915E+03  0.11244343354E+04  0.10100000352E+00 0.  1.
       -3    1    3    3    0  502 -0.67140634409E+02 -0.69312528603E+03  0.12965030649E+02  0.69649022185E+03  0.10100000352E+00 0. -1.
</event>
<event>
 5   0  0.2796994E-04  0.1595843E+04  0.7818609E-02  0.8823106E-01
        1   -1    0    0  501    0  0.00000000000E+00  0.00000000000E+00  0.13936748741E+04  0.13936748741E+04  0.50400001928E-02 0.  1.
       -1   -1    0    0    0  501  0.00000000000E+00  0.00000000000E+00 -0.45683464287E+03  0.45683464290E+03  0.50400001928E-02 0. -1.
    10030    2    1    2    0    0  0.00000000000E+00  0.00000000000E+00  0.93684023120E+03  0.18505095170E+04  0.15958433048E+04 0.  0.
        3    1    3    3  502    0 -0.15881522568E+03  0.17220607615E+03 -0.41606104451E+03  0.47747671307E+03  0.10100000352E+00 0. -1.
       -3    1    3    3    0  502  0.15881522568E+03 -0.17220607615E+03  0.13529012757E+04  0.13730328039E+04  0.10100000352E+00 0.  1.
</event>
<event>
 5   0  0.5264308E-04  0.1606543E+04  0.7818609E-02  0.8816538E-01
       -2   -1    0    0    0  501  0.00000000000E+00  0.00000000000E+00  0.30779867115E+03  0.30779867116E+03  0.25500000920E-02 0. -1.
        2   -1    0    0  501    0  0.00000000000E+00  0.00000000000E+00 -0.20963226177E+04  0.20963226177E+04  0.25500000920E-02 0.  1.
    10030    2    1    2    0    0  0.00000000000E+00  0.00000000000E+00 -0.17885239466E+04  0.24041212889E+04  0.16065432656E+04 0.  0.
        3    1    3    3  502    0  0.22422148260E+03 -0.55632586715E+03 -0.16938115064E+04  0.17968781743E+04  0.10100000352E+00 0.  1.
       -3    1    3    3    0  502 -0.22422148260E+03  0.55632586715E+03 -0.94712440162E+02  0.60724311461E+03  0.10100000352E+00 0. -1.
</event>
<event>
 5   0  0.2763895E-04  0.1574239E+04  0.7818609E-02  0.8836532E-01
       -1   -1    0    0    0  501  0.00000000000E+00  0.00000000000E+00  0.65259692200E+03  0.65259692202E+03  0.50400001928E-02 0.  1.
        1   -1    0    0  501    0  0.00000000000E+00  0.00000000000E+00 -0.94937121357E+03  0.94937121359E+03  0.50400001928E-02 0. -1.
    10030    2    1    2    0    0  0.00000000000E+00  0.00000000000E+00 -0.29677429158E+03  0.16019681356E+04  0.15742385230E+04 0.  0.
        4    1    3    3  502    0  0.70217761526E+03  0.10306579287E+03 -0.49479362211E+03  0.86515796385E+03  0.12699999809E+01 0.  1.
       -4    1    3    3    0  502 -0.70217761526E+03 -0.10306579287E+03  0.19801933054E+03  0.73681017175E+03  0.12699999809E+01 0. -1.
</event>
<event>
 5   0  0.5381164E-04  0.1601553E+04  0.7818609E-02  0.8819594E-01
       -2   -1    0    0    0  501  0.00000000000E+00  0.00000000000E+00  0.44375068260E+03  0.44375068260E+03  0.25500000920E-02 0.  1.
        2   -1    0    0  501    0  0.00000000000E+00  0.00000000000E+00 -0.14450531736E+04  0.14450531736E+04  0.25500000920E-02 0. -1.
    10030    2    1    2    0    0  0.00000000000E+00  0.00000000000E+00 -0.10013024910E+04  0.18888038562E+04  0.16015534111E+04 0.  0.
        5    1    3    3  502    0 -0.23572041844E+02 -0.39793083205E+03 -0.13197034111E+04  0.13786021077E+04  0.46999998093E+01 0. -1.
       -5    1    3    3    0  502  0.23572041844E+02  0.39793083205E+03  0.31840092007E+03  0.51020174848E+03  0.46999998093E+01 0.  1.
</event>
<event>
 5   0  0.2796994E-04  0.1610132E+04  0.7818609E-02  0.8814347E-01
        1   -1    0    0  501    0  0.00000000000E+00  0.00000000000E+00  0.41366141865E+03  0.41366141868E+03  0.50400001928E-02 0. -1.
       -1   -1    0    0    0  501  0.00000000000E+00  0.00000000000E+00 -0.15668163248E+04  0.15668163248E+04  0.50400001928E-02 0.  1.
    10030    2    1    2    0    0  0.00000000000E+00  0.00000000000E+00 -0.11531549062E+04  0.19804777435E+04  0.16101322476E+04 0.  0.
        3    1    3    3  502    0  0.35929060022E+03  0.58174933342E+03 -0.53846002612E+02  0.68587274661E+03  0.10100000352E+00 0. -1.
       -3    1    3    3    0  502 -0.35929060022E+03 -0.58174933342E+03 -0.10993089035E+04  0.12946049969E+04  0.10100000352E+00 0.  1.
</event>
<event>
 5   0  0.5315984E-04  0.1614428E+04  0.7818609E-02  0.8811733E-01
       -2   -1    0    0    0  501  0.00000000000E+00  0.00000000000E+00  0.73629307036E+03  0.73629307036E+03  0.25500000920E-02 0.  1.
        2   -1    0    0  501    0  0.00000000000E+00  0.00000000000E+00 -0.88496661560E+03  0.88496661561E+03  0.25500000920E-02 0. -1.
    10030    2    1    2    0    0  0.00000000000E+00  0.00000000000E+00 -0.14867354525E+03  0.16212596860E+04  0.16144284271E+04 0.  0.
        2    1    3    3  502    0 -0.47820980700E+03  0.31874051810E+03 -0.64358154460E+03  0.86283100428E+03  0.25500000920E-02 0. -1.
       -2    1    3    3    0  502  0.47820980700E+03 -0.31874051810E+03  0.49490799935E+03  0.75842868169E+03  0.25500000920E-02 0.  1.
</event>
<event>
 5   0  0.2730707E-04  0.1596166E+04  0.7818609E-02  0.8822907E-01
        1   -1    0    0  501    0  0.00000000000E+00  0.00000000000E+00  0.70515481757E+03  0.70515481759E+03  0.50400001928E-02 0.  1.
       -1   -1    0    0    0  501  0.00000000000E+00  0.00000000000E+00 -0.90325726601E+03  0.90325726602E+03  0.50400001928E-02 0. -1.
    10030    2    1    2    0    0  0.00000000000E+00  0.00000000000E+00 -0.19810244843E+03  0.16084120836E+04  0.15961656714E+04 0.  0.
        5    1    3    3  502    0 -0.22108393499E+03 -0.76653163043E+03 -0.12078697470E+03  0.80688315760E+03  0.46999998093E+01 0. -1.
       -5    1    3    3    0  502  0.22108393499E+03  0.76653163043E+03 -0.77315473737E+02  0.80152892601E+03  0.46999998093E+01 0.  1.
</event>
<event>
 5   0  0.2649086E-04  0.1614715E+04  0.7818609E-02  0.8811559E-01
       -1   -1    0    0    0  501  0.00000000000E+00  0.00000000000E+00  0.51166386911E+03  0.51166386914E+03  0.50400001928E-02 0. -1.
        1   -1    0    0  501    0  0.00000000000E+00  0.00000000000E+00 -0.12739335184E+04  0.12739335184E+04  0.50400001928E-02 0.  1.
    10030    2    1    2    0    0  0.00000000000E+00  0.00000000000E+00 -0.76226964928E+03  0.17855973875E+04  0.16147145296E+04 0.  0.
        2    1    3    3  502    0  0.25154488120E+03 -0.51110128909E+03  0.25153672375E+03  0.62271187427E+03  0.25500000920E-02 0. -1.
       -2    1    3    3    0  502 -0.25154488120E+03  0.51110128909E+03 -0.10138063730E+04  0.11628855133E+04  0.25500000920E-02 0.  1.
</event>
<event>
 5   0  0.2730707E-04  0.1669521E+04  0.7818609E-02  0.8778941E-01
       -1   -1    0    0    0  501  0.00000000000E+00  0.00000000000E+00  0.95318903775E+03  0.95318903776E+03  0.50400001928E-02 0.  1.
        1   -1    0    0  501    0  0.00000000000E+00  0.00000000000E+00 -0.73104610966E+03  0.73104610967E+03  0.50400001928E-02 0. -1.
    10030    2    1    2    0    0  0.00000000000E+00  0.00000000000E+00  0.22214292809E+03  0.16842351474E+04  0.16695210545E+04 0.  0.
        5    1    3    3  502    0  0.42641290577E+03 -0.50294760986E+03  0.62746053094E+03  0.91022693453E+03  0.46999998093E+01 0.  1.
       -5    1    3    3    0  502 -0.42641290577E+03  0.50294760986E+03 -0.40531760284E+03  0.77400821290E+03  0.46999998093E+01 0. -1.
</event>
<event>
 5   0  0.5381164E-04  0.1614834E+04  0.7818609E-02  0.8811486E-01
       -2   -1    0    0    0  501  0.00000000000E+00  0.00000000000E+00  0.12896692423E+04  0.12896692423E+04  0.25500000920E-02 0.  1.
        2   -1    0    0  501    0  0.00000000000E+00  0.00000000000E+00 -0.50549575941E+03  0.50549575941E+03  0.25500000920E-02 0. -1.
    10030    2    1    2    0    0  0.00000000000E+00  0.00000000000E+00  0.78417348290E+03  0.17951650017E+04  0.16148341500E+04 0.  0.
        5    1    3    3  502    0  0.44640542143E+03  0.53250443628E+03 -0.65000148919E+02  0.69791538477E+03  0.46999998093E+01 0. -1.
       -5    1    3    3    0  502 -0.44640542143E+03 -0.53250443628E+03  0.84917363182E+03  0.10972496170E+04  0.46999998093E+01 0.  1.
</event>
<event>
 5   0  0.2730707E-04  0.1594490E+04  0.7818609E-02  0.8823940E-01
        1   -1    0    0  501    0  0.00000000000E+00  0.00000000000E+00  0.10553684255E+04  0.10553684255E+04  0.50400001928E-02 0. -1.
       -1   -1    0    0    0  501  0.00000000000E+00  0.00000000000E+00 -0.60225402288E+03  0.60225402290E+03  0.50400001928E-02 0.  1.
    10030    2    1    2    0    0  0.00000000000E+00  0.00000000000E+00  0.45311440261E+03  0.16576224484E+04  0.15944903636E+04 0.  0.
        5    1    3    3  502    0  0.60954152152E+03  0.19494293923E+03  0.72081186165E+03  0.96391672146E+03  0.46999998093E+01 0. -1.
       -5    1    3    3    0  502 -0.60954152152E+03 -0.19494293923E+03 -0.26769745904E+03  0.69370572694E+03  0.46999998093E+01 0.  1.
</event>
<event>
 5   0  0.5131239E-04  0.1600472E+04  0.7818609E-02  0.8820258E-01
        2   -1    0    0  501    0  0.00000000000E+00  0.00000000000E+00  0.58303126009E+03  0.58303126010E+03  0.25500000920E-02 0.  1.
       -2   -1    0    0    0  501  0.00000000000E+00  0.00000000000E+00 -0.10983587458E+04  0.10983587458E+04  0.25500000920E-02 0. -1.
    10030    2    1    2    0    0  0.00000000000E+00  0.00000000000E+00 -0.51532748574E+03  0.16813900059E+04  0.16004717850E+04 0.  0.
        1    1    3    3  502    0  0.12183763713E+03 -0.45423073163E+03  0.42253366062E+03  0.63222200354E+03  0.50400001928E-02 0.  1.
       -1    1    3    3    0  502 -0.12183763713E+03  0.45423073163E+03 -0.93786114635E+03  0.10491680024E+04  0.50400001928E-02 0. -1.
</event>
<event>
 5   0  0.5381164E-04  0.1599408E+04  0.7818609E-02  0.8820912E-01
       -2   -1    0    0    0  501  0.00000000000E+00  0.00000000000E+00  0.37092453031E+03  0.37092453032E+03  0.25500000920E-02 0. -1.
        2   -1    0    0  501    0  0.00000000000E+00  0.00000000000E+00 -0.17241419805E+04  0.17241419805E+04  0.25500000920E-02 0.  1.
    10030    2    1    2    0    0  0.00000000000E+00  0.00000000000E+00 -0.13532174502E+04  0.20950665108E+04  0.15994080834E+04 0.  0.
        5    1    3    3  502    0 -0.43129815693E+03 -0.18332642401E+02 -0.15583875263E+04  0.16170800716E+04  0.46999998093E+01 0.  1.
       -5    1    3    3    0  502  0.43129815693E+03  0.18332642401E+02  0.20517007610E+03  0.47798643921E+03  0.46999998093E+01 0. -1.
</event>
<event>
 5   0  0.5381164E-04  0.1505428E+04  0.7818609E-02  0.8880852E-01
       -2   -1    0    0    0  501  0.00000000000E+00  0.00000000000E+00  0.16298795957E+04  0.16298795957E+04  0.25500000920E-02 0.  1.
        2   -1    0    0  501    0  0.00000000000E+00  0.00000000000E+00 -0.34761957761E+03  0.34761957762E+03  0.25500000920E-02 0. -1.
    10030    2    1    2    0    0  0.00000000000E+00  0.00000000000E+00  0.12822600181E+04  0.19774991733E+04  0.15054275892E+04 0.  0.
        5    1    3    3  502    0  0.44434556853E+03  0.52982184490E+03  0.10316893071E+04  0.12419980225E+04  0.46999998093E+01 0.  1.
       -5    1    3    3    0  502 -0.44434556853E+03 -0.52982184490E+03  0.25057071101E+03  0.73550115080E+03  0.46999998093E+01 0. -1.
</event>
<event>
 5   0  0.2730707E-04  0.1622092E+04  0.7818609E-02  0.8807090E-01
        1   -1    0    0  501    0  0.00000000000E+00  0.00000000000E+00  0.93388996569E+03  0.93388996571E+03  0.50400001928E-02 0.  1.
       -1   -1    0    0    0  501  0.00000000000E+00  0.00000000000E+00 -0.70436070014E+03  0.70436070015E+03  0.50400001928E-02 0. -1.
    10030    2    1    2    0    0  0.00000000000E+00  0.00000000000E+00  0.22952926556E+03  0.16382506659E+04  0.16220917238E+04 0.  0.
        5    1    3    3  502    0  0.50321038110E+03 -0.11134783265E+02 -0.52751757318E+03  0.72913753919E+03  0.46999998093E+01 0. -1.
       -5    1    3    3    0  502 -0.50321038110E+03  0.11134783265E+02  0.75704683874E+03  0.90911312667E+03  0.46999998093E+01 0.  1.
</event>
<event>
 5   0  0.2730707E-04  0.1592990E+04  0.7818609E-02  0.8824866E-01
       -1   -1    0    0    0  501  0.00000000000E+00  0.00000000000E+00  0.98276859237E+03  0.98276859239E+03  0.50400001928E-02 0.  1.
        1   -1    0    0  501    0  0.00000000000E+00  0.00000000000E+00 -0.64552767517E+03  0.64552767519E+03  0.50400001928E-02 0. -1.
    10030    2    1    2    0    0  0.00000000000E+00  0.00000000000E+00  0.33724091720E+03  0.16282962676E+04  0.15929900498E+04 0.  0.
        5    1    3    3  502    0  0.40875600743E+02 -0.12974153930E+02 -0.64433251250E+03  0.64577520862E+03  0.46999998093E+01 0. -1.
       -5    1    3    3    0  502 -0.40875600743E+02  0.12974153930E+02  0.98157342970E+03  0.98252105896E+03  0.46999998093E+01 0.  1.
</event>
<event>
 5   0  0.5381164E-04  0.1586479E+04  0.7818609E-02  0.8828898E-01
       -2   -1    0    0    0  501  0.00000000000E+00  0.00000000000E+00  0.64870387571E+03  0.64870387571E+03  0.25500000920E-02 0. -1.
        2   -1    0    0  501    0  0.00000000000E+00  0.00000000000E+00 -0.96997803095E+03  0.96997803095E+03  0.25500000920E-02 0.  1.
    10030    2    1    2    0    0  0.00000000000E+00  0.00000000000E+00 -0.32127415524E+03  0.16186819067E+04  0.15864785004E+04 0.  0.
        5    1    3    3  502    0 -0.23526035835E+03 -0.53106825145E+03  0.39053719299E+03  0.69994450709E+03  0.46999998093E+01 0. -1.
       -5    1    3    3    0  502  0.23526035835E+03  0.53106825145E+03 -0.71181134823E+03  0.91873739957E+03  0.46999998093E+01 0.  1.
</event>
<event>
 5   0  0.2763895E-04  0.1632317E+04  0.7818609E-02  0.8800937E-01
       -1   -1    0    0    0  501  0.00000000000E+00  0.00000000000E+00  0.11306279043E+04  0.11306279043E+04  0.50400001928E-02 0. -1.
        1   -1    0    0  501    0  0.00000000000E+00  0.00000000000E+00 -0.58915494484E+03  0.58915494486E+03  0.50400001928E-02 0.  1.
    10030    2    1    2    0    0  0.00000000000E+00  0.00000000000E+00  0.54147295950E+03  0.17197828492E+04  0.16323173964E+04 0.  0.
        4    1    3    3  502    0 -0.32068662598E+03 -0.67936386688E+03  0.60679204940E+03  0.96569838968E+03  0.12699999809E+01 0. -1.
       -4    1    3    3    0  502  0.32068662598E+03  0.67936386688E+03 -0.65319089904E+02  0.75408445954E+03  0.12699999809E+01 0.  1.
</event>
<event>
 5   0  0.5131239E-04  0.1590992E+04  0.7818609E-02  0.8826101E-01
       -2   -1    0    0    0  501  0.00000000000E+00  0.00000000000E+00  0.80409317398E+03  0.80409317399E+03  0.25500000920E-02 0.  1.
        2   -1    0    0  501    0  0.00000000000E+00  0.00000000000E+00 -0.78699105058E+03  0.78699105059E+03  0.25500000920E-02 0. -1.
    10030    2    1    2    0    0  0.00000000000E+00  0.00000000000E+00  0.17102123399E+02  0.15910842246E+04  0.15909923089E+04 0.  0.
        1    1    3    3  502    0  0.39903355454E+03 -0.54372612775E+03  0.43041456300E+03  0.80007660615E+03  0.50400001928E-02 0.  1.
       -1    1    3    3    0  502 -0.39903355454E+03  0.54372612775E+03 -0.41331243960E+03  0.79100761842E+03  0.50400001928E-02 0. -1.
</event>
<event>
 5   0  0.2730707E-04  0.1586615E+04  0.7818609E-02  0.8828813E-01
       -1   -1    0    0    0  501  0.00000000000E+00  0.00000000000E+00  0.97426264877E+03  0.97426264879E+03  0.50400001928E-02 0. -1.
        1   -1    0    0  501    0  0.00000000000E+00  0.00000000000E+00 -0.64596254417E+03  0.64596254419E+03  0.50400001928E-02 0.  1.
    10030    2    1    2    0    0  0.00000000000E+00  0.00000000000E+00  0.32830010461E+03  0.16202251930E+04  0.15866154913E+04 0.  0.
        5    1    3    3  502    0 -0.30580453962E+03  0.70599668514E+03 -0.33251180382E+02  0.77011393110E+03  0.46999998093E+01 0.  1.
       -5    1    3    3    0  502  0.30580453962E+03 -0.70599668514E+03  0.36155128499E+03  0.85011126187E+03  0.46999998093E+01 0. -1.
</event>
<event>
 5   0  0.2689675E-04  0.1592165E+04  0.7818609E-02  0.8825376E-01
       -1   -1    0    0    0  501  0.00000000000E+00  0.00000000000E+00  0.29121205033E+03  0.29121205037E+03  0.50400001928E-02 0. -1.
        1   -1    0    0  501    0  0.00000000000E+00  0.00000000000E+00 -0.21762391922E+04  0.21762391922E+04  0.50400001928E-02 0.  1.
    10030    2    1    2    0    0  0.00000000000E+00  0.00000000000E+00 -0.18850271419E+04  0.24674512426E+04  0.15921646614E+04 0.  0.
        1    1    3    3  502    0 -0.57912793099E+03  0.39540398934E+03 -0.35849646115E+03  0.78756154548E+03  0.50400001928E-02 0. -1.
       -1    1    3    3    0  502  0.57912793099E+03 -0.39540398934E+03 -0.15265306808E+04  0.16798896971E+04  0.50400001928E-02 0.  1.
</event>
<event>
 5   0  0.2689675E-04  0.1597838E+04  0.7818609E-02  0.8821877E-01
       -1   -1    0    0    0  501  0.00000000000E+00  0.00000000000E+00  0.65257459925E+03  0.65257459927E+03  0.50400001928E-02 0. -1.
        1   -1    0    0  501    0  0.00000000000E+00  0.00000000000E+00 -0.97808212371E+03  0.97808212372E+03  0.50400001928E-02 0.  1.
    10030    2    1    2    0    0  0.00000000000E+00  0.00000000000E+00 -0.32550752446E+03  0.16306567230E+04  0.15978379767E+04 0.  0.
        1    1    3    3  502    0  0.50818210184E+03 -0.57943208878E+03  0.51998772968E+02  0.77246000968E+03  0.50400001928E-02 0.  1.
       -1    1    3    3    0  502 -0.50818210184E+03  0.57943208878E+03 -0.37750629743E+03  0.85819671332E+03  0.50400001928E-02 0. -1.
</event>
<event>
 5   0  0.2763895E-04  0.1568560E+04  0.7818609E-02  0.8840099E-01
        1   -1    0    0  501    0  0.00000000000E+00  0.00000000000E+00  0.13811601732E+04  0.13811601732E+04  0.50400001928E-02 0. -1.
       -1   -1    0    0    0  501  0.00000000000E+00  0.00000000000E+00 -0.44534685560E+03  0.44534685563E+03  0.50400001928E-02 0.  1.
    10030    2    1    2    0    0  0.00000000000E+00  0.00000000000E+00  0.93581331758E+03  0.18265070288E+04  0.15685602829E+04 0.  0.
        4    1    3    3  502    0 -0.11252208898E+03 -0.10063381272E+03 -0.42826861801E+03  0.45409691349E+03  0.12699999809E+01 0.  1.
       -4    1    3    3    0  502  0.11252208898E+03  0.10063381272E+03  0.13640819356E+04  0.13724101153E+04  0.12699999809E+01 0. -1.
</event>
<event>
 5   0  0.5083831E-04  0.1613184E+04  0.7818609E-02  0.8812489E-01
       -2   -1    0    0    0  501  0.00000000000E+00  0.00000000000E+00  0.94048796193E+03  0.94048796194E+03  0.25500000920E-02 0.  1.
        2   -1    0    0  501    0  0.00000000000E+00  0.00000000000E+00 -0.69175876037E+03  0.69175876038E+03  0.25500000920E-02 0. -1.
    10030    2    1    2    0    0  0.00000000000E+00  0.00000000000E+00  0.24872920156E+03  0.16322467223E+04  0.16131841639E+04 0.  0.
        4    1    3    3  502    0  0.62072122904E+03 -0.23937816638E+03 -0.33708642140E+03  0.74580534934E+03  0.12699999809E+01 0. -1.
       -4    1    3    3    0  502 -0.62072122904E+03  0.23937816638E+03  0.58581562296E+03  0.88644137297E+03  0.12699999809E+01 0.  1.
</event>
<event>
 5   0  0.5264308E-04  0.1593989E+04  0.7818609E-02  0.8824249E-01
       -2   -1    0    0    0  501  0.00000000000E+00  0.00000000000E+00  0.38270263178E+03  0.38270263179E+03  0.25500000920E-02 0. -1.
        2   -1    0    0  501    0  0.00000000000E+00  0.00000000000E+00 -0.16597743567E+04  0.16597743567E+04  0.25500000920E-02 0.  1.
    10030    2    1    2    0    0  0.00000000000E+00  0.00000000000E+00 -0.12770717249E+04  0.20424769885E+04  0.15939887258E+04 0.  0.
        3    1    3    3  502    0 -0.74947739658E+03 -0.97601337764E+02 -0.31448136173E+03  0.81862135704E+03  0.10100000352E+00 0.  1.
       -3    1    3    3    0  502  0.74947739658E+03  0.97601337764E+02 -0.96259036315E+03  0.12238556314E+04  0.10100000352E+00 0. -1.
</event>
<event>
 5   0  0.2763895E-04  0.1608355E+04  0.7818609E-02  0.8815431E-01
        1   -1    0    0  501    0  0.00000000000E+00  0.00000000000E+00  0.10747644155E+04  0.10747644155E+04  0.50400001928E-02 0. -1.
       -1   -1    0    0    0  501  0.00000000000E+00  0.00000000000E+00 -0.60171477841E+03  0.60171477843E+03  0.50400001928E-02 0.  1.
    10030    2    1    2    0    0  0.00000000000E+00  0.00000000000E+00  0.47304963708E+03  0.16764791939E+04  0.16083552246E+04 0.  0.
        4    1    3    3  502    0 -0.12316564870E+02 -0.72379446554E+03  0.60160241885E+03  0.94125299967E+03  0.12699999809E+01 0. -1.
       -4    1    3    3    0  502  0.12316564870E+02  0.72379446554E+03 -0.12855278177E+03  0.73522619426E+03  0.12699999809E+01 0.  1.
</event>
<event>
 5   0  0.5381164E-04  0.1608224E+04  0.7818609E-02  0.8815512E-01
        2   -1    0    0  501    0  0.00000000000E+00  0.00000000000E+00  0.19186763324E+04  0.19186763324E+04  0.25500000920E-02 0.  1.
       -2   -1    0    0    0  501  0.00000000000E+00  0.00000000000E+00 -0.33700094414E+03  0.33700094415E+03  0.25500000920E-02 0. -1.
    10030    2    1    2    0    0  0.00000000000E+00  0.00000000000E+00  0.15816753882E+04  0.22556772765E+04  0.16082235361E+04 0.  0.
        5    1    3    3  502    0 -0.50851483040E+03  0.19103125262E+02 -0.82403901363E+02  0.51552376773E+03  0.46999998093E+01 0. -1.
       -5    1    3    3    0  502  0.50851483040E+03 -0.19103125262E+02  0.16640792896E+04  0.17401535088E+04  0.46999998093E+01 0.  1.
</event>
<event>
 5   0  0.5264308E-04  0.1588923E+04  0.7818609E-02  0.8827382E-01
       -2   -1    0    0    0  501  0.00000000000E+00  0.00000000000E+00  0.65661538930E+03  0.65661538931E+03  0.25500000920E-02 0.  1.
        2   -1    0    0  501    0  0.00000000000E+00  0.00000000000E+00 -0.96124670910E+03  0.96124670910E+03  0.25500000920E-02 0. -1.
    10030    2    1    2    0    0  0.00000000000E+00  0.00000000000E+00 -0.30463131979E+03  0.16178620984E+04  0.15889233866E+04 0.  0.
        3    1    3    3  502    0  0.10189152258E+03  0.61082001570E+03  0.35442951525E+03  0.71351472685E+03  0.10100000352E+00 0.  1.
       -3    1    3    3    0  502 -0.10189152258E+03 -0.61082001570E+03 -0.65906083505E+03  0.90434737156E+03  0.10100000352E+00 0. -1.
</event>
<event>
 5   0  0.5083831E-04  0.1617890E+04  0.7818609E-02  0.8809632E-01
        2   -1    0    0  501    0  0.00000000000E+00  0.00000000000E+00  0.16497895685E+04  0.16497895685E+04  0.25500000920E-02 0.  1.
       -2   -1    0    0    0  501  0.00000000000E+00  0.00000000000E+00 -0.39665164495E+03  0.39665164495E+03  0.25500000920E-02 0. -1.
    10030    2    1    2    0    0  0.00000000000E+00  0.00000000000E+00  0.12531379236E+04  0.20464412135E+04  0.16178896701E+04 0.  0.
        4    1    3    3  502    0 -0.42810125645E+03 -0.87971581010E+02 -0.23446290331E+03  0.49596789288E+03  0.12699999809E+01 0. -1.
       -4    1    3    3    0  502  0.42810125645E+03  0.87971581010E+02  0.14876008269E+04  0.15504733206E+04  0.12699999809E+01 0.  1.
</event>
<event>
 5   0  0.5315984E-04  0.1597565E+04  0.7818609E-02  0.8822045E-01
       -2   -1    0    0    0  501  0.00000000000E+00  0.00000000000E+00  0.49490527207E+03  0.49490527208E+03  0.25500000920E-02 0. -1.
        2   -1    0    0  501    0  0.00000000000E+00  0.00000000000E+00 -0.12892441688E+04  0.12892441688E+04  0.25500000920E-02 0.  1.
    10030    2    1    2    0    0  0.00000000000E+00  0.00000000000E+00 -0.79433889676E+03  0.17841494409E+04  0.15975653178E+04 0.  0.
        2    1    3    3  502    0 -0.18715497487E+03  0.44054361969E+02 -0.12630159333E+04  0.12775668355E+04  0.25500000920E-02 0.  1.
       -2    1    3    3    0  502  0.18715497487E+03 -0.44054361969E+02  0.46867703658E+03  0.50658260536E+03  0.25500000920E-02 0. -1.
</event>
<event>
 5   0  0.5315984E-04  0.1603976E+04  0.7818609E-02  0.8818109E-01
        2   -1    0    0  501    0  0.00000000000E+00  0.00000000000E+00  0.14098887992E+04  0.14098887992E+04  0.25500000920E-02 0.  1.
       -2   -1    0    0    0  501  0.00000000000E+00  0.00000000000E+00 -0.45619540519E+03  0.45619540520E+03  0.25500000920E-02 0. -1.
    10030    2    1    2    0    0  0.00000000000E+00  0.00000000000E+00  0.95369339398E+03  0.18660842044E+04  0.16039760497E+04 0.  0.
        2    1    3    3  502    0 -0.53298286173E+01 -0.25279917731E+03  0.13623006666E+04  0.13855680919E+04  0.25500000920E-02 0.  1.
       -2    1    3    3    0  502  0.53298286173E+01  0.25279917731E+03 -0.40860727260E+03  0.48051611248E+03  0.25500000920E-02 0. -1.
</event>
<event>
 5   0  0.5315984E-04  0.1582657E+04  0.7818609E-02  0.8831274E-01
        2   -1    0    0  501    0  0.00000000000E+00  0.00000000000E+00  0.12723486700E+04  0.12723486700E+04  0.25500000920E-02 0.  1.
       -2   -1    0    0    0  501  0.00000000000E+00  0.00000000000E+00 -0.49216135351E+03  0.49216135352E+03  0.25500000920E-02 0. -1.
    10030    2    1    2    0    0  0.00000000000E+00  0.00000000000E+00  0.78018731650E+03  0.17645100235E+04  0.15826570615E+04 0.  0.
        2    1    3    3  502    0 -0.25480627661E+03 -0.47809791473E+03 -0.25298151747E+03  0.59791596639E+03  0.25500000920E-02 0. -1.
       -2    1    3    3    0  502  0.25480627661E+03  0.47809791473E+03  0.10331688340E+04  0.11665940571E+04  0.25500000920E-02 0.  1.
</event>
<event>
 5   0  0.5264308E-04  0.1608335E+04  0.7818609E-02  0.8815444E-01
       -2   -1    0    0    0  501  0.00000000000E+00  0.00000000000E+00  0.36532049152E+03  0.36532049152E+03  0.25500000920E-02 0. -1.
        2   -1    0    0  501    0  0.00000000000E+00  0.00000000000E+00 -0.17701859490E+04  0.17701859490E+04  0.25500000920E-02 0.  1.
    10030    2    1    2    0    0  0.00000000000E+00  0.00000000000E+00 -0.14048654575E+04  0.21355064405E+04  0.16083347922E+04 0.  0.
        3    1    3    3  502    0 -0.54912180450E+03  0.16592875362E+03 -0.14507349579E+04  0.15600317419E+04  0.10100000352E+00 0.  1.
       -3    1    3    3    0  502  0.54912180450E+03 -0.16592875362E+03  0.45869500449E+02  0.57547469860E+03  0.10100000352E+00 0. -1.
</event>
<event>
 5   0  0.5083831E-04  0.1602862E+04  0.7818609E-02  0.8818792E-01
       -2   -1    0    0    0  501  0.00000000000E+00  0.00000000000E+00  0.88474366356E+03  0.88474366356E+03  0.25500000920E-02 0. -1.
        2   -1    0    0  501    0  0.00000000000E+00  0.00000000000E+00 -0.72596338354E+03  0.72596338354E+03  0.25500000920E-02 0.  1.
    10030    2    1    2    0    0  0.00000000000E+00  0.00000000000E+00  0.15878028002E+03  0.16107070471E+04  0.16028618201E+04 0.  0.
        4    1    3    3  502    0 -0.68420208858E+03 -0.23936191907E+03  0.42291603620E+03  0.83921761950E+03  0.12699999809E+01 0. -1.
       -4    1    3    3    0  502  0.68420208858E+03  0.23936191907E+03 -0.26413575617E+03  0.77148942760E+03  0.12699999809E+01 0.  1.
</event>
<event>
 5   0  0.5131239E-04  0.1587636E+04  0.7818609E-02  0.8828180E-01
       -2   -1    0    0    0  501  0.00000000000E+00  0.00000000000E+00  0.77790333793E+03  0.77790333794E+03  0.25500000920E-02 0. -1.
        2   -1    0    0  501    0  0.00000000000E+00  0.00000000000E+00 -0.81005774474E+03  0.81005774475E+03  0.25500000920E-02 0.  1.
    10030    2    1    2    0    0  0.00000000000E+00  0.00000000000E+00 -0.32154406810E+02  0.15879610827E+04  0.15876355042E+04 0.  0.
        1    1    3    3  502    0 -0.16467417546E+03  0.53375719712E+03 -0.58022504482E+03  0.80540389383E+03  0.50400001928E-02 0.  1.
       -1    1    3    3    0  502  0.16467417546E+03 -0.53375719712E+03  0.54807063802E+03  0.78255718885E+03  0.50400001928E-02 0. -1.
</event>
<event>
 5   0  0.2689675E-04  0.1593570E+04  0.7818609E-02  0.8824508E-01
       -1   -1    0    0    0  501  0.00000000000E+00  0.00000000000E+00  0.34942794363E+03  0.34942794366E+03  0.50400001928E-02 0. -1.
        1   -1    0    0  501    0  0.00000000000E+00  0.00000000000E+00 -0.18168741925E+04  0.18168741925E+04  0.50400001928E-02 0.  1.
    10030    2    1    2    0    0  0.00000000000E+00  0.00000000000E+00 -0.14674462489E+04  0.21663021362E+04  0.15935703473E+04 0.  0.
        1    1    3    3  502    0  0.60213309811E+03 -0.31409662910E+03 -0.16724943214E+03  0.69942357183E+03  0.50400001928E-02 0. -1.
       -1    1    3    3    0  502 -0.60213309811E+03  0.31409662910E+03 -0.13001968168E+04  0.14668785644E+04  0.50400001928E-02 0.  1.
</event>
<event>
 5   0  0.2796994E-04  0.1507767E+04  0.7818609E-02  0.8879304E-01
       -1   -1    0    0    0  501  0.00000000000E+00  0.00000000000E+00  0.53054106677E+03  0.53054106680E+03  0.50400001928E-02 0. -1.
        1   -1    0    0  501    0  0.00000000000E+00  0.00000000000E+00 -0.10712468888E+04  0.10712468888E+04  0.50400001928E-02 0.  1.
    10030    2    1    2    0    0  0.00000000000E+00  0.00000000000E+00 -0.54070582202E+03  0.16017879556E+04  0.15077671799E+04 0.  0.
        3    1    3    3  502    0 -0.33031076543E+03 -0.67745989239E+03 -0.25247025960E+03  0.79485743988E+03  0.10100000352E+00 0.  1.
       -3    1    3    3    0  502  0.33031076543E+03  0.67745989239E+03 -0.28823556242E+03  0.80693051572E+03  0.10100000352E+00 0. -1.
</event>
<event>
 5   0  0.2689675E-04  0.1593663E+04  0.7818609E-02  0.8824450E-01
        1   -1    0    0  501    0  0.00000000000E+00  0.00000000000E+00  0.13641069745E+04  0.13641069745E+04  0.50400001928E-02 0. -1.
       -1   -1    0    0    0  501  0.00000000000E+00  0.00000000000E+00 -0.46546261290E+03  0.46546261293E+03  0.50400001928E-02 0.  1.
    10030    2    1    2    0    0  0.00000000000E+00  0.00000000000E+00  0.89864436156E+03  0.18295695874E+04  0.15936634483E+04 0.  0.
        1    1    3    3  502    0  0.20107195871E+03  0.62827728903E+03  0.96245135535E+03  0.11668225640E+04  0.50400001928E-02 0.  1.
       -1    1    3    3    0  502 -0.20107195871E+03 -0.62827728903E+03 -0.63806993789E+02  0.66274702336E+03  0.50400001928E-02 0. -1.
</event>
<event>
 5   0  0.5083831E-04  0.1497672E+04  0.7818609E-02  0.8886002E-01
        2   -1    0    0  501    0  0.00000000000E+00  0.00000000000E+00  0.92623098763E+03  0.92623098763E+03  0.25500000920E-02 0. -1.
       -2   -1    0    0    0  501  0.00000000000E+00  0.00000000000E+00 -0.60541634194E+03  0.60541634195E+03  0.25500000920E-02 0.  1.
    10030    2    1    2    0    0  0.00000000000E+00  0.00000000000E+00  0.32081464569E+03  0.15316473296E+04  0.14976720286E+04 0.  0.
        4    1    3    3  502    0  0.34273137226E+03  0.65490314789E+03  0.28309051942E+03  0.79152055041E+03  0.12699999809E+01 0.  1.
       -4    1    3    3    0  502 -0.34273137226E+03 -0.65490314789E+03  0.37724126266E+02  0.74012677917E+03  0.12699999809E+01 0. -1.
</event>
<event>
 5   0  0.5315984E-04  0.1529512E+04  0.7818609E-02  0.8865061E-01
        2   -1    0    0  501    0  0.00000000000E+00  0.00000000000E+00  0.97695165116E+03  0.97695165116E+03  0.25500000920E-02 0. -1.
       -2   -1    0    0    0  501  0.00000000000E+00  0.00000000000E+00 -0.59864999538E+03  0.59864999538E+03  0.25500000920E-02 0.  1.
    10030    2    1    2    0    0  0.00000000000E+00  0.00000000000E+00  0.37830165578E+03  0.15756016465E+04  0.15295124733E+04 0.  0.
        2    1    3    3  502    0 -0.54875966389E+03  0.34513272759E+03 -0.22878164756E+03  0.68745531537E+03  0.25500000920E-02 0.  1.
       -2    1    3    3    0  502  0.54875966389E+03 -0.34513272759E+03  0.60708330335E+03  0.88814633117E+03  0.25500000920E-02 0. -1.
</event>
<event>
 5   0  0.5315984E-04  0.1437566E+04  0.7818609E-02  0.8927066E-01
       -2   -1    0    0    0  501  0.00000000000E+00  0.00000000000E+00  0.50237791114E+03  0.50237791115E+03  0.25500000920E-02 0.  1.
        2   -1    0    0  501    0  0.00000000000E+00  0.00000000000E+00 -0.10284077261E+04  0.10284077261E+04  0.25500000920E-02 0. -1.
    10030    2    1    2    0    0  0.00000000000E+00  0.00000000000E+00 -0.52602981500E+03  0.15307856373E+04  0.14375664510E+04 0.  0.
        2    1    3    3  502    0 -0.13968483575E+03 -0.51988061095E+03 -0.77020056817E+03  0.93967899742E+03  0.25500000920E-02 0. -1.
       -2    1    3    3    0  502  0.13968483575E+03  0.51988061095E+03  0.24417075318E+03  0.59110663986E+03  0.25500000920E-02 0.  1.
</event>
<event>
 5   0  0.5131239E-04  0.1567489E+04  0.7818609E-02  0.8840773E-01
       -2   -1    0    0    0  501  0.00000000000E+00  0.00000000000E+00  0.58972527703E+03  0.58972527704E+03  0.25500000920E-02 0.  1.
        2   -1    0    0  501    0  0.00000000000E+00  0.00000000000E+00 -0.10415963445E+04  0.10415963445E+04  0.25500000920E-02 0. -1.
    10030    2    1    2    0    0  0.00000000000E+00  0.00000000000E+00 -0.45187106743E+03  0.16313216215E+04  0.15674893209E+04 0.  0.
        1    1    3    3  502    0  0.12009292950E+03 -0.35900679029E+03 -0.94013784631E+03  0.10134926528E+04  0.50400001928E-02 0. -1.
       -1    1    3    3    0  502 -0.12009292950E+03  0.35900679029E+03  0.48826677888E+03  0.61782896871E+03  0.50400001928E-02 0.  1.
</event>
<event>
 5   0  0.5381164E-04  0.1594773E+04  0.7818609E-02  0.8823765E-01
       -2   -1    0    0    0  501  0.00000000000E+00  0.00000000000E+00  0.43883332939E+03  0.43883332940E+03  0.25500000920E-02 0. -1.
        2   -1    0    0  501    0  0.00000000000E+00  0.00000000000E+00 -0.14488995908E+04  0.14488995908E+04  0.25500000920E-02 0.  1.
    10030    2    1    2    0    0  0.00000000000E+00  0.00000000000E+00 -0.10100662614E+04  0.18877329202E+04  0.15947732521E+04 0.  0.
        5    1    3    3  502    0  0.38986323274E+03  0.68994943494E+03 -0.60943907349E+03  0.99973078242E+03  0.46999998093E+01 0.  1.
       -5    1    3    3    0  502 -0.38986323274E+03 -0.68994943494E+03 -0.40062718791E+03  0.88800213778E+03  0.46999998093E+01 0. -1.
</event>
<event>
 5   0  0.2649086E-04  0.1559095E+04  0.7818609E-02  0.8846079E-01
       -1   -1    0    0    0  501  0.00000000000E+00  0.00000000000E+00  0.43396985230E+03  0.43396985233E+03  0.50400001928E-02 0.  1.
        1   -1    0    0  501    0  0.00000000000E+00  0.00000000000E+00 -0.14003152704E+04  0.14003152704E+04  0.50400001928E-02 0. -1.
    10030    2    1    2    0    0  0.00000000000E+00  0.00000000000E+00 -0.96634541807E+03  0.18342851227E+04  0.15590953930E+04 0.  0.
        2    1    3    3  502    0 -0.51335886414E+03 -0.12222337282E+03  0.19187804426E+03  0.56150962604E+03  0.25500000920E-02 0.  1.
       -2    1    3    3    0  502  0.51335886414E+03  0.12222337282E+03 -0.11582234623E+04  0.12727754967E+04  0.25500000920E-02 0. -1.
</event>
<event>
 5   0  0.2796994E-04  0.1615075E+04  0.7818609E-02  0.8811340E-01
       -1   -1    0    0    0  501  0.00000000000E+00  0.00000000000E+00  0.23843996822E+03  0.23843996827E+03  0.50400001928E-02 0. -1.
        1   -1    0    0  501    0  0.00000000000E+00  0.00000000000E+00 -0.27349323904E+04  0.27349323904E+04  0.50400001928E-02 0.  1.
    10030    2    1    2    0    0  0.00000000000E+00  0.00000000000E+00 -0.24964924221E+04  0.29733723586E+04  0.16150754686E+04 0.  0.
        3    1    3    3  502    0 -0.10267554614E+03 -0.39555947389E+02  0.22457469743E+03  0.25008147808E+03  0.10100000352E+00 0. -1.
       -3    1    3    3    0  502  0.10267554614E+03  0.39555947389E+02 -0.27210671196E+04  0.27232908806E+04  0.10100000352E+00 0.  1.
</event>
<event>
 5   0  0.2689675E-04  0.1616334E+04  0.7818609E-02  0.8810576E-01
       -1   -1    0    0    0  501  0.00000000000E+00  0.00000000000E+00  0.85081615396E+03  0.85081615398E+03  0.50400001928E-02 0.  1.
        1   -1    0    0  501    0  0.00000000000E+00  0.00000000000E+00 -0.76765597489E+03  0.76765597491E+03  0.50400001928E-02 0. -1.
    10030    2    1    2    0    0  0.00000000000E+00  0.00000000000E+00  0.83160179069E+02  0.16184721289E+04  0.16163342527E+04 0.  0.
        1    1    3    3  502    0 -0.10099326408E+03  0.23773359823E+03  0.80837178178E+03  0.84863528133E+03  0.50400001928E-02 0.  1.
       -1    1    3    3    0  502  0.10099326408E+03 -0.23773359823E+03 -0.72521160271E+03  0.76983684755E+03  0.50400001928E-02 0. -1.
</event>
<event>
 5   0  0.2649086E-04  0.1592529E+04  0.7818609E-02  0.8825151E-01
       -1   -1    0    0    0  501  0.00000000000E+00  0.00000000000E+00  0.80113510109E+03  0.80113510110E+03  0.50400001928E-02 0.  1.
        1   -1    0    0  501    0  0.00000000000E+00  0.00000000000E+00 -0.79142315436E+03  0.79142315437E+03  0.50400001928E-02 0. -1.
    10030    2    1    2    0    0  0.00000000000E+00  0.00000000000E+00  0.97119467307E+01  0.15925582555E+04  0.15925286419E+04 0.  0.
        2    1    3    3  502    0 -0.39891851309E+03  0.24565202654E+03  0.64872815658E+03  0.80020567317E+03  0.25500000920E-02 0.  1.
       -2    1    3    3    0  502  0.39891851309E+03 -0.24565202654E+03 -0.63901620985E+03  0.79235258231E+03  0.25500000920E-02 0. -1.
</event>
<event>
 5   0  0.5264308E-04  0.1597740E+04  0.7818609E-02  0.8821938E-01
       -2   -1    0    0    0  501  0.00000000000E+00  0.00000000000E+00  0.63485717711E+03  0.63485717711E+03  0.25500000920E-02 0.  1.
        2   -1    0    0  501    0  0.00000000000E+00  0.00000000000E+00 -0.10052549299E+04  0.10052549299E+04  0.25500000920E-02 0. -1.
    10030    2    1    2    0    0  0.00000000000E+00  0.00000000000E+00 -0.37039775281E+03  0.16401121070E+04  0.15977400378E+04 0.  0.
        3    1    3    3  502    0 -0.36523006521E+03 -0.31244875959E+03  0.46982712357E+03  0.67212704465E+03  0.10100000352E+00 0.  1.
       -3    1    3    3    0  502  0.36523006521E+03  0.31244875959E+03 -0.84022487638E+03  0.96798506238E+03  0.10100000352E+00 0. -1.
</event>
<event>
 5   0  0.2649086E-04  0.1594182E+04  0.7818609E-02  0.8824131E-01
       -1   -1    0    0    0  501  0.00000000000E+00  0.00000000000E+00  0.25535748446E+03  0.25535748451E+03  0.50400001928E-02 0.  1.
        1   -1    0    0  501    0  0.00000000000E+00  0.00000000000E+00 -0.24880949640E+04  0.24880949640E+04  0.50400001928E-02 0. -1.
    10030    2    1    2    0    0  0.00000000000E+00  0.00000000000E+00 -0.22327374795E+04  0.27434524485E+04  0.15941815093E+04 0.  0.
        2    1    3    3  502    0 -0.19325418160E+03  0.43816774725E+03 -0.22129251696E+04  0.22641501628E+04  0.25500000920E-02 0. -1.
       -2    1    3    3    0  502  0.19325418160E+03 -0.43816774725E+03 -0.19812309927E+02  0.47930228569E+03  0.25500000920E-02 0.  1.
</event>
<event>
 5   0  0.5381164E-04  0.1613170E+04  0.7818609E-02  0.8812498E-01
       -2   -1    0    0    0  501  0.00000000000E+00  0.00000000000E+00  0.10928029312E+04  0.10928029312E+04  0.25500000920E-02 0. -1.
        2   -1    0    0  501    0  0.00000000000E+00  0.00000000000E+00 -0.59533062032E+03  0.59533062033E+03  0.25500000920E-02 0.  1.
    10030    2    1    2    0    0  0.00000000000E+00  0.00000000000E+00  0.49747231092E+03  0.16881335516E+04  0.16131696091E+04 0.  0.
        5    1    3    3  502    0  0.48505042691E+03  0.16414460007E+03  0.90086378979E+03  0.10362408138E+04  0.46999998093E+01 0. -1.
       -5    1    3    3    0  502 -0.48505042691E+03 -0.16414460007E+03 -0.40339147887E+03  0.65189273780E+03  0.46999998093E+01 0.  1.
</event>
<event>
 5   0  0.5131239E-04  0.1607622E+04  0.7818609E-02  0.8815879E-01
        2   -1    0    0  501    0  0.00000000000E+00  0.00000000000E+00  0.10166396459E+04  0.10166396459E+04  0.25500000920E-02 0. -1.
       -2   -1    0    0    0  501  0.00000000000E+00  0.00000000000E+00 -0.63553669220E+03  0.63553669220E+03  0.25500000920E-02 0.  1.
    10030    2    1    2    0    0  0.00000000000E+00  0.00000000000E+00  0.38110295374E+03  0.16521763381E+04  0.16076215945E+04 0.  0.
        1    1    3    3  502    0  0.37481160431E+03  0.13484716921E+03  0.90807321812E+03  0.99159692782E+03  0.50400001928E-02 0. -1.
       -1    1    3    3    0  502 -0.37481160431E+03 -0.13484716921E+03 -0.52697026438E+03  0.66057941032E+03  0.50400001928E-02 0.  1.
</event>
<event>
 5   0  0.2730707E-04  0.1561962E+04  0.7818609E-02  0.8844263E-01
        1   -1    0    0  501    0  0.00000000000E+00  0.00000000000E+00  0.28726984118E+03  0.28726984123E+03  0.50400001928E-02 0. -1.
       -1   -1    0    0    0  501  0.00000000000E+00  0.00000000000E+00 -0.21231993783E+04  0.21231993783E+04  0.50400001928E-02 0.  1.
    10030    2    1    2    0    0  0.00000000000E+00  0.00000000000E+00 -0.18359295371E+04  0.24104692195E+04  0.15619617771E+04 0.  0.
        5    1    3    3  502    0  0.21875388864E+03  0.48629463570E+03 -0.17985179558E+04  0.18759063580E+04  0.46999998093E+01 0.  1.
       -5    1    3    3    0  502 -0.21875388864E+03 -0.48629463570E+03 -0.37411581259E+02  0.53456286152E+03  0.46999998093E+01 0. -1.
</event>
<event>
 5   0  0.2796994E-04  0.1598183E+04  0.7818609E-02  0.8821665E-01
       -1   -1    0    0    0  501  0.00000000000E+00  0.00000000000E+00  0.98578658586E+03  0.98578658587E+03  0.50400001928E-02 0.  1.
        1   -1    0    0  501    0  0.00000000000E+00  0.00000000000E+00 -0.64775375837E+03  0.64775375839E+03  0.50400001928E-02 0. -1.
    10030    2    1    2    0    0  0.00000000000E+00  0.00000000000E+00  0.33803282749E+03  0.16335403443E+04  0.15981826754E+04 0.  0.
        3    1    3    3  502    0 -0.66800705521E+02 -0.48142767671E+03  0.81732973756E+03  0.95092736434E+03  0.10100000352E+00 0.  1.
       -3    1    3    3    0  502  0.66800705521E+02  0.48142767671E+03 -0.47929691006E+03  0.68261297992E+03  0.10100000352E+00 0. -1.
</event>
<event>
 5   0  0.2689675E-04  0.1618799E+04  0.7818609E-02  0.8809081E-01
        1   -1    0    0  501    0  0.00000000000E+00  0.00000000000E+00  0.89641037993E+03  0.89641037995E+03  0.50400001928E-02 0.  1.
       -1   -1    0    0    0  501  0.00000000000E+00  0.00000000000E+00 -0.73083468135E+03  0.73083468137E+03  0.50400001928E-02 0. -1.
    10030    2    1    2    0    0  0.00000000000E+00  0.00000000000E+00  0.16557569858E+03  0.16272450613E+04  0.16187993012E+04 0.  0.
        1    1    3    3  502    0 -0.16630096530E+03  0.64574165241E+03  0.54397284970E+03  0.86054910025E+03  0.50400001928E-02 0.  1.
       -1    1    3    3    0  502  0.16630096530E+03 -0.64574165241E+03 -0.37839715111E+03  0.76669596106E+03  0.50400001928E-02 0. -1.
</event>
<event>
 5   0  0.2730707E-04  0.1591193E+04  0.7818609E-02  0.8825977E-01
        1   -1    0    0  501    0  0.00000000000E+00  0.00000000000E+00  0.78240184570E+03  0.78240184572E+03  0.50400001928E-02 0.  1.
       -1   -1    0    0    0  501  0.00000000000E+00  0.00000000000E+00 -0.80901399737E+03  0.80901399738E+03  0.50400001928E-02 0. -1.
    10030    2    1    2    0    0  0.00000000000E+00  0.00000000000E+00 -0.26612151665E+02  0.15914158431E+04  0.15911933192E+04 0.  0.
        5    1    3    3  502    0  0.38766309971E+03  0.69459806590E+03  0.93679853236E+00  0.79546974777E+03  0.46999998093E+01 0. -1.
       -5    1    3    3    0  502 -0.38766309971E+03 -0.69459806590E+03 -0.27548950198E+02  0.79594609533E+03  0.46999998093E+01 0.  1.
</event>
<event>
 5   0  0.5315984E-04  0.1605600E+04  0.7818609E-02  0.8817115E-01
       -2   -1    0    0    0  501  0.00000000000E+00  0.00000000000E+00  0.55567106646E+03  0.55567106647E+03  0.25500000920E-02 0. -1.
        2   -1    0    0  501    0  0.00000000000E+00  0.00000000000E+00 -0.11598373281E+04  0.11598373281E+04  0.25500000920E-02 0.  1.
    10030    2    1    2    0    0  0.00000000000E+00  0.00000000000E+00 -0.60416626168E+03  0.17155083946E+04  0.16056002554E+04 0.  0.
        2    1    3    3  502    0 -0.49942639926E+03  0.85872400956E+02 -0.96735043056E+03  0.10920474591E+04  0.25500000920E-02 0.  1.
       -2    1    3    3    0  502  0.49942639926E+03 -0.85872400956E+02  0.36318416887E+03  0.62346093547E+03  0.25500000920E-02 0. -1.
</event>
<event>
 5   0  0.2649086E-04  0.1589388E+04  0.7818609E-02  0.8827094E-01
       -1   -1    0    0    0  501  0.00000000000E+00  0.00000000000E+00  0.79171698546E+03  0.79171698547E+03  0.50400001928E-02 0. -1.
        1   -1    0    0  501    0  0.00000000000E+00  0.00000000000E+00 -0.79768200838E+03  0.79768200840E+03  0.50400001928E-02 0.  1.
    10030    2    1    2    0    0  0.00000000000E+00  0.00000000000E+00 -0.59650229292E+01  0.15893989939E+04  0.15893878005E+04 0.  0.
        2    1    3    3  502    0  0.30008939278E+03 -0.83590945746E+02  0.72811586339E+03  0.79195568082E+03  0.25500000920E-02 0. -1.
       -2    1    3    3    0  502 -0.30008939278E+03  0.83590945746E+02 -0.73408088631E+03  0.79744331305E+03  0.25500000920E-02 0.  1.
</event>
<event>
 5   0  0.5381164E-04  0.1498101E+04  0.7818609E-02  0.8885716E-01
        2   -1    0    0  501    0  0.00000000000E+00  0.00000000000E+00  0.12440142038E+04  0.12440142038E+04  0.25500000920E-02 0. -1.
       -2   -1    0    0    0  501  0.00000000000E+00  0.00000000000E+00 -0.45102137836E+03  0.45102137836E+03  0.25500000920E-02 0.  1.
    10030    2    1    2    0    0  0.00000000000E+00  0.00000000000E+00  0.79299282549E+03  0.16950355822E+04  0.14981014664E+04 0.  0.
        5    1    3    3  502    0 -0.22029623805E+02 -0.17935498967E+03 -0.42597264390E+03  0.46273999178E+03  0.46999998093E+01 0.  1.
       -5    1    3    3    0  502  0.22029623805E+02  0.17935498967E+03  0.12189654694E+04  0.12322955904E+04  0.46999998093E+01 0. -1.
</event>
<event>
 5   0  0.2689675E-04  0.1597883E+04  0.7818609E-02  0.8821850E-01
        1   -1    0    0  501    0  0.00000000000E+00  0.00000000000E+00  0.48017403469E+03  0.48017403472E+03  0.50400001928E-02 0. -1.
       -1   -1    0    0    0  501  0.00000000000E+00  0.00000000000E+00 -0.13293254507E+04  0.13293254507E+04  0.50400001928E-02 0.  1.
    10030    2    1    2    0    0  0.00000000000E+00  0.00000000000E+00 -0.84915141602E+03  0.18094994854E+04  0.15978830559E+04 0.  0.
        1    1    3    3  502    0 -0.55810474208E+03  0.57165900613E+03 -0.41810567868E+03  0.90171352490E+03  0.50400001928E-02 0.  1.
       -1    1    3    3    0  502  0.55810474208E+03 -0.57165900613E+03 -0.43104573734E+03  0.90778596053E+03  0.50400001928E-02 0. -1.
</event>
<event>
 5   0  0.5264308E-04  0.1590432E+04  0.7818609E-02  0.8826447E-01
        2   -1    0    0  501    0  0.00000000000E+00  0.00000000000E+00  0.13141341432E+04  0.13141341432E+04  0.25500000920E-02 0.  1.
       -2   -1    0    0    0  501  0.00000000000E+00  0.00000000000E+00 -0.48120568250E+03  0.48120568250E+03  0.25500000920E-02 0. -1.
    10030    2    1    2    0    0  0.00000000000E+00  0.00000000000E+00  0.83292846071E+03  0.17953398257E+04  0.15904324158E+04 0.  0.
        3    1    3    3  502    0  0.21494742327E+03 -0.65640988493E+03  0.86130711904E+03  0.11040499515E+04  0.10100000352E+00 0. -1.
       -3    1    3    3    0  502 -0.21494742327E+03  0.65640988493E+03 -0.28378658327E+02  0.69128987426E+03  0.10100000352E+00 0.  1.
</event>
<event>
 5   0  0.5381164E-04  0.1549876E+04  0.7818609E-02  0.8851947E-01
       -2   -1    0    0    0  501  0.00000000000E+00  0.00000000000E+00  0.58003729527E+03  0.58003729528E+03  0.25500000920E-02 0. -1.
        2   -1    0    0  501    0  0.00000000000E+00  0.00000000000E+00 -0.10353281369E+04  0.10353281369E+04  0.25500000920E-02 0.  1.
    10030    2    1    2    0    0  0.00000000000E+00  0.00000000000E+00 -0.45529084162E+03  0.16153654322E+04  0.15498760367E+04 0.  0.
        5    1    3    3  502    0  0.13456491619E+03  0.50941668574E+03  0.36460264573E+03  0.64075756386E+03  0.46999998093E+01 0. -1.
       -5    1    3    3    0  502 -0.13456491619E+03 -0.50941668574E+03 -0.81989348735E+03  0.97460786831E+03  0.46999998093E+01 0.  1.
</event>
<event>
 5   0  0.5381164E-04  0.1609402E+04  0.7818609E-02  0.8814793E-01
        2   -1    0    0  501    0  0.00000000000E+00  0.00000000000E+00  0.16749545765E+04  0.16749545765E+04  0.25500000920E-02 0.  1.
       -2   -1    0    0    0  501  0.00000000000E+00  0.00000000000E+00 -0.38660374643E+03  0.38660374644E+03  0.25500000920E-02 0. -1.
    10030    2    1    2    0    0  0.00000000000E+00  0.00000000000E+00  0.12883508301E+04  0.20615583229E+04  0.16094020186E+04 0.  0.
        5    1    3    3  502    0  0.17527330320E+03 -0.32677941216E+03 -0.27061800274E+03  0.45908790926E+03  0.46999998093E+01 0. -1.
       -5    1    3    3    0  502 -0.17527330320E+03  0.32677941216E+03  0.15589688328E+04  0.16024704137E+04  0.46999998093E+01 0.  1.
</event>
<event>
 5   0  0.5264308E-04  0.1593315E+04  0.7818609E-02  0.8824665E-01
        2   -1    0    0  501    0  0.00000000000E+00  0.00000000000E+00  0.10519847153E+04  0.10519847153E+04  0.25500000920E-02 0. -1.
       -2   -1    0    0    0  501  0.00000000000E+00  0.00000000000E+00 -0.60330068677E+03  0.60330068677E+03  0.25500000920E-02 0.  1.
    10030    2    1    2    0    0  0.00000000000E+00  0.00000000000E+00  0.44868402857E+03  0.16552854021E+04  0.15933149108E+04 0.  0.
        3    1    3    3  502    0 -0.61576048565E+03 -0.37154525148E+03  0.58039064045E+03  0.92415375090E+03  0.10100000352E+00 0. -1.
       -3    1    3    3    0  502  0.61576048565E+03  0.37154525148E+03 -0.13170661188E+03  0.73113165121E+03  0.10100000352E+00 0.  1.
</event>
<event>
 5   0  0.2689675E-04  0.1611036E+04  0.7818609E-02  0.8813797E-01
        1   -1    0    0  501    0  0.00000000000E+00  0.00000000000E+00  0.11134889561E+04  0.11134889561E+04  0.50400001928E-02 0.  1.
       -1   -1    0    0    0  501  0.00000000000E+00  0.00000000000E+00 -0.58272631942E+03  0.58272631944E+03  0.50400001928E-02 0. -1.
    10030    2    1    2    0    0  0.00000000000E+00  0.00000000000E+00  0.53076263665E+03  0.16962152755E+04  0.16110360904E+04 0.  0.
        1    1    3    3  502    0  0.55428139446E+03  0.15608229180E+03  0.85842959843E+03  0.10336783453E+04  0.50400001928E-02 0.  1.
       -1    1    3    3    0  502 -0.55428139446E+03 -0.15608229180E+03 -0.32766696178E+03  0.66253693023E+03  0.50400001928E-02 0. -1.
</event>
<event>
 5   0  0.2763895E-04  0.1603959E+04  0.7818609E-02  0.8818119E-01
        1   -1    0    0  501    0  0.00000000000E+00  0.00000000000E+00  0.10088588034E+04  0.10088588035E+04  0.50400001928E-02 0. -1.
       -1   -1    0    0    0  501  0.00000000000E+00  0.00000000000E+00 -0.63752354199E+03  0.63752354201E+03  0.50400001928E-02 0.  1.
    10030    2    1    2    0    0  0.00000000000E+00  0.00000000000E+00  0.37133526145E+03  0.16463823455E+04  0.16039591488E+04 0.  0.
        4    1    3    3  502    0  0.26203434283E+03  0.69609430553E+03 -0.12219923870E+03  0.75375297403E+03  0.12699999809E+01 0.  1.
       -4    1    3    3    0  502 -0.26203434283E+03 -0.69609430553E+03  0.49353450014E+03  0.89262937144E+03  0.12699999809E+01 0. -1.
</event>
<event>
 5   0  0.2730707E-04  0.1583791E+04  0.7818609E-02  0.8830568E-01
        1   -1    0    0  501    0  0.00000000000E+00  0.00000000000E+00  0.15818630240E+04  0.15818630240E+04  0.50400001928E-02 0.  1.
       -1   -1    0    0    0  501  0.00000000000E+00  0.00000000000E+00 -0.39643045887E+03  0.39643045890E+03  0.50400001928E-02 0. -1.
    10030    2    1    2    0    0  0.00000000000E+00  0.00000000000E+00  0.11854325651E+04  0.19782934829E+04  0.15837912546E+04 0.  0.
        5    1    3    3  502    0 -0.40142907550E+03  0.67491802452E+03  0.46523010142E+03  0.91275450135E+03  0.46999998093E+01 0. -1.
       -5    1    3    3    0  502  0.40142907550E+03 -0.67491802452E+03  0.72020246372E+03  0.10655389816E+04  0.46999998093E+01 0.  1.
</event>
<event>
 5   0  0.5315984E-04  0.1582573E+04  0.7818609E-02  0.8831326E-01
       -2   -1    0    0    0  501  0.00000000000E+00  0.00000000000E+00  0.81331651666E+03  0.81331651666E+03  0.25500000920E-02 0. -1.
        2   -1    0    0  501    0  0.00000000000E+00  0.00000000000E+00 -0.76985321641E+03  0.76985321642E+03  0.25500000920E-02 0.  1.
    10030    2    1    2    0    0  0.00000000000E+00  0.00000000000E+00  0.43463300249E+02  0.15831697331E+04  0.15825730142E+04 0.  0.
        2    1    3    3  502    0  0.84557921746E+02 -0.49375281952E+03 -0.59102885609E+03  0.77476254275E+03  0.25500000920E-02 0.  1.
       -2    1    3    3    0  502 -0.84557921746E+02  0.49375281952E+03  0.63449215634E+03  0.80840719033E+03  0.25500000920E-02 0. -1.
</event>
<event>
 5   0  0.2796994E-04  0.1603786E+04  0.7818609E-02  0.8818225E-01
       -1   -1    0    0    0  501  0.00000000000E+00  0.00000000000E+00  0.35739612462E+03  0.35739612465E+03  0.50400001928E-02 0. -1.
        1   -1    0    0  501    0  0.00000000000E+00  0.00000000000E+00 -0.17992149915E+04  0.17992149915E+04  0.50400001928E-02 0.  1.
    10030    2    1    2    0    0  0.00000000000E+00  0.00000000000E+00 -0.14418188668E+04  0.21566111161E+04  0.16037861021E+04 0.  0.
        3    1    3    3  502    0  0.46704293154E+03  0.49395195107E+03 -0.14895362830E+03  0.69592012720E+03  0.10100000352E+00 0. -1.
       -3    1    3    3    0  502 -0.46704293154E+03 -0.49395195107E+03 -0.12928652385E+04  0.14606909889E+04  0.10100000352E+00 0.  1.
</event>
<event>
 5   0  0.2763895E-04  0.1621615E+04  0.7818609E-02  0.8807378E-01
        1   -1    0    0  501    0  0.00000000000E+00  0.00000000000E+00  0.66837427837E+03  0.66837427839E+03  0.50400001928E-02 0.  1.
       -1   -1    0    0    0  501  0.00000000000E+00  0.00000000000E+00 -0.98359357464E+03  0.98359357465E+03  0.50400001928E-02 0. -1.
    10030    2    1    2    0    0  0.00000000000E+00  0.00000000000E+00 -0.31521929627E+03  0.16519678530E+04  0.16216148071E+04 0.  0.
        4    1    3    3  502    0  0.32178113089E+03 -0.52149993405E+03  0.38327266543E+03  0.72277577877E+03  0.12699999809E+01 0.  1.
       -4    1    3    3    0  502 -0.32178113089E+03  0.52149993405E+03 -0.69849196170E+03  0.92919207426E+03  0.12699999809E+01 0. -1.
</event>
<event>
 5   0  0.5083831E-04  0.1638996E+04  0.7818609E-02  0.8796943E-01
        2   -1    0    0  501    0  0.00000000000E+00  0.00000000000E+00  0.25576609606E+04  0.25576609607E+04  0.25500000920E-02 0.  1.
       -2   -1    0    0    0  501  0.00000000000E+00  0.00000000000E+00 -0.26257478560E+03  0.26257478561E+03  0.25500000920E-02 0. -1.
    10030    2    1    2    0    0  0.00000000000E+00  0.00000000000E+00  0.22950861751E+04  0.28202357463E+04  0.16389963739E+04 0.  0.
        4    1    3    3  502    0  0.48039162324E+03 -0.38760047392E+03  0.22001004700E+03  0.65529861341E+03  0.12699999809E+01 0. -1.
       -4    1    3    3    0  502 -0.48039162324E+03  0.38760047392E+03  0.20750761281E+04  0.21649371328E+04  0.12699999809E+01 0.  1.
</event>
<event>
 5   0  0.2763895E-04  0.1600161E+04  0.7818609E-02  0.8820449E-01
        1   -1    0    0  501    0  0.00000000000E+00  0.00000000000E+00  0.12126619936E+04  0.12126619937E+04  0.50400001928E-02 0.  1.
       -1   -1    0    0    0  501  0.00000000000E+00  0.00000000000E+00 -0.52787095323E+03  0.52787095325E+03  0.50400001928E-02 0. -1.
    10030    2    1    2    0    0  0.00000000000E+00  0.00000000000E+00  0.68479104042E+03  0.17405329469E+04  0.16001612951E+04 0.  0.
        4    1    3    3  502    0  0.20285888642E+03  0.73537462376E+03  0.60480497219E+03  0.97350820867E+03  0.12699999809E+01 0.  1.
       -4    1    3    3    0  502 -0.20285888642E+03 -0.73537462376E+03  0.79986068238E+02  0.76702473824E+03  0.12699999809E+01 0. -1.
</event>
<event>
 5   0  0.2763895E-04  0.1609237E+04  0.7818609E-02  0.8814894E-01
        1   -1    0    0  501    0  0.00000000000E+00  0.00000000000E+00  0.27805848590E+04  0.27805848590E+04  0.50400001928E-02 0. -1.
       -1   -1    0    0    0  501  0.00000000000E+00  0.00000000000E+00 -0.23283254868E+03  0.23283254874E+03  0.50400001928E-02 0.  1.
    10030    2    1    2    0    0  0.00000000000E+00  0.00000000000E+00  0.25477523103E+04  0.30134174077E+04  0.16092366633E+04 0.  0.
        4    1    3    3  502    0  0.47337392399E+03 -0.64577737829E+03  0.14224807264E+04  0.16323493267E+04  0.12699999809E+01 0.  1.
       -4    1    3    3    0  502 -0.47337392399E+03  0.64577737829E+03  0.11252715839E+04  0.13810680811E+04  0.12699999809E+01 0. -1.
</event>
<event>
 5   0  0.2689675E-04  0.1608573E+04  0.7818609E-02  0.8815298E-01
       -1   -1    0    0    0  501  0.00000000000E+00  0.00000000000E+00  0.67484152320E+03  0.67484152322E+03  0.50400001928E-02 0. -1.
        1   -1    0    0  501    0  0.00000000000E+00  0.00000000000E+00 -0.95856109866E+03  0.95856109867E+03  0.50400001928E-02 0.  1.
    10030    2    1    2    0    0  0.00000000000E+00  0.00000000000E+00 -0.28371957546E+03  0.16334026219E+04  0.16085730719E+04 0.  0.
        1    1    3    3  502    0  0.60179943984E+03 -0.50042105695E+03 -0.32990201896E+03  0.84936396331E+03  0.50400001928E-02 0.  1.
       -1    1    3    3    0  502 -0.60179943984E+03  0.50042105695E+03  0.46182443501E+02  0.78403865858E+03  0.50400001928E-02 0. -1.
</event>
<event>
 5   0  0.5131239E-04  0.1545565E+04  0.7818609E-02  0.8854706E-01
        2   -1    0    0  501    0  0.00000000000E+00  0.00000000000E+00  0.11377776876E+04  0.11377776876E+04  0.25500000920E-02 0. -1.
       -2   -1    0    0    0  501  0.00000000000E+00  0.00000000000E+00 -0.52487623822E+03  0.52487623822E+03  0.25500000920E-02 0.  1.
    10030    2    1    2    0    0  0.00000000000E+00  0.00000000000E+00  0.61290144940E+03  0.16626539258E+04  0.15455645863E+04 0.  0.
        1    1    3    3  502    0 -0.17459109875E+03 -0.49551890887E+03  0.91610434607E+03  0.10560625993E+04  0.50400001928E-02 0. -1.
       -1    1    3    3    0  502  0.17459109875E+03  0.49551890887E+03 -0.30320289667E+03  0.60659132650E+03  0.50400001928E-02 0.  1.
</event>
<event>
 5   0  0.2796994E-04  0.1567369E+04  0.7818609E-02  0.8840849E-01
        1   -1    0    0  501    0  0.00000000000E+00  0.00000000000E+00  0.88058891535E+03  0.88058891536E+03  0.50400001928E-02 0.  1.
       -1   -1    0    0    0  501  0.00000000000E+00  0.00000000000E+00 -0.69744434193E+03  0.69744434195E+03  0.50400001928E-02 0. -1.
    10030    2    1    2    0    0  0.00000000000E+00  0.00000000000E+00  0.18314457342E+03  0.15780332573E+04  0.15673694607E+04 0.  0.
        3    1    3    3  502    0 -0.26266740779E+03  0.18928125687E+03 -0.62696406100E+03  0.70562419552E+03  0.10100000352E+00 0. -1.
       -3    1    3    3    0  502  0.26266740779E+03 -0.18928125687E+03  0.81010863442E+03  0.87240906179E+03  0.10100000352E+00 0.  1.
</event>
<event>
 5   0  0.5315984E-04  0.1603118E+04  0.7818609E-02  0.8818635E-01
        2   -1    0    0  501    0  0.00000000000E+00  0.00000000000E+00  0.16187730578E+04  0.16187730578E+04  0.25500000920E-02 0. -1.
       -2   -1    0    0    0  501  0.00000000000E+00  0.00000000000E+00 -0.39690334813E+03  0.39690334814E+03  0.25500000920E-02 0.  1.
    10030    2    1    2    0    0  0.00000000000E+00  0.00000000000E+00  0.12218697097E+04  0.20156764059E+04  0.16031175210E+04 0.  0.
        2    1    3    3  502    0  0.76482666826E+03  0.16195708376E+03  0.38846415117E+03  0.87298014079E+03  0.25500000920E-02 0.  1.
       -2    1    3    3    0  502 -0.76482666826E+03 -0.16195708376E+03  0.83340555848E+03  0.11426962651E+04  0.25500000920E-02 0. -1.
</event>
<event>
 5   0  0.5264308E-04  0.1610336E+04  0.7818609E-02  0.8814224E-01
        2   -1    0    0  501    0  0.00000000000E+00  0.00000000000E+00  0.69711139313E+03  0.69711139314E+03  0.25500000920E-02 0.  1.
       -2   -1    0    0    0  501  0.00000000000E+00  0.00000000000E+00 -0.92997356461E+03  0.92997356461E+03  0.25500000920E-02 0. -1.
    10030    2    1    2    0    0  0.00000000000E+00  0.00000000000E+00 -0.23286217148E+03  0.16270849578E+04  0.16103355765E+04 0.  0.
        3    1    3    3  502    0 -0.79576914821E+01  0.20953418554E+03  0.66903951366E+03  0.70112893308E+03  0.10100000352E+00 0.  1.
       -3    1    3    3    0  502  0.79576914821E+01 -0.20953418554E+03 -0.90190168514E+03  0.92595602467E+03  0.10100000352E+00 0. -1.
</event>
<event>
 5   0  0.2730707E-04  0.1587082E+04  0.7818609E-02  0.8828524E-01
        1   -1    0    0  501    0  0.00000000000E+00  0.00000000000E+00  0.60012331676E+03  0.60012331678E+03  0.50400001928E-02 0. -1.
       -1   -1    0    0    0  501  0.00000000000E+00  0.00000000000E+00 -0.10492962414E+04  0.10492962414E+04  0.50400001928E-02 0.  1.
    10030    2    1    2    0    0  0.00000000000E+00  0.00000000000E+00 -0.44917292468E+03  0.16494195582E+04  0.15870817757E+04 0.  0.
        5    1    3    3  502    0  0.21900555627E+03 -0.25587194333E+02  0.56763190721E+03  0.60897143634E+03  0.46999998093E+01 0. -1.
       -5    1    3    3    0  502 -0.21900555627E+03  0.25587194333E+02 -0.10168048319E+04  0.10404481219E+04  0.46999998093E+01 0.  1.
</event>
<event>
 5   0  0.5083831E-04  0.1598467E+04  0.7818609E-02  0.8821490E-01
       -2   -1    0    0    0  501  0.00000000000E+00  0.00000000000E+00  0.26793072426E+03  0.26793072428E+03  0.25500000920E-02 0. -1.
        2   -1    0    0  501    0  0.00000000000E+00  0.00000000000E+00 -0.23841019573E+04  0.23841019573E+04  0.25500000920E-02 0.  1.
    10030    2    1    2    0    0  0.00000000000E+00  0.00000000000E+00 -0.21161712330E+04  0.26520326815E+04  0.15984669707E+04 0.  0.
        4    1    3    3  502    0  0.18463878796E+03  0.33826373258E+02  0.23083775668E+03  0.29752880257E+03  0.12699999809E+01 0. -1.
       -4    1    3    3    0  502 -0.18463878796E+03 -0.33826373258E+02 -0.23470089897E+04  0.23545038790E+04  0.12699999809E+01 0.  1.
</event>
<event>
 5   0  0.5083831E-04  0.1605357E+04  0.7818609E-02  0.8817264E-01
        2   -1    0    0  501    0  0.00000000000E+00  0.00000000000E+00  0.93922697173E+03  0.93922697173E+03  0.25500000920E-02 0.  1.
       -2   -1    0    0    0  501  0.00000000000E+00  0.00000000000E+00 -0.68598227494E+03  0.68598227494E+03  0.25500000920E-02 0. -1.
    10030    2    1    2    0    0  0.00000000000E+00  0.00000000000E+00  0.25324469679E+03  0.16252092467E+04  0.16053573493E+04 0.  0.
        4    1    3    3  502    0 -0.39662677236E+03  0.18904452269E+03 -0.55342907018E+03  0.70663708983E+03  0.12699999809E+01 0. -1.
       -4    1    3    3    0  502  0.39662677236E+03 -0.18904452269E+03  0.80667376697E+03  0.91857215684E+03  0.12699999809E+01 0.  1.
</event>
<event>
 5   0  0.5315984E-04  0.1578699E+04  0.7818609E-02  0.8833742E-01
       -2   -1    0    0    0  501  0.00000000000E+00  0.00000000000E+00  0.60699138667E+03  0.60699138667E+03  0.25500000920E-02 0.  1.
        2   -1    0    0  501    0  0.00000000000E+00  0.00000000000E+00 -0.10264927846E+04  0.10264927846E+04  0.25500000920E-02 0. -1.
    10030    2    1    2    0    0  0.00000000000E+00  0.00000000000E+00 -0.41950139793E+03  0.16334841713E+04  0.15786985510E+04 0.  0.
        2    1    3    3  502    0  0.36823957549E+03 -0.42506675857E+03  0.36335723676E+03  0.66956001652E+03  0.25500000920E-02 0.  1.
       -2    1    3    3    0  502 -0.36823957549E+03  0.42506675857E+03 -0.78285863469E+03  0.96392415475E+03  0.25500000920E-02 0. -1.
</event>
<event>
 5   0  0.2730707E-04  0.1637389E+04  0.7818609E-02  0.8797902E-01
        1   -1    0    0  501    0  0.00000000000E+00  0.00000000000E+00  0.11347076848E+04  0.11347076848E+04  0.50400001928E-02 0.  1.
       -1   -1    0    0    0  501  0.00000000000E+00  0.00000000000E+00 -0.59069015749E+03  0.59069015751E+03  0.50400001928E-02 0. -1.
    10030    2    1    2    0    0  0.00000000000E+00  0.00000000000E+00  0.54401752730E+03  0.17253978423E+04  0.16373889716E+04 0.  0.
        5    1    3    3  502    0 -0.60392267421E+03  0.44693181959E+03  0.61470897973E+03  0.97075221738E+03  0.46999998093E+01 0. -1.
       -5    1    3    3    0  502  0.60392267421E+03 -0.44693181959E+03 -0.70691452428E+02  0.75464562494E+03  0.46999998093E+01 0.  1.
</event>
<event>
 5   0  0.5264308E-04  0.1607501E+04  0.7818609E-02  0.8815953E-01
       -2   -1    0    0    0  501  0.00000000000E+00  0.00000000000E+00  0.65799716642E+03  0.65799716642E+03  0.25500000920E-02 0. -1.
        2   -1    0    0  501    0  0.00000000000E+00  0.00000000000E+00 -0.98179014875E+03  0.98179014875E+03  0.25500000920E-02 0.  1.
    10030    2    1    2    0    0  0.00000000000E+00  0.00000000000E+00 -0.32379298233E+03  0.16397873152E+04  0.16075013355E+04 0.  0.
        3    1    3    3  502    0  0.66891572207E+03  0.30794119033E+03  0.16665801665E+03  0.75501716845E+03  0.10100000352E+00 0. -1.
       -3    1    3    3    0  502 -0.66891572207E+03 -0.30794119033E+03 -0.49045099897E+03  0.88477014672E+03  0.10100000352E+00 0.  1.
</event>
<event>
 5   0  0.1908125E-04  0.1574169E+04  0.7818609E-02  0.8836576E-01
        3   -1    0    0  501    0  0.00000000000E+00  0.00000000000E+00  0.38387478845E+03  0.38387480174E+03  0.10100000352E+00 0. -1.
       -3   -1    0    0    0  501  0.00000000000E+00  0.00000000000E+00 -0.16138123156E+04  0.16138123187E+04  0.10100000352E+00 0.  1.
    10030    2    1    2    0    0  0.00000000000E+00  0.00000000000E+00 -0.12299375271E+04  0.19976871205E+04  0.15741688317E+04 0.  0.
        1    1    3    3  502    0 -0.12420379658E+03  0.53047474282E+03 -0.13358383358E+04  0.14426690873E+04  0.50400001928E-02 0.  1.
       -1    1    3    3    0  502  0.12420379658E+03 -0.53047474282E+03  0.10590080872E+03  0.55501803319E+03  0.50400001928E-02 0. -1.
</event>
<event>
 5   0  0.2796994E-04  0.1620609E+04  0.7818609E-02  0.8807986E-01
        1   -1    0    0  501    0  0.00000000000E+00  0.00000000000E+00  0.43811535124E+03  0.43811535127E+03  0.50400001928E-02 0. -1.
       -1   -1    0    0    0  501  0.00000000000E+00  0.00000000000E+00 -0.14986764329E+04  0.14986764329E+04  0.50400001928E-02 0.  1.
    10030    2    1    2    0    0  0.00000000000E+00  0.00000000000E+00 -0.10605610817E+04  0.19367917842E+04  0.16206087151E+04 0.  0.
        3    1    3    3  502    0 -0.55916808037E+03 -0.15117420171E+03  0.14690083754E+03  0.59758049470E+03  0.10100000352E+00 0. -1.
       -3    1    3    3    0  502  0.55916808037E+03  0.15117420171E+03 -0.12074619192E+04  0.13392112895E+04  0.10100000352E+00 0.  1.
</event>
<event>
 5   0  0.1908125E-04  0.1676467E+04  0.7818609E-02  0.8774901E-01
       -3   -1    0    0    0  501  0.00000000000E+00  0.00000000000E+00  0.83742671958E+03  0.83742672567E+03  0.10100000352E+00 0. -1.
        3   -1    0    0  501    0  0.00000000000E+00  0.00000000000E+00 -0.83904149723E+03  0.83904150331E+03  0.10100000352E+00 0.  1.
    10030    2    1    2    0    0  0.00000000000E+00  0.00000000000E+00 -0.16147776478E+01  0.16764682290E+04  0.16764674513E+04 0.  0.
        3    1    3    3  502    0 -0.81468021798E+03  0.19441452740E+03  0.32880941990E+02  0.83820166582E+03  0.10100000352E+00 0. -1.
       -3    1    3    3    0  502  0.81468021798E+03 -0.19441452740E+03 -0.34495719638E+02  0.83826656316E+03  0.10100000352E+00 0.  1.
</event>
<event>
 5   0  0.5083831E-04  0.1549734E+04  0.7818609E-02  0.8852038E-01
       -2   -1    0    0    0  501  0.00000000000E+00  0.00000000000E+00  0.67495953929E+03  0.67495953930E+03  0.25500000920E-02 0. -1.
        2   -1    0    0  501    0  0.00000000000E+00  0.00000000000E+00 -0.88956292895E+03  0.88956292896E+03  0.25500000920E-02 0.  1.
    10030    2    1    2    0    0  0.00000000000E+00  0.00000000000E+00 -0.21460338966E+03  0.15645224683E+04  0.15497341510E+04 0.  0.
        4    1    3    3  502    0 -0.14002952725E+03 -0.64609713644E+03  0.30074283191E+03  0.72629032904E+03  0.12699999809E+01 0. -1.
       -4    1    3    3    0  502  0.14002952725E+03  0.64609713644E+03 -0.51534622157E+03  0.83823213921E+03  0.12699999809E+01 0.  1.
</event>
<event>
 5   0  0.2763895E-04  0.1598983E+04  0.7818609E-02  0.8821173E-01
        1   -1    0    0  501    0  0.00000000000E+00  0.00000000000E+00  0.12099248705E+04  0.12099248706E+04  0.50400001928E-02 0. -1.
       -1   -1    0    0    0  501  0.00000000000E+00  0.00000000000E+00 -0.52828619434E+03  0.52828619436E+03  0.50400001928E-02 0.  1.
    10030    2    1    2    0    0  0.00000000000E+00  0.00000000000E+00  0.68163867620E+03  0.17382110649E+04  0.15989829334E+04 0.  0.
        4    1    3    3  502    0 -0.23287324894E+03 -0.50228912676E+03  0.96780760582E+03  0.11149786956E+04  0.12699999809E+01 0. -1.
       -4    1    3    3    0  502  0.23287324894E+03  0.50228912676E+03 -0.28616892962E+03  0.62323236928E+03  0.12699999809E+01 0.  1.
</event>
<event>
 5   0  0.2796994E-04  0.1597045E+04  0.7818609E-02  0.8822365E-01
       -1   -1    0    0    0  501  0.00000000000E+00  0.00000000000E+00  0.69392997932E+03  0.69392997933E+03  0.50400001928E-02 0.  1.
        1   -1    0    0  501    0  0.00000000000E+00  0.00000000000E+00 -0.91887995325E+03  0.91887995327E+03  0.50400001928E-02 0. -1.
    10030    2    1    2    0    0  0.00000000000E+00  0.00000000000E+00 -0.22494997394E+03  0.16128099326E+04  0.15970452053E+04 0.  0.
        3    1    3    3  502    0  0.63385900799E+03 -0.42157422605E+03 -0.35596970786E+03  0.84036689201E+03  0.10100000352E+00 0.  1.
       -3    1    3    3    0  502 -0.63385900799E+03  0.42157422605E+03  0.13101973393E+03  0.77244304059E+03  0.10100000352E+00 0. -1.
</event>
<event>
 5   0  0.5315984E-04  0.1613373E+04  0.7818609E-02  0.8812374E-01
       -2   -1    0    0    0  501  0.00000000000E+00  0.00000000000E+00  0.68318558664E+03  0.68318558665E+03  0.25500000920E-02 0.  1.
        2   -1    0    0  501    0  0.00000000000E+00  0.00000000000E+00 -0.95251278395E+03  0.95251278395E+03  0.25500000920E-02 0. -1.
    10030    2    1    2    0    0  0.00000000000E+00  0.00000000000E+00 -0.26932719730E+03  0.16356983706E+04  0.16133728708E+04 0.  0.
        2    1    3    3  502    0  0.18698476772E+03  0.57582595802E+03 -0.67514865692E+03  0.90684317621E+03  0.25500000920E-02 0. -1.
       -2    1    3    3    0  502 -0.18698476772E+03 -0.57582595802E+03  0.40582145962E+03  0.72885519439E+03  0.25500000920E-02 0.  1.
</event>
<event>
 5   0  0.2796994E-04  0.1516780E+04  0.7818609E-02  0.8873371E-01
       -1   -1    0    0    0  501  0.00000000000E+00  0.00000000000E+00  0.72066185136E+03  0.72066185138E+03  0.50400001928E-02 0.  1.
        1   -1    0    0  501    0  0.00000000000E+00  0.00000000000E+00 -0.79809291023E+03  0.79809291024E+03  0.50400001928E-02 0. -1.
    10030    2    1    2    0    0  0.00000000000E+00  0.00000000000E+00 -0.77431058863E+02  0.15187547616E+04  0.15167796337E+04 0.  0.
        3    1    3    3  502    0 -0.15129889233E+03 -0.38705112955E+03  0.59650411536E+03  0.72699181670E+03  0.10100000352E+00 0.  1.
       -3    1    3    3    0  502  0.15129889233E+03  0.38705112955E+03 -0.67393517422E+03  0.79176294493E+03  0.10100000352E+00 0. -1.
</event>
<event>
 5   0  0.5083831E-04  0.1593917E+04  0.7818609E-02  0.8824294E-01
        2   -1    0    0  501    0  0.00000000000E+00  0.00000000000E+00  0.10080933952E+04  0.10080933952E+04  0.25500000920E-02 0. -1.
       -2   -1    0    0    0  501  0.00000000000E+00  0.00000000000E+00 -0.63004383644E+03  0.63004383645E+03  0.25500000920E-02 0.  1.
    10030    2    1    2    0    0  0.00000000000E+00  0.00000000000E+00  0.37804955873E+03  0.16381372316E+04  0.15939172252E+04 0.  0.
        4    1    3    3  502    0 -0.44410381282E+03  0.45612642337E+03 -0.30371544787E+03  0.70535395145E+03  0.12699999809E+01 0.  1.
       -4    1    3    3    0  502  0.44410381282E+03 -0.45612642337E+03  0.68176500660E+03  0.93278328018E+03  0.12699999809E+01 0. -1.
</event>
<event>
 5   0  0.5131239E-04  0.1565697E+04  0.7818609E-02  0.8841903E-01
       -2   -1    0    0    0  501  0.00000000000E+00  0.00000000000E+00  0.23806767371E+03  0.23806767373E+03  0.25500000920E-02 0.  1.
        2   -1    0    0  501    0  0.00000000000E+00  0.00000000000E+00 -0.25742745694E+04  0.25742745694E+04  0.25500000920E-02 0. -1.
    10030    2    1    2    0    0  0.00000000000E+00  0.00000000000E+00 -0.23362068957E+04  0.28123422431E+04  0.15656967245E+04 0.  0.
        1    1    3    3  502    0  0.34777612008E+03 -0.64615149505E+03 -0.67818657027E+03  0.99919818273E+03  0.50400001928E-02 0. -1.
       -1    1    3    3    0  502 -0.34777612008E+03  0.64615149505E+03 -0.16580203254E+04  0.18131440604E+04  0.50400001928E-02 0.  1.
</event>
<event>
 5   0  0.5264308E-04  0.1607808E+04  0.7818609E-02  0.8815765E-01
        2   -1    0    0  501    0  0.00000000000E+00  0.00000000000E+00  0.18464022626E+04  0.18464022626E+04  0.25500000920E-02 0.  1.
       -2   -1    0    0    0  501  0.00000000000E+00  0.00000000000E+00 -0.35001141020E+03  0.35001141021E+03  0.25500000920E-02 0. -1.
    10030    2    1    2    0    0  0.00000000000E+00  0.00000000000E+00  0.14963908524E+04  0.21964136728E+04  0.16078082718E+04 0.  0.
        3    1    3    3  502    0 -0.10069810710E+03 -0.73889768826E+03  0.33802208042E+03  0.81876055080E+03  0.10100000352E+00 0. -1.
       -3    1    3    3    0  502  0.10069810710E+03  0.73889768826E+03  0.11583687720E+04  0.13776531220E+04  0.10100000352E+00 0.  1.
</event>
<event>
 5   0  0.5264308E-04  0.1603212E+04  0.7818609E-02  0.8818577E-01
        2   -1    0    0  501    0  0.00000000000E+00  0.00000000000E+00  0.20343707551E+04  0.20343707551E+04  0.25500000920E-02 0. -1.
       -2   -1    0    0    0  501  0.00000000000E+00  0.00000000000E+00 -0.31585809693E+03  0.31585809694E+03  0.25500000920E-02 0.  1.
    10030    2    1    2    0    0  0.00000000000E+00  0.00000000000E+00  0.17185126582E+04  0.23502288521E+04  0.16032123692E+04 0.  0.
        3    1    3    3  502    0  0.16508319105E+03  0.60452977874E+02  0.20057616402E+04  0.20134514621E+04  0.10100000352E+00 0. -1.
       -3    1    3    3    0  502 -0.16508319105E+03 -0.60452977874E+02 -0.28724898205E+03  0.33677738997E+03  0.10100000352E+00 0.  1.
</event>
<event>
 5   0  0.5381164E-04  0.1579463E+04  0.7818609E-02  0.8833265E-01
        2   -1    0    0  501    0  0.00000000000E+00  0.00000000000E+00  0.20991557886E+04  0.20991557886E+04  0.25500000920E-02 0.  1.
       -2   -1    0    0    0  501  0.00000000000E+00  0.00000000000E+00 -0.29710779392E+03  0.29710779393E+03  0.25500000920E-02 0. -1.
    10030    2    1    2    0    0  0.00000000000E+00  0.00000000000E+00  0.18020479946E+04  0.23962635825E+04  0.15794626244E+04 0.  0.
        5    1    3    3  502    0 -0.14372598266E+02  0.59133006241E+03  0.16948450938E+04  0.17951043971E+04  0.46999998093E+01 0.  1.
       -5    1    3    3    0  502  0.14372598266E+02 -0.59133006241E+03  0.10720290081E+03  0.60115918543E+03  0.46999998093E+01 0. -1.
</event>
<event>
 5   0  0.2796994E-04  0.1597132E+04  0.7818609E-02  0.8822312E-01
       -1   -1    0    0    0  501  0.00000000000E+00  0.00000000000E+00  0.31582528677E+03  0.31582528681E+03  0.50400001928E-02 0.  1.
        1   -1    0    0  501    0  0.00000000000E+00  0.00000000000E+00 -0.20191792560E+04  0.20191792560E+04  0.50400001928E-02 0. -1.
    10030    2    1    2    0    0  0.00000000000E+00  0.00000000000E+00 -0.17033539692E+04  0.23350045428E+04  0.15971322646E+04 0.  0.
        3    1    3    3  502    0 -0.47429215286E+03  0.17385077865E+03 -0.17559092597E+04  0.18271273842E+04  0.10100000352E+00 0. -1.
       -3    1    3    3    0  502  0.47429215286E+03 -0.17385077865E+03  0.52555290482E+02  0.50787715863E+03  0.10100000352E+00 0.  1.
</event>
<event>
 5   0  0.2763895E-04  0.1595975E+04  0.7818609E-02  0.8823025E-01
       -1   -1    0    0    0  501  0.00000000000E+00  0.00000000000E+00  0.53911323278E+03  0.53911323280E+03  0.50400001928E-02 0. -1.
        1   -1    0    0  501    0  0.00000000000E+00  0.00000000000E+00 -0.11811690780E+04  0.11811690780E+04  0.50400001928E-02 0.  1.
    10030    2    1    2    0    0  0.00000000000E+00  0.00000000000E+00 -0.64205584524E+03  0.17202823108E+04  0.15959747869E+04 0.  0.
        4    1    3    3  502    0 -0.57458511219E+03  0.51723268674E+03 -0.53417894533E+03  0.93969487703E+03  0.12699999809E+01 0. -1.
       -4    1    3    3    0  502  0.57458511219E+03 -0.51723268674E+03 -0.10787689991E+03  0.78058743381E+03  0.12699999809E+01 0.  1.
</event>
<event>
 5   0  0.5083831E-04  0.1594598E+04  0.7818609E-02  0.8823874E-01
       -2   -1    0    0    0  501  0.00000000000E+00  0.00000000000E+00  0.66093964460E+03  0.66093964461E+03  0.25500000920E-02 0.  1.
        2   -1    0    0  501    0  0.00000000000E+00  0.00000000000E+00 -0.96179037785E+03  0.96179037786E+03  0.25500000920E-02 0. -1.
    10030    2    1    2    0    0  0.00000000000E+00  0.00000000000E+00 -0.30085073325E+03  0.16227300225E+04  0.15945976176E+04 0.  0.
        4    1    3    3  502    0  0.18102466163E+03  0.43936691615E+03 -0.80193152341E+03  0.93215288246E+03  0.12699999809E+01 0. -1.
       -4    1    3    3    0  502 -0.18102466163E+03 -0.43936691615E+03  0.50108079016E+03  0.69057714000E+03  0.12699999809E+01 0.  1.
</event>
<event>
 5   0  0.2796994E-04  0.1614014E+04  0.7818609E-02  0.8811985E-01
        1   -1    0    0  501    0  0.00000000000E+00  0.00000000000E+00  0.59467803917E+03  0.59467803919E+03  0.50400001928E-02 0. -1.
       -1   -1    0    0    0  501  0.00000000000E+00  0.00000000000E+00 -0.10951471394E+04  0.10951471394E+04  0.50400001928E-02 0.  1.
    10030    2    1    2    0    0  0.00000000000E+00  0.00000000000E+00 -0.50046910020E+03  0.16898251786E+04  0.16140135730E+04 0.  0.
        3    1    3    3  502    0 -0.65654483337E+03  0.20163579382E+02 -0.74108666460E+03  0.99028639433E+03  0.10100000352E+00 0.  1.
       -3    1    3    3    0  502  0.65654483337E+03 -0.20163579382E+02  0.24061756440E+03  0.69953878424E+03  0.10100000352E+00 0. -1.
</event>
<event>
 5   0  0.2649086E-04  0.1609774E+04  0.7818609E-02  0.8814566E-01
       -1   -1    0    0    0  501  0.00000000000E+00  0.00000000000E+00  0.60472545560E+03  0.60472545562E+03  0.50400001928E-02 0.  1.
        1   -1    0    0  501    0  0.00000000000E+00  0.00000000000E+00 -0.10713010004E+04  0.10713010004E+04  0.50400001928E-02 0. -1.
    10030    2    1    2    0    0  0.00000000000E+00  0.00000000000E+00 -0.46657554481E+03  0.16760264561E+04  0.16097738793E+04 0.  0.
        2    1    3    3  502    0  0.54336745418E+03  0.24641084587E+03  0.32920319301E+03  0.68142588557E+03  0.25500000920E-02 0.  1.
       -2    1    3    3    0  502 -0.54336745418E+03 -0.24641084587E+03 -0.79577873783E+03  0.99460057048E+03  0.25500000920E-02 0. -1.
</event>
<event>
 5   0  0.2730707E-04  0.1493317E+04  0.7818609E-02  0.8888909E-01
       -1   -1    0    0    0  501  0.00000000000E+00  0.00000000000E+00  0.50828870983E+03  0.50828870986E+03  0.50400001928E-02 0. -1.
        1   -1    0    0  501    0  0.00000000000E+00  0.00000000000E+00 -0.10968150410E+04  0.10968150411E+04  0.50400001928E-02 0.  1.
    10030    2    1    2    0    0  0.00000000000E+00  0.00000000000E+00 -0.58852633121E+03  0.16051037509E+04  0.14933167141E+04 0.  0.
        5    1    3    3  502    0  0.52002963305E+03  0.20709550919E+03 -0.82537501363E+03  0.99728901142E+03  0.46999998093E+01 0.  1.
       -5    1    3    3    0  502 -0.52002963305E+03 -0.20709550919E+03  0.23684868242E+03  0.60781473949E+03  0.46999998093E+01 0. -1.
</event>
<event>
 5   0  0.2796994E-04  0.1587233E+04  0.7818609E-02  0.8828430E-01
       -1   -1    0    0    0  501  0.00000000000E+00  0.00000000000E+00  0.68760985293E+03  0.68760985295E+03  0.50400001928E-02 0. -1.
        1   -1    0    0  501    0  0.00000000000E+00  0.00000000000E+00 -0.91596576656E+03  0.91596576658E+03  0.50400001928E-02 0.  1.
    10030    2    1    2    0    0  0.00000000000E+00  0.00000000000E+00 -0.22835591363E+03  0.16035756195E+04  0.15872329206E+04 0.  0.
        3    1    3    3  502    0 -0.11737474591E+03  0.76738817865E+02  0.67499309578E+03  0.68940653224E+03  0.10100000352E+00 0. -1.
       -3    1    3    3    0  502  0.11737474591E+03 -0.76738817865E+02 -0.90334900941E+03  0.91416908729E+03  0.10100000352E+00 0.  1.
</event>
<event>
 5   0  0.2730707E-04  0.1588206E+04  0.7818609E-02  0.8827826E-01
       -1   -1    0    0    0  501  0.00000000000E+00  0.00000000000E+00  0.47863017219E+03  0.47863017221E+03  0.50400001928E-02 0.  1.
        1   -1    0    0  501    0  0.00000000000E+00  0.00000000000E+00 -0.13175094695E+04  0.13175094695E+04  0.50400001928E-02 0. -1.
    10030    2    1    2    0    0  0.00000000000E+00  0.00000000000E+00 -0.83887929734E+03  0.17961396417E+04  0.15882062640E+04 0.  0.
        5    1    3    3  502    0 -0.47485444572E+03  0.30246484520E+03  0.21388348542E+03  0.60227897401E+03  0.46999998093E+01 0.  1.
       -5    1    3    3    0  502  0.47485444572E+03 -0.30246484520E+03 -0.10527627828E+04  0.11938606677E+04  0.46999998093E+01 0. -1.
</event>
<event>
 5   0  0.2649086E-04  0.1594949E+04  0.7818609E-02  0.8823657E-01
        1   -1    0    0  501    0  0.00000000000E+00  0.00000000000E+00  0.82230022201E+03  0.82230022202E+03  0.50400001928E-02 0. -1.
       -1   -1    0    0    0  501  0.00000000000E+00  0.00000000000E+00 -0.77339813624E+03  0.77339813626E+03  0.50400001928E-02 0.  1.
    10030    2    1    2    0    0  0.00000000000E+00  0.00000000000E+00  0.48902085763E+02  0.15956983583E+04  0.15949488508E+04 0.  0.
        2    1    3    3  502    0  0.30311606791E+03  0.72211888949E+03 -0.12605374841E+03  0.79323677970E+03  0.25500000920E-02 0. -1.
       -2    1    3    3    0  502 -0.30311606791E+03 -0.72211888949E+03  0.17495583418E+03  0.80246157858E+03  0.25500000920E-02 0.  1.
</event>
<event>
 5   0  0.2649086E-04  0.1596497E+04  0.7818609E-02  0.8822703E-01
       -1   -1    0    0    0  501  0.00000000000E+00  0.00000000000E+00  0.44374208106E+03  0.44374208108E+03  0.50400001928E-02 0.  1.
        1   -1    0    0  501    0  0.00000000000E+00  0.00000000000E+00 -0.14359708343E+04  0.14359708343E+04  0.50400001928E-02 0. -1.
    10030    2    1    2    0    0  0.00000000000E+00  0.00000000000E+00 -0.99222875324E+03  0.18797129154E+04  0.15964970233E+04 0.  0.
        2    1    3    3  502    0  0.20317114586E+03  0.75772627790E+03 -0.32238104683E+03  0.84814925932E+03  0.25500000920E-02 0. -1.
       -2    1    3    3    0  502 -0.20317114586E+03 -0.75772627790E+03 -0.66984770642E+03  0.10315636561E+04  0.25500000920E-02 0.  1.
</event>
<event>
 5   0  0.5381164E-04  0.1597628E+04  0.7818609E-02  0.8822006E-01
       -2   -1    0    0    0  501  0.00000000000E+00  0.00000000000E+00  0.41786417769E+03  0.41786417769E+03  0.25500000920E-02 0. -1.
        2   -1    0    0  501    0  0.00000000000E+00  0.00000000000E+00 -0.15270609694E+04  0.15270609694E+04  0.25500000920E-02 0.  1.
    10030    2    1    2    0    0  0.00000000000E+00  0.00000000000E+00 -0.11091967918E+04  0.19449251471E+04  0.15976283376E+04 0.  0.
        5    1    3    3  502    0  0.47509915957E+03  0.56582925386E+03 -0.92425006236E+03  0.11832760556E+04  0.46999998093E+01 0.  1.
       -5    1    3    3    0  502 -0.47509915957E+03 -0.56582925386E+03 -0.18494672940E+03  0.76164909155E+03  0.46999998093E+01 0. -1.
</event>
<event>
 5   0  0.2796994E-04  0.1589360E+04  0.7818609E-02  0.8827111E-01
        1   -1    0    0  501    0  0.00000000000E+00  0.00000000000E+00  0.11346632240E+04  0.11346632240E+04  0.50400001928E-02 0. -1.
       -1   -1    0    0    0  501  0.00000000000E+00  0.00000000000E+00 -0.55656724542E+03  0.55656724544E+03  0.50400001928E-02 0.  1.
    10030    2    1    2    0    0  0.00000000000E+00  0.00000000000E+00  0.57809597861E+03  0.16912304695E+04  0.15893601041E+04 0.  0.
        3    1    3    3  502    0 -0.47548731454E+03  0.42742237327E+03  0.79124941447E+03  0.10172776010E+04  0.10100000352E+00 0. -1.
       -3    1    3    3    0  502  0.47548731454E+03 -0.42742237327E+03 -0.21315343586E+03  0.67395286844E+03  0.10100000352E+00 0.  1.
</event>
<event>
 5   0  0.5381164E-04  0.1600545E+04  0.7818609E-02  0.8820213E-01
       -2   -1    0    0    0  501  0.00000000000E+00  0.00000000000E+00  0.70931917769E+03  0.70931917769E+03  0.25500000920E-02 0.  1.
        2   -1    0    0  501    0  0.00000000000E+00  0.00000000000E+00 -0.90288847020E+03  0.90288847020E+03  0.25500000920E-02 0. -1.
    10030    2    1    2    0    0  0.00000000000E+00  0.00000000000E+00 -0.19356929251E+03  0.16122076479E+04  0.16005450412E+04 0.  0.
        5    1    3    3  502    0  0.15778117765E+03 -0.74441715491E+03  0.15273433971E+03  0.77614539171E+03  0.46999998093E+01 0. -1.
       -5    1    3    3    0  502 -0.15778117765E+03  0.74441715491E+03 -0.34630363222E+03  0.83606225619E+03  0.46999998093E+01 0.  1.
</event>
<event>
 5   0  0.2796994E-04  0.1584423E+04  0.7818609E-02  0.8830175E-01
       -1   -1    0    0    0  501  0.00000000000E+00  0.00000000000E+00  0.34046162646E+03  0.34046162649E+03  0.50400001928E-02 0. -1.
        1   -1    0    0  501    0  0.00000000000E+00  0.00000000000E+00 -0.18433769619E+04  0.18433769619E+04  0.50400001928E-02 0.  1.
    10030    2    1    2    0    0  0.00000000000E+00  0.00000000000E+00 -0.15029153354E+04  0.21838385884E+04  0.15844230731E+04 0.  0.
        3    1    3    3  502    0  0.48650751538E+03 -0.41502597603E+03 -0.13959785811E+04  0.15354778840E+04  0.10100000352E+00 0.  1.
       -3    1    3    3    0  502 -0.48650751538E+03  0.41502597603E+03 -0.10693675432E+03  0.64836070433E+03  0.10100000352E+00 0. -1.
</event>
<event>
 5   0  0.5083831E-04  0.1577800E+04  0.7818609E-02  0.8834303E-01
        2   -1    0    0  501    0  0.00000000000E+00  0.00000000000E+00  0.43023069112E+03  0.43023069112E+03  0.25500000920E-02 0. -1.
       -2   -1    0    0    0  501  0.00000000000E+00  0.00000000000E+00 -0.14465811381E+04  0.14465811381E+04  0.25500000920E-02 0.  1.
    10030    2    1    2    0    0  0.00000000000E+00  0.00000000000E+00 -0.10163504469E+04  0.18768118292E+04  0.15778004979E+04 0.  0.
        4    1    3    3  502    0 -0.21856594039E+03 -0.48640069438E+03  0.18338560858E+03  0.56390477931E+03  0.12699999809E+01 0. -1.
       -4    1    3    3    0  502  0.21856594039E+03  0.48640069438E+03 -0.11997360555E+04  0.13129070499E+04  0.12699999809E+01 0.  1.
</event>
<event>
 5   0  0.2763895E-04  0.1608678E+04  0.7818609E-02  0.8815235E-01
        1   -1    0    0  501    0  0.00000000000E+00  0.00000000000E+00  0.98042785344E+03  0.98042785346E+03  0.50400001928E-02 0. -1.
       -1   -1    0    0    0  501  0.00000000000E+00  0.00000000000E+00 -0.65987612977E+03  0.65987612979E+03  0.50400001928E-02 0.  1.
    10030    2    1    2    0    0  0.00000000000E+00  0.00000000000E+00  0.32055172368E+03  0.16403039832E+04  0.16086776401E+04 0.  0.
        4    1    3    3  502    0 -0.18238450701E+03  0.38745785446E+03  0.85452242384E+03  0.95582314427E+03  0.12699999809E+01 0. -1.
       -4    1    3    3    0  502  0.18238450701E+03 -0.38745785446E+03 -0.53397070017E+03  0.68448083897E+03  0.12699999809E+01 0.  1.
</event>
<event>
 5   0  0.5083831E-04  0.1606541E+04  0.7818609E-02  0.8816540E-01
       -2   -1    0    0    0  501  0.00000000000E+00  0.00000000000E+00  0.56091690119E+03  0.56091690120E+03  0.25500000920E-02 0. -1.
        2   -1    0    0  501    0  0.00000000000E+00  0.00000000000E+00 -0.11503374161E+04  0.11503374161E+04  0.25500000920E-02 0.  1.
    10030    2    1    2    0    0  0.00000000000E+00  0.00000000000E+00 -0.58942051488E+03  0.17112543173E+04  0.16065412522E+04 0.  0.
        4    1    3    3  502    0 -0.35156070186E+03 -0.81301863970E+02 -0.10591477157E+04  0.11189282447E+04  0.12699999809E+01 0.  1.
       -4    1    3    3    0  502  0.35156070186E+03  0.81301863970E+02  0.46972720082E+03  0.59232607259E+03  0.12699999809E+01 0. -1.
</event>
<event>
 5   0  0.5315984E-04  0.1611743E+04  0.7818609E-02  0.8813366E-01
        2   -1    0    0  501    0  0.00000000000E+00  0.00000000000E+00  0.54247252098E+03  0.54247252099E+03  0.25500000920E-02 0.  1.
       -2   -1    0    0    0  501  0.00000000000E+00  0.00000000000E+00 -0.11971643865E+04  0.11971643865E+04  0.25500000920E-02 0. -1.
    10030    2    1    2    0    0  0.00000000000E+00  0.00000000000E+00 -0.65469186552E+03  0.17396369075E+04  0.16117428862E+04 0.  0.
        2    1    3    3  502    0 -0.61165786176E+02  0.65379970800E+03  0.17687808796E+03  0.68005968090E+03  0.25500000920E-02 0. -1.
       -2    1    3    3    0  502  0.61165786176E+02 -0.65379970800E+03 -0.83156995348E+03  0.10595772266E+04  0.25500000920E-02 0.  1.
</event>
<event>
 5   0  0.2689675E-04  0.1600275E+04  0.7818609E-02  0.8820379E-01
        1   -1    0    0  501    0  0.00000000000E+00  0.00000000000E+00  0.10075380857E+04  0.10075380857E+04  0.50400001928E-02 0.  1.
       -1   -1    0    0    0  501  0.00000000000E+00  0.00000000000E+00 -0.63543029799E+03  0.63543029801E+03  0.50400001928E-02 0. -1.
    10030    2    1    2    0    0  0.00000000000E+00  0.00000000000E+00  0.37210778774E+03  0.16429683837E+04  0.16002752589E+04 0.  0.
        1    1    3    3  502    0 -0.21192949806E+03  0.76421780019E+03  0.29508149628E+03  0.84617731460E+03  0.50400001928E-02 0. -1.
       -1    1    3    3    0  502  0.21192949806E+03 -0.76421780019E+03  0.77026291461E+02  0.79679106915E+03  0.50400001928E-02 0.  1.
</event>
<event>
 5   0  0.1908125E-04  0.1750014E+04  0.7818609E-02  0.8733343E-01
        3   -1    0    0  501    0  0.00000000000E+00  0.00000000000E+00  0.97796495209E+03  0.97796495731E+03  0.10100000352E+00 0.  1.
       -3   -1    0    0    0  501  0.00000000000E+00  0.00000000000E+00 -0.78288817810E+03  0.78288818461E+03  0.10100000352E+00 0. -1.
    10030    2    1    2    0    0  0.00000000000E+00  0.00000000000E+00  0.19507677399E+03  0.17608531419E+04  0.17500139541E+04 0.  0.
        3    1    3    3  502    0  0.16182601896E+03  0.68789573671E+03 -0.42165076930E+03  0.82290800607E+03  0.10100000352E+00 0. -1.
       -3    1    3    3    0  502 -0.16182601896E+03 -0.68789573671E+03  0.61672754329E+03  0.93794513585E+03  0.10100000352E+00 0.  1.
</event>
<event>
 5   0  0.2689675E-04  0.1601351E+04  0.7818609E-02  0.8819719E-01
       -1   -1    0    0    0  501  0.00000000000E+00  0.00000000000E+00  0.12949662416E+04  0.12949662416E+04  0.50400001928E-02 0.  1.
        1   -1    0    0  501    0  0.00000000000E+00  0.00000000000E+00 -0.49505622178E+03  0.49505622180E+03  0.50400001928E-02 0. -1.
    10030    2    1    2    0    0  0.00000000000E+00  0.00000000000E+00  0.79991001985E+03  0.17900224634E+04  0.16013507985E+04 0.  0.
        1    1    3    3  502    0  0.14735329973E+03 -0.77551010310E+03  0.25018302101E+03  0.82808239866E+03  0.50400001928E-02 0.  1.
       -1    1    3    3    0  502 -0.14735329973E+03  0.77551010310E+03  0.54972699885E+03  0.96194006478E+03  0.50400001928E-02 0. -1.
</event>
<event>
 5   0  0.5381164E-04  0.1603307E+04  0.7818609E-02  0.8818519E-01
       -2   -1    0    0    0  501  0.00000000000E+00  0.00000000000E+00  0.34027062116E+03  0.34027062117E+03  0.25500000920E-02 0.  1.
        2   -1    0    0  501    0  0.00000000000E+00  0.00000000000E+00 -0.18886377441E+04  0.18886377441E+04  0.25500000920E-02 0. -1.
    10030    2    1    2    0    0  0.00000000000E+00  0.00000000000E+00 -0.15483671229E+04  0.22289083652E+04  0.16033065064E+04 0.  0.
        5    1    3    3  502    0 -0.68016924479E+02  0.64839476893E+03 -0.14226520960E+04  0.15649291213E+04  0.46999998093E+01 0. -1.
       -5    1    3    3    0  502  0.68016924479E+02 -0.64839476893E+03 -0.12571502688E+03  0.66397924393E+03  0.46999998093E+01 0.  1.
</event>
<event>
 5   0  0.5264308E-04  0.1628467E+04  0.7818609E-02  0.8803248E-01
        2   -1    0    0  501    0  0.00000000000E+00  0.00000000000E+00  0.70142525623E+03  0.70142525624E+03  0.25500000920E-02 0. -1.
       -2   -1    0    0    0  501  0.00000000000E+00  0.00000000000E+00 -0.94518408643E+03  0.94518408644E+03  0.25500000920E-02 0.  1.
    10030    2    1    2    0    0  0.00000000000E+00  0.00000000000E+00 -0.24375883020E+03  0.16466093427E+04  0.16284667513E+04 0.  0.
        3    1    3    3  502    0 -0.45428159823E+03 -0.10238625555E+03  0.55348494923E+03  0.72332587057E+03  0.10100000352E+00 0. -1.
       -3    1    3    3    0  502  0.45428159823E+03  0.10238625555E+03 -0.79724377943E+03  0.92328347210E+03  0.10100000352E+00 0.  1.
</event>
<event>
 5   0  0.5381164E-04  0.1574367E+04  0.7818609E-02  0.8836452E-01
        2   -1    0    0  501    0  0.00000000000E+00  0.00000000000E+00  0.14638993382E+04  0.14638993382E+04  0.25500000920E-02 0.  1.
       -2   -1    0    0    0  501  0.00000000000E+00  0.00000000000E+00 -0.42329267812E+03  0.42329267813E+03  0.25500000920E-02 0. -1.
    10030    2    1    2    0    0  0.00000000000E+00  0.00000000000E+00  0.10406066600E+04  0.18871920163E+04  0.15743670110E+04 0.  0.
        5    1    3    3  502    0 -0.77253321145E+03 -0.57626846978E+02  0.35288252902E+03  0.85127938162E+03  0.46999998093E+01 0. -1.
       -5    1    3    3    0  502  0.77253321145E+03  0.57626846978E+02  0.68772413102E+03  0.10359126347E+04  0.46999998093E+01 0.  1.
</event>
<event>
 5   0  0.2649086E-04  0.1653870E+04  0.7818609E-02  0.8788121E-01
       -1   -1    0    0    0  501  0.00000000000E+00  0.00000000000E+00  0.84498019752E+03  0.84498019753E+03  0.50400001928E-02 0.  1.
        1   -1    0    0  501    0  0.00000000000E+00  0.00000000000E+00 -0.80927471542E+03  0.80927471543E+03  0.50400001928E-02 0. -1.
    10030    2    1    2    0    0  0.00000000000E+00  0.00000000000E+00  0.35705482103E+02  0.16542549130E+04  0.16538695340E+04 0.  0.
        2    1    3    3  502    0  0.80833212817E+03 -0.15369756711E+03  0.10031791845E+03  0.82890738707E+03  0.25500000920E-02 0. -1.
       -2    1    3    3    0  502 -0.80833212817E+03  0.15369756711E+03 -0.64612436347E+02  0.82534752590E+03  0.25500000920E-02 0.  1.
</event>
<event>
 5   0  0.5083831E-04  0.1544888E+04  0.7818609E-02  0.8855139E-01
        2   -1    0    0  501    0  0.00000000000E+00  0.00000000000E+00  0.21753489766E+04  0.21753489766E+04  0.25500000920E-02 0.  1.
       -2   -1    0    0    0  501  0.00000000000E+00  0.00000000000E+00 -0.27428704697E+03  0.27428704698E+03  0.25500000920E-02 0. -1.
    10030    2    1    2    0    0  0.00000000000E+00  0.00000000000E+00  0.19010619297E+04  0.24496360236E+04  0.15448884063E+04 0.  0.
        4    1    3    3  502    0  0.37566816670E+03  0.29982485442E+03  0.19093472579E+04  0.19689159654E+04  0.12699999809E+01 0.  1.
       -4    1    3    3    0  502 -0.37566816670E+03 -0.29982485442E+03 -0.82853282169E+01  0.48072005820E+03  0.12699999809E+01 0. -1.
</event>
<event>
 5   0  0.2689675E-04  0.1615955E+04  0.7818609E-02  0.8810806E-01
       -1   -1    0    0    0  501  0.00000000000E+00  0.00000000000E+00  0.55305025088E+03  0.55305025090E+03  0.50400001928E-02 0.  1.
        1   -1    0    0  501    0  0.00000000000E+00  0.00000000000E+00 -0.11804125256E+04  0.11804125256E+04  0.50400001928E-02 0. -1.
    10030    2    1    2    0    0  0.00000000000E+00  0.00000000000E+00 -0.62736227475E+03  0.17334627765E+04  0.16159547561E+04 0.  0.
        1    1    3    3  502    0 -0.10860278630E+03  0.37522693436E+02  0.54424127388E+03  0.55623833196E+03  0.50400001928E-02 0.  1.
       -1    1    3    3    0  502  0.10860278630E+03 -0.37522693436E+02 -0.11716035486E+04  0.11772244446E+04  0.50400001928E-02 0. -1.
</event>
<event>
 5   0  0.5264308E-04  0.1592312E+04  0.7818609E-02  0.8825285E-01
       -2   -1    0    0    0  501  0.00000000000E+00  0.00000000000E+00  0.26452308574E+03  0.26452308575E+03  0.25500000920E-02 0. -1.
        2   -1    0    0  501    0  0.00000000000E+00  0.00000000000E+00 -0.23962536443E+04  0.23962536443E+04  0.25500000920E-02 0.  1.
    10030    2    1    2    0    0  0.00000000000E+00  0.00000000000E+00 -0.21317305586E+04  0.26607767301E+04  0.15923120401E+04 0.  0.
        3    1    3    3  502    0  0.72844465790E+03  0.31979722171E+03 -0.10140229988E+04  0.12888539618E+04  0.10100000352E+00 0. -1.
       -3    1    3    3    0  502 -0.72844465790E+03 -0.31979722171E+03 -0.11177075598E+04  0.13719227683E+04  0.10100000352E+00 0.  1.
</event>
<event>
 5   0  0.2689675E-04  0.1588240E+04  0.7818609E-02  0.8827805E-01
       -1   -1    0    0    0  501  0.00000000000E+00  0.00000000000E+00  0.38926538818E+03  0.38926538821E+03  0.50400001928E-02 0. -1.
        1   -1    0    0  501    0  0.00000000000E+00  0.00000000000E+00 -0.16200424223E+04  0.16200424223E+04  0.50400001928E-02 0.  1.
    10030    2    1    2    0    0  0.00000000000E+00  0.00000000000E+00 -0.12307770341E+04  0.20093078105E+04  0.15882398338E+04 0.  0.
        1    1    3    3  502    0 -0.46975304999E+03 -0.66111942204E+02  0.19031041859E+03  0.51113283237E+03  0.50400001928E-02 0. -1.
       -1    1    3    3    0  502  0.46975304999E+03  0.66111942204E+02 -0.14210874527E+04  0.14981749781E+04  0.50400001928E-02 0.  1.
</event>
<event>
 5   0  0.5381164E-04  0.1625029E+04  0.7818609E-02  0.8805318E-01
       -2   -1    0    0    0  501  0.00000000000E+00  0.00000000000E+00  0.12301037595E+04  0.12301037595E+04  0.25500000920E-02 0. -1.
        2   -1    0    0  501    0  0.00000000000E+00  0.00000000000E+00 -0.53668609905E+03  0.53668609906E+03  0.25500000920E-02 0.  1.
    10030    2    1    2    0    0  0.00000000000E+00  0.00000000000E+00  0.69341766045E+03  0.17667898586E+04  0.16250287236E+04 0.  0.
        5    1    3    3  502    0 -0.62005734690E+03 -0.49406594359E+03  0.15348269637E+03  0.80755885120E+03  0.46999998093E+01 0.  1.
       -5    1    3    3    0  502  0.62005734690E+03  0.49406594359E+03  0.53993496408E+03  0.95923100737E+03  0.46999998093E+01 0. -1.
</event>
<event>
 5   0  0.1908125E-04  0.1592448E+04  0.7818609E-02  0.8825201E-01
        3   -1    0    0  501    0  0.00000000000E+00  0.00000000000E+00  0.69837385336E+03  0.69837386067E+03  0.10100000352E+00 0.  1.
       -3   -1    0    0    0  501  0.00000000000E+00  0.00000000000E+00 -0.90778455300E+03  0.90778455862E+03  0.10100000352E+00 0. -1.
    10030    2    1    2    0    0  0.00000000000E+00  0.00000000000E+00 -0.20941069964E+03  0.16061584193E+04  0.15924484377E+04 0.  0.
        5    1    3    3  502    0 -0.37784082579E+03 -0.69949987761E+03 -0.60890027391E+02  0.79736657432E+03  0.46999998093E+01 0. -1.
       -5    1    3    3    0  502  0.37784082579E+03  0.69949987761E+03 -0.14852067224E+03  0.80879184497E+03  0.46999998093E+01 0.  1.
</event>
<event>
 5   0  0.2763895E-04  0.1604562E+04  0.7818609E-02  0.8817751E-01
       -1   -1    0    0    0  501  0.00000000000E+00  0.00000000000E+00  0.11445742203E+04  0.11445742203E+04  0.50400001928E-02 0. -1.
        1   -1    0    0  501    0  0.00000000000E+00  0.00000000000E+00 -0.56235279569E+03  0.56235279571E+03  0.50400001928E-02 0.  1.
    10030    2    1    2    0    0  0.00000000000E+00  0.00000000000E+00  0.58222142458E+03  0.17069270160E+04  0.16045616382E+04 0.  0.
        4    1    3    3  502    0  0.29027302504E+03  0.37564012661E+03 -0.39690245756E+03  0.61878680294E+03  0.12699999809E+01 0.  1.
       -4    1    3    3    0  502 -0.29027302504E+03 -0.37564012661E+03  0.97912388213E+03  0.10881402130E+04  0.12699999809E+01 0. -1.
</event>
<event>
 5   0  0.5315984E-04  0.1576965E+04  0.7818609E-02  0.8834826E-01
       -2   -1    0    0    0  501  0.00000000000E+00  0.00000000000E+00  0.50124740916E+03  0.50124740917E+03  0.25500000920E-02 0. -1.
        2   -1    0    0  501    0  0.00000000000E+00  0.00000000000E+00 -0.12403149108E+04  0.12403149108E+04  0.25500000920E-02 0.  1.
    10030    2    1    2    0    0  0.00000000000E+00  0.00000000000E+00 -0.73906750159E+03  0.17415623199E+04  0.15769649781E+04 0.  0.
        2    1    3    3  502    0  0.40320660625E+03 -0.24566894679E+02 -0.11173566075E+04  0.11881350462E+04  0.25500000920E-02 0.  1.
       -2    1    3    3    0  502 -0.40320660625E+03  0.24566894679E+02  0.37828910592E+03  0.55342727373E+03  0.25500000920E-02 0. -1.
</event>
<event>
 5   0  0.5264308E-04  0.1608454E+04  0.7818609E-02  0.8815371E-01
        2   -1    0    0  501    0  0.00000000000E+00  0.00000000000E+00  0.90541180879E+03  0.90541180879E+03  0.25500000920E-02 0. -1.
       -2   -1    0    0    0  501  0.00000000000E+00  0.00000000000E+00 -0.71435032059E+03  0.71435032059E+03  0.25500000920E-02 0.  1.
    10030    2    1    2    0    0  0.00000000000E+00  0.00000000000E+00  0.19106148820E+03  0.16197621294E+04  0.16084541845E+04 0.  0.
        3    1    3    3  502    0 -0.54356014927E+03  0.39329266246E+02 -0.50004641350E+03  0.73962886160E+03  0.10100000352E+00 0.  1.
       -3    1    3    3    0  502  0.54356014927E+03 -0.39329266246E+02  0.69110790170E+03  0.88013326778E+03  0.10100000352E+00 0. -1.
</event>
<event>
 5   0  0.2730707E-04  0.1603008E+04  0.7818609E-02  0.8818702E-01
        1   -1    0    0  501    0  0.00000000000E+00  0.00000000000E+00  0.15625429310E+04  0.15625429310E+04  0.50400001928E-02 0.  1.
       -1   -1    0    0    0  501  0.00000000000E+00  0.00000000000E+00 -0.41113030721E+03  0.41113030724E+03  0.50400001928E-02 0. -1.
    10030    2    1    2    0    0  0.00000000000E+00  0.00000000000E+00  0.11514126238E+04  0.19736732382E+04  0.16030081164E+04 0.  0.
        5    1    3    3  502    0  0.16540337820E+03  0.72077113226E+03  0.19518350427E+03  0.76484507774E+03  0.46999998093E+01 0. -1.
       -5    1    3    3    0  502 -0.16540337820E+03 -0.72077113226E+03  0.95622911951E+03  0.12088281605E+04  0.46999998093E+01 0.  1.
</event>
<event>
 5   0  0.1908125E-04  0.1603762E+04  0.7818609E-02  0.8818240E-01
       -4   -1    0    0    0  501  0.00000000000E+00  0.00000000000E+00  0.60573192617E+03  0.60573325753E+03  0.12699999809E+01 0. -1.
        4   -1    0    0  501    0  0.00000000000E+00  0.00000000000E+00 -0.10615446869E+04  0.10615454466E+04  0.12699999809E+01 0.  1.
    10030    2    1    2    0    0  0.00000000000E+00  0.00000000000E+00 -0.45581276075E+03  0.16672787041E+04  0.16037621409E+04 0.  0.
        5    1    3    3  502    0 -0.63456078096E+03  0.12713070907E+03  0.26430178642E+03  0.69907590877E+03  0.46999998093E+01 0. -1.
       -5    1    3    3    0  502  0.63456078096E+03 -0.12713070907E+03 -0.72011454718E+03  0.96820279538E+03  0.46999998093E+01 0.  1.
</event>
<event>
 5   0  0.5083831E-04  0.1645769E+04  0.7818609E-02  0.8792913E-01
        2   -1    0    0  501    0  0.00000000000E+00  0.00000000000E+00  0.14397466800E+04  0.14397466800E+04  0.25500000920E-02 0.  1.
       -2   -1    0    0    0  501  0.00000000000E+00  0.00000000000E+00 -0.47031822968E+03  0.47031822969E+03  0.25500000920E-02 0. -1.
    10030    2    1    2    0    0  0.00000000000E+00  0.00000000000E+00  0.96942845029E+03  0.19100649097E+04  0.16457692544E+04 0.  0.
        4    1    3    3  502    0 -0.22505326183E+03 -0.78980446029E+03  0.42443673912E+03  0.92443940557E+03  0.12699999809E+01 0. -1.
       -4    1    3    3    0  502  0.22505326183E+03  0.78980446029E+03  0.54499171118E+03  0.98562550409E+03  0.12699999809E+01 0.  1.
</event>
<event>
 5   0  0.5315984E-04  0.1581675E+04  0.7818609E-02  0.8831886E-01
        2   -1    0    0  501    0  0.00000000000E+00  0.00000000000E+00  0.23992873527E+04  0.23992873527E+04  0.25500000920E-02 0.  1.
       -2   -1    0    0    0  501  0.00000000000E+00  0.00000000000E+00 -0.26067068996E+03  0.26067068997E+03  0.25500000920E-02 0. -1.
    10030    2    1    2    0    0  0.00000000000E+00  0.00000000000E+00  0.21386166627E+04  0.26599580426E+04  0.15816749219E+04 0.  0.
        2    1    3    3  502    0  0.59769981016E+03  0.51391844023E+03  0.96206342617E+03  0.12437536984E+04  0.25500000920E-02 0.  1.
       -2    1    3    3    0  502 -0.59769981016E+03 -0.51391844023E+03  0.11765532365E+04  0.14162043443E+04  0.25500000920E-02 0. -1.
</event>
<event>
 5   0  0.2649086E-04  0.1593856E+04  0.7818609E-02  0.8824332E-01
       -1   -1    0    0    0  501  0.00000000000E+00  0.00000000000E+00  0.57766104181E+03  0.57766104183E+03  0.50400001928E-02 0. -1.
        1   -1    0    0  501    0  0.00000000000E+00  0.00000000000E+00 -0.10994231833E+04  0.10994231833E+04  0.50400001928E-02 0.  1.
    10030    2    1    2    0    0  0.00000000000E+00  0.00000000000E+00 -0.52176214149E+03  0.16770842251E+04  0.15938556289E+04 0.  0.
        2    1    3    3  502    0 -0.15285443415E+03 -0.24985570651E+03  0.51896936865E+03  0.59592076463E+03  0.25500000920E-02 0. -1.
       -2    1    3    3    0  502  0.15285443415E+03  0.24985570651E+03 -0.10407315101E+04  0.10811634605E+04  0.25500000920E-02 0.  1.
</event>
<event>
 5   0  0.5083831E-04  0.1619960E+04  0.7818609E-02  0.8808379E-01
        2   -1    0    0  501    0  0.00000000000E+00  0.00000000000E+00  0.13882267252E+04  0.13882267252E+04  0.25500000920E-02 0. -1.
       -2   -1    0    0    0  501  0.00000000000E+00  0.00000000000E+00 -0.47259396849E+03  0.47259396850E+03  0.25500000920E-02 0.  1.
    10030    2    1    2    0    0  0.00000000000E+00  0.00000000000E+00  0.91563275671E+03  0.18608206937E+04  0.16199599714E+04 0.  0.
        4    1    3    3  502    0 -0.60603474183E+03  0.48480741431E+01 -0.15944916267E+03  0.62667955169E+03  0.12699999809E+01 0.  1.
       -4    1    3    3    0  502  0.60603474183E+03 -0.48480741431E+01  0.10750819194E+04  0.12341411420E+04  0.12699999809E+01 0. -1.
</event>
<event>
 5   0  0.5381164E-04  0.1602661E+04  0.7818609E-02  0.8818915E-01
        2   -1    0    0  501    0  0.00000000000E+00  0.00000000000E+00  0.14557268478E+04  0.14557268478E+04  0.25500000920E-02 0. -1.
       -2   -1    0    0    0  501  0.00000000000E+00  0.00000000000E+00 -0.44110654344E+03  0.44110654345E+03  0.25500000920E-02 0.  1.
    10030    2    1    2    0    0  0.00000000000E+00  0.00000000000E+00  0.10146203043E+04  0.18968333912E+04  0.16026610846E+04 0.  0.
        5    1    3    3  502    0 -0.64435725725E+02 -0.14510852883E+03 -0.42228727906E+03  0.45117300888E+03  0.46999998093E+01 0.  1.
       -5    1    3    3    0  502  0.64435725725E+02  0.14510852883E+03  0.14369075834E+04  0.14456603823E+04  0.46999998093E+01 0. -1.
</event>
<event>
 5   0  0.5083831E-04  0.1422654E+04  0.7818609E-02  0.8937582E-01
        2   -1    0    0  501    0  0.00000000000E+00  0.00000000000E+00  0.28060895666E+04  0.28060895666E+04  0.25500000920E-02 0.  1.
       -2   -1    0    0    0  501  0.00000000000E+00  0.00000000000E+00 -0.18031710427E+03  0.18031710429E+03  0.25500000920E-02 0. -1.
    10030    2    1    2    0    0  0.00000000000E+00  0.00000000000E+00  0.26257724623E+04  0.29864066709E+04  0.14226537808E+04 0.  0.
        4    1    3    3  502    0 -0.67217479776E+03  0.23080772517E+03  0.13756221328E+04  0.15483633391E+04  0.12699999809E+01 0. -1.
       -4    1    3    3    0  502  0.67217479776E+03 -0.23080772517E+03  0.12501503295E+04  0.14380433318E+04  0.12699999809E+01 0.  1.
</event>
<event>
 5   0  0.5315984E-04  0.1594252E+04  0.7818609E-02  0.8824087E-01
       -2   -1    0    0    0  501  0.00000000000E+00  0.00000000000E+00  0.60923491917E+03  0.60923491917E+03  0.25500000920E-02 0.  1.
        2   -1    0    0  501    0  0.00000000000E+00  0.00000000000E+00 -0.10429639783E+04  0.10429639783E+04  0.25500000920E-02 0. -1.
    10030    2    1    2    0    0  0.00000000000E+00  0.00000000000E+00 -0.43372905909E+03  0.16521988974E+04  0.15942522699E+04 0.  0.
        2    1    3    3  502    0  0.23854033272E+03  0.23511056954E+03 -0.96650369481E+03  0.10228919114E+04  0.25500000920E-02 0. -1.
       -2    1    3    3    0  502 -0.23854033272E+03 -0.23511056954E+03  0.53277463572E+03  0.62930698607E+03  0.25500000920E-02 0.  1.
</event>
<event>
 5   0  0.1908125E-04  0.1598050E+04  0.7818609E-02  0.8821747E-01
        4   -1    0    0  501    0  0.00000000000E+00  0.00000000000E+00  0.80487228029E+03  0.80487328225E+03  0.12699999809E+01 0.  1.
       -4   -1    0    0    0  501  0.00000000000E+00  0.00000000000E+00 -0.79321861004E+03  0.79321962672E+03  0.12699999809E+01 0. -1.
    10030    2    1    2    0    0  0.00000000000E+00  0.00000000000E+00  0.11653670244E+02  0.15980929090E+04  0.15980504178E+04 0.  0.
        4    1    3    3  502    0 -0.40961023753E+03  0.28295571486E+03 -0.61916593278E+03  0.79448885988E+03  0.12699999809E+01 0. -1.
       -4    1    3    3    0  502  0.40961023753E+03 -0.28295571486E+03  0.63081960302E+03  0.80360404909E+03  0.12699999809E+01 0.  1.
</event>
<event>
 5   0  0.2689675E-04  0.1577759E+04  0.7818609E-02  0.8834329E-01
        1   -1    0    0  501    0  0.00000000000E+00  0.00000000000E+00  0.14728017757E+04  0.14728017757E+04  0.50400001928E-02 0.  1.
       -1   -1    0    0    0  501  0.00000000000E+00  0.00000000000E+00 -0.42254921198E+03  0.42254921201E+03  0.50400001928E-02 0. -1.
    10030    2    1    2    0    0  0.00000000000E+00  0.00000000000E+00  0.10502525637E+04  0.18953509877E+04  0.15777594617E+04 0.  0.
        1    1    3    3  502    0 -0.15519476607E+03  0.53427222787E+02  0.14520630549E+04  0.14613100284E+04  0.50400001928E-02 0.  1.
       -1    1    3    3    0  502  0.15519476607E+03 -0.53427222787E+02 -0.40181049118E+03  0.43404095935E+03  0.50400001928E-02 0. -1.
</event>
<event>
 5   0  0.5264308E-04  0.1574956E+04  0.7818609E-02  0.8836083E-01
        2   -1    0    0  501    0  0.00000000000E+00  0.00000000000E+00  0.95197532578E+03  0.95197532578E+03  0.25500000920E-02 0.  1.
       -2   -1    0    0    0  501  0.00000000000E+00  0.00000000000E+00 -0.65140501785E+03  0.65140501785E+03  0.25500000920E-02 0. -1.
    10030    2    1    2    0    0  0.00000000000E+00  0.00000000000E+00  0.30057030793E+03  0.16033803436E+04  0.15749558776E+04 0.  0.
        3    1    3    3  502    0  0.72631993305E+03 -0.41320855126E+02  0.45717791010E+03  0.85922040822E+03  0.10100000352E+00 0.  1.
       -3    1    3    3    0  502 -0.72631993305E+03  0.41320855126E+02 -0.15660760217E+03  0.74415993541E+03  0.10100000352E+00 0. -1.
</event>
<event>
 5   0  0.2689675E-04  0.1585348E+04  0.7818609E-02  0.8829600E-01
        1   -1    0    0  501    0  0.00000000000E+00  0.00000000000E+00  0.12326014725E+04  0.12326014725E+04  0.50400001928E-02 0.  1.
       -1   -1    0    0    0  501  0.00000000000E+00  0.00000000000E+00 -0.50976083044E+03  0.50976083047E+03  0.50400001928E-02 0. -1.
    10030    2    1    2    0    0  0.00000000000E+00  0.00000000000E+00  0.72284064202E+03  0.17423623029E+04  0.15853478486E+04 0.  0.
        1    1    3    3  502    0  0.66506066967E+03  0.16717860321E+02 -0.11224821022E+03  0.67467387819E+03  0.50400001928E-02 0. -1.
       -1    1    3    3    0  502 -0.66506066967E+03 -0.16717860321E+02  0.83508885224E+03  0.10676884248E+04  0.50400001928E-02 0.  1.
</event>
<event>
 5   0  0.5315984E-04  0.1569086E+04  0.7818609E-02  0.8839768E-01
       -2   -1    0    0    0  501  0.00000000000E+00  0.00000000000E+00  0.60629465406E+03  0.60629465407E+03  0.25500000920E-02 0.  1.
        2   -1    0    0  501    0  0.00000000000E+00  0.00000000000E+00 -0.10151950910E+04  0.10151950910E+04  0.25500000920E-02 0. -1.
    10030    2    1    2    0    0  0.00000000000E+00  0.00000000000E+00 -0.40890043690E+03  0.16214897450E+04  0.15690855381E+04 0.  0.
        2    1    3    3  502    0  0.38272346570E+03  0.87442320433E+02 -0.90638833522E+03  0.98775666276E+03  0.25500000920E-02 0. -1.
       -2    1    3    3    0  502 -0.38272346570E+03 -0.87442320433E+02  0.49748789832E+03  0.63373308228E+03  0.25500000920E-02 0.  1.
</event>
<event>
 5   0  0.5381164E-04  0.1591324E+04  0.7818609E-02  0.8825896E-01
        2   -1    0    0  501    0  0.00000000000E+00  0.00000000000E+00  0.10453182898E+04  0.10453182898E+04  0.25500000920E-02 0.  1.
       -2   -1    0    0    0  501  0.00000000000E+00  0.00000000000E+00 -0.60563216618E+03  0.60563216619E+03  0.25500000920E-02 0. -1.
    10030    2    1    2    0    0  0.00000000000E+00  0.00000000000E+00  0.43968612365E+03  0.16509504560E+04  0.15913244549E+04 0.  0.
        5    1    3    3  502    0 -0.39697768631E+03  0.65905556222E+03  0.43019819947E+03  0.88149764511E+03  0.46999998093E+01 0.  1.
       -5    1    3    3    0  502  0.39697768631E+03 -0.65905556222E+03  0.94879241830E+01  0.76945281091E+03  0.46999998093E+01 0. -1.
</event>
<event>
 5   0  0.2796994E-04  0.1600865E+04  0.7818609E-02  0.8820017E-01
        1   -1    0    0  501    0  0.00000000000E+00  0.00000000000E+00  0.73903706121E+03  0.73903706122E+03  0.50400001928E-02 0.  1.
       -1   -1    0    0    0  501  0.00000000000E+00  0.00000000000E+00 -0.86692806788E+03  0.86692806789E+03  0.50400001928E-02 0. -1.
    10030    2    1    2    0    0  0.00000000000E+00  0.00000000000E+00 -0.12789100667E+03  0.16059651291E+04  0.16008647308E+04 0.  0.
        3    1    3    3  502    0  0.15129060281E+03 -0.65761990738E+03  0.36793647692E+03  0.76858965016E+03  0.10100000352E+00 0.  1.
       -3    1    3    3    0  502 -0.15129060281E+03  0.65761990738E+03 -0.49582748359E+03  0.83737547896E+03  0.10100000352E+00 0. -1.
</event>
<event>
 5   0  0.2689675E-04  0.1645503E+04  0.7818609E-02  0.8793071E-01
       -1   -1    0    0    0  501  0.00000000000E+00  0.00000000000E+00  0.47248298897E+03  0.47248298900E+03  0.50400001928E-02 0.  1.
        1   -1    0    0  501    0  0.00000000000E+00  0.00000000000E+00 -0.14326865202E+04  0.14326865203E+04  0.50400001928E-02 0. -1.
    10030    2    1    2    0    0  0.00000000000E+00  0.00000000000E+00 -0.96020353127E+03  0.19051695093E+04  0.16455029740E+04 0.  0.
        1    1    3    3  502    0 -0.66440087700E+03 -0.48523663236E+03 -0.47306915760E+03  0.94904032719E+03  0.50400001928E-02 0.  1.
       -1    1    3    3    0  502  0.66440087700E+03  0.48523663236E+03 -0.48713437368E+03  0.95612918206E+03  0.50400001928E-02 0. -1.
</event>
<event>
 5   0  0.2730707E-04  0.1603098E+04  0.7818609E-02  0.8818647E-01
       -1   -1    0    0    0  501  0.00000000000E+00  0.00000000000E+00  0.39342606792E+03  0.39342606795E+03  0.50400001928E-02 0.  1.
        1   -1    0    0  501    0  0.00000000000E+00  0.00000000000E+00 -0.16330402153E+04  0.16330402153E+04  0.50400001928E-02 0. -1.
    10030    2    1    2    0    0  0.00000000000E+00  0.00000000000E+00 -0.12396141473E+04  0.20264662832E+04  0.16030977396E+04 0.  0.
        5    1    3    3  502    0 -0.28648660470E+03 -0.59555333495E+03 -0.46487609881E+02  0.66252663139E+03  0.46999998093E+01 0.  1.
       -5    1    3    3    0  502  0.28648660470E+03  0.59555333495E+03 -0.11931265375E+04  0.13639396518E+04  0.46999998093E+01 0. -1.
</event>
<event>
 5   0  0.1908125E-04  0.1575315E+04  0.7818609E-02  0.8835858E-01
        3   -1    0    0  501    0  0.00000000000E+00  0.00000000000E+00  0.58193819551E+03  0.58193820428E+03  0.10100000352E+00 0. -1.
       -3   -1    0    0    0  501  0.00000000000E+00  0.00000000000E+00 -0.10660995354E+04  0.10660995402E+04  0.10100000352E+00 0.  1.
    10030    2    1    2    0    0  0.00000000000E+00  0.00000000000E+00 -0.48416133992E+03  0.16480377445E+04  0.15753146366E+04 0.  0.
        5    1    3    3  502    0 -0.62055148430E+03 -0.45783529023E+03 -0.40974349716E+03  0.87327494016E+03  0.46999998093E+01 0. -1.
       -5    1    3    3    0  502  0.62055148430E+03  0.45783529023E+03 -0.74417842753E+02  0.77476280433E+03  0.46999998093E+01 0.  1.
</event>
<event>
 5   0  0.1908125E-04  0.1592745E+04  0.7818609E-02  0.8825017E-01
        3   -1    0    0  501    0  0.00000000000E+00  0.00000000000E+00  0.64061581605E+03  0.64061582402E+03  0.10100000352E+00 0. -1.
       -3   -1    0    0    0  501  0.00000000000E+00  0.00000000000E+00 -0.98999912405E+03  0.98999912921E+03  0.10100000352E+00 0.  1.
    10030    2    1    2    0    0  0.00000000000E+00  0.00000000000E+00 -0.34938330800E+03  0.16306149532E+04  0.15927449356E+04 0.  0.
        1    1    3    3  502    0  0.38244450228E+03 -0.47136152336E+03  0.35308837996E+03  0.70222281871E+03  0.50400001928E-02 0. -1.
       -1    1    3    3    0  502 -0.38244450228E+03  0.47136152336E+03 -0.70247168796E+03  0.92839213452E+03  0.50400001928E-02 0.  1.
</event>
<event>
 5   0  0.2796994E-04  0.1534051E+04  0.7818609E-02  0.8862120E-01
        1   -1    0    0  501    0  0.00000000000E+00  0.00000000000E+00  0.15490027055E+04  0.15490027055E+04  0.50400001928E-02 0.  1.
       -1   -1    0    0    0  501  0.00000000000E+00  0.00000000000E+00 -0.37981094744E+03  0.37981094747E+03  0.50400001928E-02 0. -1.
    10030    2    1    2    0    0  0.00000000000E+00  0.00000000000E+00  0.11691917581E+04  0.19288136530E+04  0.15340510881E+04 0.  0.
        3    1    3    3  502    0  0.61645959172E+03  0.20760724295E+02  0.11578554404E+04  0.13119004029E+04  0.10100000352E+00 0.  1.
       -3    1    3    3    0  502 -0.61645959172E+03 -0.20760724295E+02  0.11336317662E+02  0.61691325014E+03  0.10100000352E+00 0. -1.
</event>
<event>
 5   0  0.5381164E-04  0.1600365E+04  0.7818609E-02  0.8820324E-01
       -2   -1    0    0    0  501  0.00000000000E+00  0.00000000000E+00  0.62677087357E+03  0.62677087357E+03  0.25500000920E-02 0.  1.
        2   -1    0    0  501    0  0.00000000000E+00  0.00000000000E+00 -0.10215721564E+04  0.10215721565E+04  0.25500000920E-02 0. -1.
    10030    2    1    2    0    0  0.00000000000E+00  0.00000000000E+00 -0.39480128288E+03  0.16483430300E+04  0.16003645496E+04 0.  0.
        5    1    3    3  502    0  0.53380105181E+02 -0.73602878058E+03  0.12119754531E+03  0.74786277917E+03  0.46999998093E+01 0.  1.
       -5    1    3    3    0  502 -0.53380105181E+02  0.73602878058E+03 -0.51599882820E+03  0.90048025085E+03  0.46999998093E+01 0. -1.
</event>
<event>
 5   0  0.1908125E-04  0.1528479E+04  0.7818609E-02  0.8865733E-01
        3   -1    0    0  501    0  0.00000000000E+00  0.00000000000E+00  0.78409376034E+03  0.78409376685E+03  0.10100000352E+00 0.  1.
       -3   -1    0    0    0  501  0.00000000000E+00  0.00000000000E+00 -0.74488773690E+03  0.74488774375E+03  0.10100000352E+00 0. -1.
    10030    2    1    2    0    0  0.00000000000E+00  0.00000000000E+00  0.39206023442E+02  0.15289815106E+04  0.15284787691E+04 0.  0.
        1    1    3    3  502    0 -0.12463561521E+03 -0.57131189910E+03 -0.47262642841E+03  0.75186904677E+03  0.50400001928E-02 0. -1.
       -1    1    3    3    0  502  0.12463561521E+03  0.57131189910E+03  0.51183245185E+03  0.77711246382E+03  0.50400001928E-02 0.  1.
</event>
<event>
 5   0  0.5381164E-04  0.1592202E+04  0.7818609E-02  0.8825353E-01
        2   -1    0    0  501    0  0.00000000000E+00  0.00000000000E+00  0.17863474460E+04  0.17863474460E+04  0.25500000920E-02 0.  1.
       -2   -1    0    0    0  501  0.00000000000E+00  0.00000000000E+00 -0.35478943337E+03  0.35478943338E+03  0.25500000920E-02 0. -1.
    10030    2    1    2    0    0  0.00000000000E+00  0.00000000000E+00  0.14315580127E+04  0.21411368794E+04  0.15922024974E+04 0.  0.
        5    1    3    3  502    0  0.51013484532E+03  0.24954953561E+03 -0.34453076671E+02  0.56896540811E+03  0.46999998093E+01 0. -1.
       -5    1    3    3    0  502 -0.51013484532E+03 -0.24954953561E+03  0.14660110893E+04  0.15721714713E+04  0.46999998093E+01 0.  1.
</event>
<event>
 5   0  0.2689675E-04  0.1610763E+04  0.7818609E-02  0.8813963E-01
       -1   -1    0    0    0  501  0.00000000000E+00  0.00000000000E+00  0.14770766370E+04  0.14770766370E+04  0.50400001928E-02 0. -1.
        1   -1    0    0  501    0  0.00000000000E+00  0.00000000000E+00 -0.43913731201E+03  0.43913731204E+03  0.50400001928E-02 0.  1.
    10030    2    1    2    0    0  0.00000000000E+00  0.00000000000E+00  0.10379393250E+04  0.19162139490E+04  0.16107631285E+04 0.  0.
        1    1    3    3  502    0  0.41144735821E+02  0.11240201571E+03  0.14664362535E+04  0.14713131509E+04  0.50400001928E-02 0. -1.
       -1    1    3    3    0  502 -0.41144735821E+02 -0.11240201571E+03 -0.42849692851E+03  0.44490079814E+03  0.50400001928E-02 0.  1.
</event>
<event>
 5   0  0.2730707E-04  0.1854808E+04  0.7818609E-02  0.8677684E-01
        1   -1    0    0  501    0  0.00000000000E+00  0.00000000000E+00  0.86582610237E+03  0.86582610239E+03  0.50400001928E-02 0.  1.
       -1   -1    0    0    0  501  0.00000000000E+00  0.00000000000E+00 -0.99336118312E+03  0.99336118313E+03  0.50400001928E-02 0. -1.
    10030    2    1    2    0    0  0.00000000000E+00  0.00000000000E+00 -0.12753508075E+03  0.18591872855E+04  0.18548078515E+04 0.  0.
        5    1    3    3  502    0  0.50414497100E+03  0.62500297515E+03  0.40129462380E+03  0.89769167080E+03  0.46999998093E+01 0.  1.
       -5    1    3    3    0  502 -0.50414497100E+03 -0.62500297515E+03 -0.52882970454E+03  0.96149561473E+03  0.46999998093E+01 0. -1.
</event>
<event>
 5   0  0.5264308E-04  0.1611757E+04  0.7818609E-02  0.8813358E-01
       -2   -1    0    0    0  501  0.00000000000E+00  0.00000000000E+00  0.52334787759E+03  0.52334787760E+03  0.25500000920E-02 0. -1.
        2   -1    0    0  501    0  0.00000000000E+00  0.00000000000E+00 -0.12409334346E+04  0.12409334346E+04  0.25500000920E-02 0.  1.
    10030    2    1    2    0    0  0.00000000000E+00  0.00000000000E+00 -0.71758555698E+03  0.17642813122E+04  0.16117566556E+04 0.  0.
        3    1    3    3  502    0  0.10676651915E+03  0.95936194405E+02  0.50924257638E+03  0.52908492211E+03  0.10100000352E+00 0. -1.
       -3    1    3    3    0  502 -0.10676651915E+03 -0.95936194405E+02 -0.12268281334E+04  0.12351963901E+04  0.10100000352E+00 0.  1.
</event>
<event>
 5   0  0.5381164E-04  0.1562069E+04  0.7818609E-02  0.8844195E-01
        2   -1    0    0  501    0  0.00000000000E+00  0.00000000000E+00  0.13736614050E+04  0.13736614050E+04  0.25500000920E-02 0. -1.
       -2   -1    0    0    0  501  0.00000000000E+00  0.00000000000E+00 -0.44407962538E+03  0.44407962539E+03  0.25500000920E-02 0.  1.
    10030    2    1    2    0    0  0.00000000000E+00  0.00000000000E+00  0.92958177962E+03  0.18177410304E+04  0.15620691946E+04 0.  0.
        5    1    3    3  502    0 -0.17447839164E+03  0.75981258725E+03  0.51980547173E+03  0.93700463997E+03  0.46999998093E+01 0. -1.
       -5    1    3    3    0  502  0.17447839164E+03 -0.75981258725E+03  0.40977630789E+03  0.88073639042E+03  0.46999998093E+01 0.  1.
</event>
<event>
 5   0  0.1908125E-04  0.1580015E+04  0.7818609E-02  0.8832921E-01
       -3   -1    0    0    0  501  0.00000000000E+00  0.00000000000E+00  0.10725376342E+04  0.10725376390E+04  0.10100000352E+00 0. -1.
        3   -1    0    0  501    0  0.00000000000E+00  0.00000000000E+00 -0.58190191385E+03  0.58190192262E+03  0.10100000352E+00 0.  1.
    10030    2    1    2    0    0  0.00000000000E+00  0.00000000000E+00  0.49063572037E+03  0.16544395616E+04  0.15800148268E+04 0.  0.
        3    1    3    3  502    0  0.13101826710E+03  0.62579729947E+03  0.73120523816E+03  0.97131310959E+03  0.10100000352E+00 0. -1.
       -3    1    3    3    0  502 -0.13101826710E+03 -0.62579729947E+03 -0.24056951779E+03  0.68312645201E+03  0.10100000352E+00 0.  1.
</event>
<event>
 5   0  0.5083831E-04  0.1570637E+04  0.7818609E-02  0.8838793E-01
       -2   -1    0    0    0  501  0.00000000000E+00  0.00000000000E+00  0.37204903936E+03  0.37204903937E+03  0.25500000920E-02 0.  1.
        2   -1    0    0  501    0  0.00000000000E+00  0.00000000000E+00 -0.16576438042E+04  0.16576438042E+04  0.25500000920E-02 0. -1.
    10030    2    1    2    0    0  0.00000000000E+00  0.00000000000E+00 -0.12855947649E+04  0.20296928436E+04  0.15706365397E+04 0.  0.
        4    1    3    3  502    0 -0.67438762416E+03  0.24373357827E+03 -0.10565641758E+04  0.12769237233E+04  0.12699999809E+01 0. -1.
       -4    1    3    3    0  502  0.67438762416E+03 -0.24373357827E+03 -0.22903058911E+03  0.75276912028E+03  0.12699999809E+01 0.  1.
</event>
<event>
 5   0  0.2796994E-04  0.1540386E+04  0.7818609E-02  0.8858032E-01
        1   -1    0    0  501    0  0.00000000000E+00  0.00000000000E+00  0.23402008298E+04  0.23402008298E+04  0.50400001928E-02 0.  1.
       -1   -1    0    0    0  501  0.00000000000E+00  0.00000000000E+00 -0.25348137369E+03  0.25348137374E+03  0.50400001928E-02 0. -1.
    10030    2    1    2    0    0  0.00000000000E+00  0.00000000000E+00  0.20867194561E+04  0.25936822035E+04  0.15403860829E+04 0.  0.
        3    1    3    3  502    0  0.42788591221E+02 -0.40051532315E+03  0.21487168030E+04  0.21861443908E+04  0.10100000352E+00 0.  1.
       -3    1    3    3    0  502 -0.42788591221E+02  0.40051532315E+03 -0.61997346881E+02  0.40753781277E+03  0.10100000352E+00 0. -1.
</event>
<event>
 5   0  0.2763895E-04  0.1619000E+04  0.7818609E-02  0.8808960E-01
       -1   -1    0    0    0  501  0.00000000000E+00  0.00000000000E+00  0.58237639221E+03  0.58237639223E+03  0.50400001928E-02 0.  1.
        1   -1    0    0  501    0  0.00000000000E+00  0.00000000000E+00 -0.11252011040E+04  0.11252011040E+04  0.50400001928E-02 0. -1.
    10030    2    1    2    0    0  0.00000000000E+00  0.00000000000E+00 -0.54282471183E+03  0.17075774963E+04  0.16190003823E+04 0.  0.
        4    1    3    3  502    0  0.24130098456E+03 -0.25740229024E+03  0.49701307208E+03  0.60951268312E+03  0.12699999809E+01 0.  1.
       -4    1    3    3    0  502 -0.24130098456E+03  0.25740229024E+03 -0.10398377839E+04  0.10980648132E+04  0.12699999809E+01 0. -1.
</event>
<event>
 5   0  0.2763895E-04  0.1349884E+04  0.7818609E-02  0.8990916E-01
        1   -1    0    0  501    0  0.00000000000E+00  0.00000000000E+00  0.70136795083E+03  0.70136795085E+03  0.50400001928E-02 0.  1.
       -1   -1    0    0    0  501  0.00000000000E+00  0.00000000000E+00 -0.64951147846E+03  0.64951147848E+03  0.50400001928E-02 0. -1.
    10030    2    1    2    0    0  0.00000000000E+00  0.00000000000E+00  0.51856472371E+02  0.13508794293E+04  0.13498837501E+04 0.  0.
        4    1    3    3  502    0 -0.79663063447E+02  0.67015557051E+03  0.35434161506E+02  0.67580462048E+03  0.12699999809E+01 0. -1.
       -4    1    3    3    0  502  0.79663063447E+02 -0.67015557051E+03  0.16422310865E+02  0.67507480886E+03  0.12699999809E+01 0.  1.
</event>
<event>
 5   0  0.2763895E-04  0.1595597E+04  0.7818609E-02  0.8823258E-01
        1   -1    0    0  501    0  0.00000000000E+00  0.00000000000E+00  0.11797657824E+04  0.11797657824E+04  0.50400001928E-02 0. -1.
       -1   -1    0    0    0  501  0.00000000000E+00  0.00000000000E+00 -0.53949898100E+03  0.53949898102E+03  0.50400001928E-02 0.  1.
    10030    2    1    2    0    0  0.00000000000E+00  0.00000000000E+00  0.64026680139E+03  0.17192647634E+04  0.15955969885E+04 0.  0.
        4    1    3    3  502    0 -0.82420158691E+02  0.75601113499E+03  0.57993273908E+03  0.95638355985E+03  0.12699999809E+01 0. -1.
       -4    1    3    3    0  502  0.82420158691E+02 -0.75601113499E+03  0.60334062311E+02  0.76288120357E+03  0.12699999809E+01 0.  1.
</event>
<event>
 5   0  0.2689675E-04  0.1600283E+04  0.7818609E-02  0.8820374E-01
       -1   -1    0    0    0  501  0.00000000000E+00  0.00000000000E+00  0.46784468468E+03  0.46784468471E+03  0.50400001928E-02 0.  1.
        1   -1    0    0  501    0  0.00000000000E+00  0.00000000000E+00 -0.13684593431E+04  0.13684593432E+04  0.50400001928E-02 0. -1.
    10030    2    1    2    0    0  0.00000000000E+00  0.00000000000E+00 -0.90061465846E+03  0.18363040279E+04  0.16002830124E+04 0.  0.
        1    1    3    3  502    0 -0.72215469520E+03  0.28942666027E+03 -0.66483289268E+03  0.10233660004E+04  0.50400001928E-02 0. -1.
       -1    1    3    3    0  502  0.72215469520E+03 -0.28942666027E+03 -0.23578176578E+03  0.81293802751E+03  0.50400001928E-02 0.  1.
</event>
<event>
 5   0  0.2730707E-04  0.1638428E+04  0.7818609E-02  0.8797282E-01
        1   -1    0    0  501    0  0.00000000000E+00  0.00000000000E+00  0.96304008851E+03  0.96304008852E+03  0.50400001928E-02 0. -1.
       -1   -1    0    0    0  501  0.00000000000E+00  0.00000000000E+00 -0.69686794946E+03  0.69686794948E+03  0.50400001928E-02 0.  1.
    10030    2    1    2    0    0  0.00000000000E+00  0.00000000000E+00  0.26617213905E+03  0.16599080380E+04  0.16384282368E+04 0.  0.
        5    1    3    3  502    0 -0.76953331376E+03 -0.68833910679E+02  0.40899826702E+03  0.87419751811E+03  0.46999998093E+01 0. -1.
       -5    1    3    3    0  502  0.76953331376E+03  0.68833910679E+02 -0.14282612798E+03  0.78571051990E+03  0.46999998093E+01 0.  1.
</event>
<event>
 5   0  0.5083831E-04  0.1599760E+04  0.7818609E-02  0.8820695E-01
        2   -1    0    0  501    0  0.00000000000E+00  0.00000000000E+00  0.82497675863E+03  0.82497675863E+03  0.25500000920E-02 0.  1.
       -2   -1    0    0    0  501  0.00000000000E+00  0.00000000000E+00 -0.77554698154E+03  0.77554698154E+03  0.25500000920E-02 0. -1.
    10030    2    1    2    0    0  0.00000000000E+00  0.00000000000E+00  0.49429777089E+02  0.16005237402E+04  0.15997602758E+04 0.  0.
        4    1    3    3  502    0 -0.17114314170E+03 -0.17219821523E+03 -0.73779345489E+03  0.77671294263E+03  0.12699999809E+01 0. -1.
       -4    1    3    3    0  502  0.17114314170E+03  0.17219821523E+03  0.78722323198E+03  0.82381079754E+03  0.12699999809E+01 0.  1.
</event>
<event>
 5   0  0.2730707E-04  0.1603816E+04  0.7818609E-02  0.8818207E-01
       -1   -1    0    0    0  501  0.00000000000E+00  0.00000000000E+00  0.54093872946E+03  0.54093872948E+03  0.50400001928E-02 0.  1.
        1   -1    0    0  501    0  0.00000000000E+00  0.00000000000E+00 -0.11887779631E+04  0.11887779631E+04  0.50400001928E-02 0. -1.
    10030    2    1    2    0    0  0.00000000000E+00  0.00000000000E+00 -0.64783923367E+03  0.17297166926E+04  0.16038155019E+04 0.  0.
        5    1    3    3  502    0 -0.11502404820E+03 -0.15767776013E+03  0.51491651925E+03  0.55068495485E+03  0.46999998093E+01 0.  1.
       -5    1    3    3    0  502  0.11502404820E+03  0.15767776013E+03 -0.11627557529E+04  0.11790317378E+04  0.46999998093E+01 0. -1.
</event>
<event>
 5   0  0.5083831E-04  0.1604495E+04  0.7818609E-02  0.8817792E-01
       -2   -1    0    0    0  501  0.00000000000E+00  0.00000000000E+00  0.11887953657E+04  0.11887953657E+04  0.25500000920E-02 0.  1.
        2   -1    0    0  501    0  0.00000000000E+00  0.00000000000E+00 -0.54138903256E+03  0.54138903257E+03  0.25500000920E-02 0. -1.
    10030    2    1    2    0    0  0.00000000000E+00  0.00000000000E+00  0.64740633310E+03  0.17301843982E+04  0.16044946531E+04 0.  0.
        4    1    3    3  502    0 -0.25679568860E+03 -0.72449915499E+03  0.76023419878E+02  0.77241454190E+03  0.12699999809E+01 0. -1.
       -4    1    3    3    0  502  0.25679568860E+03  0.72449915499E+03  0.57138291322E+03  0.95776985633E+03  0.12699999809E+01 0.  1.
</event>
<event>
 5   0  0.2689675E-04  0.1484998E+04  0.7818609E-02  0.8894491E-01
        1   -1    0    0  501    0  0.00000000000E+00  0.00000000000E+00  0.65824560262E+03  0.65824560264E+03  0.50400001928E-02 0.  1.
       -1   -1    0    0    0  501  0.00000000000E+00  0.00000000000E+00 -0.83753633047E+03  0.83753633049E+03  0.50400001928E-02 0. -1.
    10030    2    1    2    0    0  0.00000000000E+00  0.00000000000E+00 -0.17929072785E+03  0.14957819331E+04  0.14849977867E+04 0.  0.
        1    1    3    3  502    0  0.10579991927E+03 -0.37031353438E+02  0.64967377984E+03  0.65927305745E+03  0.50400001928E-02 0.  1.
       -1    1    3    3    0  502 -0.10579991927E+03  0.37031353438E+02 -0.82896450769E+03  0.83650887568E+03  0.50400001928E-02 0. -1.
</event>
<event>
 5   0  0.5131239E-04  0.1587308E+04  0.7818609E-02  0.8828383E-01
        2   -1    0    0  501    0  0.00000000000E+00  0.00000000000E+00  0.18370817705E+04  0.18370817705E+04  0.25500000920E-02 0.  1.
       -2   -1    0    0    0  501  0.00000000000E+00  0.00000000000E+00 -0.34287347214E+03  0.34287347215E+03  0.25500000920E-02 0. -1.
    10030    2    1    2    0    0  0.00000000000E+00  0.00000000000E+00  0.14942082984E+04  0.21799552427E+04  0.15873079163E+04 0.  0.
        1    1    3    3  502    0  0.21784677343E+03 -0.73308455204E+03  0.45571598248E+03  0.89025121951E+03  0.50400001928E-02 0. -1.
       -1    1    3    3    0  502 -0.21784677343E+03  0.73308455204E+03  0.10384923159E+04  0.12897040231E+04  0.50400001928E-02 0.  1.
</event>
<event>
 5   0  0.2796994E-04  0.1578813E+04  0.7818609E-02  0.8833671E-01
        1   -1    0    0  501    0  0.00000000000E+00  0.00000000000E+00  0.72312543001E+03  0.72312543003E+03  0.50400001928E-02 0.  1.
       -1   -1    0    0    0  501  0.00000000000E+00  0.00000000000E+00 -0.86176273281E+03  0.86176273283E+03  0.50400001928E-02 0. -1.
    10030    2    1    2    0    0  0.00000000000E+00  0.00000000000E+00 -0.13863730280E+03  0.15848881629E+04  0.15788129044E+04 0.  0.
        3    1    3    3  502    0  0.34053847817E+03 -0.37555533342E+03  0.53811662221E+03  0.73930898336E+03  0.10100000352E+00 0.  1.
       -3    1    3    3    0  502 -0.34053847817E+03  0.37555533342E+03 -0.67675392501E+03  0.84557917950E+03  0.10100000352E+00 0. -1.
</event>
<event>
 5   0  0.5315984E-04  0.1583695E+04  0.7818609E-02  0.8830628E-01
        2   -1    0    0  501    0  0.00000000000E+00  0.00000000000E+00  0.15216635846E+04  0.15216635846E+04  0.25500000920E-02 0.  1.
       -2   -1    0    0    0  501  0.00000000000E+00  0.00000000000E+00 -0.41206355633E+03  0.41206355634E+03  0.25500000920E-02 0. -1.
    10030    2    1    2    0    0  0.00000000000E+00  0.00000000000E+00  0.11096000282E+04  0.19337271409E+04  0.15836945516E+04 0.  0.
        2    1    3    3  502    0 -0.15275466867E+03  0.20683361354E+03  0.14692702568E+04  0.14915995509E+04  0.25500000920E-02 0.  1.
       -2    1    3    3    0  502  0.15275466867E+03 -0.20683361354E+03 -0.35967022863E+03  0.44212759002E+03  0.25500000920E-02 0. -1.
</event>
<event>
 5   0  0.2689675E-04  0.1627990E+04  0.7818609E-02  0.8803535E-01
       -1   -1    0    0    0  501  0.00000000000E+00  0.00000000000E+00  0.10781010560E+04  0.10781010560E+04  0.50400001928E-02 0.  1.
        1   -1    0    0  501    0  0.00000000000E+00  0.00000000000E+00 -0.61458802334E+03  0.61458802336E+03  0.50400001928E-02 0. -1.
    10030    2    1    2    0    0  0.00000000000E+00  0.00000000000E+00  0.46351303263E+03  0.16926890793E+04  0.16279901682E+04 0.  0.
        1    1    3    3  502    0  0.44793873658E+03 -0.30953620792E+03  0.86088714820E+03  0.10186208606E+04  0.50400001928E-02 0.  1.
       -1    1    3    3    0  502 -0.44793873658E+03  0.30953620792E+03 -0.39737411557E+03  0.67406821872E+03  0.50400001928E-02 0. -1.
</event>
<event>
 5   0  0.2796994E-04  0.1596274E+04  0.7818609E-02  0.8822840E-01
       -1   -1    0    0    0  501  0.00000000000E+00  0.00000000000E+00  0.12403393869E+04  0.12403393870E+04  0.50400001928E-02 0.  1.
        1   -1    0    0  501    0  0.00000000000E+00  0.00000000000E+00 -0.51358764215E+03  0.51358764218E+03  0.50400001928E-02 0. -1.
    10030    2    1    2    0    0  0.00000000000E+00  0.00000000000E+00  0.72675174479E+03  0.17539270291E+04  0.15962743890E+04 0.  0.
        3    1    3    3  502    0 -0.35429336960E+03 -0.47447926197E+03  0.95136145906E+03  0.11205993922E+04  0.10100000352E+00 0.  1.
       -3    1    3    3    0  502  0.35429336960E+03  0.47447926197E+03 -0.22460971427E+03  0.63332763695E+03  0.10100000352E+00 0. -1.
</event>
<event>
 5   0  0.2689675E-04  0.1636673E+04  0.7818609E-02  0.8798330E-01
       -1   -1    0    0    0  501  0.00000000000E+00  0.00000000000E+00  0.14019167064E+04  0.14019167064E+04  0.50400001928E-02 0.  1.
        1   -1    0    0  501    0  0.00000000000E+00  0.00000000000E+00 -0.47768489423E+03  0.47768489426E+03  0.50400001928E-02 0. -1.
    10030    2    1    2    0    0  0.00000000000E+00  0.00000000000E+00  0.92423181218E+03  0.18796016007E+04  0.16366727635E+04 0.  0.
        1    1    3    3  502    0  0.21143490600E+03 -0.42191628527E+03 -0.30566359530E+03  0.56227066860E+03  0.50400001928E-02 0. -1.
       -1    1    3    3    0  502 -0.21143490600E+03  0.42191628527E+03  0.12298954075E+04  0.13173309321E+04  0.50400001928E-02 0.  1.
</event>
<event>
 5   0  0.5381164E-04  0.1584389E+04  0.7818609E-02  0.8830196E-01
       -2   -1    0    0    0  501  0.00000000000E+00  0.00000000000E+00  0.72648025616E+03  0.72648025616E+03  0.25500000920E-02 0. -1.
        2   -1    0    0  501    0  0.00000000000E+00  0.00000000000E+00 -0.86385319158E+03  0.86385319158E+03  0.25500000920E-02 0.  1.
    10030    2    1    2    0    0  0.00000000000E+00  0.00000000000E+00 -0.13737293542E+03  0.15903334477E+04  0.15843892046E+04 0.  0.
        5    1    3    3  502    0 -0.11491693755E+03 -0.57735507562E+03  0.46340177249E+03  0.74920496437E+03  0.46999998093E+01 0. -1.
       -5    1    3    3    0  502  0.11491693755E+03  0.57735507562E+03 -0.60077470792E+03  0.84112848338E+03  0.46999998093E+01 0.  1.
</event>
<event>
 5   0  0.5264308E-04  0.1588364E+04  0.7818609E-02  0.8827729E-01
       -2   -1    0    0    0  501  0.00000000000E+00  0.00000000000E+00  0.32211416732E+03  0.32211416733E+03  0.25500000920E-02 0.  1.
        2   -1    0    0  501    0  0.00000000000E+00  0.00000000000E+00 -0.19580790495E+04  0.19580790495E+04  0.25500000920E-02 0. -1.
    10030    2    1    2    0    0  0.00000000000E+00  0.00000000000E+00 -0.16359648822E+04  0.22801932169E+04  0.15883639414E+04 0.  0.
        3    1    3    3  502    0 -0.71276416930E+03  0.24511268691E+03 -0.11771941013E+04  0.13978193562E+04  0.10100000352E+00 0. -1.
       -3    1    3    3    0  502  0.71276416930E+03 -0.24511268691E+03 -0.45877078094E+03  0.88237386065E+03  0.10100000352E+00 0.  1.
</event>
<event>
 5   0  0.5131239E-04  0.1604471E+04  0.7818609E-02  0.8817806E-01
       -2   -1    0    0    0  501  0.00000000000E+00  0.00000000000E+00  0.45461645274E+03  0.45461645274E+03  0.25500000920E-02 0.  1.
        2   -1    0    0  501    0  0.00000000000E+00  0.00000000000E+00 -0.14156579529E+04  0.14156579529E+04  0.25500000920E-02 0. -1.
    10030    2    1    2    0    0  0.00000000000E+00  0.00000000000E+00 -0.96104150012E+03  0.18702744056E+04  0.16044705006E+04 0.  0.
        1    1    3    3  502    0  0.45742523465E+03  0.36121102698E+03  0.16204505584E+03  0.60495442097E+03  0.50400001928E-02 0.  1.
       -1    1    3    3    0  502 -0.45742523465E+03 -0.36121102698E+03 -0.11230865560E+04  0.12653199846E+04  0.50400001928E-02 0. -1.
</event>
<event>
 5   0  0.2649086E-04  0.1376127E+04  0.7818609E-02  0.8971282E-01
       -1   -1    0    0    0  501  0.00000000000E+00  0.00000000000E+00  0.43649767502E+03  0.43649767505E+03  0.50400001928E-02 0. -1.
        1   -1    0    0  501    0  0.00000000000E+00  0.00000000000E+00 -0.10846144977E+04  0.10846144977E+04  0.50400001928E-02 0.  1.
    10030    2    1    2    0    0  0.00000000000E+00  0.00000000000E+00 -0.64811682272E+03  0.15211121728E+04  0.13761274746E+04 0.  0.
        2    1    3    3  502    0 -0.60029023329E+03 -0.20843135163E+03 -0.61575480898E+03  0.88484234602E+03  0.25500000920E-02 0.  1.
       -2    1    3    3    0  502  0.60029023329E+03  0.20843135163E+03 -0.32362013737E+02  0.63626982677E+03  0.25500000920E-02 0. -1.
</event>
<event>
 5   0  0.2689675E-04  0.1599214E+04  0.7818609E-02  0.8821031E-01
       -1   -1    0    0    0  501  0.00000000000E+00  0.00000000000E+00  0.43124651892E+03  0.43124651895E+03  0.50400001928E-02 0. -1.
        1   -1    0    0  501    0  0.00000000000E+00  0.00000000000E+00 -0.14826131206E+04  0.14826131206E+04  0.50400001928E-02 0.  1.
    10030    2    1    2    0    0  0.00000000000E+00  0.00000000000E+00 -0.10513666017E+04  0.19138596395E+04  0.15992144912E+04 0.  0.
        1    1    3    3  502    0 -0.56682248210E+03  0.54115606106E+03 -0.71579008211E+03  0.10613637691E+04  0.50400001928E-02 0. -1.
       -1    1    3    3    0  502  0.56682248210E+03 -0.54115606106E+03 -0.33557651955E+03  0.85249587045E+03  0.50400001928E-02 0.  1.
</event>
<event>
 5   0  0.5381164E-04  0.1604088E+04  0.7818609E-02  0.8818041E-01
       -2   -1    0    0    0  501  0.00000000000E+00  0.00000000000E+00  0.58920184446E+03  0.58920184447E+03  0.25500000920E-02 0. -1.
        2   -1    0    0  501    0  0.00000000000E+00  0.00000000000E+00 -0.10917728839E+04  0.10917728839E+04  0.25500000920E-02 0.  1.
    10030    2    1    2    0    0  0.00000000000E+00  0.00000000000E+00 -0.50257103943E+03  0.16809747284E+04  0.16040880237E+04 0.  0.
        5    1    3    3  502    0 -0.12064895968E+03 -0.24674403324E+03  0.53836682291E+03  0.60440029403E+03  0.46999998093E+01 0. -1.
       -5    1    3    3    0  502  0.12064895968E+03  0.24674403324E+03 -0.10409378623E+04  0.10765744343E+04  0.46999998093E+01 0.  1.
</event>
<event>
 5   0  0.2730707E-04  0.1593635E+04  0.7818609E-02  0.8824468E-01
        1   -1    0    0  501    0  0.00000000000E+00  0.00000000000E+00  0.93300802716E+03  0.93300802718E+03  0.50400001928E-02 0.  1.
       -1   -1    0    0    0  501  0.00000000000E+00  0.00000000000E+00 -0.68050682413E+03  0.68050682415E+03  0.50400001928E-02 0. -1.
    10030    2    1    2    0    0  0.00000000000E+00  0.00000000000E+00  0.25250120304E+03  0.16135148513E+04  0.15936352525E+04 0.  0.
        5    1    3    3  502    0 -0.36056149578E+03  0.63933700119E+03  0.44018271976E+03  0.85588510333E+03  0.46999998093E+01 0.  1.
       -5    1    3    3    0  502  0.36056149578E+03 -0.63933700119E+03 -0.18768151672E+03  0.75762974799E+03  0.46999998093E+01 0. -1.
</event>
<event>
 5   0  0.2763895E-04  0.1655864E+04  0.7818609E-02  0.8786945E-01
        1   -1    0    0  501    0  0.00000000000E+00  0.00000000000E+00  0.12034711526E+04  0.12034711526E+04  0.50400001928E-02 0.  1.
       -1   -1    0    0    0  501  0.00000000000E+00  0.00000000000E+00 -0.56957885158E+03  0.56957885160E+03  0.50400001928E-02 0. -1.
    10030    2    1    2    0    0  0.00000000000E+00  0.00000000000E+00  0.63389230100E+03  0.17730500042E+04  0.16558643870E+04 0.  0.
        4    1    3    3  502    0  0.51692667986E+03  0.14020863973E+03 -0.35908081640E+03  0.64483509568E+03  0.12699999809E+01 0. -1.
       -4    1    3    3    0  502 -0.51692667986E+03 -0.14020863973E+03  0.99297311739E+03  0.11282149085E+04  0.12699999809E+01 0.  1.
</event>
<event>
 5   0  0.5381164E-04  0.1597838E+04  0.7818609E-02  0.8821877E-01
       -2   -1    0    0    0  501  0.00000000000E+00  0.00000000000E+00  0.56044451091E+03  0.56044451092E+03  0.25500000920E-02 0. -1.
        2   -1    0    0  501    0  0.00000000000E+00  0.00000000000E+00 -0.11388665768E+04  0.11388665768E+04  0.25500000920E-02 0.  1.
    10030    2    1    2    0    0  0.00000000000E+00  0.00000000000E+00 -0.57842206588E+03  0.16993110877E+04  0.15978379413E+04 0.  0.
        5    1    3    3  502    0 -0.39102644995E+03 -0.36837231220E+03 -0.91807494244E+03  0.10637121485E+04  0.46999998093E+01 0.  1.
       -5    1    3    3    0  502  0.39102644995E+03  0.36837231220E+03  0.33965287656E+03  0.63559893920E+03  0.46999998093E+01 0. -1.
</event>
<event>
 5   0  0.1908125E-04  0.1574990E+04  0.7818609E-02  0.8836062E-01
        3   -1    0    0  501    0  0.00000000000E+00  0.00000000000E+00  0.57104125388E+03  0.57104126281E+03  0.10100000352E+00 0. -1.
       -3   -1    0    0    0  501  0.00000000000E+00  0.00000000000E+00 -0.10859954797E+04  0.10859954844E+04  0.10100000352E+00 0.  1.
    10030    2    1    2    0    0  0.00000000000E+00  0.00000000000E+00 -0.51495422586E+03  0.16570367472E+04  0.15749898181E+04 0.  0.
        4    1    3    3  502    0 -0.45087841834E+03 -0.64475600065E+03 -0.29307723679E+03  0.83958175786E+03  0.12699999809E+01 0. -1.
       -4    1    3    3    0  502  0.45087841834E+03  0.64475600065E+03 -0.22187698908E+03  0.81745498939E+03  0.12699999809E+01 0.  1.
</event>
<event>
 5   0  0.5381164E-04  0.1515313E+04  0.7818609E-02  0.8874333E-01
       -2   -1    0    0    0  501  0.00000000000E+00  0.00000000000E+00  0.68682214639E+03  0.68682214639E+03  0.25500000920E-02 0. -1.
        2   -1    0    0  501    0  0.00000000000E+00  0.00000000000E+00 -0.83579652178E+03  0.83579652179E+03  0.25500000920E-02 0.  1.
    10030    2    1    2    0    0  0.00000000000E+00  0.00000000000E+00 -0.14897437539E+03  0.15226186682E+04  0.15153132495E+04 0.  0.
        5    1    3    3  502    0  0.44968608582E+03 -0.43662757306E+03 -0.50216842168E+03  0.80315404940E+03  0.46999998093E+01 0.  1.
       -5    1    3    3    0  502 -0.44968608582E+03  0.43662757306E+03  0.35319404629E+03  0.71946461878E+03  0.46999998093E+01 0. -1.
</event>
<event>
 5   0  0.5083831E-04  0.1559167E+04  0.7818609E-02  0.8846034E-01
        2   -1    0    0  501    0  0.00000000000E+00  0.00000000000E+00  0.65413920589E+03  0.65413920589E+03  0.25500000920E-02 0. -1.
       -2   -1    0    0    0  501  0.00000000000E+00  0.00000000000E+00 -0.92908429239E+03  0.92908429239E+03  0.25500000920E-02 0.  1.
    10030    2    1    2    0    0  0.00000000000E+00  0.00000000000E+00 -0.27494508650E+03  0.15832234983E+04  0.15591670356E+04 0.  0.
        4    1    3    3  502    0  0.63941164746E+03 -0.42826046529E+03 -0.11074803120E+02  0.76966131850E+03  0.12699999809E+01 0. -1.
       -4    1    3    3    0  502 -0.63941164746E+03  0.42826046529E+03 -0.26387028338E+03  0.81356217979E+03  0.12699999809E+01 0.  1.
</event>
<event>
 5   0  0.5131239E-04  0.1612590E+04  0.7818609E-02  0.8812851E-01
       -2   -1    0    0    0  501  0.00000000000E+00  0.00000000000E+00  0.34915854103E+03  0.34915854104E+03  0.25500000920E-02 0.  1.
        2   -1    0    0  501    0  0.00000000000E+00  0.00000000000E+00 -0.18619384724E+04  0.18619384724E+04  0.25500000920E-02 0. -1.
    10030    2    1    2    0    0  0.00000000000E+00  0.00000000000E+00 -0.15127799314E+04  0.22110970135E+04  0.16125901160E+04 0.  0.
        1    1    3    3  502    0  0.63968428933E+03  0.40569605169E+03 -0.37758006664E+03  0.84637579308E+03  0.50400001928E-02 0.  1.
       -1    1    3    3    0  502 -0.63968428933E+03 -0.40569605169E+03 -0.11351998648E+04  0.13647212204E+04  0.50400001928E-02 0. -1.
</event>
<event>
 5   0  0.5131239E-04  0.1624736E+04  0.7818609E-02  0.8805494E-01
        2   -1    0    0  501    0  0.00000000000E+00  0.00000000000E+00  0.79427777825E+03  0.79427777825E+03  0.25500000920E-02 0.  1.
       -2   -1    0    0    0  501  0.00000000000E+00  0.00000000000E+00 -0.83087055564E+03  0.83087055564E+03  0.25500000920E-02 0. -1.
    10030    2    1    2    0    0  0.00000000000E+00  0.00000000000E+00 -0.36592777393E+02  0.16251483339E+04  0.16247363096E+04 0.  0.
        1    1    3    3  502    0  0.36410974423E+03 -0.29337579527E+03 -0.68276655741E+03  0.82753576058E+03  0.50400001928E-02 0. -1.
       -1    1    3    3    0  502 -0.36410974423E+03  0.29337579527E+03  0.64617378002E+03  0.79761257331E+03  0.50400001928E-02 0.  1.
</event>
<event>
 5   0  0.2649086E-04  0.1604651E+04  0.7818609E-02  0.8817696E-01
       -1   -1    0    0    0  501  0.00000000000E+00  0.00000000000E+00  0.34757978958E+03  0.34757978962E+03  0.50400001928E-02 0.  1.
        1   -1    0    0  501    0  0.00000000000E+00  0.00000000000E+00 -0.18520235366E+04  0.18520235366E+04  0.50400001928E-02 0. -1.
    10030    2    1    2    0    0  0.00000000000E+00  0.00000000000E+00 -0.15044437470E+04  0.21996033262E+04  0.16046506800E+04 0.  0.
        2    1    3    3  502    0 -0.31582083130E+02 -0.15854101597E+03 -0.18294684944E+04  0.18365967586E+04  0.25500000920E-02 0. -1.
       -2    1    3    3    0  502  0.31582083130E+02  0.15854101597E+03  0.32502474738E+03  0.36300656762E+03  0.25500000920E-02 0.  1.
</event>
<event>
 5   0  0.5131239E-04  0.1570673E+04  0.7818609E-02  0.8838770E-01
        2   -1    0    0  501    0  0.00000000000E+00  0.00000000000E+00  0.56342900075E+03  0.56342900076E+03  0.25500000920E-02 0.  1.
       -2   -1    0    0    0  501  0.00000000000E+00  0.00000000000E+00 -0.10946426158E+04  0.10946426158E+04  0.25500000920E-02 0. -1.
    10030    2    1    2    0    0  0.00000000000E+00  0.00000000000E+00 -0.53121361503E+03  0.16580716165E+04  0.15706729707E+04 0.  0.
        1    1    3    3  502    0 -0.59586216043E+03 -0.48798443731E+02 -0.80317783000E+03  0.10012630169E+04  0.50400001928E-02 0. -1.
       -1    1    3    3    0  502  0.59586216043E+03  0.48798443731E+02  0.27196421497E+03  0.65680859966E+03  0.50400001928E-02 0.  1.
</event>
<event>
 5   0  0.2730707E-04  0.1484922E+04  0.7818609E-02  0.8894542E-01
        1   -1    0    0  501    0  0.00000000000E+00  0.00000000000E+00  0.32840508048E+03  0.32840508052E+03  0.50400001928E-02 0.  1.
       -1   -1    0    0    0  501  0.00000000000E+00  0.00000000000E+00 -0.16785611981E+04  0.16785611981E+04  0.50400001928E-02 0. -1.
    10030    2    1    2    0    0  0.00000000000E+00  0.00000000000E+00 -0.13501561177E+04  0.20069662787E+04  0.14849215810E+04 0.  0.
        5    1    3    3  502    0  0.34138393520E+02  0.27287738629E+03  0.25700961759E+03  0.37643529509E+03  0.46999998093E+01 0.  1.
       -5    1    3    3    0  502 -0.34138393520E+02 -0.27287738629E+03 -0.16071657352E+04  0.16305309836E+04  0.46999998093E+01 0. -1.
</event>
<event>
 5   0  0.2796994E-04  0.1655433E+04  0.7818609E-02  0.8787199E-01
       -1   -1    0    0    0  501  0.00000000000E+00  0.00000000000E+00  0.37412954156E+03  0.37412954159E+03  0.50400001928E-02 0.  1.
        1   -1    0    0  501    0  0.00000000000E+00  0.00000000000E+00 -0.18312240185E+04  0.18312240186E+04  0.50400001928E-02 0. -1.
    10030    2    1    2    0    0  0.00000000000E+00  0.00000000000E+00 -0.14570944770E+04  0.22053535601E+04  0.16554334811E+04 0.  0.
        3    1    3    3  502    0  0.65346947301E+03 -0.16616305260E+03 -0.88981118167E+02  0.68011040412E+03  0.10100000352E+00 0.  1.
       -3    1    3    3    0  502 -0.65346947301E+03  0.16616305260E+03 -0.13681133588E+04  0.15252431560E+04  0.10100000352E+00 0. -1.
</event>
<event>
 5   0  0.5083831E-04  0.1614270E+04  0.7818609E-02  0.8811829E-01
        2   -1    0    0  501    0  0.00000000000E+00  0.00000000000E+00  0.91446244741E+03  0.91446244742E+03  0.25500000920E-02 0. -1.
       -2   -1    0    0    0  501  0.00000000000E+00  0.00000000000E+00 -0.71240461202E+03  0.71240461203E+03  0.25500000920E-02 0.  1.
    10030    2    1    2    0    0  0.00000000000E+00  0.00000000000E+00  0.20205783539E+03  0.16268670594E+04  0.16142704421E+04 0.  0.
        4    1    3    3  502    0  0.79622078100E+03  0.38928645863E+02  0.22843805680E+03  0.82925781893E+03  0.12699999809E+01 0. -1.
       -4    1    3    3    0  502 -0.79622078100E+03 -0.38928645863E+02 -0.26380221414E+02  0.79760924051E+03  0.12699999809E+01 0.  1.
</event>
<event>
 5   0  0.2689675E-04  0.1300462E+04  0.7818609E-02  0.9029199E-01
        1   -1    0    0  501    0  0.00000000000E+00  0.00000000000E+00  0.14163442941E+04  0.14163442941E+04  0.50400001928E-02 0. -1.
       -1   -1    0    0    0  501  0.00000000000E+00  0.00000000000E+00 -0.29851505640E+03  0.29851505644E+03  0.50400001928E-02 0.  1.
    10030    2    1    2    0    0  0.00000000000E+00  0.00000000000E+00  0.11178292377E+04  0.17148593505E+04  0.13004616055E+04 0.  0.
        1    1    3    3  502    0 -0.20945684199E+03 -0.25133449548E+03  0.12998985176E+04  0.13404392389E+04  0.50400001928E-02 0. -1.
       -1    1    3    3    0  502  0.20945684199E+03  0.25133449548E+03 -0.18206927987E+03  0.37442011160E+03  0.50400001928E-02 0.  1.
</event>
<event>
 5   0  0.5264308E-04  0.1598410E+04  0.7818609E-02  0.8821526E-01
        2   -1    0    0  501    0  0.00000000000E+00  0.00000000000E+00  0.26113547774E+04  0.26113547774E+04  0.25500000920E-02 0.  1.
       -2   -1    0    0    0  501  0.00000000000E+00  0.00000000000E+00 -0.24459654440E+03  0.24459654442E+03  0.25500000920E-02 0. -1.
    10030    2    1    2    0    0  0.00000000000E+00  0.00000000000E+00  0.23667582330E+04  0.28559513218E+04  0.15984096531E+04 0.  0.
        3    1    3    3  502    0 -0.45073895586E+03  0.18206808805E+03  0.23168209055E+04  0.23672713223E+04  0.10100000352E+00 0.  1.
       -3    1    3    3    0  502  0.45073895586E+03 -0.18206808805E+03  0.49937327454E+02  0.48867999948E+03  0.10100000352E+00 0. -1.
</event>
<event>
 5   0  0.5264308E-04  0.1473563E+04  0.7818609E-02  0.8902226E-01
        2   -1    0    0  501    0  0.00000000000E+00  0.00000000000E+00  0.45616435839E+03  0.45616435840E+03  0.25500000920E-02 0.  1.
       -2   -1    0    0    0  501  0.00000000000E+00  0.00000000000E+00 -0.11900247144E+04  0.11900247144E+04  0.25500000920E-02 0. -1.
    10030    2    1    2    0    0  0.00000000000E+00  0.00000000000E+00 -0.73386035598E+03  0.16461890728E+04  0.14735628393E+04 0.  0.
        3    1    3    3  502    0  0.63396295943E+03  0.37419216582E+03 -0.40077885286E+03  0.83818405496E+03  0.10100000352E+00 0. -1.
       -3    1    3    3    0  502 -0.63396295943E+03 -0.37419216582E+03 -0.33308150312E+03  0.80800501781E+03  0.10100000352E+00 0.  1.
</event>
<event>
 5   0  0.5264308E-04  0.1597334E+04  0.7818609E-02  0.8822187E-01
       -2   -1    0    0    0  501  0.00000000000E+00  0.00000000000E+00  0.47557818781E+03  0.47557818782E+03  0.25500000920E-02 0. -1.
        2   -1    0    0  501    0  0.00000000000E+00  0.00000000000E+00 -0.13412494960E+04  0.13412494960E+04  0.25500000920E-02 0.  1.
    10030    2    1    2    0    0  0.00000000000E+00  0.00000000000E+00 -0.86567130819E+03  0.18168276838E+04  0.15973340348E+04 0.  0.
        3    1    3    3  502    0  0.25414400448E+03  0.35761259279E+03 -0.11919194363E+04  0.12700975924E+04  0.10100000352E+00 0.  1.
       -3    1    3    3    0  502 -0.25414400448E+03 -0.35761259279E+03  0.32624812809E+03  0.54673009138E+03  0.10100000352E+00 0. -1.
</event>
<event>
 5   0  0.2649086E-04  0.1604624E+04  0.7818609E-02  0.8817713E-01
        1   -1    0    0  501    0  0.00000000000E+00  0.00000000000E+00  0.10656387340E+04  0.10656387340E+04  0.50400001928E-02 0.  1.
       -1   -1    0    0    0  501  0.00000000000E+00  0.00000000000E+00 -0.60405488990E+03  0.60405488992E+03  0.50400001928E-02 0. -1.
    10030    2    1    2    0    0  0.00000000000E+00  0.00000000000E+00  0.46158384408E+03  0.16696936239E+04  0.16046236794E+04 0.  0.
        2    1    3    3  502    0  0.57418165107E+03  0.23130360413E+03  0.76189982244E+03  0.98167065004E+03  0.25500000920E-02 0.  1.
       -2    1    3    3    0  502 -0.57418165107E+03 -0.23130360413E+03 -0.30031597836E+03  0.68802297387E+03  0.25500000920E-02 0. -1.
</event>
<event>
 5   0  0.5381164E-04  0.1596600E+04  0.7818609E-02  0.8822639E-01
        2   -1    0    0  501    0  0.00000000000E+00  0.00000000000E+00  0.11103425936E+04  0.11103425936E+04  0.25500000920E-02 0.  1.
       -2   -1    0    0    0  501  0.00000000000E+00  0.00000000000E+00 -0.57395182440E+03  0.57395182440E+03  0.25500000920E-02 0. -1.
    10030    2    1    2    0    0  0.00000000000E+00  0.00000000000E+00  0.53639076924E+03  0.16842944180E+04  0.15966003349E+04 0.  0.
        5    1    3    3  502    0 -0.75353491134E+03  0.19926739704E+02  0.54540028163E+03  0.93042758706E+03  0.46999998093E+01 0.  1.
       -5    1    3    3    0  502  0.75353491134E+03 -0.19926739704E+02 -0.90095123838E+01  0.75386683099E+03  0.46999998093E+01 0. -1.
</event>
<event>
 5   0  0.5381164E-04  0.1593801E+04  0.7818609E-02  0.8824365E-01
       -2   -1    0    0    0  501  0.00000000000E+00  0.00000000000E+00  0.58103157684E+03  0.58103157685E+03  0.25500000920E-02 0.  1.
        2   -1    0    0  501    0  0.00000000000E+00  0.00000000000E+00 -0.10929708842E+04  0.10929708842E+04  0.25500000920E-02 0. -1.
    10030    2    1    2    0    0  0.00000000000E+00  0.00000000000E+00 -0.51193930734E+03  0.16740024610E+04  0.15938012377E+04 0.  0.
        5    1    3    3  502    0  0.67134297939E+03 -0.32555338980E+03  0.38011533092E+02  0.74709662845E+03  0.46999998093E+01 0.  1.
       -5    1    3    3    0  502 -0.67134297939E+03  0.32555338980E+03 -0.54995084043E+03  0.92690583259E+03  0.46999998093E+01 0. -1.
</event>
<event>
 5   0  0.5083831E-04  0.1607172E+04  0.7818609E-02  0.8816154E-01
       -2   -1    0    0    0  501  0.00000000000E+00  0.00000000000E+00  0.11062813468E+04  0.11062813468E+04  0.25500000920E-02 0.  1.
        2   -1    0    0  501    0  0.00000000000E+00  0.00000000000E+00 -0.58371261290E+03  0.58371261290E+03  0.25500000920E-02 0. -1.
    10030    2    1    2    0    0  0.00000000000E+00  0.00000000000E+00  0.52256873392E+03  0.16899939597E+04  0.16071718957E+04 0.  0.
        4    1    3    3  502    0  0.67077668998E+03 -0.35663636141E+03  0.53673358010E+03  0.93016956036E+03  0.12699999809E+01 0.  1.
       -4    1    3    3    0  502 -0.67077668998E+03  0.35663636141E+03 -0.14164846187E+02  0.75982439936E+03  0.12699999809E+01 0. -1.
</event>
<event>
 5   0  0.5083831E-04  0.1598463E+04  0.7818609E-02  0.8821493E-01
       -2   -1    0    0    0  501  0.00000000000E+00  0.00000000000E+00  0.58804278716E+03  0.58804278716E+03  0.25500000920E-02 0. -1.
        2   -1    0    0  501    0  0.00000000000E+00  0.00000000000E+00 -0.10862656302E+04  0.10862656302E+04  0.25500000920E-02 0.  1.
    10030    2    1    2    0    0  0.00000000000E+00  0.00000000000E+00 -0.49822284303E+03  0.16743084174E+04  0.15984625973E+04 0.  0.
        4    1    3    3  502    0  0.13073905586E+03  0.70897923852E+03  0.11225825100E+03  0.72962167539E+03  0.12699999809E+01 0. -1.
       -4    1    3    3    0  502 -0.13073905586E+03 -0.70897923852E+03 -0.61048109403E+03  0.94468674197E+03  0.12699999809E+01 0.  1.
</event>
<event>
 5   0  0.2649086E-04  0.1584959E+04  0.7818609E-02  0.8829842E-01
       -1   -1    0    0    0  501  0.00000000000E+00  0.00000000000E+00  0.53904422974E+03  0.53904422976E+03  0.50400001928E-02 0. -1.
        1   -1    0    0  501    0  0.00000000000E+00  0.00000000000E+00 -0.11650685434E+04  0.11650685434E+04  0.50400001928E-02 0.  1.
    10030    2    1    2    0    0  0.00000000000E+00  0.00000000000E+00 -0.62602431368E+03  0.17041127732E+04  0.15849586438E+04 0.  0.
        2    1    3    3  502    0 -0.20575992126E+03 -0.38818149654E+03  0.39611766953E+03  0.59154985214E+03  0.25500000920E-02 0. -1.
       -2    1    3    3    0  502  0.20575992126E+03  0.38818149654E+03 -0.10221419832E+04  0.11125629211E+04  0.25500000920E-02 0.  1.
</event>
<event>
 5   0  0.5264308E-04  0.1613902E+04  0.7818609E-02  0.8812053E-01
        2   -1    0    0  501    0  0.00000000000E+00  0.00000000000E+00  0.25506867577E+04  0.25506867577E+04  0.25500000920E-02 0.  1.
       -2   -1    0    0    0  501  0.00000000000E+00  0.00000000000E+00 -0.25529196257E+03  0.25529196258E+03  0.25500000920E-02 0. -1.
    10030    2    1    2    0    0  0.00000000000E+00  0.00000000000E+00  0.22953947952E+04  0.28059787203E+04  0.16139018908E+04 0.  0.
        3    1    3    3  502    0 -0.29633532903E+03  0.66200031102E+03  0.17626683560E+04  0.19060584415E+04  0.10100000352E+00 0.  1.
       -3    1    3    3    0  502  0.29633532903E+03 -0.66200031102E+03  0.53272643917E+03  0.89992027881E+03  0.10100000352E+00 0. -1.
</event>
<event>
 5   0  0.2763895E-04  0.1600319E+04  0.7818609E-02  0.8820352E-01
       -1   -1    0    0    0  501  0.00000000000E+00  0.00000000000E+00  0.94452212861E+03  0.94452212863E+03  0.50400001928E-02 0. -1.
        1   -1    0    0  501    0  0.00000000000E+00  0.00000000000E+00 -0.67786145419E+03  0.67786145421E+03  0.50400001928E-02 0.  1.
    10030    2    1    2    0    0  0.00000000000E+00  0.00000000000E+00  0.26666067443E+03  0.16223835828E+04  0.16003188978E+04 0.  0.
        4    1    3    3  502    0 -0.62185977363E+03 -0.26553367922E+03  0.56705593207E+03  0.88248045636E+03  0.12699999809E+01 0. -1.
       -4    1    3    3    0  502  0.62185977363E+03  0.26553367922E+03 -0.30039525764E+03  0.73990312648E+03  0.12699999809E+01 0.  1.
</event>
<event>
 5   0  0.5131239E-04  0.1624450E+04  0.7818609E-02  0.8805667E-01
       -2   -1    0    0    0  501  0.00000000000E+00  0.00000000000E+00  0.50739962649E+03  0.50739962649E+03  0.25500000920E-02 0. -1.
        2   -1    0    0  501    0  0.00000000000E+00  0.00000000000E+00 -0.13001776224E+04  0.13001776224E+04  0.25500000920E-02 0.  1.
    10030    2    1    2    0    0  0.00000000000E+00  0.00000000000E+00 -0.79277799590E+03  0.18075772489E+04  0.16244502331E+04 0.  0.
        1    1    3    3  502    0  0.25738971786E+03  0.13423036196E+03  0.44770610082E+03  0.53358036852E+03  0.50400001928E-02 0. -1.
       -1    1    3    3    0  502 -0.25738971786E+03 -0.13423036196E+03 -0.12404840967E+04  0.12739968804E+04  0.50400001928E-02 0.  1.
</event>
<event>
 5   0  0.5315984E-04  0.1610087E+04  0.7818609E-02  0.8814375E-01
       -2   -1    0    0    0  501  0.00000000000E+00  0.00000000000E+00  0.61191922897E+03  0.61191922898E+03  0.25500000920E-02 0.  1.
        2   -1    0    0  501    0  0.00000000000E+00  0.00000000000E+00 -0.10591192144E+04  0.10591192144E+04  0.25500000920E-02 0. -1.
    10030    2    1    2    0    0  0.00000000000E+00  0.00000000000E+00 -0.44719998543E+03  0.16710384434E+04  0.16100874673E+04 0.  0.
        2    1    3    3  502    0  0.23218249191E+03  0.50793595230E+03 -0.82536638326E+03  0.99656274654E+03  0.25500000920E-02 0. -1.
       -2    1    3    3    0  502 -0.23218249191E+03 -0.50793595230E+03  0.37816639782E+03  0.67447569684E+03  0.25500000920E-02 0.  1.
</event>
<event>
 5   0  0.2763895E-04  0.1603833E+04  0.7818609E-02  0.8818197E-01
       -1   -1    0    0    0  501  0.00000000000E+00  0.00000000000E+00  0.81320609327E+03  0.81320609328E+03  0.50400001928E-02 0. -1.
        1   -1    0    0  501    0  0.00000000000E+00  0.00000000000E+00 -0.79078373249E+03  0.79078373251E+03  0.50400001928E-02 0.  1.
    10030    2    1    2    0    0  0.00000000000E+00  0.00000000000E+00  0.22422360775E+02  0.16039898258E+04  0.16038330957E+04 0.  0.
        4    1    3    3  502    0 -0.30332781465E+02 -0.39275836813E+02 -0.78924561218E+03  0.79080523407E+03  0.12699999809E+01 0.  1.
       -4    1    3    3    0  502  0.30332781465E+02  0.39275836813E+02  0.81166797295E+03  0.81318459172E+03  0.12699999809E+01 0. -1.
</event>
<event>
 5   0  0.2649086E-04  0.1557099E+04  0.7818609E-02  0.8847346E-01
       -1   -1    0    0    0  501  0.00000000000E+00  0.00000000000E+00  0.11026340505E+04  0.11026340505E+04  0.50400001928E-02 0.  1.
        1   -1    0    0  501    0  0.00000000000E+00  0.00000000000E+00 -0.54971937988E+03  0.54971937990E+03  0.50400001928E-02 0. -1.
    10030    2    1    2    0    0  0.00000000000E+00  0.00000000000E+00  0.55291467060E+03  0.16523534304E+04  0.15570989776E+04 0.  0.
        2    1    3    3  502    0 -0.21269923110E+03  0.67259854888E+03  0.62601648905E+03  0.94314708049E+03  0.25500000920E-02 0.  1.
       -2    1    3    3    0  502  0.21269923110E+03 -0.67259854888E+03 -0.73101818451E+02  0.70920634990E+03  0.25500000920E-02 0. -1.
</event>
<event>
 5   0  0.5083831E-04  0.1587905E+04  0.7818609E-02  0.8828013E-01
       -2   -1    0    0    0  501  0.00000000000E+00  0.00000000000E+00  0.84113706149E+03  0.84113706149E+03  0.25500000920E-02 0.  1.
        2   -1    0    0  501    0  0.00000000000E+00  0.00000000000E+00 -0.74941503768E+03  0.74941503769E+03  0.25500000920E-02 0. -1.
    10030    2    1    2    0    0  0.00000000000E+00  0.00000000000E+00  0.91722023805E+02  0.15905520992E+04  0.15879052398E+04 0.  0.
        4    1    3    3  502    0 -0.57624183555E+02 -0.21583951760E+03  0.80900491359E+03  0.83928410387E+03  0.12699999809E+01 0.  1.
       -4    1    3    3    0  502  0.57624183555E+02  0.21583951760E+03 -0.71728288979E+03  0.75126799531E+03  0.12699999809E+01 0. -1.
</event>
<event>
 5   0  0.5083831E-04  0.1612938E+04  0.7818609E-02  0.8812639E-01
       -2   -1    0    0    0  501  0.00000000000E+00  0.00000000000E+00  0.42876788214E+03  0.42876788215E+03  0.25500000920E-02 0.  1.
        2   -1    0    0  501    0  0.00000000000E+00  0.00000000000E+00 -0.15168874029E+04  0.15168874029E+04  0.25500000920E-02 0. -1.
    10030    2    1    2    0    0  0.00000000000E+00  0.00000000000E+00 -0.10881195208E+04  0.19456552850E+04  0.16129384355E+04 0.  0.
        4    1    3    3  502    0 -0.41260117987E+02 -0.52814550136E+03 -0.12775641846E+04  0.13830444413E+04  0.12699999809E+01 0. -1.
       -4    1    3    3    0  502  0.41260117987E+02  0.52814550136E+03  0.18944466384E+03  0.56261084375E+03  0.12699999809E+01 0.  1.
</event>
<event>
 5   0  0.2763895E-04  0.1590497E+04  0.7818609E-02  0.8826408E-01
        1   -1    0    0  501    0  0.00000000000E+00  0.00000000000E+00  0.74127368015E+03  0.74127368017E+03  0.50400001928E-02 0. -1.
       -1   -1    0    0    0  501  0.00000000000E+00  0.00000000000E+00 -0.85315309651E+03  0.85315309652E+03  0.50400001928E-02 0.  1.
    10030    2    1    2    0    0  0.00000000000E+00  0.00000000000E+00 -0.11187941636E+03  0.15944267767E+04  0.15904966968E+04 0.  0.
        4    1    3    3  502    0  0.62057134889E+03 -0.25248200244E+03  0.37356074518E+03  0.76707574845E+03  0.12699999809E+01 0.  1.
       -4    1    3    3    0  502 -0.62057134889E+03  0.25248200244E+03 -0.48544016153E+03  0.82735102825E+03  0.12699999809E+01 0. -1.
</event>
<event>
 5   0  0.2649086E-04  0.1581419E+04  0.7818609E-02  0.8832045E-01
        1   -1    0    0  501    0  0.00000000000E+00  0.00000000000E+00  0.55793707845E+03  0.55793707847E+03  0.50400001928E-02 0. -1.
       -1   -1    0    0    0  501  0.00000000000E+00  0.00000000000E+00 -0.11205951926E+04  0.11205951927E+04  0.50400001928E-02 0.  1.
    10030    2    1    2    0    0  0.00000000000E+00  0.00000000000E+00 -0.56265811419E+03  0.16785322711E+04  0.15814191196E+04 0.  0.
        2    1    3    3  502    0 -0.12522299185E+03 -0.64203952551E+03 -0.75282171044E+03  0.99731443272E+03  0.25500000920E-02 0.  1.
       -2    1    3    3    0  502  0.12522299185E+03  0.64203952551E+03  0.19016359625E+03  0.68121783840E+03  0.25500000920E-02 0. -1.
</event>
<event>
 5   0  0.5381164E-04  0.1596195E+04  0.7818609E-02  0.8822889E-01
        2   -1    0    0  501    0  0.00000000000E+00  0.00000000000E+00  0.12721417514E+04  0.12721417514E+04  0.25500000920E-02 0.  1.
       -2   -1    0    0    0  501  0.00000000000E+00  0.00000000000E+00 -0.50069836603E+03  0.50069836604E+03  0.25500000920E-02 0. -1.
    10030    2    1    2    0    0  0.00000000000E+00  0.00000000000E+00  0.77144338539E+03  0.17728401175E+04  0.15961945950E+04 0.  0.
        5    1    3    3  502    0 -0.41697170594E+03 -0.24349483207E+03  0.10914820327E+04  0.11935284892E+04  0.46999998093E+01 0.  1.
       -5    1    3    3    0  502  0.41697170594E+03  0.24349483207E+03 -0.32003864736E+03  0.57931162823E+03  0.46999998093E+01 0. -1.
</event>
<event>
 5   0  0.1908125E-04  0.1597878E+04  0.7818609E-02  0.8821853E-01
        4   -1    0    0  501    0  0.00000000000E+00  0.00000000000E+00  0.82232935057E+03  0.82233033126E+03  0.12699999809E+01 0.  1.
       -4   -1    0    0    0  501  0.00000000000E+00  0.00000000000E+00 -0.77621174192E+03  0.77621278087E+03  0.12699999809E+01 0. -1.
    10030    2    1    2    0    0  0.00000000000E+00  0.00000000000E+00  0.46117608649E+02  0.15985431121E+04  0.15978777323E+04 0.  0.
        4    1    3    3  502    0 -0.61641731249E+03  0.31152626193E+01 -0.48540640951E+03  0.78460244920E+03  0.12699999809E+01 0. -1.
       -4    1    3    3    0  502  0.61641731249E+03 -0.31152626193E+01  0.53152401816E+03  0.81394066293E+03  0.12699999809E+01 0.  1.
</event>
<event>
 5   0  0.2730707E-04  0.1589300E+04  0.7818609E-02  0.8827149E-01
        1   -1    0    0  501    0  0.00000000000E+00  0.00000000000E+00  0.19869557760E+04  0.19869557760E+04  0.50400001928E-02 0.  1.
       -1   -1    0    0    0  501  0.00000000000E+00  0.00000000000E+00 -0.31780700512E+03  0.31780700516E+03  0.50400001928E-02 0. -1.
    10030    2    1    2    0    0  0.00000000000E+00  0.00000000000E+00  0.16691487708E+04  0.23047627811E+04  0.15892998012E+04 0.  0.
        5    1    3    3  502    0  0.37757997393E+03  0.48013390585E+03  0.15716730418E+04  0.16862008909E+04  0.46999998093E+01 0. -1.
       -5    1    3    3    0  502 -0.37757997393E+03 -0.48013390585E+03  0.97475729038E+02  0.61856189020E+03  0.46999998093E+01 0.  1.
</event>
<event>
 5   0  0.5315984E-04  0.1506349E+04  0.7818609E-02  0.8880242E-01
       -2   -1    0    0    0  501  0.00000000000E+00  0.00000000000E+00  0.41268286119E+03  0.41268286120E+03  0.25500000920E-02 0. -1.
        2   -1    0    0  501    0  0.00000000000E+00  0.00000000000E+00 -0.13745956323E+04  0.13745956323E+04  0.25500000920E-02 0.  1.
    10030    2    1    2    0    0  0.00000000000E+00  0.00000000000E+00 -0.96191277115E+03  0.17872784935E+04  0.15063493068E+04 0.  0.
        2    1    3    3  502    0 -0.22558501321E+03  0.97775459528E+02 -0.13256415666E+04  0.13482485682E+04  0.25500000920E-02 0.  1.
       -2    1    3    3    0  502  0.22558501321E+03 -0.97775459528E+02  0.36372879544E+03  0.43902992530E+03  0.25500000920E-02 0. -1.
</event>
<event>
 5   0  0.2763895E-04  0.1615872E+04  0.7818609E-02  0.8810856E-01
        1   -1    0    0  501    0  0.00000000000E+00  0.00000000000E+00  0.84590981924E+03  0.84590981925E+03  0.50400001928E-02 0.  1.
       -1   -1    0    0    0  501  0.00000000000E+00  0.00000000000E+00 -0.77166646732E+03  0.77166646734E+03  0.50400001928E-02 0. -1.
    10030    2    1    2    0    0  0.00000000000E+00  0.00000000000E+00  0.74243351917E+02  0.16175762866E+04  0.16158715814E+04 0.  0.
        4    1    3    3  502    0 -0.42225063079E+03  0.49395773846E+03 -0.44345643511E+03  0.78673061802E+03  0.12699999809E+01 0. -1.
       -4    1    3    3    0  502  0.42225063079E+03 -0.49395773846E+03  0.51769978703E+03  0.83084566857E+03  0.12699999809E+01 0.  1.
</event>
<event>
 5   0  0.5264308E-04  0.1604652E+04  0.7818609E-02  0.8817695E-01
       -2   -1    0    0    0  501  0.00000000000E+00  0.00000000000E+00  0.74505188030E+03  0.74505188031E+03  0.25500000920E-02 0. -1.
        2   -1    0    0  501    0  0.00000000000E+00  0.00000000000E+00 -0.86400294438E+03  0.86400294438E+03  0.25500000920E-02 0.  1.
    10030    2    1    2    0    0  0.00000000000E+00  0.00000000000E+00 -0.11895106408E+03  0.16090548247E+04  0.16046520100E+04 0.  0.
        3    1    3    3  502    0  0.48575642407E+03  0.56370462470E+03 -0.36030668949E+03  0.82676667091E+03  0.10100000352E+00 0.  1.
       -3    1    3    3    0  502 -0.48575642407E+03 -0.56370462470E+03  0.24135562541E+03  0.78228815378E+03  0.10100000352E+00 0. -1.
</event>
<event>
 5   0  0.1908125E-04  0.1621581E+04  0.7818609E-02  0.8807398E-01
       -4   -1    0    0    0  501  0.00000000000E+00  0.00000000000E+00  0.60329009169E+03  0.60329142844E+03  0.12699999809E+01 0. -1.
        4   -1    0    0  501    0  0.00000000000E+00  0.00000000000E+00 -0.10896576625E+04  0.10896584026E+04  0.12699999809E+01 0.  1.
    10030    2    1    2    0    0  0.00000000000E+00  0.00000000000E+00 -0.48636757083E+03  0.16929498311E+04  0.16215812396E+04 0.  0.
        3    1    3    3  502    0  0.55685224996E+03 -0.28335240338E+03  0.29628689254E+03  0.69149038004E+03  0.10100000352E+00 0. -1.
       -3    1    3    3    0  502 -0.55685224996E+03  0.28335240338E+03 -0.78265446337E+03  0.10014594510E+04  0.10100000352E+00 0.  1.
</event>
<event>
 5   0  0.5315984E-04  0.1600433E+04  0.7818609E-02  0.8820282E-01
        2   -1    0    0  501    0  0.00000000000E+00  0.00000000000E+00  0.11257383515E+04  0.11257383515E+04  0.25500000920E-02 0. -1.
       -2   -1    0    0    0  501  0.00000000000E+00  0.00000000000E+00 -0.56882325716E+03  0.56882325716E+03  0.25500000920E-02 0.  1.
    10030    2    1    2    0    0  0.00000000000E+00  0.00000000000E+00  0.55691509431E+03  0.16945616086E+04  0.16004326362E+04 0.  0.
        2    1    3    3  502    0  0.24363701284E+03 -0.34230338845E+03  0.99955276816E+03  0.10842676515E+04  0.25500000920E-02 0. -1.
       -2    1    3    3    0  502 -0.24363701284E+03  0.34230338845E+03 -0.44263767385E+03  0.61029395711E+03  0.25500000920E-02 0.  1.
</event>
<event>
 5   0  0.2796994E-04  0.1611037E+04  0.7818609E-02  0.8813796E-01
       -1   -1    0    0    0  501  0.00000000000E+00  0.00000000000E+00  0.43208662187E+03  0.43208662190E+03  0.50400001928E-02 0. -1.
        1   -1    0    0  501    0  0.00000000000E+00  0.00000000000E+00 -0.15016889968E+04  0.15016889968E+04  0.50400001928E-02 0.  1.
    10030    2    1    2    0    0  0.00000000000E+00  0.00000000000E+00 -0.10696023749E+04  0.19337756187E+04  0.16110365927E+04 0.  0.
        3    1    3    3  502    0 -0.24861889060E+03  0.26236620136E+03 -0.13988823755E+04  0.14448250022E+04  0.10100000352E+00 0.  1.
       -3    1    3    3    0  502  0.24861889060E+03 -0.26236620136E+03  0.32928000057E+03  0.48895061648E+03  0.10100000352E+00 0. -1.
</event>
<event>
 5   0  0.5315984E-04  0.1603182E+04  0.7818609E-02  0.8818596E-01
        2   -1    0    0  501    0  0.00000000000E+00  0.00000000000E+00  0.67147764041E+03  0.67147764042E+03  0.25500000920E-02 0. -1.
       -2   -1    0    0    0  501  0.00000000000E+00  0.00000000000E+00 -0.95691643382E+03  0.95691643383E+03  0.25500000920E-02 0.  1.
    10030    2    1    2    0    0  0.00000000000E+00  0.00000000000E+00 -0.28543879341E+03  0.16283940742E+04  0.16031818226E+04 0.  0.
        2    1    3    3  502    0 -0.38476767011E+03 -0.28402426205E+03  0.51069514167E+03  0.69966096727E+03  0.25500000920E-02 0. -1.
       -2    1    3    3    0  502  0.38476767011E+03  0.28402426205E+03 -0.79613393508E+03  0.92873310697E+03  0.25500000920E-02 0.  1.
</event>
<event>
 5   0  0.2730707E-04  0.1599354E+04  0.7818609E-02  0.8820945E-01
       -1   -1    0    0    0  501  0.00000000000E+00  0.00000000000E+00  0.33975092252E+03  0.33975092256E+03  0.50400001928E-02 0. -1.
        1   -1    0    0  501    0  0.00000000000E+00  0.00000000000E+00 -0.18822114513E+04  0.18822114513E+04  0.50400001928E-02 0.  1.
    10030    2    1    2    0    0  0.00000000000E+00  0.00000000000E+00 -0.15424605288E+04  0.22219623738E+04  0.15993537157E+04 0.  0.
        5    1    3    3  502    0 -0.46104236430E+03  0.26840720010E+03  0.56368403898E+02  0.53647178276E+03  0.46999998093E+01 0. -1.
       -5    1    3    3    0  502  0.46104236430E+03 -0.26840720010E+03 -0.15988289327E+04  0.16854905911E+04  0.46999998093E+01 0.  1.
</event>
<event>
 5   0  0.2763895E-04  0.1593154E+04  0.7818609E-02  0.8824765E-01
        1   -1    0    0  501    0  0.00000000000E+00  0.00000000000E+00  0.10917327577E+04  0.10917327577E+04  0.50400001928E-02 0. -1.
       -1   -1    0    0    0  501  0.00000000000E+00  0.00000000000E+00 -0.58121785045E+03  0.58121785047E+03  0.50400001928E-02 0.  1.
    10030    2    1    2    0    0  0.00000000000E+00  0.00000000000E+00  0.51051490727E+03  0.16729506082E+04  0.15931535604E+04 0.  0.
        4    1    3    3  502    0  0.63990281382E+02  0.19919669801E+03  0.10623635123E+04  0.10827704862E+04  0.12699999809E+01 0. -1.
       -4    1    3    3    0  502 -0.63990281382E+02 -0.19919669801E+03 -0.55184860504E+03  0.59018012199E+03  0.12699999809E+01 0.  1.
</event>
<event>
 5   0  0.5264308E-04  0.1619030E+04  0.7818609E-02  0.8808941E-01
        2   -1    0    0  501    0  0.00000000000E+00  0.00000000000E+00  0.19551378689E+04  0.19551378689E+04  0.25500000920E-02 0. -1.
       -2   -1    0    0    0  501  0.00000000000E+00  0.00000000000E+00 -0.33517580433E+03  0.33517580434E+03  0.25500000920E-02 0.  1.
    10030    2    1    2    0    0  0.00000000000E+00  0.00000000000E+00  0.16199620646E+04  0.22903136733E+04  0.16190304602E+04 0.  0.
        3    1    3    3  502    0  0.38272054127E+03 -0.87788824309E+02 -0.19143940539E+03  0.43684201552E+03  0.10100000352E+00 0.  1.
       -3    1    3    3    0  502 -0.38272054127E+03  0.87788824309E+02  0.18114014700E+04  0.18534716577E+04  0.10100000352E+00 0. -1.
</event>
<event>
 5   0  0.2796994E-04  0.1616703E+04  0.7818609E-02  0.8810352E-01
       -1   -1    0    0    0  501  0.00000000000E+00  0.00000000000E+00  0.38230284728E+03  0.38230284731E+03  0.50400001928E-02 0.  1.
        1   -1    0    0  501    0  0.00000000000E+00  0.00000000000E+00 -0.17092006403E+04  0.17092006403E+04  0.50400001928E-02 0. -1.
    10030    2    1    2    0    0  0.00000000000E+00  0.00000000000E+00 -0.13268977930E+04  0.20915034876E+04  0.16167031532E+04 0.  0.
        3    1    3    3  502    0 -0.10897995290E+03 -0.55221271241E+03 -0.14140274826E+04  0.15219360176E+04  0.10100000352E+00 0. -1.
       -3    1    3    3    0  502  0.10897995290E+03  0.55221271241E+03  0.87129689600E+02  0.56956747000E+03  0.10100000352E+00 0.  1.
</event>
<event>
 5   0  0.2649086E-04  0.1596133E+04  0.7818609E-02  0.8822927E-01
        1   -1    0    0  501    0  0.00000000000E+00  0.00000000000E+00  0.14836510636E+04  0.14836510636E+04  0.50400001928E-02 0.  1.
       -1   -1    0    0    0  501  0.00000000000E+00  0.00000000000E+00 -0.42928585072E+03  0.42928585075E+03  0.50400001928E-02 0. -1.
    10030    2    1    2    0    0  0.00000000000E+00  0.00000000000E+00  0.10543652129E+04  0.19129369144E+04  0.15961333391E+04 0.  0.
        2    1    3    3  502    0  0.41029619484E+03  0.34972190899E+03 -0.17805248342E+03  0.56775969211E+03  0.25500000920E-02 0. -1.
       -2    1    3    3    0  502 -0.41029619484E+03 -0.34972190899E+03  0.12324176963E+04  0.13451772223E+04  0.25500000920E-02 0.  1.
</event>
<event>
 5   0  0.2649086E-04  0.1628384E+04  0.7818609E-02  0.8803298E-01
        1   -1    0    0  501    0  0.00000000000E+00  0.00000000000E+00  0.43037145596E+03  0.43037145599E+03  0.50400001928E-02 0.  1.
       -1   -1    0    0    0  501  0.00000000000E+00  0.00000000000E+00 -0.15403171260E+04  0.15403171261E+04  0.50400001928E-02 0. -1.
    10030    2    1    2    0    0  0.00000000000E+00  0.00000000000E+00 -0.11099456701E+04  0.19706885820E+04  0.16283838911E+04 0.  0.
        2    1    3    3  502    0 -0.54580564744E+03  0.27456663474E+03  0.96316384951E+02  0.61852040201E+03  0.25500000920E-02 0.  1.
       -2    1    3    3    0  502  0.54580564744E+03 -0.27456663474E+03 -0.12062620550E+04  0.13521681800E+04  0.25500000920E-02 0. -1.
</event>
<event>
 5   0  0.5083831E-04  0.1594360E+04  0.7818609E-02  0.8824020E-01
       -2   -1    0    0    0  501  0.00000000000E+00  0.00000000000E+00  0.90644690230E+03  0.90644690230E+03  0.25500000920E-02 0.  1.
        2   -1    0    0  501    0  0.00000000000E+00  0.00000000000E+00 -0.70108499590E+03  0.70108499591E+03  0.25500000920E-02 0. -1.
    10030    2    1    2    0    0  0.00000000000E+00  0.00000000000E+00  0.20536190639E+03  0.16075318982E+04  0.15943604646E+04 0.  0.
        4    1    3    3  502    0 -0.48080443152E+02  0.28422748128E+03 -0.64669373777E+03  0.70803346920E+03  0.12699999809E+01 0. -1.
       -4    1    3    3    0  502  0.48080443152E+02 -0.28422748128E+03  0.85205564417E+03  0.89949842901E+03  0.12699999809E+01 0.  1.
</event>
<event>
 5   0  0.2689675E-04  0.1528079E+04  0.7818609E-02  0.8865992E-01
        1   -1    0    0  501    0  0.00000000000E+00  0.00000000000E+00  0.18212272047E+04  0.18212272047E+04  0.50400001928E-02 0. -1.
       -1   -1    0    0    0  501  0.00000000000E+00  0.00000000000E+00 -0.32052928148E+03  0.32052928152E+03  0.50400001928E-02 0.  1.
    10030    2    1    2    0    0  0.00000000000E+00  0.00000000000E+00  0.15006979232E+04  0.21417564862E+04  0.15280793793E+04 0.  0.
        1    1    3    3  502    0 -0.61471591012E+03  0.10597128098E+03  0.13687249106E+04  0.15041653644E+04  0.50400001928E-02 0. -1.
       -1    1    3    3    0  502  0.61471591012E+03 -0.10597128098E+03  0.13197301263E+03  0.63759112183E+03  0.50400001928E-02 0.  1.
</event>
<event>
 5   0  0.2689675E-04  0.1602070E+04  0.7818609E-02  0.8819277E-01
        1   -1    0    0  501    0  0.00000000000E+00  0.00000000000E+00  0.90594936254E+03  0.90594936255E+03  0.50400001928E-02 0.  1.
       -1   -1    0    0    0  501  0.00000000000E+00  0.00000000000E+00 -0.70827036676E+03  0.70827036678E+03  0.50400001928E-02 0. -1.
    10030    2    1    2    0    0  0.00000000000E+00  0.00000000000E+00  0.19767899577E+03  0.16142197293E+04  0.16020700201E+04 0.  0.
        1    1    3    3  502    0  0.63986722353E+03  0.48120403190E+03  0.72764616353E+02  0.80391670806E+03  0.50400001928E-02 0. -1.
       -1    1    3    3    0  502 -0.63986722353E+03 -0.48120403190E+03  0.12491437942E+03  0.81030302127E+03  0.50400001928E-02 0.  1.
</event>
<event>
 5   0  0.5381164E-04  0.1739105E+04  0.7818609E-02  0.8739370E-01
       -2   -1    0    0    0  501  0.00000000000E+00  0.00000000000E+00  0.44144382863E+03  0.44144382863E+03  0.25500000920E-02 0. -1.
        2   -1    0    0  501    0  0.00000000000E+00  0.00000000000E+00 -0.17128370276E+04  0.17128370276E+04  0.25500000920E-02 0.  1.
    10030    2    1    2    0    0  0.00000000000E+00  0.00000000000E+00 -0.12713931990E+04  0.21542808563E+04  0.17391047528E+04 0.  0.
        5    1    3    3  502    0 -0.60685853163E+03  0.33690621983E+03  0.13090613921E+02  0.69424529710E+03  0.46999998093E+01 0. -1.
       -5    1    3    3    0  502  0.60685853163E+03 -0.33690621983E+03 -0.12844838129E+04  0.14600355592E+04  0.46999998093E+01 0.  1.
</event>
<event>
 5   0  0.5131239E-04  0.1594055E+04  0.7818609E-02  0.8824209E-01
        2   -1    0    0  501    0  0.00000000000E+00  0.00000000000E+00  0.75829266370E+03  0.75829266371E+03  0.25500000920E-02 0. -1.
       -2   -1    0    0    0  501  0.00000000000E+00  0.00000000000E+00 -0.83774084617E+03  0.83774084617E+03  0.25500000920E-02 0.  1.
    10030    2    1    2    0    0  0.00000000000E+00  0.00000000000E+00 -0.79448182469E+02  0.15960335099E+04  0.15940548770E+04 0.  0.
        1    1    3    3  502    0 -0.36379133494E+02  0.96979565182E+02  0.75152530913E+03  0.75862953259E+03  0.50400001928E-02 0. -1.
       -1    1    3    3    0  502  0.36379133494E+02 -0.96979565182E+02 -0.83097349160E+03  0.83740397730E+03  0.50400001928E-02 0.  1.
</event>
<event>
 5   0  0.5131239E-04  0.1585376E+04  0.7818609E-02  0.8829583E-01
        2   -1    0    0  501    0  0.00000000000E+00  0.00000000000E+00  0.13660424298E+04  0.13660424298E+04  0.25500000920E-02 0. -1.
       -2   -1    0    0    0  501  0.00000000000E+00  0.00000000000E+00 -0.45998131235E+03  0.45998131235E+03  0.25500000920E-02 0.  1.
    10030    2    1    2    0    0  0.00000000000E+00  0.00000000000E+00  0.90606111747E+03  0.18260237422E+04  0.15853756521E+04 0.  0.
        1    1    3    3  502    0 -0.27476912369E+03 -0.67063256546E+03  0.82287591098E+03  0.10965267320E+04  0.50400001928E-02 0.  1.
       -1    1    3    3    0  502  0.27476912369E+03  0.67063256546E+03  0.83185206490E+02  0.72949701013E+03  0.50400001928E-02 0. -1.
</event>
<event>
 5   0  0.2796994E-04  0.1591270E+04  0.7818609E-02  0.8825929E-01
        1   -1    0    0  501    0  0.00000000000E+00  0.00000000000E+00  0.13246776636E+04  0.13246776636E+04  0.50400001928E-02 0. -1.
       -1   -1    0    0    0  501  0.00000000000E+00  0.00000000000E+00 -0.47787866325E+03  0.47787866327E+03  0.50400001928E-02 0.  1.
    10030    2    1    2    0    0  0.00000000000E+00  0.00000000000E+00  0.84679900039E+03  0.18025563269E+04  0.15912701734E+04 0.  0.
        3    1    3    3  502    0  0.39622584932E+03 -0.14908630621E+03  0.11865033461E+04  0.12597665858E+04  0.10100000352E+00 0. -1.
       -3    1    3    3    0  502 -0.39622584932E+03  0.14908630621E+03 -0.33970434566E+03  0.54278974109E+03  0.10100000352E+00 0.  1.
</event>
<event>
 5   0  0.5381164E-04  0.1597775E+04  0.7818609E-02  0.8821916E-01
       -2   -1    0    0    0  501  0.00000000000E+00  0.00000000000E+00  0.72807334841E+03  0.72807334842E+03  0.25500000920E-02 0. -1.
        2   -1    0    0  501    0  0.00000000000E+00  0.00000000000E+00 -0.87658923451E+03  0.87658923452E+03  0.25500000920E-02 0.  1.
    10030    2    1    2    0    0  0.00000000000E+00  0.00000000000E+00 -0.14851588610E+03  0.16046625829E+04  0.15977750269E+04 0.  0.
        5    1    3    3  502    0  0.23803211184E+03 -0.44957070102E+03  0.54437305771E+03  0.74507530991E+03  0.46999998093E+01 0. -1.
       -5    1    3    3    0  502 -0.23803211184E+03  0.44957070102E+03 -0.69288894381E+03  0.85958727302E+03  0.46999998093E+01 0.  1.
</event>
<event>
 5   0  0.5315984E-04  0.1588797E+04  0.7818609E-02  0.8827460E-01
        2   -1    0    0  501    0  0.00000000000E+00  0.00000000000E+00  0.19899397054E+04  0.19899397054E+04  0.25500000920E-02 0.  1.
       -2   -1    0    0    0  501  0.00000000000E+00  0.00000000000E+00 -0.31712978315E+03  0.31712978316E+03  0.25500000920E-02 0. -1.
    10030    2    1    2    0    0  0.00000000000E+00  0.00000000000E+00  0.16728099223E+04  0.23070694886E+04  0.15887972146E+04 0.  0.
        2    1    3    3  502    0  0.55567447045E+03 -0.70949884303E+02  0.18504131255E+02  0.56049121855E+03  0.25500000920E-02 0. -1.
       -2    1    3    3    0  502 -0.55567447045E+03  0.70949884303E+02  0.16543057910E+04  0.17465782701E+04  0.25500000920E-02 0.  1.
</event>
<event>
 5   0  0.2730707E-04  0.1730712E+04  0.7818609E-02  0.8744039E-01
       -1   -1    0    0    0  501  0.00000000000E+00  0.00000000000E+00  0.96398705667E+03  0.96398705668E+03  0.50400001928E-02 0. -1.
        1   -1    0    0  501    0  0.00000000000E+00  0.00000000000E+00 -0.77681642474E+03  0.77681642476E+03  0.50400001928E-02 0.  1.
    10030    2    1    2    0    0  0.00000000000E+00  0.00000000000E+00  0.18717063193E+03  0.17408034814E+04  0.17307119678E+04 0.  0.
        5    1    3    3  502    0  0.84939253855E+03  0.11748616558E+03  0.21066076530E+03  0.88298965548E+03  0.46999998093E+01 0.  1.
       -5    1    3    3    0  502 -0.84939253855E+03 -0.11748616558E+03 -0.23490133373E+02  0.85781382596E+03  0.46999998093E+01 0. -1.
</event>
<event>
 5   0  0.5131239E-04  0.1603612E+04  0.7818609E-02  0.8818332E-01
        2   -1    0    0  501    0  0.00000000000E+00  0.00000000000E+00  0.11980203618E+04  0.11980203618E+04  0.25500000920E-02 0.  1.
       -2   -1    0    0    0  501  0.00000000000E+00  0.00000000000E+00 -0.53662932646E+03  0.53662932646E+03  0.25500000920E-02 0. -1.
    10030    2    1    2    0    0  0.00000000000E+00  0.00000000000E+00  0.66139103538E+03  0.17346496883E+04  0.16036119978E+04 0.  0.
        1    1    3    3  502    0 -0.94111684430E+02 -0.60907527050E+03  0.88550325168E+03  0.10788631531E+04  0.50400001928E-02 0.  1.
       -1    1    3    3    0  502  0.94111684430E+02  0.60907527050E+03 -0.22411221630E+03  0.65578653524E+03  0.50400001928E-02 0. -1.
</event>
<event>
 5   0  0.5083831E-04  0.1603915E+04  0.7818609E-02  0.8818147E-01
       -2   -1    0    0    0  501  0.00000000000E+00  0.00000000000E+00  0.57874691237E+03  0.57874691237E+03  0.25500000920E-02 0. -1.
        2   -1    0    0  501    0  0.00000000000E+00  0.00000000000E+00 -0.11112554987E+04  0.11112554987E+04  0.25500000920E-02 0.  1.
    10030    2    1    2    0    0  0.00000000000E+00  0.00000000000E+00 -0.53250858637E+03  0.16900024111E+04  0.16039148216E+04 0.  0.
        4    1    3    3  502    0 -0.71724375204E+03 -0.32484266630E+03 -0.10585793130E+03  0.79446137238E+03  0.12699999809E+01 0. -1.
       -4    1    3    3    0  502  0.71724375204E+03  0.32484266630E+03 -0.42665065507E+03  0.89554103873E+03  0.12699999809E+01 0.  1.
</event>
<event>
 5   0  0.5131239E-04  0.1605805E+04  0.7818609E-02  0.8816990E-01
        2   -1    0    0  501    0  0.00000000000E+00  0.00000000000E+00  0.13677838969E+04  0.13677838969E+04  0.25500000920E-02 0. -1.
       -2   -1    0    0    0  501  0.00000000000E+00  0.00000000000E+00 -0.47131163554E+03  0.47131163555E+03  0.25500000920E-02 0.  1.
    10030    2    1    2    0    0  0.00000000000E+00  0.00000000000E+00  0.89647226137E+03  0.18390955325E+04  0.16058050511E+04 0.  0.
        1    1    3    3  502    0  0.37271991718E+02 -0.54817132234E+02  0.13646445995E+04  0.13662536376E+04  0.50400001928E-02 0. -1.
       -1    1    3    3    0  502 -0.37271991718E+02  0.54817132234E+02 -0.46817233810E+03  0.47284189487E+03  0.50400001928E-02 0.  1.
</event>
<event>
 5   0  0.5315984E-04  0.1628869E+04  0.7818609E-02  0.8803006E-01
        2   -1    0    0  501    0  0.00000000000E+00  0.00000000000E+00  0.14383884302E+04  0.14383884303E+04  0.25500000920E-02 0. -1.
       -2   -1    0    0    0  501  0.00000000000E+00  0.00000000000E+00 -0.46114348867E+03  0.46114348867E+03  0.25500000920E-02 0.  1.
    10030    2    1    2    0    0  0.00000000000E+00  0.00000000000E+00  0.97724494158E+03  0.18995319189E+04  0.16288688821E+04 0.  0.
        2    1    3    3  502    0 -0.57380217211E+03 -0.49387450390E+03  0.83874920216E+03  0.11298943236E+04  0.25500000920E-02 0. -1.
       -2    1    3    3    0  502  0.57380217211E+03  0.49387450390E+03  0.13849573942E+03  0.76963759534E+03  0.25500000920E-02 0.  1.
</event>
<event>
 5   0  0.2649086E-04  0.1584876E+04  0.7818609E-02  0.8829893E-01
        1   -1    0    0  501    0  0.00000000000E+00  0.00000000000E+00  0.70750761895E+03  0.70750761897E+03  0.50400001928E-02 0.  1.
       -1   -1    0    0    0  501  0.00000000000E+00  0.00000000000E+00 -0.88756408940E+03  0.88756408941E+03  0.50400001928E-02 0. -1.
    10030    2    1    2    0    0  0.00000000000E+00  0.00000000000E+00 -0.18005647044E+03  0.15950717084E+04  0.15848764691E+04 0.  0.
        2    1    3    3  502    0  0.22616456367E+03  0.69326015511E+03 -0.40218194467E+03  0.83277269957E+03  0.25500000920E-02 0.  1.
       -2    1    3    3    0  502 -0.22616456367E+03 -0.69326015511E+03  0.22212547422E+03  0.76229900881E+03  0.25500000920E-02 0. -1.
</event>
<event>
 5   0  0.2649086E-04  0.1594951E+04  0.7818609E-02  0.8823656E-01
        1   -1    0    0  501    0  0.00000000000E+00  0.00000000000E+00  0.88892077006E+03  0.88892077007E+03  0.50400001928E-02 0. -1.
       -1   -1    0    0    0  501  0.00000000000E+00  0.00000000000E+00 -0.71543757754E+03  0.71543757755E+03  0.50400001928E-02 0.  1.
    10030    2    1    2    0    0  0.00000000000E+00  0.00000000000E+00  0.17348319252E+03  0.16043583476E+04  0.15949511872E+04 0.  0.
        2    1    3    3  502    0 -0.30341724173E+03 -0.66671872318E+03  0.40386513724E+03  0.83647051801E+03  0.25500000920E-02 0.  1.
       -2    1    3    3    0  502  0.30341724173E+03  0.66671872318E+03 -0.23038194472E+03  0.76788782962E+03  0.25500000920E-02 0. -1.
</event>
<event>
 5   0  0.5131239E-04  0.1598573E+04  0.7818609E-02  0.8821425E-01
       -2   -1    0    0    0  501  0.00000000000E+00  0.00000000000E+00  0.25810836279E+04  0.25810836279E+04  0.25500000920E-02 0. -1.
        2   -1    0    0  501    0  0.00000000000E+00  0.00000000000E+00 -0.24751578039E+03  0.24751578040E+03  0.25500000920E-02 0.  1.
    10030    2    1    2    0    0  0.00000000000E+00  0.00000000000E+00  0.23335678475E+04  0.28285994083E+04  0.15985730242E+04 0.  0.
        1    1    3    3  502    0 -0.20775878556E+03  0.41109281685E+03  0.23226279285E+04  0.23678601122E+04  0.50400001928E-02 0. -1.
       -1    1    3    3    0  502  0.20775878556E+03 -0.41109281685E+03  0.10939918999E+02  0.46073929601E+03  0.50400001928E-02 0.  1.
</event>
<event>
 5   0  0.2689675E-04  0.1614454E+04  0.7818609E-02  0.8811717E-01
       -1   -1    0    0    0  501  0.00000000000E+00  0.00000000000E+00  0.47208985297E+03  0.47208985300E+03  0.50400001928E-02 0.  1.
        1   -1    0    0  501    0  0.00000000000E+00  0.00000000000E+00 -0.13802785247E+04  0.13802785247E+04  0.50400001928E-02 0. -1.
    10030    2    1    2    0    0  0.00000000000E+00  0.00000000000E+00 -0.90818867172E+03  0.18523683777E+04  0.16144540697E+04 0.  0.
        1    1    3    3  502    0 -0.37668426621E+03  0.55721607735E+03 -0.96622896928E+03  0.11772761844E+04  0.50400001928E-02 0. -1.
       -1    1    3    3    0  502  0.37668426621E+03 -0.55721607735E+03  0.58040297562E+02  0.67509219329E+03  0.50400001928E-02 0.  1.
</event>
<event>
 5   0  0.2730707E-04  0.1594985E+04  0.7818609E-02  0.8823635E-01
        1   -1    0    0  501    0  0.00000000000E+00  0.00000000000E+00  0.13084569217E+04  0.13084569217E+04  0.50400001928E-02 0.  1.
       -1   -1    0    0    0  501  0.00000000000E+00  0.00000000000E+00 -0.48606420349E+03  0.48606420352E+03  0.50400001928E-02 0. -1.
    10030    2    1    2    0    0  0.00000000000E+00  0.00000000000E+00  0.82239271824E+03  0.17945211253E+04  0.15949847291E+04 0.  0.
        5    1    3    3  502    0 -0.26862967474E+03  0.28398989598E+03  0.11932516357E+04  0.12556606704E+04  0.46999998093E+01 0.  1.
       -5    1    3    3    0  502  0.26862967474E+03 -0.28398989598E+03 -0.37085891743E+03  0.53886045485E+03  0.46999998093E+01 0. -1.
</event>
<event>
 5   0  0.5264308E-04  0.1583554E+04  0.7818609E-02  0.8830715E-01
        2   -1    0    0  501    0  0.00000000000E+00  0.00000000000E+00  0.69690899014E+03  0.69690899015E+03  0.25500000920E-02 0.  1.
       -2   -1    0    0    0  501  0.00000000000E+00  0.00000000000E+00 -0.89955956592E+03  0.89955956592E+03  0.25500000920E-02 0. -1.
    10030    2    1    2    0    0  0.00000000000E+00  0.00000000000E+00 -0.20265057578E+03  0.15964685561E+04  0.15835544180E+04 0.  0.
        3    1    3    3  502    0  0.17399458636E+03 -0.12433765323E+03  0.66724156476E+03  0.70067487756E+03  0.10100000352E+00 0.  1.
       -3    1    3    3    0  502 -0.17399458636E+03  0.12433765323E+03 -0.86989214054E+03  0.89579367851E+03  0.10100000352E+00 0. -1.
</event>
<event>
 5   0  0.2763895E-04  0.1641867E+04  0.7818609E-02  0.8795232E-01
        1   -1    0    0  501    0  0.00000000000E+00  0.00000000000E+00  0.96608549238E+03  0.96608549240E+03  0.50400001928E-02 0. -1.
       -1   -1    0    0    0  501  0.00000000000E+00  0.00000000000E+00 -0.69759024495E+03  0.69759024496E+03  0.50400001928E-02 0.  1.
    10030    2    1    2    0    0  0.00000000000E+00  0.00000000000E+00  0.26849524744E+03  0.16636757374E+04  0.16418670047E+04 0.  0.
        4    1    3    3  502    0 -0.14712085725E+03 -0.69292417664E+03 -0.28616311754E+03  0.76398913863E+03  0.12699999809E+01 0.  1.
       -4    1    3    3    0  502  0.14712085725E+03  0.69292417664E+03  0.55465836497E+03  0.89968659873E+03  0.12699999809E+01 0. -1.
</event>
<event>
 5   0  0.5315984E-04  0.1588884E+04  0.7818609E-02  0.8827406E-01
       -2   -1    0    0    0  501  0.00000000000E+00  0.00000000000E+00  0.56137434093E+03  0.56137434094E+03  0.25500000920E-02 0.  1.
        2   -1    0    0  501    0  0.00000000000E+00  0.00000000000E+00 -0.11242737681E+04  0.11242737681E+04  0.25500000920E-02 0. -1.
    10030    2    1    2    0    0  0.00000000000E+00  0.00000000000E+00 -0.56289942716E+03  0.16856481090E+04  0.15888844459E+04 0.  0.
        2    1    3    3  502    0  0.78941561365E+02  0.35144349531E+02 -0.11192732775E+04  0.11226039218E+04  0.25500000920E-02 0. -1.
       -2    1    3    3    0  502 -0.78941561365E+02 -0.35144349531E+02  0.55637385037E+03  0.56304418725E+03  0.25500000920E-02 0.  1.
</event>
<event>
 5   0  0.2763895E-04  0.1589735E+04  0.7818609E-02  0.8826879E-01
       -1   -1    0    0    0  501  0.00000000000E+00  0.00000000000E+00  0.10035553115E+04  0.10035553115E+04  0.50400001928E-02 0.  1.
        1   -1    0    0  501    0  0.00000000000E+00  0.00000000000E+00 -0.62957618113E+03  0.62957618115E+03  0.50400001928E-02 0. -1.
    10030    2    1    2    0    0  0.00000000000E+00  0.00000000000E+00  0.37397913033E+03  0.16331314926E+04  0.15897352240E+04 0.  0.
        4    1    3    3  502    0  0.44535581024E+03  0.16606539512E+03  0.84147856014E+03  0.96644052753E+03  0.12699999809E+01 0.  1.
       -4    1    3    3    0  502 -0.44535581024E+03 -0.16606539512E+03 -0.46749942981E+03  0.66669096510E+03  0.12699999809E+01 0. -1.
</event>
<event>
 5   0  0.2689675E-04  0.1610499E+04  0.7818609E-02  0.8814124E-01
        1   -1    0    0  501    0  0.00000000000E+00  0.00000000000E+00  0.34466878381E+03  0.34466878385E+03  0.50400001928E-02 0.  1.
       -1   -1    0    0    0  501  0.00000000000E+00  0.00000000000E+00 -0.18813036823E+04  0.18813036823E+04  0.50400001928E-02 0. -1.
    10030    2    1    2    0    0  0.00000000000E+00  0.00000000000E+00 -0.15366348985E+04  0.22259724662E+04  0.16104988696E+04 0.  0.
        1    1    3    3  502    0  0.91106987050E+02 -0.28104513645E+03 -0.18036858361E+04  0.18277224754E+04  0.50400001928E-02 0. -1.
       -1    1    3    3    0  502 -0.91106987050E+02  0.28104513645E+03  0.26705093761E+03  0.39824999073E+03  0.50400001928E-02 0.  1.
</event>
<event>
 5   0  0.5381164E-04  0.1603176E+04  0.7818609E-02  0.8818599E-01
       -2   -1    0    0    0  501  0.00000000000E+00  0.00000000000E+00  0.39221562577E+03  0.39221562578E+03  0.25500000920E-02 0. -1.
        2   -1    0    0  501    0  0.00000000000E+00  0.00000000000E+00 -0.16382399692E+04  0.16382399692E+04  0.25500000920E-02 0.  1.
    10030    2    1    2    0    0  0.00000000000E+00  0.00000000000E+00 -0.12460243434E+04  0.20304555949E+04  0.16031759912E+04 0.  0.
        5    1    3    3  502    0 -0.40237196891E+03  0.63762206967E+03 -0.27835067326E+03  0.80372028244E+03  0.46999998093E+01 0. -1.
       -5    1    3    3    0  502  0.40237196891E+03 -0.63762206967E+03 -0.96767367012E+03  0.12267353125E+04  0.46999998093E+01 0.  1.
</event>
<event>
 5   0  0.2796994E-04  0.1631161E+04  0.7818609E-02  0.8801630E-01
        1   -1    0    0  501    0  0.00000000000E+00  0.00000000000E+00  0.21779420981E+04  0.21779420981E+04  0.50400001928E-02 0.  1.
       -1   -1    0    0    0  501  0.00000000000E+00  0.00000000000E+00 -0.30541305451E+03  0.30541305455E+03  0.50400001928E-02 0. -1.
    10030    2    1    2    0    0  0.00000000000E+00  0.00000000000E+00  0.18725290436E+04  0.24833551527E+04  0.16311614865E+04 0.  0.
        3    1    3    3  502    0  0.78797411908E+03 -0.18989141862E+03  0.79831734952E+03  0.11376610057E+04  0.10100000352E+00 0.  1.
       -3    1    3    3    0  502 -0.78797411908E+03  0.18989141862E+03  0.10742116941E+04  0.13456941470E+04  0.10100000352E+00 0. -1.
</event>
<event>
 5   0  0.2730707E-04  0.1585567E+04  0.7818609E-02  0.8829464E-01
        1   -1    0    0  501    0  0.00000000000E+00  0.00000000000E+00  0.14134361177E+04  0.14134361177E+04  0.50400001928E-02 0.  1.
       -1   -1    0    0    0  501  0.00000000000E+00  0.00000000000E+00 -0.44466484642E+03  0.44466484645E+03  0.50400001928E-02 0. -1.
    10030    2    1    2    0    0  0.00000000000E+00  0.00000000000E+00  0.96877127124E+03  0.18581009641E+04  0.15855665918E+04 0.  0.
        5    1    3    3  502    0  0.58617900816E+03  0.45320225527E+03  0.81477634194E+03  0.11013086267E+04  0.46999998093E+01 0. -1.
       -5    1    3    3    0  502 -0.58617900816E+03 -0.45320225527E+03  0.15399492929E+03  0.75679233745E+03  0.46999998093E+01 0.  1.
</event>
<event>
 5   0  0.5315984E-04  0.1622514E+04  0.7818609E-02  0.8806835E-01
        2   -1    0    0  501    0  0.00000000000E+00  0.00000000000E+00  0.74675473041E+03  0.74675473042E+03  0.25500000920E-02 0. -1.
       -2   -1    0    0    0  501  0.00000000000E+00  0.00000000000E+00 -0.88133044323E+03  0.88133044324E+03  0.25500000920E-02 0.  1.
    10030    2    1    2    0    0  0.00000000000E+00  0.00000000000E+00 -0.13457571282E+03  0.16280851737E+04  0.16225137011E+04 0.  0.
        2    1    3    3  502    0  0.48031871842E+03  0.55044555244E+03  0.28668586227E+03  0.78478351225E+03  0.25500000920E-02 0.  1.
       -2    1    3    3    0  502 -0.48031871842E+03 -0.55044555244E+03 -0.42126157509E+03  0.84330166140E+03  0.25500000920E-02 0. -1.
</event>
<event>
 5   0  0.5083831E-04  0.1572420E+04  0.7818609E-02  0.8837673E-01
       -2   -1    0    0    0  501  0.00000000000E+00  0.00000000000E+00  0.37214369150E+03  0.37214369151E+03  0.25500000920E-02 0. -1.
        2   -1    0    0  501    0  0.00000000000E+00  0.00000000000E+00 -0.16609873367E+04  0.16609873367E+04  0.25500000920E-02 0.  1.
    10030    2    1    2    0    0  0.00000000000E+00  0.00000000000E+00 -0.12888436452E+04  0.20331310282E+04  0.15724197392E+04 0.  0.
        4    1    3    3  502    0 -0.67716973748E+03  0.37984568738E+03 -0.80426628181E+03  0.11178942099E+04  0.12699999809E+01 0. -1.
       -4    1    3    3    0  502  0.67716973748E+03 -0.37984568738E+03 -0.48457736338E+03  0.91523681831E+03  0.12699999809E+01 0.  1.
</event>
<event>
 5   0  0.2796994E-04  0.1597842E+04  0.7818609E-02  0.8821875E-01
        1   -1    0    0  501    0  0.00000000000E+00  0.00000000000E+00  0.41410037531E+03  0.41410037534E+03  0.50400001928E-02 0.  1.
       -1   -1    0    0    0  501  0.00000000000E+00  0.00000000000E+00 -0.15413520930E+04  0.15413520930E+04  0.50400001928E-02 0. -1.
    10030    2    1    2    0    0  0.00000000000E+00  0.00000000000E+00 -0.11272517176E+04  0.19554524683E+04  0.15978416445E+04 0.  0.
        3    1    3    3  502    0  0.14556184258E+03  0.56108401187E+03 -0.12364657541E+04  0.13655955074E+04  0.10100000352E+00 0. -1.
       -3    1    3    3    0  502 -0.14556184258E+03 -0.56108401187E+03  0.10921403650E+03  0.58985696093E+03  0.10100000352E+00 0.  1.
</event>
<event>
 5   0  0.5315984E-04  0.1605861E+04  0.7818609E-02  0.8816955E-01
        2   -1    0    0  501    0  0.00000000000E+00  0.00000000000E+00  0.12243477457E+04  0.12243477457E+04  0.25500000920E-02 0.  1.
       -2   -1    0    0    0  501  0.00000000000E+00  0.00000000000E+00 -0.52656402709E+03  0.52656402710E+03  0.25500000920E-02 0. -1.
    10030    2    1    2    0    0  0.00000000000E+00  0.00000000000E+00  0.69778371865E+03  0.17509117728E+04  0.16058611143E+04 0.  0.
        2    1    3    3  502    0  0.16562665827E+03  0.55054154579E+03 -0.26224453907E+03  0.63190219326E+03  0.25500000920E-02 0. -1.
       -2    1    3    3    0  502 -0.16562665827E+03 -0.55054154579E+03  0.96002825772E+03  0.11190095796E+04  0.25500000920E-02 0.  1.
</event>
<event>
 5   0  0.5083831E-04  0.1690478E+04  0.7818609E-02  0.8766814E-01
        2   -1    0    0  501    0  0.00000000000E+00  0.00000000000E+00  0.83373177432E+03  0.83373177432E+03  0.25500000920E-02 0.  1.
       -2   -1    0    0    0  501  0.00000000000E+00  0.00000000000E+00 -0.85690535811E+03  0.85690535811E+03  0.25500000920E-02 0. -1.
    10030    2    1    2    0    0  0.00000000000E+00  0.00000000000E+00 -0.23173583788E+02  0.16906371324E+04  0.16904783047E+04 0.  0.
        4    1    3    3  502    0 -0.80393396148E+03 -0.18718314156E+02 -0.27193301662E+03  0.84888713509E+03  0.12699999809E+01 0. -1.
       -4    1    3    3    0  502  0.80393396148E+03  0.18718314156E+02  0.24875943283E+03  0.84174999734E+03  0.12699999809E+01 0.  1.
</event>
<event>
 5   0  0.5264308E-04  0.1596228E+04  0.7818609E-02  0.8822869E-01
       -2   -1    0    0    0  501  0.00000000000E+00  0.00000000000E+00  0.66573196723E+03  0.66573196723E+03  0.25500000920E-02 0.  1.
        2   -1    0    0  501    0  0.00000000000E+00  0.00000000000E+00 -0.95681995946E+03  0.95681995947E+03  0.25500000920E-02 0. -1.
    10030    2    1    2    0    0  0.00000000000E+00  0.00000000000E+00 -0.29108799223E+03  0.16225519267E+04  0.15962275952E+04 0.  0.
        3    1    3    3  502    0  0.51785173969E+03 -0.28960578171E+03 -0.68814839775E+03  0.90861992088E+03  0.10100000352E+00 0. -1.
       -3    1    3    3    0  502 -0.51785173969E+03  0.28960578171E+03  0.39706040551E+03  0.71393200582E+03  0.10100000352E+00 0.  1.
</event>
<event>
 5   0  0.2730707E-04  0.1615862E+04  0.7818609E-02  0.8810862E-01
        1   -1    0    0  501    0  0.00000000000E+00  0.00000000000E+00  0.65986390584E+03  0.65986390586E+03  0.50400001928E-02 0. -1.
       -1   -1    0    0    0  501  0.00000000000E+00  0.00000000000E+00 -0.98922305016E+03  0.98922305017E+03  0.50400001928E-02 0.  1.
    10030    2    1    2    0    0  0.00000000000E+00  0.00000000000E+00 -0.32935914432E+03  0.16490869560E+04  0.16158621051E+04 0.  0.
        5    1    3    3  502    0  0.50571925564E+03  0.57879244726E+03 -0.41875195144E+03  0.87528735246E+03  0.46999998093E+01 0.  1.
       -5    1    3    3    0  502 -0.50571925564E+03 -0.57879244726E+03  0.89392807119E+02  0.77379960358E+03  0.46999998093E+01 0. -1.
</event>
<event>
 5   0  0.5315984E-04  0.1634088E+04  0.7818609E-02  0.8799876E-01
        2   -1    0    0  501    0  0.00000000000E+00  0.00000000000E+00  0.16584704341E+04  0.16584704341E+04  0.25500000920E-02 0. -1.
       -2   -1    0    0    0  501  0.00000000000E+00  0.00000000000E+00 -0.40251598345E+03  0.40251598346E+03  0.25500000920E-02 0.  1.
    10030    2    1    2    0    0  0.00000000000E+00  0.00000000000E+00  0.12559544506E+04  0.20609864175E+04  0.16340879509E+04 0.  0.
        2    1    3    3  502    0 -0.41386797600E+03  0.48162847188E+03 -0.20440677100E+02  0.63535069668E+03  0.25500000920E-02 0.  1.
       -2    1    3    3    0  502  0.41386797600E+03 -0.48162847188E+03  0.12763951277E+04  0.14256357209E+04  0.25500000920E-02 0. -1.
</event>
<event>
 5   0  0.1908125E-04  0.1592100E+04  0.7818609E-02  0.8825416E-01
        3   -1    0    0  501    0  0.00000000000E+00  0.00000000000E+00  0.53814688145E+03  0.53814689093E+03  0.10100000352E+00 0. -1.
       -3   -1    0    0    0  501  0.00000000000E+00  0.00000000000E+00 -0.11775517682E+04  0.11775517726E+04  0.10100000352E+00 0.  1.
    10030    2    1    2    0    0  0.00000000000E+00  0.00000000000E+00 -0.63940488679E+03  0.17156986635E+04  0.15921002778E+04 0.  0.
        4    1    3    3  502    0 -0.21400493315E+03 -0.36779190142E+03  0.40530083039E+03  0.58765582629E+03  0.12699999809E+01 0. -1.
       -4    1    3    3    0  502  0.21400493315E+03  0.36779190142E+03 -0.10447057172E+04  0.11280428372E+04  0.12699999809E+01 0.  1.
</event>
<event>
 5   0  0.2763895E-04  0.1610571E+04  0.7818609E-02  0.8814080E-01
       -1   -1    0    0    0  501  0.00000000000E+00  0.00000000000E+00  0.95243941571E+03  0.95243941573E+03  0.50400001928E-02 0.  1.
        1   -1    0    0  501    0  0.00000000000E+00  0.00000000000E+00 -0.68086689839E+03  0.68086689841E+03  0.50400001928E-02 0. -1.
    10030    2    1    2    0    0  0.00000000000E+00  0.00000000000E+00  0.27157251733E+03  0.16333063141E+04  0.16105706702E+04 0.  0.
        4    1    3    3  502    0 -0.17020969864E+03 -0.74907408628E+03  0.38085760131E+03  0.85740157080E+03  0.12699999809E+01 0.  1.
       -4    1    3    3    0  502  0.17020969864E+03  0.74907408628E+03 -0.10928508398E+03  0.77590474333E+03  0.12699999809E+01 0. -1.
</event>
<event>
 5   0  0.5315984E-04  0.1605892E+04  0.7818609E-02  0.8816937E-01
        2   -1    0    0  501    0  0.00000000000E+00  0.00000000000E+00  0.11210170472E+04  0.11210170472E+04  0.25500000920E-02 0. -1.
       -2   -1    0    0    0  501  0.00000000000E+00  0.00000000000E+00 -0.57512256564E+03  0.57512256565E+03  0.25500000920E-02 0.  1.
    10030    2    1    2    0    0  0.00000000000E+00  0.00000000000E+00  0.54589448157E+03  0.16961396129E+04  0.16058919021E+04 0.  0.
        2    1    3    3  502    0 -0.75357342639E+03  0.24980860575E+03  0.14600582485E+03  0.80721431439E+03  0.25500000920E-02 0. -1.
       -2    1    3    3    0  502  0.75357342639E+03 -0.24980860575E+03  0.39988865672E+03  0.88892529846E+03  0.25500000920E-02 0.  1.
</event>
<event>
 5   0  0.2730707E-04  0.1598676E+04  0.7818609E-02  0.8821362E-01
        1   -1    0    0  501    0  0.00000000000E+00  0.00000000000E+00  0.14292176856E+04  0.14292176856E+04  0.50400001928E-02 0.  1.
       -1   -1    0    0    0  501  0.00000000000E+00  0.00000000000E+00 -0.44705646567E+03  0.44705646570E+03  0.50400001928E-02 0. -1.
    10030    2    1    2    0    0  0.00000000000E+00  0.00000000000E+00  0.98216121993E+03  0.18762741513E+04  0.15986757110E+04 0.  0.
        5    1    3    3  502    0  0.12585600406E+03  0.78780835501E+03  0.43314045465E+03  0.90780751343E+03  0.46999998093E+01 0. -1.
       -5    1    3    3    0  502 -0.12585600406E+03 -0.78780835501E+03  0.54902076528E+03  0.96846663788E+03  0.46999998093E+01 0.  1.
</event>
<event>
 5   0  0.2730707E-04  0.1744849E+04  0.7818609E-02  0.8736191E-01
        1   -1    0    0  501    0  0.00000000000E+00  0.00000000000E+00  0.42517925582E+03  0.42517925585E+03  0.50400001928E-02 0.  1.
       -1   -1    0    0    0  501  0.00000000000E+00  0.00000000000E+00 -0.17901254173E+04  0.17901254173E+04  0.50400001928E-02 0. -1.
    10030    2    1    2    0    0  0.00000000000E+00  0.00000000000E+00 -0.13649461615E+04  0.22153046731E+04  0.17448486385E+04 0.  0.
        5    1    3    3  502    0 -0.19214927142E+03  0.19659243481E+03 -0.17336834258E+04  0.17553490361E+04  0.46999998093E+01 0. -1.
       -5    1    3    3    0  502  0.19214927142E+03 -0.19659243481E+03  0.36873726430E+03  0.45995563700E+03  0.46999998093E+01 0.  1.
</event>
<event>
 5   0  0.2796994E-04  0.1705750E+04  0.7818609E-02  0.8758092E-01
       -1   -1    0    0    0  501  0.00000000000E+00  0.00000000000E+00  0.74394941606E+03  0.74394941607E+03  0.50400001928E-02 0. -1.
        1   -1    0    0  501    0  0.00000000000E+00  0.00000000000E+00 -0.97774912994E+03  0.97774912995E+03  0.50400001928E-02 0.  1.
    10030    2    1    2    0    0  0.00000000000E+00  0.00000000000E+00 -0.23379971388E+03  0.17216985460E+04  0.17057501509E+04 0.  0.
        3    1    3    3  502    0  0.35348152057E+03  0.65974112974E+03 -0.52960956783E+03  0.91689358608E+03  0.10100000352E+00 0.  1.
       -3    1    3    3    0  502 -0.35348152057E+03 -0.65974112974E+03  0.29580985395E+03  0.80480495994E+03  0.10100000352E+00 0. -1.
</event>
<event>
 5   0  0.2649086E-04  0.1604666E+04  0.7818609E-02  0.8817687E-01
        1   -1    0    0  501    0  0.00000000000E+00  0.00000000000E+00  0.92468878486E+03  0.92468878488E+03  0.50400001928E-02 0. -1.
       -1   -1    0    0    0  501  0.00000000000E+00  0.00000000000E+00 -0.69616736681E+03  0.69616736682E+03  0.50400001928E-02 0.  1.
    10030    2    1    2    0    0  0.00000000000E+00  0.00000000000E+00  0.22852141806E+03  0.16208561517E+04  0.16046658923E+04 0.  0.
        2    1    3    3  502    0  0.27797801050E+03 -0.75244556641E+03  0.96998762525E+02  0.80799434693E+03  0.25500000920E-02 0. -1.
       -2    1    3    3    0  502 -0.27797801050E+03  0.75244556641E+03  0.13152265553E+03  0.81286180477E+03  0.25500000920E-02 0.  1.
</event>
<event>
 5   0  0.5381164E-04  0.1603019E+04  0.7818609E-02  0.8818696E-01
       -2   -1    0    0    0  501  0.00000000000E+00  0.00000000000E+00  0.67812502696E+03  0.67812502697E+03  0.25500000920E-02 0. -1.
        2   -1    0    0  501    0  0.00000000000E+00  0.00000000000E+00 -0.94734353008E+03  0.94734353009E+03  0.25500000920E-02 0.  1.
    10030    2    1    2    0    0  0.00000000000E+00  0.00000000000E+00 -0.26921850312E+03  0.16254685571E+04  0.16030188482E+04 0.  0.
        5    1    3    3  502    0 -0.61044042949E+02 -0.31925990372E+03 -0.87749621379E+03  0.93577505658E+03  0.46999998093E+01 0.  1.
       -5    1    3    3    0  502  0.61044042949E+02  0.31925990372E+03  0.60827771067E+03  0.68969350047E+03  0.46999998093E+01 0. -1.
</event>
<event>
 5   0  0.2763895E-04  0.1580698E+04  0.7818609E-02  0.8832495E-01
       -1   -1    0    0    0  501  0.00000000000E+00  0.00000000000E+00  0.36875915041E+03  0.36875915044E+03  0.50400001928E-02 0. -1.
        1   -1    0    0  501    0  0.00000000000E+00  0.00000000000E+00 -0.16939274941E+04  0.16939274941E+04  0.50400001928E-02 0.  1.
    10030    2    1    2    0    0  0.00000000000E+00  0.00000000000E+00 -0.13251683437E+04  0.20626866445E+04  0.15806976480E+04 0.  0.
        4    1    3    3  502    0  0.28758327751E+03  0.30606928566E+03  0.21109681185E+03  0.47004896128E+03  0.12699999809E+01 0. -1.
       -4    1    3    3    0  502 -0.28758327751E+03 -0.30606928566E+03 -0.15362651555E+04  0.15926376833E+04  0.12699999809E+01 0.  1.
</event>
<event>
 5   0  0.2730707E-04  0.1584855E+04  0.7818609E-02  0.8829906E-01
       -1   -1    0    0    0  501  0.00000000000E+00  0.00000000000E+00  0.65261375493E+03  0.65261375495E+03  0.50400001928E-02 0.  1.
        1   -1    0    0  501    0  0.00000000000E+00  0.00000000000E+00 -0.96219454831E+03  0.96219454832E+03  0.50400001928E-02 0. -1.
    10030    2    1    2    0    0  0.00000000000E+00  0.00000000000E+00 -0.30958079338E+03  0.16148083033E+04  0.15848550687E+04 0.  0.
        5    1    3    3  502    0 -0.68443388236E+03  0.32741019947E+02  0.25072347056E+03  0.72966160814E+03  0.46999998093E+01 0.  1.
       -5    1    3    3    0  502  0.68443388236E+03 -0.32741019947E+02 -0.56030426393E+03  0.88514669513E+03  0.46999998093E+01 0. -1.
</event>
<event>
 5   0  0.5315984E-04  0.1616543E+04  0.7818609E-02  0.8810449E-01
        2   -1    0    0  501    0  0.00000000000E+00  0.00000000000E+00  0.13871625184E+04  0.13871625184E+04  0.25500000920E-02 0.  1.
       -2   -1    0    0    0  501  0.00000000000E+00  0.00000000000E+00 -0.47096358475E+03  0.47096358476E+03  0.25500000920E-02 0. -1.
    10030    2    1    2    0    0  0.00000000000E+00  0.00000000000E+00  0.91619893365E+03  0.18581261032E+04  0.16165432655E+04 0.  0.
        2    1    3    3  502    0 -0.26115897446E+03 -0.73987917836E+03  0.68121548830E+03  0.10390763928E+04  0.25500000920E-02 0.  1.
       -2    1    3    3    0  502  0.26115897446E+03  0.73987917836E+03  0.23498344535E+03  0.81904971040E+03  0.25500000920E-02 0. -1.
</event>
<event>
 5   0  0.2649086E-04  0.1580691E+04  0.7818609E-02  0.8832499E-01
        1   -1    0    0  501    0  0.00000000000E+00  0.00000000000E+00  0.76179795155E+03  0.76179795157E+03  0.50400001928E-02 0. -1.
       -1   -1    0    0    0  501  0.00000000000E+00  0.00000000000E+00 -0.81996331081E+03  0.81996331082E+03  0.50400001928E-02 0.  1.
    10030    2    1    2    0    0  0.00000000000E+00  0.00000000000E+00 -0.58165359253E+02  0.15817612624E+04  0.15806914570E+04 0.  0.
        2    1    3    3  502    0  0.76034145182E+03 -0.44177903673E+02 -0.24035482055E+03  0.79864964177E+03  0.25500000920E-02 0. -1.
       -2    1    3    3    0  502 -0.76034145182E+03  0.44177903673E+02  0.18218946130E+03  0.78311162062E+03  0.25500000920E-02 0.  1.
</event>
<event>
 5   0  0.5381164E-04  0.1663970E+04  0.7818609E-02  0.8782185E-01
       -2   -1    0    0    0  501  0.00000000000E+00  0.00000000000E+00  0.59360396790E+03  0.59360396790E+03  0.25500000920E-02 0. -1.
        2   -1    0    0  501    0  0.00000000000E+00  0.00000000000E+00 -0.11660950483E+04  0.11660950483E+04  0.25500000920E-02 0.  1.
    10030    2    1    2    0    0  0.00000000000E+00  0.00000000000E+00 -0.57249108043E+03  0.17596990162E+04  0.16639695281E+04 0.  0.
        5    1    3    3  502    0 -0.58713706409E+03 -0.50636751880E+02 -0.90729849112E+03  0.10818995585E+04  0.46999998093E+01 0.  1.
       -5    1    3    3    0  502  0.58713706409E+03  0.50636751880E+02  0.33480741069E+03  0.67779945775E+03  0.46999998093E+01 0. -1.
</event>
<event>
 5   0  0.2689675E-04  0.1597603E+04  0.7818609E-02  0.8822022E-01
        1   -1    0    0  501    0  0.00000000000E+00  0.00000000000E+00  0.17433850433E+04  0.17433850433E+04  0.50400001928E-02 0. -1.
       -1   -1    0    0    0  501  0.00000000000E+00  0.00000000000E+00 -0.36600262763E+03  0.36600262767E+03  0.50400001928E-02 0.  1.
    10030    2    1    2    0    0  0.00000000000E+00  0.00000000000E+00  0.13773824157E+04  0.21093876710E+04  0.15976025875E+04 0.  0.
        1    1    3    3  502    0  0.34050551631E+03  0.38170997723E+02  0.16414306140E+04  0.16768111081E+04  0.50400001928E-02 0. -1.
       -1    1    3    3    0  502 -0.34050551631E+03 -0.38170997723E+02 -0.26404819830E+03  0.43257656289E+03  0.50400001928E-02 0.  1.
</event>
<event>
 5   0  0.5264308E-04  0.1595555E+04  0.7818609E-02  0.8823284E-01
       -2   -1    0    0    0  501  0.00000000000E+00  0.00000000000E+00  0.80169831544E+03  0.80169831545E+03  0.25500000920E-02 0. -1.
        2   -1    0    0  501    0  0.00000000000E+00  0.00000000000E+00 -0.79387555473E+03  0.79387555474E+03  0.25500000920E-02 0.  1.
    10030    2    1    2    0    0  0.00000000000E+00  0.00000000000E+00  0.78227607087E+01  0.15955738702E+04  0.15955546934E+04 0.  0.
        3    1    3    3  502    0  0.26724720253E+03 -0.34532264290E+03 -0.66376414366E+03  0.79451346343E+03  0.10100000352E+00 0.  1.
       -3    1    3    3    0  502 -0.26724720253E+03  0.34532264290E+03  0.67158690437E+03  0.80106040676E+03  0.10100000352E+00 0. -1.
</event>
<event>
 5   0  0.5381164E-04  0.1606226E+04  0.7818609E-02  0.8816732E-01
        2   -1    0    0  501    0  0.00000000000E+00  0.00000000000E+00  0.14929001822E+04  0.14929001822E+04  0.25500000920E-02 0. -1.
       -2   -1    0    0    0  501  0.00000000000E+00  0.00000000000E+00 -0.43203854731E+03  0.43203854731E+03  0.25500000920E-02 0.  1.
    10030    2    1    2    0    0  0.00000000000E+00  0.00000000000E+00  0.10608616349E+04  0.19249387295E+04  0.16062259194E+04 0.  0.
        5    1    3    3  502    0 -0.54257900739E+03  0.42992775246E+03  0.10183208688E+04  0.12313526438E+04  0.46999998093E+01 0. -1.
       -5    1    3    3    0  502  0.54257900739E+03 -0.42992775246E+03  0.42540766173E+02  0.69358608577E+03  0.46999998093E+01 0.  1.
</event>
<event>
 5   0  0.2689675E-04  0.1535904E+04  0.7818609E-02  0.8860922E-01
       -1   -1    0    0    0  501  0.00000000000E+00  0.00000000000E+00  0.43097752690E+03  0.43097752693E+03  0.50400001928E-02 0.  1.
        1   -1    0    0  501    0  0.00000000000E+00  0.00000000000E+00 -0.13684020730E+04  0.13684020730E+04  0.50400001928E-02 0. -1.
    10030    2    1    2    0    0  0.00000000000E+00  0.00000000000E+00 -0.93742454606E+03  0.17993795999E+04  0.15359043476E+04 0.  0.
        1    1    3    3  502    0  0.75282472986E+03 -0.14736685731E+03 -0.42665928025E+03  0.87778141127E+03  0.50400001928E-02 0.  1.
       -1    1    3    3    0  502 -0.75282472986E+03  0.14736685731E+03 -0.51076526581E+03  0.92159818864E+03  0.50400001928E-02 0. -1.
</event>
<event>
 5   0  0.5315984E-04  0.1528927E+04  0.7818609E-02  0.8865441E-01
        2   -1    0    0  501    0  0.00000000000E+00  0.00000000000E+00  0.10070721350E+04  0.10070721350E+04  0.25500000920E-02 0. -1.
       -2   -1    0    0    0  501  0.00000000000E+00  0.00000000000E+00 -0.58030046612E+03  0.58030046613E+03  0.25500000920E-02 0.  1.
    10030    2    1    2    0    0  0.00000000000E+00  0.00000000000E+00  0.42677166891E+03  0.15873726012E+04  0.15289269824E+04 0.  0.
        2    1    3    3  502    0  0.51796087524E+03  0.24860068421E+03 -0.31019199559E+03  0.65292024215E+03  0.25500000920E-02 0.  1.
       -2    1    3    3    0  502 -0.51796087524E+03 -0.24860068421E+03  0.73696366450E+03  0.93445235902E+03  0.25500000920E-02 0. -1.
</event>
<event>
 5   0  0.5381164E-04  0.1599658E+04  0.7818609E-02  0.8820758E-01
        2   -1    0    0  501    0  0.00000000000E+00  0.00000000000E+00  0.43329507315E+03  0.43329507315E+03  0.25500000920E-02 0.  1.
       -2   -1    0    0    0  501  0.00000000000E+00  0.00000000000E+00 -0.14764216349E+04  0.14764216349E+04  0.25500000920E-02 0. -1.
    10030    2    1    2    0    0  0.00000000000E+00  0.00000000000E+00 -0.10431265618E+04  0.19097167081E+04  0.15996577388E+04 0.  0.
        5    1    3    3  502    0  0.10870036292E+03 -0.19287662392E+03 -0.14390939116E+04  0.14560324643E+04  0.46999998093E+01 0. -1.
       -5    1    3    3    0  502 -0.10870036292E+03  0.19287662392E+03  0.39596734976E+03  0.45368424375E+03  0.46999998093E+01 0.  1.
</event>
<event>
 5   0  0.2649086E-04  0.1617670E+04  0.7818609E-02  0.8809765E-01
       -1   -1    0    0    0  501  0.00000000000E+00  0.00000000000E+00  0.81230448921E+03  0.81230448923E+03  0.50400001928E-02 0.  1.
        1   -1    0    0  501    0  0.00000000000E+00  0.00000000000E+00 -0.80538055080E+03  0.80538055082E+03  0.50400001928E-02 0. -1.
    10030    2    1    2    0    0  0.00000000000E+00  0.00000000000E+00  0.69239384095E+01  0.16176850400E+04  0.16176702222E+04 0.  0.
        2    1    3    3  502    0  0.21861822199E+03 -0.39041000748E+03  0.67726361163E+03  0.81172649370E+03  0.25500000920E-02 0.  1.
       -2    1    3    3    0  502 -0.21861822199E+03  0.39041000748E+03 -0.67033967322E+03  0.80595854635E+03  0.25500000920E-02 0. -1.
</event>
<event>
 5   0  0.5381164E-04  0.1583102E+04  0.7818609E-02  0.8830997E-01
       -2   -1    0    0    0  501  0.00000000000E+00  0.00000000000E+00  0.13586594338E+04  0.13586594338E+04  0.25500000920E-02 0.  1.
        2   -1    0    0  501    0  0.00000000000E+00  0.00000000000E+00 -0.46115501821E+03  0.46115501821E+03  0.25500000920E-02 0. -1.
    10030    2    1    2    0    0  0.00000000000E+00  0.00000000000E+00  0.89750441558E+03  0.18198144520E+04  0.15831015330E+04 0.  0.
        5    1    3    3  502    0 -0.35311483081E+02 -0.20888762820E+03 -0.42794384472E+03  0.47753425666E+03  0.46999998093E+01 0. -1.
       -5    1    3    3    0  502  0.35311483081E+02  0.20888762820E+03  0.13254482603E+04  0.13422801953E+04  0.46999998093E+01 0.  1.
</event>
<event>
 5   0  0.2763895E-04  0.1555872E+04  0.7818609E-02  0.8848126E-01
       -1   -1    0    0    0  501  0.00000000000E+00  0.00000000000E+00  0.51908770393E+03  0.51908770395E+03  0.50400001928E-02 0.  1.
        1   -1    0    0  501    0  0.00000000000E+00  0.00000000000E+00 -0.11658617849E+04  0.11658617849E+04  0.50400001928E-02 0. -1.
    10030    2    1    2    0    0  0.00000000000E+00  0.00000000000E+00 -0.64677408097E+03  0.16849494889E+04  0.15558721246E+04 0.  0.
        4    1    3    3  502    0  0.28556269261E+03 -0.31252321406E+03 -0.10301934867E+04  0.11137850079E+04  0.12699999809E+01 0. -1.
       -4    1    3    3    0  502 -0.28556269261E+03  0.31252321406E+03  0.38341940577E+03  0.57116448100E+03  0.12699999809E+01 0.  1.
</event>
<event>
 5   0  0.2730707E-04  0.1615299E+04  0.7818609E-02  0.8811204E-01
        1   -1    0    0  501    0  0.00000000000E+00  0.00000000000E+00  0.69198467363E+03  0.69198467365E+03  0.50400001928E-02 0. -1.
       -1   -1    0    0    0  501  0.00000000000E+00  0.00000000000E+00 -0.94264732400E+03  0.94264732402E+03  0.50400001928E-02 0.  1.
    10030    2    1    2    0    0  0.00000000000E+00  0.00000000000E+00 -0.25066265038E+03  0.16346319977E+04  0.16152987351E+04 0.  0.
        5    1    3    3  502    0 -0.66808497351E+03  0.21063225153E+03  0.28143978823E+03  0.75493968078E+03  0.46999998093E+01 0. -1.
       -5    1    3    3    0  502  0.66808497351E+03 -0.21063225153E+03 -0.53210243861E+03  0.87969231688E+03  0.46999998093E+01 0.  1.
</event>
<event>
 5   0  0.2730707E-04  0.1598675E+04  0.7818609E-02  0.8821362E-01
       -1   -1    0    0    0  501  0.00000000000E+00  0.00000000000E+00  0.63570085266E+03  0.63570085268E+03  0.50400001928E-02 0. -1.
        1   -1    0    0  501    0  0.00000000000E+00  0.00000000000E+00 -0.10050965925E+04  0.10050965925E+04  0.50400001928E-02 0.  1.
    10030    2    1    2    0    0  0.00000000000E+00  0.00000000000E+00 -0.36939573984E+03  0.16407974452E+04  0.15986754028E+04 0.  0.
        5    1    3    3  502    0  0.54331578853E+03 -0.45935718266E+03  0.18920512497E+03  0.73622125522E+03  0.46999998093E+01 0.  1.
       -5    1    3    3    0  502 -0.54331578853E+03  0.45935718266E+03 -0.55860086481E+03  0.90457618998E+03  0.46999998093E+01 0. -1.
</event>
<event>
 5   0  0.1908125E-04  0.1608018E+04  0.7818609E-02  0.8815637E-01
        3   -1    0    0  501    0  0.00000000000E+00  0.00000000000E+00  0.65314874371E+03  0.65314875152E+03  0.10100000352E+00 0. -1.
       -3   -1    0    0    0  501  0.00000000000E+00  0.00000000000E+00 -0.98971416592E+03  0.98971417107E+03  0.10100000352E+00 0.  1.
    10030    2    1    2    0    0  0.00000000000E+00  0.00000000000E+00 -0.33656542221E+03  0.16428629226E+04  0.16080181277E+04 0.  0.
        1    1    3    3  502    0 -0.54543055317E+03 -0.39533014681E+03 -0.61671314191E+03  0.91329924600E+03  0.50400001928E-02 0.  1.
       -1    1    3    3    0  502  0.54543055317E+03  0.39533014681E+03  0.28014771970E+03  0.72956367658E+03  0.50400001928E-02 0. -1.
</event>
<event>
 5   0  0.5264308E-04  0.1518494E+04  0.7818609E-02  0.8872247E-01
       -2   -1    0    0    0  501  0.00000000000E+00  0.00000000000E+00  0.46804283698E+03  0.46804283699E+03  0.25500000920E-02 0. -1.
        2   -1    0    0  501    0  0.00000000000E+00  0.00000000000E+00 -0.12316304182E+04  0.12316304182E+04  0.25500000920E-02 0.  1.
    10030    2    1    2    0    0  0.00000000000E+00  0.00000000000E+00 -0.76358758118E+03  0.16996732551E+04  0.15184937208E+04 0.  0.
        3    1    3    3  502    0  0.98306942757E+01  0.75692177940E+03 -0.31625348631E+03  0.82039228451E+03  0.10100000352E+00 0.  1.
       -3    1    3    3    0  502 -0.98306942757E+01 -0.75692177940E+03 -0.44733409487E+03  0.87928097063E+03  0.10100000352E+00 0. -1.
</event>
<event>
 5   0  0.2730707E-04  0.1624261E+04  0.7818609E-02  0.8805781E-01
        1   -1    0    0  501    0  0.00000000000E+00  0.00000000000E+00  0.67541142106E+03  0.67541142107E+03  0.50400001928E-02 0. -1.
       -1   -1    0    0    0  501  0.00000000000E+00  0.00000000000E+00 -0.97652470175E+03  0.97652470176E+03  0.50400001928E-02 0.  1.
    10030    2    1    2    0    0  0.00000000000E+00  0.00000000000E+00 -0.30111328070E+03  0.16519361228E+04  0.16242609846E+04 0.  0.
        5    1    3    3  502    0  0.41128198441E+03 -0.55447168445E+03 -0.58556169113E+03  0.90526035133E+03  0.46999998093E+01 0. -1.
       -5    1    3    3    0  502 -0.41128198441E+03  0.55447168445E+03  0.28444841044E+03  0.74667577151E+03  0.46999998093E+01 0.  1.
</event>
<event>
 5   0  0.2730707E-04  0.1592110E+04  0.7818609E-02  0.8825410E-01
       -1   -1    0    0    0  501  0.00000000000E+00  0.00000000000E+00  0.50264208465E+03  0.50264208467E+03  0.50400001928E-02 0.  1.
        1   -1    0    0  501    0  0.00000000000E+00  0.00000000000E+00 -0.12607449389E+04  0.12607449389E+04  0.50400001928E-02 0. -1.
    10030    2    1    2    0    0  0.00000000000E+00  0.00000000000E+00 -0.75810285422E+03  0.17633870235E+04  0.15921098760E+04 0.  0.
        5    1    3    3  502    0  0.47594500180E+03  0.20381954912E+03  0.29065859393E+03  0.59377652493E+03  0.46999998093E+01 0.  1.
       -5    1    3    3    0  502 -0.47594500180E+03 -0.20381954912E+03 -0.10487614481E+04  0.11696104986E+04  0.46999998093E+01 0. -1.
</event>
<event>
 5   0  0.5264308E-04  0.1600877E+04  0.7818609E-02  0.8820010E-01
       -2   -1    0    0    0  501  0.00000000000E+00  0.00000000000E+00  0.23089683050E+03  0.23089683052E+03  0.25500000920E-02 0. -1.
        2   -1    0    0  501    0  0.00000000000E+00  0.00000000000E+00 -0.27748385053E+04  0.27748385053E+04  0.25500000920E-02 0.  1.
    10030    2    1    2    0    0  0.00000000000E+00  0.00000000000E+00 -0.25439416748E+04  0.30057353358E+04  0.16008765300E+04 0.  0.
        3    1    3    3  502    0  0.44806806994E+03 -0.13993738000E+03 -0.24892787941E+04  0.25331514741E+04  0.10100000352E+00 0.  1.
       -3    1    3    3    0  502 -0.44806806994E+03  0.13993738000E+03 -0.54662880652E+02  0.47258386170E+03  0.10100000352E+00 0. -1.
</event>
<event>
 5   0  0.5131239E-04  0.1576991E+04  0.7818609E-02  0.8834809E-01
        2   -1    0    0  501    0  0.00000000000E+00  0.00000000000E+00  0.70029029564E+03  0.70029029564E+03  0.25500000920E-02 0.  1.
       -2   -1    0    0    0  501  0.00000000000E+00  0.00000000000E+00 -0.88781037702E+03  0.88781037702E+03  0.25500000920E-02 0. -1.
    10030    2    1    2    0    0  0.00000000000E+00  0.00000000000E+00 -0.18752008138E+03  0.15881006727E+04  0.15769907944E+04 0.  0.
        1    1    3    3  502    0  0.61800390870E+02 -0.49944350539E+03  0.51752695672E+03  0.72187066317E+03  0.50400001928E-02 0.  1.
       -1    1    3    3    0  502 -0.61800390870E+02  0.49944350539E+03 -0.70504703810E+03  0.86623000950E+03  0.50400001928E-02 0. -1.
</event>
<event>
 5   0  0.5083831E-04  0.1610808E+04  0.7818609E-02  0.8813936E-01
       -2   -1    0    0    0  501  0.00000000000E+00  0.00000000000E+00  0.49850809311E+03  0.49850809312E+03  0.25500000920E-02 0. -1.
        2   -1    0    0  501    0  0.00000000000E+00  0.00000000000E+00 -0.13012340401E+04  0.13012340401E+04  0.25500000920E-02 0.  1.
    10030    2    1    2    0    0  0.00000000000E+00  0.00000000000E+00 -0.80272594702E+03  0.17997421333E+04  0.16108081202E+04 0.  0.
        4    1    3    3  502    0 -0.30357950863E+03  0.11370789291E+03  0.42239539547E+03  0.53245608832E+03  0.12699999809E+01 0. -1.
       -4    1    3    3    0  502  0.30357950863E+03 -0.11370789291E+03 -0.12251213425E+04  0.12672860449E+04  0.12699999809E+01 0.  1.
</event>
<event>
 5   0  0.2649086E-04  0.1614006E+04  0.7818609E-02  0.8811990E-01
        1   -1    0    0  501    0  0.00000000000E+00  0.00000000000E+00  0.73480137499E+03  0.73480137501E+03  0.50400001928E-02 0.  1.
       -1   -1    0    0    0  501  0.00000000000E+00  0.00000000000E+00 -0.88629863447E+03  0.88629863448E+03  0.50400001928E-02 0. -1.
    10030    2    1    2    0    0  0.00000000000E+00  0.00000000000E+00 -0.15149725947E+03  0.16211000095E+04  0.16140055208E+04 0.  0.
        2    1    3    3  502    0  0.35075439534E+03  0.72646955965E+03 -0.54048377195E+02  0.80852204301E+03  0.25500000920E-02 0.  1.
       -2    1    3    3    0  502 -0.35075439534E+03 -0.72646955965E+03 -0.97448882277E+02  0.81257796648E+03  0.25500000920E-02 0. -1.
</event>
<event>
 5   0  0.5381164E-04  0.1595492E+04  0.7818609E-02  0.8823323E-01
       -2   -1    0    0    0  501  0.00000000000E+00  0.00000000000E+00  0.66709270621E+03  0.66709270622E+03  0.25500000920E-02 0.  1.
        2   -1    0    0  501    0  0.00000000000E+00  0.00000000000E+00 -0.95398779047E+03  0.95398779047E+03  0.25500000920E-02 0. -1.
    10030    2    1    2    0    0  0.00000000000E+00  0.00000000000E+00 -0.28689508425E+03  0.16210804967E+04  0.15954915191E+04 0.  0.
        5    1    3    3  502    0  0.30108948624E+03  0.60016591756E+02 -0.89154388209E+03  0.94293661171E+03  0.46999998093E+01 0. -1.
       -5    1    3    3    0  502 -0.30108948624E+03 -0.60016591756E+02  0.60464879784E+03  0.67814388498E+03  0.46999998093E+01 0.  1.
</event>
<event>
 5   0  0.2763895E-04  0.1604182E+04  0.7818609E-02  0.8817983E-01
       -1   -1    0    0    0  501  0.00000000000E+00  0.00000000000E+00  0.71753989149E+03  0.71753989151E+03  0.50400001928E-02 0. -1.
        1   -1    0    0  501    0  0.00000000000E+00  0.00000000000E+00 -0.89660502190E+03  0.89660502191E+03  0.50400001928E-02 0.  1.
    10030    2    1    2    0    0  0.00000000000E+00  0.00000000000E+00 -0.17906513041E+03  0.16141449134E+04  0.16041818727E+04 0.  0.
        4    1    3    3  502    0 -0.71934419076E+03 -0.24552034891E+03  0.16820658513E+03  0.77848016975E+03  0.12699999809E+01 0. -1.
       -4    1    3    3    0  502  0.71934419076E+03  0.24552034891E+03 -0.34727171553E+03  0.83566474368E+03  0.12699999809E+01 0.  1.
</event>
<event>
 5   0  0.5131239E-04  0.1608498E+04  0.7818609E-02  0.8815345E-01
        2   -1    0    0  501    0  0.00000000000E+00  0.00000000000E+00  0.28795544644E+04  0.28795544644E+04  0.25500000920E-02 0.  1.
       -2   -1    0    0    0  501  0.00000000000E+00  0.00000000000E+00 -0.22462366021E+03  0.22462366022E+03  0.25500000920E-02 0. -1.
    10030    2    1    2    0    0  0.00000000000E+00  0.00000000000E+00  0.26549308042E+04  0.31041781247E+04  0.16084975146E+04 0.  0.
        1    1    3    3  502    0 -0.23891964052E+02 -0.62159116493E+03  0.23112590863E+04  0.23935047454E+04  0.50400001928E-02 0.  1.
       -1    1    3    3    0  502  0.23891964052E+02  0.62159116493E+03  0.34367171796E+03  0.71067337928E+03  0.50400001928E-02 0. -1.
</event>
<event>
 5   0  0.1908125E-04  0.1690517E+04  0.7818609E-02  0.8766792E-01
        4   -1    0    0  501    0  0.00000000000E+00  0.00000000000E+00  0.56584099094E+03  0.56584241616E+03  0.12699999809E+01 0.  1.
       -4   -1    0    0    0  501  0.00000000000E+00  0.00000000000E+00 -0.12626512261E+04  0.12626518648E+04  0.12699999809E+01 0. -1.
    10030    2    1    2    0    0  0.00000000000E+00  0.00000000000E+00 -0.69681023514E+03  0.18284942809E+04  0.16905167351E+04 0.  0.
        2    1    3    3  502    0 -0.42633556125E+03 -0.48653261566E+03 -0.93685503296E+03  0.11384960912E+04  0.25500000920E-02 0. -1.
       -2    1    3    3    0  502  0.42633556125E+03  0.48653261566E+03  0.24004479782E+03  0.68999818975E+03  0.25500000920E-02 0.  1.
</event>
<event>
 5   0  0.5315984E-04  0.1600965E+04  0.7818609E-02  0.8819956E-01
       -2   -1    0    0    0  501  0.00000000000E+00  0.00000000000E+00  0.48882726176E+03  0.48882726177E+03  0.25500000920E-02 0.  1.
        2   -1    0    0  501    0  0.00000000000E+00  0.00000000000E+00 -0.13108350446E+04  0.13108350446E+04  0.25500000920E-02 0. -1.
    10030    2    1    2    0    0  0.00000000000E+00  0.00000000000E+00 -0.82200778284E+03  0.17996623064E+04  0.16009645911E+04 0.  0.
        2    1    3    3  502    0 -0.75926238658E+03  0.67042374195E+02 -0.68588955655E+03  0.10253870174E+04  0.25500000920E-02 0. -1.
       -2    1    3    3    0  502  0.75926238658E+03 -0.67042374195E+02 -0.13611822628E+03  0.77427528899E+03  0.25500000920E-02 0.  1.
</event>
<event>
 5   0  0.2689675E-04  0.1618708E+04  0.7818609E-02  0.8809137E-01
        1   -1    0    0  501    0  0.00000000000E+00  0.00000000000E+00  0.16294993036E+04  0.16294993036E+04  0.50400001928E-02 0. -1.
       -1   -1    0    0    0  501  0.00000000000E+00  0.00000000000E+00 -0.40199697881E+03  0.40199697884E+03  0.50400001928E-02 0.  1.
    10030    2    1    2    0    0  0.00000000000E+00  0.00000000000E+00  0.12275023248E+04  0.20314962824E+04  0.16187078761E+04 0.  0.
        1    1    3    3  502    0  0.23164627859E+03  0.23385676546E+03  0.15416999320E+04  0.15764477998E+04  0.50400001928E-02 0. -1.
       -1    1    3    3    0  502 -0.23164627859E+03 -0.23385676546E+03 -0.31419760722E+03  0.45504848263E+03  0.50400001928E-02 0.  1.
</event>
<event>
 5   0  0.2763895E-04  0.1600378E+04  0.7818609E-02  0.8820316E-01
       -1   -1    0    0    0  501  0.00000000000E+00  0.00000000000E+00  0.89001678557E+03  0.89001678558E+03  0.50400001928E-02 0.  1.
        1   -1    0    0  501    0  0.00000000000E+00  0.00000000000E+00 -0.71942706776E+03  0.71942706778E+03  0.50400001928E-02 0. -1.
    10030    2    1    2    0    0  0.00000000000E+00  0.00000000000E+00  0.17058971781E+03  0.16094438534E+04  0.16003776633E+04 0.  0.
        4    1    3    3  502    0 -0.58701437466E+03  0.38499597205E+03  0.47151838849E+03  0.84565890176E+03  0.12699999809E+01 0. -1.
       -4    1    3    3    0  502  0.58701437466E+03 -0.38499597205E+03 -0.30092867068E+03  0.76378495160E+03  0.12699999809E+01 0.  1.
</event>
<event>
 5   0  0.5315984E-04  0.1631608E+04  0.7818609E-02  0.8801362E-01
        2   -1    0    0  501    0  0.00000000000E+00  0.00000000000E+00  0.47749924284E+03  0.47749924284E+03  0.25500000920E-02 0.  1.
       -2   -1    0    0    0  501  0.00000000000E+00  0.00000000000E+00 -0.13937949970E+04  0.13937949970E+04  0.25500000920E-02 0. -1.
    10030    2    1    2    0    0  0.00000000000E+00  0.00000000000E+00 -0.91629575418E+03  0.18712942399E+04  0.16316078644E+04 0.  0.
        2    1    3    3  502    0  0.24116124563E+03  0.97188020880E+02  0.42870609540E+03  0.50139123849E+03  0.25500000920E-02 0.  1.
       -2    1    3    3    0  502 -0.24116124563E+03 -0.97188020880E+02 -0.13450018496E+04  0.13699030014E+04  0.25500000920E-02 0. -1.
</event>
<event>
 5   0  0.5381164E-04  0.1597713E+04  0.7818609E-02  0.8821954E-01
        2   -1    0    0  501    0  0.00000000000E+00  0.00000000000E+00  0.63063576196E+03  0.63063576196E+03  0.25500000920E-02 0. -1.
       -2   -1    0    0    0  501  0.00000000000E+00  0.00000000000E+00 -0.10119495821E+04  0.10119495821E+04  0.25500000920E-02 0.  1.
    10030    2    1    2    0    0  0.00000000000E+00  0.00000000000E+00 -0.38131382017E+03  0.16425853441E+04  0.15977128601E+04 0.  0.
        5    1    3    3  502    0  0.33131321289E+03 -0.56667563942E+03  0.27738714089E+03  0.71263976964E+03  0.46999998093E+01 0. -1.
       -5    1    3    3    0  502 -0.33131321289E+03  0.56667563942E+03 -0.65870096107E+03  0.92994557446E+03  0.46999998093E+01 0.  1.
</event>
<event>
 5   0  0.2763895E-04  0.1602163E+04  0.7818609E-02  0.8819220E-01
       -1   -1    0    0    0  501  0.00000000000E+00  0.00000000000E+00  0.94530077465E+03  0.94530077466E+03  0.50400001928E-02 0.  1.
        1   -1    0    0  501    0  0.00000000000E+00  0.00000000000E+00 -0.67886515853E+03  0.67886515855E+03  0.50400001928E-02 0. -1.
    10030    2    1    2    0    0  0.00000000000E+00  0.00000000000E+00  0.26643561612E+03  0.16241659332E+04  0.16021632380E+04 0.  0.
        4    1    3    3  502    0 -0.42986891177E+02  0.19966406124E+03 -0.65202730914E+03  0.68326776225E+03  0.12699999809E+01 0. -1.
       -4    1    3    3    0  502  0.42986891177E+02 -0.19966406124E+03  0.91846292525E+03  0.94089817097E+03  0.12699999809E+01 0.  1.
</event>
<event>
 5   0  0.2649086E-04  0.1577435E+04  0.7818609E-02  0.8834531E-01
        1   -1    0    0  501    0  0.00000000000E+00  0.00000000000E+00  0.94150384328E+03  0.94150384329E+03  0.50400001928E-02 0. -1.
       -1   -1    0    0    0  501  0.00000000000E+00  0.00000000000E+00 -0.66072553334E+03  0.66072553336E+03  0.50400001928E-02 0.  1.
    10030    2    1    2    0    0  0.00000000000E+00  0.00000000000E+00  0.28077830994E+03  0.16022293767E+04  0.15774354237E+04 0.  0.
        2    1    3    3  502    0 -0.21649615817E+03  0.11017871342E+02  0.91065139931E+03  0.93609719104E+03  0.25500000920E-02 0. -1.
       -2    1    3    3    0  502  0.21649615817E+03 -0.11017871342E+02 -0.62987308937E+03  0.66613218562E+03  0.25500000920E-02 0.  1.
</event>
<event>
 5   0  0.5083831E-04  0.1591774E+04  0.7818609E-02  0.8825618E-01
       -2   -1    0    0    0  501  0.00000000000E+00  0.00000000000E+00  0.90982562360E+03  0.90982562360E+03  0.25500000920E-02 0.  1.
        2   -1    0    0  501    0  0.00000000000E+00  0.00000000000E+00 -0.69621680479E+03  0.69621680479E+03  0.25500000920E-02 0. -1.
    10030    2    1    2    0    0  0.00000000000E+00  0.00000000000E+00  0.21360881882E+03  0.16060424284E+04  0.15917737133E+04 0.  0.
        4    1    3    3  502    0  0.56618412157E+03  0.10928228106E+02 -0.45744955073E+03  0.72797361906E+03  0.12699999809E+01 0. -1.
       -4    1    3    3    0  502 -0.56618412157E+03 -0.10928228106E+02  0.67105836954E+03  0.87806880933E+03  0.12699999809E+01 0.  1.
</event>
<event>
 5   0  0.1908125E-04  0.1584657E+04  0.7818609E-02  0.8830030E-01
       -3   -1    0    0    0  501  0.00000000000E+00  0.00000000000E+00  0.50590911453E+03  0.50590912462E+03  0.10100000352E+00 0. -1.
        3   -1    0    0  501    0  0.00000000000E+00  0.00000000000E+00 -0.12409028368E+04  0.12409028409E+04  0.10100000352E+00 0.  1.
    10030    2    1    2    0    0  0.00000000000E+00  0.00000000000E+00 -0.73499372229E+03  0.17468119656E+04  0.15846565152E+04 0.  0.
        4    1    3    3  502    0  0.50640746823E+03  0.16194240329E+03 -0.10150701127E+04  0.11458808021E+04  0.12699999809E+01 0.  1.
       -4    1    3    3    0  502 -0.50640746823E+03 -0.16194240329E+03  0.28007639045E+03  0.60093116349E+03  0.12699999809E+01 0. -1.
</event>
<event>
 5   0  0.5083831E-04  0.1588019E+04  0.7818609E-02  0.8827942E-01
        2   -1    0    0  501    0  0.00000000000E+00  0.00000000000E+00  0.10726069246E+04  0.10726069246E+04  0.25500000920E-02 0.  1.
       -2   -1    0    0    0  501  0.00000000000E+00  0.00000000000E+00 -0.58777478686E+03  0.58777478687E+03  0.25500000920E-02 0. -1.
    10030    2    1    2    0    0  0.00000000000E+00  0.00000000000E+00  0.48483213770E+03  0.16603817114E+04  0.15880192776E+04 0.  0.
        4    1    3    3  502    0  0.22522974964E+03 -0.22612442340E+03 -0.51775481456E+03  0.60822064737E+03  0.12699999809E+01 0. -1.
       -4    1    3    3    0  502 -0.22522974964E+03  0.22612442340E+03  0.10025869523E+04  0.10521610641E+04  0.12699999809E+01 0.  1.
</event>
<event>
 5   0  0.5083831E-04  0.1603179E+04  0.7818609E-02  0.8818598E-01
        2   -1    0    0  501    0  0.00000000000E+00  0.00000000000E+00  0.89539047790E+03  0.89539047790E+03  0.25500000920E-02 0. -1.
       -2   -1    0    0    0  501  0.00000000000E+00  0.00000000000E+00 -0.71761491220E+03  0.71761491220E+03  0.25500000920E-02 0.  1.
    10030    2    1    2    0    0  0.00000000000E+00  0.00000000000E+00  0.17777556570E+03  0.16130053901E+04  0.16031787913E+04 0.  0.
        4    1    3    3  502    0  0.97292184235E+02  0.79565620805E+03  0.85807026783E+02  0.80616315300E+03  0.12699999809E+01 0.  1.
       -4    1    3    3    0  502 -0.97292184235E+02 -0.79565620805E+03  0.91968538919E+02  0.80684223710E+03  0.12699999809E+01 0. -1.
</event>
<event>
 5   0  0.5264308E-04  0.1579330E+04  0.7818609E-02  0.8833348E-01
        2   -1    0    0  501    0  0.00000000000E+00  0.00000000000E+00  0.48302164275E+03  0.48302164276E+03  0.25500000920E-02 0.  1.
       -2   -1    0    0    0  501  0.00000000000E+00  0.00000000000E+00 -0.12909790564E+04  0.12909790564E+04  0.25500000920E-02 0. -1.
    10030    2    1    2    0    0  0.00000000000E+00  0.00000000000E+00 -0.80795741362E+03  0.17740006991E+04  0.15793300156E+04 0.  0.
        3    1    3    3  502    0  0.46497259450E+03 -0.19439930616E+03 -0.10868443324E+04  0.11980071857E+04  0.10100000352E+00 0. -1.
       -3    1    3    3    0  502 -0.46497259450E+03  0.19439930616E+03  0.27888691878E+03  0.57599351345E+03  0.10100000352E+00 0.  1.
</event>
<event>
 5   0  0.2649086E-04  0.1582971E+04  0.7818609E-02  0.8831078E-01
       -1   -1    0    0    0  501  0.00000000000E+00  0.00000000000E+00  0.35470372671E+03  0.35470372675E+03  0.50400001928E-02 0. -1.
        1   -1    0    0  501    0  0.00000000000E+00  0.00000000000E+00 -0.17661196708E+04  0.17661196708E+04  0.50400001928E-02 0.  1.
    10030    2    1    2    0    0  0.00000000000E+00  0.00000000000E+00 -0.14114159441E+04  0.21208233976E+04  0.15829709146E+04 0.  0.
        2    1    3    3  502    0 -0.73408732114E+03  0.16252897537E+03 -0.10370126368E+04  0.12808961987E+04  0.25500000920E-02 0.  1.
       -2    1    3    3    0  502  0.73408732114E+03 -0.16252897537E+03 -0.37440330726E+03  0.83992719886E+03  0.25500000920E-02 0. -1.
</event>
<event>
 5   0  0.2689675E-04  0.1550483E+04  0.7818609E-02  0.8851559E-01
       -1   -1    0    0    0  501  0.00000000000E+00  0.00000000000E+00  0.37805187836E+03  0.37805187840E+03  0.50400001928E-02 0.  1.
        1   -1    0    0  501    0  0.00000000000E+00  0.00000000000E+00 -0.15897281190E+04  0.15897281190E+04  0.50400001928E-02 0. -1.
    10030    2    1    2    0    0  0.00000000000E+00  0.00000000000E+00 -0.12116762406E+04  0.19677799974E+04  0.15504834104E+04 0.  0.
        1    1    3    3  502    0  0.40761802105E+03  0.43545379060E+03 -0.12343214734E+04  0.13708836400E+04  0.50400001928E-02 0. -1.
       -1    1    3    3    0  502 -0.40761802105E+03 -0.43545379060E+03  0.22645232756E+02  0.59689635736E+03  0.50400001928E-02 0.  1.
</event>
<event>
 5   0  0.2730707E-04  0.1619321E+04  0.7818609E-02  0.8808765E-01
        1   -1    0    0  501    0  0.00000000000E+00  0.00000000000E+00  0.87909527816E+03  0.87909527818E+03  0.50400001928E-02 0. -1.
       -1   -1    0    0    0  501  0.00000000000E+00  0.00000000000E+00 -0.74571003727E+03  0.74571003728E+03  0.50400001928E-02 0.  1.
    10030    2    1    2    0    0  0.00000000000E+00  0.00000000000E+00  0.13338524089E+03  0.16248053155E+04  0.16193210585E+04 0.  0.
        5    1    3    3  502    0  0.37727082039E+03  0.53921549001E+02 -0.65007064221E+03  0.75356136792E+03  0.46999998093E+01 0.  1.
       -5    1    3    3    0  502 -0.37727082039E+03 -0.53921549001E+02  0.78345588310E+03  0.87124394754E+03  0.46999998093E+01 0. -1.
</event>
<event>
 5   0  0.5131239E-04  0.1595146E+04  0.7818609E-02  0.8823536E-01
       -2   -1    0    0    0  501  0.00000000000E+00  0.00000000000E+00  0.90472790154E+03  0.90472790154E+03  0.25500000920E-02 0.  1.
        2   -1    0    0  501    0  0.00000000000E+00  0.00000000000E+00 -0.70310933599E+03  0.70310933600E+03  0.25500000920E-02 0. -1.
    10030    2    1    2    0    0  0.00000000000E+00  0.00000000000E+00  0.20161856555E+03  0.16078372375E+04  0.15951459295E+04 0.  0.
        1    1    3    3  502    0 -0.52335539819E+03 -0.23823771693E+03  0.65789506159E+03  0.87377571188E+03  0.50400001928E-02 0.  1.
       -1    1    3    3    0  502  0.52335539819E+03  0.23823771693E+03 -0.45627649605E+03  0.73406152566E+03  0.50400001928E-02 0. -1.
</event>
<event>
 5   0  0.1908125E-04  0.1599116E+04  0.7818609E-02  0.8821091E-01
       -4   -1    0    0    0  501  0.00000000000E+00  0.00000000000E+00  0.13482133790E+04  0.13482139771E+04  0.12699999809E+01 0.  1.
        4   -1    0    0  501    0  0.00000000000E+00  0.00000000000E+00 -0.47417658919E+03  0.47417828992E+03  0.12699999809E+01 0. -1.
    10030    2    1    2    0    0  0.00000000000E+00  0.00000000000E+00  0.87403678978E+03  0.18223922670E+04  0.15991164014E+04 0.  0.
        2    1    3    3  502    0  0.76695123739E+02  0.21278920834E+02  0.13436886410E+04  0.13460438695E+04  0.25500000920E-02 0.  1.
       -2    1    3    3    0  502 -0.76695123739E+02 -0.21278920834E+02 -0.46965185126E+03  0.47634839758E+03  0.25500000920E-02 0. -1.
</event>
<event>
 5   0  0.5083831E-04  0.1601358E+04  0.7818609E-02  0.8819714E-01
        2   -1    0    0  501    0  0.00000000000E+00  0.00000000000E+00  0.88633303850E+03  0.88633303851E+03  0.25500000920E-02 0.  1.
       -2   -1    0    0    0  501  0.00000000000E+00  0.00000000000E+00 -0.72330287758E+03  0.72330287758E+03  0.25500000920E-02 0. -1.
    10030    2    1    2    0    0  0.00000000000E+00  0.00000000000E+00  0.16303016092E+03  0.16096359161E+04  0.16013584699E+04 0.  0.
        4    1    3    3  502    0  0.64876752045E+03  0.34171188773E+03  0.40476611261E+03  0.83755807478E+03  0.12699999809E+01 0.  1.
       -4    1    3    3    0  502 -0.64876752045E+03 -0.34171188773E+03 -0.24173595168E+03  0.77207784131E+03  0.12699999809E+01 0. -1.
</event>
<event>
 5   0  0.2730707E-04  0.1603333E+04  0.7818609E-02  0.8818503E-01
        1   -1    0    0  501    0  0.00000000000E+00  0.00000000000E+00  0.25002769578E+04  0.25002769578E+04  0.50400001928E-02 0.  1.
       -1   -1    0    0    0  501  0.00000000000E+00  0.00000000000E+00 -0.25703906619E+03  0.25703906624E+03  0.50400001928E-02 0. -1.
    10030    2    1    2    0    0  0.00000000000E+00  0.00000000000E+00  0.22432378916E+04  0.27573160240E+04  0.16033325975E+04 0.  0.
        5    1    3    3  502    0  0.41375277864E+02  0.69760409804E+03  0.44612340672E+03  0.82910287374E+03  0.46999998093E+01 0. -1.
       -5    1    3    3    0  502 -0.41375277864E+02 -0.69760409804E+03  0.17971144849E+04  0.19282131503E+04  0.46999998093E+01 0.  1.
</event>
<event>
 5   0  0.2689675E-04  0.1605648E+04  0.7818609E-02  0.8817086E-01
       -1   -1    0    0    0  501  0.00000000000E+00  0.00000000000E+00  0.77742098190E+03  0.77742098191E+03  0.50400001928E-02 0.  1.
        1   -1    0    0  501    0  0.00000000000E+00  0.00000000000E+00 -0.82905679862E+03  0.82905679863E+03  0.50400001928E-02 0. -1.
    10030    2    1    2    0    0  0.00000000000E+00  0.00000000000E+00 -0.51635816723E+02  0.16064777805E+04  0.16056477203E+04 0.  0.
        1    1    3    3  502    0  0.37225305541E+03  0.14889006331E+03 -0.72172443213E+03  0.82560689446E+03  0.50400001928E-02 0. -1.
       -1    1    3    3    0  502 -0.37225305541E+03 -0.14889006331E+03  0.67008861541E+03  0.78087088609E+03  0.50400001928E-02 0.  1.
</event>
<event>
 5   0  0.2649086E-04  0.1595824E+04  0.7818609E-02  0.8823118E-01
        1   -1    0    0  501    0  0.00000000000E+00  0.00000000000E+00  0.31814744751E+03  0.31814744755E+03  0.50400001928E-02 0. -1.
       -1   -1    0    0    0  501  0.00000000000E+00  0.00000000000E+00 -0.20011591572E+04  0.20011591572E+04  0.50400001928E-02 0.  1.
    10030    2    1    2    0    0  0.00000000000E+00  0.00000000000E+00 -0.16830117097E+04  0.23193066047E+04  0.15958241482E+04 0.  0.
        2    1    3    3  502    0 -0.53696185701E+03  0.26093947435E+03 -0.16108896304E+04  0.17179589187E+04  0.25500000920E-02 0.  1.
       -2    1    3    3    0  502  0.53696185701E+03 -0.26093947435E+03 -0.72122079295E+02  0.60134768602E+03  0.25500000920E-02 0. -1.
</event>
<event>
 5   0  0.2649086E-04  0.1609820E+04  0.7818609E-02  0.8814538E-01
        1   -1    0    0  501    0  0.00000000000E+00  0.00000000000E+00  0.19110426469E+04  0.19110426469E+04  0.50400001928E-02 0. -1.
       -1   -1    0    0    0  501  0.00000000000E+00  0.00000000000E+00 -0.33901926045E+03  0.33901926049E+03  0.50400001928E-02 0.  1.
    10030    2    1    2    0    0  0.00000000000E+00  0.00000000000E+00  0.15720233865E+04  0.22500619074E+04  0.16098201948E+04 0.  0.
        2    1    3    3  502    0  0.62112113435E+02 -0.21345143699E+03  0.18672837083E+04  0.18804701215E+04  0.25500000920E-02 0. -1.
       -2    1    3    3    0  502 -0.62112113435E+02  0.21345143699E+03 -0.29526032181E+03  0.36959178593E+03  0.25500000920E-02 0.  1.
</event>
<event>
 5   0  0.2730707E-04  0.1602512E+04  0.7818609E-02  0.8819006E-01
       -1   -1    0    0    0  501  0.00000000000E+00  0.00000000000E+00  0.76453003470E+03  0.76453003472E+03  0.50400001928E-02 0.  1.
        1   -1    0    0  501    0  0.00000000000E+00  0.00000000000E+00 -0.83974615041E+03  0.83974615042E+03  0.50400001928E-02 0. -1.
    10030    2    1    2    0    0  0.00000000000E+00  0.00000000000E+00 -0.75216115706E+02  0.16042761851E+04  0.16025119700E+04 0.  0.
        5    1    3    3  502    0 -0.28832137999E+03 -0.32296190125E+03  0.63734146050E+03  0.77049324143E+03  0.46999998093E+01 0.  1.
       -5    1    3    3    0  502  0.28832137999E+03  0.32296190125E+03 -0.71255757621E+03  0.83378294371E+03  0.46999998093E+01 0. -1.
</event>
<event>
 5   0  0.5131239E-04  0.1619012E+04  0.7818609E-02  0.8808953E-01
       -2   -1    0    0    0  501  0.00000000000E+00  0.00000000000E+00  0.44876385260E+03  0.44876385261E+03  0.25500000920E-02 0.  1.
        2   -1    0    0  501    0  0.00000000000E+00  0.00000000000E+00 -0.14602335120E+04  0.14602335120E+04  0.25500000920E-02 0. -1.
    10030    2    1    2    0    0  0.00000000000E+00  0.00000000000E+00 -0.10114696594E+04  0.19089973646E+04  0.16190120649E+04 0.  0.
        1    1    3    3  502    0 -0.73222700476E+03  0.16319613435E+03 -0.14710111548E+03  0.76447897484E+03  0.50400001928E-02 0.  1.
       -1    1    3    3    0  502  0.73222700476E+03 -0.16319613435E+03 -0.86436854389E+03  0.11445183897E+04  0.50400001928E-02 0. -1.
</event>
<event>
 5   0  0.2649086E-04  0.1627378E+04  0.7818609E-02  0.8803903E-01
        1   -1    0    0  501    0  0.00000000000E+00  0.00000000000E+00  0.74013332909E+03  0.74013332910E+03  0.50400001928E-02 0. -1.
       -1   -1    0    0    0  501  0.00000000000E+00  0.00000000000E+00 -0.89455461791E+03  0.89455461792E+03  0.50400001928E-02 0.  1.
    10030    2    1    2    0    0  0.00000000000E+00  0.00000000000E+00 -0.15442128882E+03  0.16346879470E+04  0.16273778755E+04 0.  0.
        2    1    3    3  502    0  0.57145588057E+03  0.41182056825E+03  0.33196626044E+03  0.77869095407E+03  0.25500000920E-02 0.  1.
       -2    1    3    3    0  502 -0.57145588057E+03 -0.41182056825E+03 -0.48638754926E+03  0.85599699296E+03  0.25500000920E-02 0. -1.
</event>
<event>
 5   0  0.2689675E-04  0.1600868E+04  0.7818609E-02  0.8820015E-01
       -1   -1    0    0    0  501  0.00000000000E+00  0.00000000000E+00  0.56544587059E+03  0.56544587062E+03  0.50400001928E-02 0. -1.
        1   -1    0    0  501    0  0.00000000000E+00  0.00000000000E+00 -0.11330785812E+04  0.11330785812E+04  0.50400001928E-02 0.  1.
    10030    2    1    2    0    0  0.00000000000E+00  0.00000000000E+00 -0.56763271064E+03  0.16985244519E+04  0.16008680206E+04 0.  0.
        1    1    3    3  502    0  0.58954496410E+03  0.33022423471E+03 -0.73903858730E+03  0.10013937005E+04  0.50400001928E-02 0. -1.
       -1    1    3    3    0  502 -0.58954496410E+03 -0.33022423471E+03  0.17140587666E+03  0.69713075134E+03  0.50400001928E-02 0.  1.
</event>
<event>
 5   0  0.5083831E-04  0.1599158E+04  0.7818609E-02  0.8821065E-01
       -2   -1    0    0    0  501  0.00000000000E+00  0.00000000000E+00  0.20888471797E+04  0.20888471797E+04  0.25500000920E-02 0. -1.
        2   -1    0    0  501    0  0.00000000000E+00  0.00000000000E+00 -0.30606689187E+03  0.30606689188E+03  0.25500000920E-02 0.  1.
    10030    2    1    2    0    0  0.00000000000E+00  0.00000000000E+00  0.17827802879E+04  0.23949140716E+04  0.15991584836E+04 0.  0.
        4    1    3    3  502    0  0.36201099418E+03 -0.65182102775E+03  0.45888768014E+03  0.87550107253E+03  0.12699999809E+01 0.  1.
       -4    1    3    3    0  502 -0.36201099418E+03  0.65182102775E+03  0.13238926077E+04  0.15194129991E+04  0.12699999809E+01 0. -1.
</event>
<event>
 5   0  0.2730707E-04  0.1571408E+04  0.7818609E-02  0.8838308E-01
        1   -1    0    0  501    0  0.00000000000E+00  0.00000000000E+00  0.18717907478E+04  0.18717907478E+04  0.50400001928E-02 0. -1.
       -1   -1    0    0    0  501  0.00000000000E+00  0.00000000000E+00 -0.32980777194E+03  0.32980777198E+03  0.50400001928E-02 0.  1.
    10030    2    1    2    0    0  0.00000000000E+00  0.00000000000E+00  0.15419829759E+04  0.22015985198E+04  0.15714084588E+04 0.  0.
        5    1    3    3  502    0 -0.17772134444E+03  0.34712773320E+03 -0.18461978325E+03  0.43149634273E+03  0.46999998093E+01 0.  1.
       -5    1    3    3    0  502  0.17772134444E+03 -0.34712773320E+03  0.17266027591E+04  0.17701021771E+04  0.46999998093E+01 0. -1.
</event>
<event>
 5   0  0.2730707E-04  0.1703199E+04  0.7818609E-02  0.8759542E-01
        1   -1    0    0  501    0  0.00000000000E+00  0.00000000000E+00  0.19319477310E+04  0.19319477310E+04  0.50400001928E-02 0. -1.
       -1   -1    0    0    0  501  0.00000000000E+00  0.00000000000E+00 -0.37538368044E+03  0.37538368048E+03  0.50400001928E-02 0.  1.
    10030    2    1    2    0    0  0.00000000000E+00  0.00000000000E+00  0.15565640505E+04  0.23073314115E+04  0.17031989311E+04 0.  0.
        5    1    3    3  502    0 -0.15307465503E+03 -0.21060560704E+03 -0.32012611440E+03  0.41266135129E+03  0.46999998093E+01 0.  1.
       -5    1    3    3    0  502  0.15307465503E+03  0.21060560704E+03  0.18766901649E+04  0.18946700602E+04  0.46999998093E+01 0. -1.
</event>
<event>
 5   0  0.2649086E-04  0.1613410E+04  0.7818609E-02  0.8812352E-01
       -1   -1    0    0    0  501  0.00000000000E+00  0.00000000000E+00  0.56595896137E+03  0.56595896139E+03  0.50400001928E-02 0. -1.
        1   -1    0    0  501    0  0.00000000000E+00  0.00000000000E+00 -0.11498586114E+04  0.11498586114E+04  0.50400001928E-02 0.  1.
    10030    2    1    2    0    0  0.00000000000E+00  0.00000000000E+00 -0.58389965002E+03  0.17158175728E+04  0.16134097873E+04 0.  0.
        2    1    3    3  502    0  0.67901944430E+03  0.12318832701E+03 -0.73623465873E+03  0.10091007097E+04  0.25500000920E-02 0.  1.
       -2    1    3    3    0  502 -0.67901944430E+03 -0.12318832701E+03  0.15233500871E+03  0.70671686306E+03  0.25500000920E-02 0. -1.
</event>
<event>
 5   0  0.5131239E-04  0.1625265E+04  0.7818609E-02  0.8805176E-01
       -2   -1    0    0    0  501  0.00000000000E+00  0.00000000000E+00  0.61978895945E+03  0.61978895945E+03  0.25500000920E-02 0. -1.
        2   -1    0    0  501    0  0.00000000000E+00  0.00000000000E+00 -0.10654777240E+04  0.10654777240E+04  0.25500000920E-02 0.  1.
    10030    2    1    2    0    0  0.00000000000E+00  0.00000000000E+00 -0.44568876457E+03  0.16852666835E+04  0.16252646922E+04 0.  0.
        1    1    3    3  502    0  0.37167691947E+03 -0.27684989916E+03 -0.91500713113E+03  0.10256839909E+04  0.50400001928E-02 0.  1.
       -1    1    3    3    0  502 -0.37167691947E+03  0.27684989916E+03  0.46931836656E+03  0.65958269258E+03  0.50400001928E-02 0. -1.
</event>
<event>
 5   0  0.2763895E-04  0.1619192E+04  0.7818609E-02  0.8808844E-01
       -1   -1    0    0    0  501  0.00000000000E+00  0.00000000000E+00  0.99499723986E+03  0.99499723988E+03  0.50400001928E-02 0. -1.
        1   -1    0    0  501    0  0.00000000000E+00  0.00000000000E+00 -0.65874106945E+03  0.65874106947E+03  0.50400001928E-02 0.  1.
    10030    2    1    2    0    0  0.00000000000E+00  0.00000000000E+00  0.33625617041E+03  0.16537383094E+04  0.16191918304E+04 0.  0.
        4    1    3    3  502    0  0.32575257372E+02 -0.41436941370E+03 -0.54144720525E+03  0.68259054152E+03  0.12699999809E+01 0.  1.
       -4    1    3    3    0  502 -0.32575257372E+02  0.41436941370E+03  0.87770337567E+03  0.97114776783E+03  0.12699999809E+01 0. -1.
</event>
<event>
 5   0  0.5131239E-04  0.1585258E+04  0.7818609E-02  0.8829656E-01
       -2   -1    0    0    0  501  0.00000000000E+00  0.00000000000E+00  0.37060669234E+03  0.37060669235E+03  0.25500000920E-02 0.  1.
        2   -1    0    0  501    0  0.00000000000E+00  0.00000000000E+00 -0.16952217846E+04  0.16952217846E+04  0.25500000920E-02 0. -1.
    10030    2    1    2    0    0  0.00000000000E+00  0.00000000000E+00 -0.13246150923E+04  0.20658284769E+04  0.15852577562E+04 0.  0.
        1    1    3    3  502    0  0.40253822913E+01  0.57225673556E+03  0.52368374361E+02  0.57466200654E+03  0.50400001928E-02 0.  1.
       -1    1    3    3    0  502 -0.40253822913E+01 -0.57225673556E+03 -0.13769834666E+04  0.14911664704E+04  0.50400001928E-02 0. -1.
</event>
<event>
 5   0  0.5264308E-04  0.1581501E+04  0.7818609E-02  0.8831994E-01
        2   -1    0    0  501    0  0.00000000000E+00  0.00000000000E+00  0.35585554918E+03  0.35585554919E+03  0.25500000920E-02 0. -1.
       -2   -1    0    0    0  501  0.00000000000E+00  0.00000000000E+00 -0.17571363810E+04  0.17571363810E+04  0.25500000920E-02 0.  1.
    10030    2    1    2    0    0  0.00000000000E+00  0.00000000000E+00 -0.14012808318E+04  0.21129919302E+04  0.15815014788E+04 0.  0.
        3    1    3    3  502    0 -0.38346509833E+03 -0.52615602922E+03 -0.13002369669E+04  0.14541326724E+04  0.10100000352E+00 0.  1.
       -3    1    3    3    0  502  0.38346509833E+03  0.52615602922E+03 -0.10104386493E+03  0.65885925778E+03  0.10100000352E+00 0. -1.
</event>
<event>
 5   0  0.5264308E-04  0.1633993E+04  0.7818609E-02  0.8799933E-01
        2   -1    0    0  501    0  0.00000000000E+00  0.00000000000E+00  0.97027441366E+03  0.97027441366E+03  0.25500000920E-02 0.  1.
       -2   -1    0    0    0  501  0.00000000000E+00  0.00000000000E+00 -0.68793270806E+03  0.68793270806E+03  0.25500000920E-02 0. -1.
    10030    2    1    2    0    0  0.00000000000E+00  0.00000000000E+00  0.28234170560E+03  0.16582071217E+04  0.16339932741E+04 0.  0.
        3    1    3    3  502    0 -0.21715115710E+03 -0.72313227849E+03 -0.17555762397E+03  0.77517443634E+03  0.10100000352E+00 0. -1.
       -3    1    3    3    0  502  0.21715115710E+03  0.72313227849E+03  0.45789932957E+03  0.88303268538E+03  0.10100000352E+00 0.  1.
</event>
<event>
 5   0  0.2689675E-04  0.1674722E+04  0.7818609E-02  0.8775914E-01
       -1   -1    0    0    0  501  0.00000000000E+00  0.00000000000E+00  0.34068681045E+03  0.34068681049E+03  0.50400001928E-02 0. -1.
        1   -1    0    0  501    0  0.00000000000E+00  0.00000000000E+00 -0.20581172316E+04  0.20581172316E+04  0.50400001928E-02 0.  1.
    10030    2    1    2    0    0  0.00000000000E+00  0.00000000000E+00 -0.17174304212E+04  0.23988040421E+04  0.16747219414E+04 0.  0.
        1    1    3    3  502    0  0.58506928604E+02 -0.36605833874E+03  0.21674900851E+03  0.42942042426E+03  0.50400001928E-02 0. -1.
       -1    1    3    3    0  502 -0.58506928604E+02  0.36605833874E+03 -0.19341794297E+04  0.19693836179E+04  0.50400001928E-02 0.  1.
</event>
<event>
 5   0  0.2730707E-04  0.1573177E+04  0.7818609E-02  0.8837198E-01
       -1   -1    0    0    0  501  0.00000000000E+00  0.00000000000E+00  0.24738230495E+03  0.24738230500E+03  0.50400001928E-02 0.  1.
        1   -1    0    0  501    0  0.00000000000E+00  0.00000000000E+00 -0.25010753819E+04  0.25010753819E+04  0.50400001928E-02 0. -1.
    10030    2    1    2    0    0  0.00000000000E+00  0.00000000000E+00 -0.22536930769E+04  0.27484576869E+04  0.15731774126E+04 0.  0.
        5    1    3    3  502    0 -0.23341563680E+03 -0.75028547894E+03 -0.10641330594E+04  0.13228047541E+04  0.46999998093E+01 0.  1.
       -5    1    3    3    0  502  0.23341563680E+03  0.75028547894E+03 -0.11895600175E+04  0.14256529328E+04  0.46999998093E+01 0. -1.
</event>
<event>
 5   0  0.5264308E-04  0.1611648E+04  0.7818609E-02  0.8813424E-01
       -2   -1    0    0    0  501  0.00000000000E+00  0.00000000000E+00  0.38584101867E+03  0.38584101868E+03  0.25500000920E-02 0.  1.
        2   -1    0    0  501    0  0.00000000000E+00  0.00000000000E+00 -0.16829520448E+04  0.16829520448E+04  0.25500000920E-02 0. -1.
    10030    2    1    2    0    0  0.00000000000E+00  0.00000000000E+00 -0.12971110261E+04  0.20687930634E+04  0.16116475189E+04 0.  0.
        3    1    3    3  502    0  0.44627871257E+03 -0.20171287352E+03  0.17288002686E+03  0.51936527274E+03  0.10100000352E+00 0.  1.
       -3    1    3    3    0  502 -0.44627871257E+03  0.20171287352E+03 -0.14699910530E+04  0.15494277907E+04  0.10100000352E+00 0. -1.
</event>
<event>
 5   0  0.2730707E-04  0.1597504E+04  0.7818609E-02  0.8822083E-01
       -1   -1    0    0    0  501  0.00000000000E+00  0.00000000000E+00  0.62251119193E+03  0.62251119196E+03  0.50400001928E-02 0.  1.
        1   -1    0    0  501    0  0.00000000000E+00  0.00000000000E+00 -0.10248891224E+04  0.10248891224E+04  0.50400001928E-02 0. -1.
    10030    2    1    2    0    0  0.00000000000E+00  0.00000000000E+00 -0.40237793043E+03  0.16474003143E+04  0.15975042400E+04 0.  0.
        5    1    3    3  502    0  0.27151866019E+03  0.73445398945E+03 -0.38666347780E+02  0.78400396804E+03  0.46999998093E+01 0.  1.
       -5    1    3    3    0  502 -0.27151866019E+03 -0.73445398945E+03 -0.36371158265E+03  0.86339634630E+03  0.46999998093E+01 0. -1.
</event>
<event>
 5   0  0.5315984E-04  0.1610791E+04  0.7818609E-02  0.8813946E-01
        2   -1    0    0  501    0  0.00000000000E+00  0.00000000000E+00  0.13764051648E+04  0.13764051648E+04  0.25500000920E-02 0.  1.
       -2   -1    0    0    0  501  0.00000000000E+00  0.00000000000E+00 -0.47127250203E+03  0.47127250204E+03  0.25500000920E-02 0. -1.
    10030    2    1    2    0    0  0.00000000000E+00  0.00000000000E+00  0.90513266275E+03  0.18476776668E+04  0.16107909931E+04 0.  0.
        2    1    3    3  502    0 -0.56657044949E+03  0.47708888422E+02 -0.20174570477E+03  0.60330717025E+03  0.25500000920E-02 0. -1.
       -2    1    3    3    0  502  0.56657044949E+03 -0.47708888422E+02  0.11068783675E+04  0.12443704966E+04  0.25500000920E-02 0.  1.
</event>
<event>
 5   0  0.2796994E-04  0.1610628E+04  0.7818609E-02  0.8814045E-01
        1   -1    0    0  501    0  0.00000000000E+00  0.00000000000E+00  0.12044427634E+04  0.12044427635E+04  0.50400001928E-02 0.  1.
       -1   -1    0    0    0  501  0.00000000000E+00  0.00000000000E+00 -0.53844856526E+03  0.53844856529E+03  0.50400001928E-02 0. -1.
    10030    2    1    2    0    0  0.00000000000E+00  0.00000000000E+00  0.66599419818E+03  0.17428913287E+04  0.16106278005E+04 0.  0.
        3    1    3    3  502    0  0.97408311586E+02  0.64610686759E+03 -0.17639035125E+03  0.67679836711E+03  0.10100000352E+00 0. -1.
       -3    1    3    3    0  502 -0.97408311586E+02 -0.64610686759E+03  0.84238454943E+03  0.10660929616E+04  0.10100000352E+00 0.  1.
</event>
<event>
 5   0  0.2689675E-04  0.1595791E+04  0.7818609E-02  0.8823138E-01
       -1   -1    0    0    0  501  0.00000000000E+00  0.00000000000E+00  0.88725468490E+03  0.88725468491E+03  0.50400001928E-02 0.  1.
        1   -1    0    0  501    0  0.00000000000E+00  0.00000000000E+00 -0.71753564352E+03  0.71753564354E+03  0.50400001928E-02 0. -1.
    10030    2    1    2    0    0  0.00000000000E+00  0.00000000000E+00  0.16971904137E+03  0.16047903285E+04  0.15957905393E+04 0.  0.
        1    1    3    3  502    0  0.38952043012E+03  0.24502850970E+03 -0.57063841364E+03  0.73307116653E+03  0.50400001928E-02 0. -1.
       -1    1    3    3    0  502 -0.38952043012E+03 -0.24502850970E+03  0.74035745501E+03  0.87171916192E+03  0.50400001928E-02 0.  1.
</event>
<event>
 5   0  0.2763895E-04  0.1600754E+04  0.7818609E-02  0.8820085E-01
        1   -1    0    0  501    0  0.00000000000E+00  0.00000000000E+00  0.78328011143E+03  0.78328011144E+03  0.50400001928E-02 0.  1.
       -1   -1    0    0    0  501  0.00000000000E+00  0.00000000000E+00 -0.81784725499E+03  0.81784725501E+03  0.50400001928E-02 0. -1.
    10030    2    1    2    0    0  0.00000000000E+00  0.00000000000E+00 -0.34567143568E+02  0.16011273665E+04  0.16007541836E+04 0.  0.
        4    1    3    3  502    0 -0.49733313598E+03 -0.62710290380E+03 -0.19175057704E+02  0.80060451899E+03  0.12699999809E+01 0. -1.
       -4    1    3    3    0  502  0.49733313598E+03  0.62710290380E+03 -0.15392085865E+02  0.80052284746E+03  0.12699999809E+01 0.  1.
</event>
<event>
 5   0  0.5083831E-04  0.1598661E+04  0.7818609E-02  0.8821371E-01
        2   -1    0    0  501    0  0.00000000000E+00  0.00000000000E+00  0.20965983674E+04  0.20965983674E+04  0.25500000920E-02 0.  1.
       -2   -1    0    0    0  501  0.00000000000E+00  0.00000000000E+00 -0.30474573011E+03  0.30474573012E+03  0.25500000920E-02 0. -1.
    10030    2    1    2    0    0  0.00000000000E+00  0.00000000000E+00  0.17918526373E+04  0.24013440975E+04  0.15986611902E+04 0.  0.
        4    1    3    3  502    0 -0.45161149504E+02 -0.77378205994E+03  0.11893146614E+04  0.14195947248E+04  0.12699999809E+01 0. -1.
       -4    1    3    3    0  502  0.45161149504E+02  0.77378205994E+03  0.60253797583E+03  0.98174937276E+03  0.12699999809E+01 0.  1.
</event>
<event>
 5   0  0.2796994E-04  0.1588212E+04  0.7818609E-02  0.8827823E-01
       -1   -1    0    0    0  501  0.00000000000E+00  0.00000000000E+00  0.47660533884E+03  0.47660533887E+03  0.50400001928E-02 0. -1.
        1   -1    0    0  501    0  0.00000000000E+00  0.00000000000E+00 -0.13231162794E+04  0.13231162794E+04  0.50400001928E-02 0.  1.
    10030    2    1    2    0    0  0.00000000000E+00  0.00000000000E+00 -0.84651094052E+03  0.17997216182E+04  0.15882119288E+04 0.  0.
        3    1    3    3  502    0  0.69067513758E+03  0.43813668900E+02  0.18032055884E+02  0.69229830889E+03  0.10100000352E+00 0. -1.
       -3    1    3    3    0  502 -0.69067513758E+03 -0.43813668900E+02 -0.86454299640E+03  0.11074233093E+04  0.10100000352E+00 0.  1.
</event>
<event>
 5   0  0.2730707E-04  0.1615665E+04  0.7818609E-02  0.8810982E-01
        1   -1    0    0  501    0  0.00000000000E+00  0.00000000000E+00  0.16754888337E+04  0.16754888337E+04  0.50400001928E-02 0.  1.
       -1   -1    0    0    0  501  0.00000000000E+00  0.00000000000E+00 -0.38949443681E+03  0.38949443684E+03  0.50400001928E-02 0. -1.
    10030    2    1    2    0    0  0.00000000000E+00  0.00000000000E+00  0.12859943969E+04  0.20649832705E+04  0.16156652867E+04 0.  0.
        5    1    3    3  502    0  0.36612551173E+03  0.17484180918E+03  0.15357979733E+04  0.15884945872E+04  0.46999998093E+01 0.  1.
       -5    1    3    3    0  502 -0.36612551173E+03 -0.17484180918E+03 -0.24980357645E+03  0.47648868337E+03  0.46999998093E+01 0. -1.
</event>
<event>
 5   0  0.2763895E-04  0.1623840E+04  0.7818609E-02  0.8806035E-01
        1   -1    0    0  501    0  0.00000000000E+00  0.00000000000E+00  0.95436378564E+03  0.95436378565E+03  0.50400001928E-02 0.  1.
       -1   -1    0    0    0  501  0.00000000000E+00  0.00000000000E+00 -0.69073627409E+03  0.69073627411E+03  0.50400001928E-02 0. -1.
    10030    2    1    2    0    0  0.00000000000E+00  0.00000000000E+00  0.26362751155E+03  0.16451000598E+04  0.16238395062E+04 0.  0.
        4    1    3    3  502    0 -0.41669318015E+03 -0.36228621704E+03  0.73486148121E+03  0.91918851108E+03  0.12699999809E+01 0.  1.
       -4    1    3    3    0  502  0.41669318015E+03  0.36228621704E+03 -0.47123396966E+03  0.72591154868E+03  0.12699999809E+01 0. -1.
</event>
<event>
 5   0  0.5315984E-04  0.1617220E+04  0.7818609E-02  0.8810038E-01
        2   -1    0    0  501    0  0.00000000000E+00  0.00000000000E+00  0.14808647333E+04  0.14808647333E+04  0.25500000920E-02 0.  1.
       -2   -1    0    0    0  501  0.00000000000E+00  0.00000000000E+00 -0.44153280072E+03  0.44153280073E+03  0.25500000920E-02 0. -1.
    10030    2    1    2    0    0  0.00000000000E+00  0.00000000000E+00  0.10393319326E+04  0.19223975341E+04  0.16172202735E+04 0.  0.
        2    1    3    3  502    0 -0.27203719572E+03  0.27894064101E+03 -0.32258675186E+03  0.50584022136E+03  0.25500000920E-02 0. -1.
       -2    1    3    3    0  502  0.27203719572E+03 -0.27894064101E+03  0.13619186845E+04  0.14165573127E+04  0.25500000920E-02 0.  1.
</event>
<event>
 5   0  0.5083831E-04  0.1597390E+04  0.7818609E-02  0.8822153E-01
        2   -1    0    0  501    0  0.00000000000E+00  0.00000000000E+00  0.24793235693E+04  0.24793235693E+04  0.25500000920E-02 0. -1.
       -2   -1    0    0    0  501  0.00000000000E+00  0.00000000000E+00 -0.25729328555E+03  0.25729328557E+03  0.25500000920E-02 0.  1.
    10030    2    1    2    0    0  0.00000000000E+00  0.00000000000E+00  0.22220302837E+04  0.27366168549E+04  0.15973895043E+04 0.  0.
        4    1    3    3  502    0  0.76009721548E+03  0.23586126272E+03  0.99566601061E+03  0.12746492576E+04  0.12699999809E+01 0. -1.
       -4    1    3    3    0  502 -0.76009721548E+03 -0.23586126272E+03  0.12263642731E+04  0.14619675973E+04  0.12699999809E+01 0.  1.
</event>
<event>
 5   0  0.5083831E-04  0.1595625E+04  0.7818609E-02  0.8823240E-01
       -2   -1    0    0    0  501  0.00000000000E+00  0.00000000000E+00  0.55373489855E+03  0.55373489856E+03  0.25500000920E-02 0. -1.
        2   -1    0    0  501    0  0.00000000000E+00  0.00000000000E+00 -0.11494761685E+04  0.11494761685E+04  0.25500000920E-02 0.  1.
    10030    2    1    2    0    0  0.00000000000E+00  0.00000000000E+00 -0.59574126993E+03  0.17032110670E+04  0.15956253565E+04 0.  0.
        4    1    3    3  502    0  0.24592836916E+03  0.18445203614E+03 -0.10837162617E+04  0.11264749732E+04  0.12699999809E+01 0.  1.
       -4    1    3    3    0  502 -0.24592836916E+03 -0.18445203614E+03  0.48797499181E+03  0.57673609383E+03  0.12699999809E+01 0. -1.
</event>
<event>
 5   0  0.2763895E-04  0.1674390E+04  0.7818609E-02  0.8776107E-01
        1   -1    0    0  501    0  0.00000000000E+00  0.00000000000E+00  0.95873588147E+03  0.95873588149E+03  0.50400001928E-02 0.  1.
       -1   -1    0    0    0  501  0.00000000000E+00  0.00000000000E+00 -0.73106186072E+03  0.73106186074E+03  0.50400001928E-02 0. -1.
    10030    2    1    2    0    0  0.00000000000E+00  0.00000000000E+00  0.22767402075E+03  0.16897977422E+04  0.16743897246E+04 0.  0.
        4    1    3    3  502    0 -0.17611738478E+03 -0.21714081192E+03  0.91022871963E+03  0.95220029424E+03  0.12699999809E+01 0.  1.
       -4    1    3    3    0  502  0.17611738478E+03  0.21714081192E+03 -0.68255469888E+03  0.73759744799E+03  0.12699999809E+01 0. -1.
</event>
<event>
 5   0  0.5315984E-04  0.1658524E+04  0.7818609E-02  0.8785380E-01
        2   -1    0    0  501    0  0.00000000000E+00  0.00000000000E+00  0.97725424038E+03  0.97725424038E+03  0.25500000920E-02 0. -1.
       -2   -1    0    0    0  501  0.00000000000E+00  0.00000000000E+00 -0.70368133415E+03  0.70368133415E+03  0.25500000920E-02 0.  1.
    10030    2    1    2    0    0  0.00000000000E+00  0.00000000000E+00  0.27357290623E+03  0.16809355745E+04  0.16585241242E+04 0.  0.
        2    1    3    3  502    0 -0.80555150346E+03  0.19412661054E+03  0.10352219396E+03  0.83505401640E+03  0.25500000920E-02 0.  1.
       -2    1    3    3    0  502  0.80555150346E+03 -0.19412661054E+03  0.17005071227E+03  0.84588155814E+03  0.25500000920E-02 0. -1.
</event>
<event>
 5   0  0.5083831E-04  0.1589508E+04  0.7818609E-02  0.8827020E-01
       -2   -1    0    0    0  501  0.00000000000E+00  0.00000000000E+00  0.52653801470E+03  0.52653801471E+03  0.25500000920E-02 0. -1.
        2   -1    0    0  501    0  0.00000000000E+00  0.00000000000E+00 -0.11995981686E+04  0.11995981686E+04  0.25500000920E-02 0.  1.
    10030    2    1    2    0    0  0.00000000000E+00  0.00000000000E+00 -0.67306015393E+03  0.17261361833E+04  0.15895081480E+04 0.  0.
        4    1    3    3  502    0 -0.23261484607E+03 -0.79127655842E+02  0.48425566467E+03  0.54302487438E+03  0.12699999809E+01 0. -1.
       -4    1    3    3    0  502  0.23261484607E+03  0.79127655842E+02 -0.11573158186E+04  0.11831113090E+04  0.12699999809E+01 0.  1.
</event>
<event>
 5   0  0.5381164E-04  0.1588911E+04  0.7818609E-02  0.8827389E-01
        2   -1    0    0  501    0  0.00000000000E+00  0.00000000000E+00  0.10766242278E+04  0.10766242278E+04  0.25500000920E-02 0.  1.
       -2   -1    0    0    0  501  0.00000000000E+00  0.00000000000E+00 -0.58623971697E+03  0.58623971697E+03  0.25500000920E-02 0. -1.
    10030    2    1    2    0    0  0.00000000000E+00  0.00000000000E+00  0.49038451086E+03  0.16628639448E+04  0.15889114294E+04 0.  0.
        5    1    3    3  502    0  0.33504865895E+03 -0.37947047220E+03 -0.39558121750E+03  0.64246558878E+03  0.46999998093E+01 0. -1.
       -5    1    3    3    0  502 -0.33504865895E+03  0.37947047220E+03  0.88596572835E+03  0.10203983560E+04  0.46999998093E+01 0.  1.
</event>
<event>
 5   0  0.2649086E-04  0.1590695E+04  0.7818609E-02  0.8826285E-01
        1   -1    0    0  501    0  0.00000000000E+00  0.00000000000E+00  0.10344217928E+04  0.10344217928E+04  0.50400001928E-02 0. -1.
       -1   -1    0    0    0  501  0.00000000000E+00  0.00000000000E+00 -0.61152812913E+03  0.61152812915E+03  0.50400001928E-02 0.  1.
    10030    2    1    2    0    0  0.00000000000E+00  0.00000000000E+00  0.42289366369E+03  0.16459499220E+04  0.15906954752E+04 0.  0.
        2    1    3    3  502    0 -0.61069062320E+03  0.50893463524E+03  0.18567123744E+03  0.81635244143E+03  0.25500000920E-02 0.  1.
       -2    1    3    3    0  502  0.61069062320E+03 -0.50893463524E+03  0.23722242625E+03  0.82959748055E+03  0.25500000920E-02 0. -1.
</event>
<event>
 5   0  0.5381164E-04  0.1610019E+04  0.7818609E-02  0.8814416E-01
        2   -1    0    0  501    0  0.00000000000E+00  0.00000000000E+00  0.15695423131E+04  0.15695423131E+04  0.25500000920E-02 0. -1.
       -2   -1    0    0    0  501  0.00000000000E+00  0.00000000000E+00 -0.41288498828E+03  0.41288498829E+03  0.25500000920E-02 0.  1.
    10030    2    1    2    0    0  0.00000000000E+00  0.00000000000E+00  0.11566573248E+04  0.19824273014E+04  0.16100192043E+04 0.  0.
        5    1    3    3  502    0  0.79115710769E+03 -0.44963462755E+02  0.75275352359E+03  0.10929827260E+04  0.46999998093E+01 0.  1.
       -5    1    3    3    0  502 -0.79115710769E+03  0.44963462755E+02  0.40390380118E+03  0.88944457536E+03  0.46999998093E+01 0. -1.
</event>
<event>
 5   0  0.1908125E-04  0.1606952E+04  0.7818609E-02  0.8816289E-01
       -3   -1    0    0    0  501  0.00000000000E+00  0.00000000000E+00  0.40533764420E+03  0.40533765678E+03  0.10100000352E+00 0.  1.
        3   -1    0    0  501    0  0.00000000000E+00  0.00000000000E+00 -0.15926810732E+04  0.15926810764E+04  0.10100000352E+00 0. -1.
    10030    2    1    2    0    0  0.00000000000E+00  0.00000000000E+00 -0.11873434290E+04  0.19980187331E+04  0.16069519096E+04 0.  0.
        2    1    3    3  502    0  0.27821034659E+03  0.20172938414E+03  0.30935125455E+03  0.46237856792E+03  0.25500000920E-02 0.  1.
       -2    1    3    3    0  502 -0.27821034659E+03 -0.20172938414E+03 -0.14966946835E+04  0.15356401652E+04  0.25500000920E-02 0. -1.
</event>
<event>
 5   0  0.2649086E-04  0.1623844E+04  0.7818609E-02  0.8806032E-01
        1   -1    0    0  501    0  0.00000000000E+00  0.00000000000E+00  0.10093060957E+04  0.10093060957E+04  0.50400001928E-02 0. -1.
       -1   -1    0    0    0  501  0.00000000000E+00  0.00000000000E+00 -0.65313888586E+03  0.65313888588E+03  0.50400001928E-02 0.  1.
    10030    2    1    2    0    0  0.00000000000E+00  0.00000000000E+00  0.35616720987E+03  0.16624449816E+04  0.16238436611E+04 0.  0.
        2    1    3    3  502    0  0.12192813023E+02 -0.17435564655E+03 -0.63365073331E+03  0.65731408626E+03  0.25500000920E-02 0.  1.
       -2    1    3    3    0  502 -0.12192813023E+02  0.17435564655E+03  0.98981794318E+03  0.10051308954E+04  0.25500000920E-02 0. -1.
</event>
<event>
 5   0  0.5131239E-04  0.1577892E+04  0.7818609E-02  0.8834246E-01
        2   -1    0    0  501    0  0.00000000000E+00  0.00000000000E+00  0.13338183410E+04  0.13338183410E+04  0.25500000920E-02 0. -1.
       -2   -1    0    0    0  501  0.00000000000E+00  0.00000000000E+00 -0.46665721885E+03  0.46665721886E+03  0.25500000920E-02 0.  1.
    10030    2    1    2    0    0  0.00000000000E+00  0.00000000000E+00  0.86716112211E+03  0.18004755598E+04  0.15778922111E+04 0.  0.
        1    1    3    3  502    0 -0.40693651816E+03  0.28350163498E+03  0.11337005238E+04  0.12374358103E+04  0.50400001928E-02 0. -1.
       -1    1    3    3    0  502  0.40693651816E+03 -0.28350163498E+03 -0.26653940172E+03  0.56303974953E+03  0.50400001928E-02 0.  1.
</event>
<event>
 5   0  0.2763895E-04  0.1560771E+04  0.7818609E-02  0.8845017E-01
       -1   -1    0    0    0  501  0.00000000000E+00  0.00000000000E+00  0.57806811018E+03  0.57806811020E+03  0.50400001928E-02 0. -1.
        1   -1    0    0  501    0  0.00000000000E+00  0.00000000000E+00 -0.10535122496E+04  0.10535122496E+04  0.50400001928E-02 0.  1.
    10030    2    1    2    0    0  0.00000000000E+00  0.00000000000E+00 -0.47544413946E+03  0.16315803598E+04  0.15607713929E+04 0.  0.
        4    1    3    3  502    0  0.19137288422E+03 -0.73552364923E+03 -0.42290746550E+03  0.86975338842E+03  0.12699999809E+01 0. -1.
       -4    1    3    3    0  502 -0.19137288422E+03  0.73552364923E+03 -0.52536673954E+02  0.76182697143E+03  0.12699999809E+01 0.  1.
</event>
<event>
 5   0  0.5264308E-04  0.1600781E+04  0.7818609E-02  0.8820069E-01
        2   -1    0    0  501    0  0.00000000000E+00  0.00000000000E+00  0.13415340954E+04  0.13415340954E+04  0.25500000920E-02 0.  1.
       -2   -1    0    0    0  501  0.00000000000E+00  0.00000000000E+00 -0.47753133164E+03  0.47753133164E+03  0.25500000920E-02 0. -1.
    10030    2    1    2    0    0  0.00000000000E+00  0.00000000000E+00  0.86400276377E+03  0.18190654271E+04  0.16007805134E+04 0.  0.
        3    1    3    3  502    0  0.65204622479E+03  0.66981431624E+02 -0.89950843754E+02  0.66162070399E+03  0.10100000352E+00 0. -1.
       -3    1    3    3    0  502 -0.65204622479E+03 -0.66981431624E+02  0.95395360752E+03  0.11574447231E+04  0.10100000352E+00 0.  1.
</event>
<event>
 5   0  0.2730707E-04  0.1604147E+04  0.7818609E-02  0.8818004E-01
        1   -1    0    0  501    0  0.00000000000E+00  0.00000000000E+00  0.70179367449E+03  0.70179367451E+03  0.50400001928E-02 0. -1.
       -1   -1    0    0    0  501  0.00000000000E+00  0.00000000000E+00 -0.91668259842E+03  0.91668259843E+03  0.50400001928E-02 0.  1.
    10030    2    1    2    0    0  0.00000000000E+00  0.00000000000E+00 -0.21488892392E+03  0.16184762729E+04  0.16041471867E+04 0.  0.
        5    1    3    3  502    0  0.67881484360E+03  0.27793762446E+03  0.21989318775E+03  0.76577674227E+03  0.46999998093E+01 0. -1.
       -5    1    3    3    0  502 -0.67881484360E+03 -0.27793762446E+03 -0.43478211167E+03  0.85269953067E+03  0.46999998093E+01 0.  1.
</event>
<event>
 5   0  0.2796994E-04  0.1589742E+04  0.7818609E-02  0.8826875E-01
       -1   -1    0    0    0  501  0.00000000000E+00  0.00000000000E+00  0.70697719592E+03  0.70697719593E+03  0.50400001928E-02 0. -1.
        1   -1    0    0  501    0  0.00000000000E+00  0.00000000000E+00 -0.89369234984E+03  0.89369234985E+03  0.50400001928E-02 0.  1.
    10030    2    1    2    0    0  0.00000000000E+00  0.00000000000E+00 -0.18671515392E+03  0.16006695458E+04  0.15897422578E+04 0.  0.
        3    1    3    3  502    0  0.31356117420E+03 -0.34890706112E+03  0.55274103793E+03  0.72496855964E+03  0.10100000352E+00 0. -1.
       -3    1    3    3    0  502 -0.31356117420E+03  0.34890706112E+03 -0.73945619185E+03  0.87570098614E+03  0.10100000352E+00 0.  1.
</event>
<event>
 5   0  0.1908125E-04  0.1484797E+04  0.7818609E-02  0.8894626E-01
        3   -1    0    0  501    0  0.00000000000E+00  0.00000000000E+00  0.50312547481E+03  0.50312548495E+03  0.10100000352E+00 0. -1.
       -3   -1    0    0    0  501  0.00000000000E+00  0.00000000000E+00 -0.10954634632E+04  0.10954634678E+04  0.10100000352E+00 0.  1.
    10030    2    1    2    0    0  0.00000000000E+00  0.00000000000E+00 -0.59233798835E+03  0.15985889528E+04  0.14847970728E+04 0.  0.
        1    1    3    3  502    0  0.35504309763E+03  0.60397675619E+03 -0.56057529427E+03  0.89726706379E+03  0.50400001928E-02 0.  1.
       -1    1    3    3    0  502 -0.35504309763E+03 -0.60397675619E+03 -0.31762694081E+02  0.70132188898E+03  0.50400001928E-02 0. -1.
</event>
<event>
 5   0  0.5315984E-04  0.1606875E+04  0.7818609E-02  0.8816335E-01
       -2   -1    0    0    0  501  0.00000000000E+00  0.00000000000E+00  0.55581637185E+03  0.55581637185E+03  0.25500000920E-02 0. -1.
        2   -1    0    0  501    0  0.00000000000E+00  0.00000000000E+00 -0.11613765270E+04  0.11613765270E+04  0.25500000920E-02 0.  1.
    10030    2    1    2    0    0  0.00000000000E+00  0.00000000000E+00 -0.60556015518E+03  0.17171928989E+04  0.16068753376E+04 0.  0.
        2    1    3    3  502    0 -0.49573159229E+03 -0.34922572186E+03  0.26047600323E+03  0.65996679058E+03  0.25500000920E-02 0. -1.
       -2    1    3    3    0  502  0.49573159229E+03  0.34922572186E+03 -0.86603615841E+03  0.10572261083E+04  0.25500000920E-02 0.  1.
</event>
<event>
 5   0  0.5381164E-04  0.1599040E+04  0.7818609E-02  0.8821138E-01
        2   -1    0    0  501    0  0.00000000000E+00  0.00000000000E+00  0.19832175593E+04  0.19832175593E+04  0.25500000920E-02 0. -1.
       -2   -1    0    0    0  501  0.00000000000E+00  0.00000000000E+00 -0.32232091136E+03  0.32232091137E+03  0.25500000920E-02 0.  1.
    10030    2    1    2    0    0  0.00000000000E+00  0.00000000000E+00  0.16608966479E+04  0.23055384707E+04  0.15990403261E+04 0.  0.
        5    1    3    3  502    0 -0.29903026839E+03 -0.15563221980E+02  0.18992969465E+04  0.19227616327E+04  0.46999998093E+01 0. -1.
       -5    1    3    3    0  502  0.29903026839E+03  0.15563221980E+02 -0.23840029858E+03  0.38277683792E+03  0.46999998093E+01 0.  1.
</event>
<event>
 5   0  0.2763895E-04  0.1588737E+04  0.7818609E-02  0.8827497E-01
       -1   -1    0    0    0  501  0.00000000000E+00  0.00000000000E+00  0.46535680872E+03  0.46535680875E+03  0.50400001928E-02 0. -1.
        1   -1    0    0  501    0  0.00000000000E+00  0.00000000000E+00 -0.13559948561E+04  0.13559948561E+04  0.50400001928E-02 0.  1.
    10030    2    1    2    0    0  0.00000000000E+00  0.00000000000E+00 -0.89063804733E+03  0.18213516648E+04  0.15887371575E+04 0.  0.
        4    1    3    3  502    0  0.78182658445E+03 -0.13954087815E+03 -0.46502139247E+03  0.92031025920E+03  0.12699999809E+01 0.  1.
       -4    1    3    3    0  502 -0.78182658445E+03  0.13954087815E+03 -0.42561665487E+03  0.90104140561E+03  0.12699999809E+01 0. -1.
</event>
<event>
 5   0  0.5083831E-04  0.1597552E+04  0.7818609E-02  0.8822053E-01
       -2   -1    0    0    0  501  0.00000000000E+00  0.00000000000E+00  0.42942232511E+03  0.42942232512E+03  0.25500000920E-02 0. -1.
        2   -1    0    0  501    0  0.00000000000E+00  0.00000000000E+00 -0.14858168475E+04  0.14858168475E+04  0.25500000920E-02 0.  1.
    10030    2    1    2    0    0  0.00000000000E+00  0.00000000000E+00 -0.10563945223E+04  0.19152391726E+04  0.15975517836E+04 0.  0.
        4    1    3    3  502    0  0.20261525794E+03  0.40487542227E+03  0.26074322664E+03  0.52246118846E+03  0.12699999809E+01 0. -1.
       -4    1    3    3    0  502 -0.20261525794E+03 -0.40487542227E+03 -0.13171377490E+04  0.13927779841E+04  0.12699999809E+01 0.  1.
</event>
<event>
 5   0  0.2730707E-04  0.1600232E+04  0.7818609E-02  0.8820406E-01
        1   -1    0    0  501    0  0.00000000000E+00  0.00000000000E+00  0.16044789671E+04  0.16044789671E+04  0.50400001928E-02 0.  1.
       -1   -1    0    0    0  501  0.00000000000E+00  0.00000000000E+00 -0.39899886166E+03  0.39899886169E+03  0.50400001928E-02 0. -1.
    10030    2    1    2    0    0  0.00000000000E+00  0.00000000000E+00  0.12054801054E+04  0.20034778288E+04  0.16002315851E+04 0.  0.
        5    1    3    3  502    0 -0.76426307960E+03  0.10569700499E+03  0.86801263796E+03  0.11613517733E+04  0.46999998093E+01 0.  1.
       -5    1    3    3    0  502  0.76426307960E+03 -0.10569700499E+03  0.33746746745E+03  0.84212605547E+03  0.46999998093E+01 0. -1.
</event>
<event>
 5   0  0.5315984E-04  0.1582259E+04  0.7818609E-02  0.8831522E-01
       -2   -1    0    0    0  501  0.00000000000E+00  0.00000000000E+00  0.47430239686E+03  0.47430239687E+03  0.25500000920E-02 0.  1.
        2   -1    0    0  501    0  0.00000000000E+00  0.00000000000E+00 -0.13195923388E+04  0.13195923388E+04  0.25500000920E-02 0. -1.
    10030    2    1    2    0    0  0.00000000000E+00  0.00000000000E+00 -0.84528994197E+03  0.17938947357E+04  0.15822589032E+04 0.  0.
        2    1    3    3  502    0 -0.13818472625E+03  0.76619859420E+03 -0.58189829522E+03  0.97198813280E+03  0.25500000920E-02 0.  1.
       -2    1    3    3    0  502  0.13818472625E+03 -0.76619859420E+03 -0.26339164675E+03  0.82190660290E+03  0.25500000920E-02 0. -1.
</event>
<event>
 5   0  0.5264308E-04  0.1618453E+04  0.7818609E-02  0.8809291E-01
        2   -1    0    0  501    0  0.00000000000E+00  0.00000000000E+00  0.62569736610E+03  0.62569736611E+03  0.25500000920E-02 0. -1.
       -2   -1    0    0    0  501  0.00000000000E+00  0.00000000000E+00 -0.10465880235E+04  0.10465880235E+04  0.25500000920E-02 0.  1.
    10030    2    1    2    0    0  0.00000000000E+00  0.00000000000E+00 -0.42089065736E+03  0.16722853896E+04  0.16184528040E+04 0.  0.
        3    1    3    3  502    0  0.41613411655E+03  0.66953443388E+03 -0.21600245209E+02  0.78861304954E+03  0.10100000352E+00 0. -1.
       -3    1    3    3    0  502 -0.41613411655E+03 -0.66953443388E+03 -0.39929041215E+03  0.88367234004E+03  0.10100000352E+00 0.  1.
</event>
<event>
 5   0  0.2649086E-04  0.1592547E+04  0.7818609E-02  0.8825140E-01
       -1   -1    0    0    0  501  0.00000000000E+00  0.00000000000E+00  0.25635888945E+04  0.25635888945E+04  0.50400001928E-02 0.  1.
        1   -1    0    0  501    0  0.00000000000E+00  0.00000000000E+00 -0.24732961013E+03  0.24732961018E+03  0.50400001928E-02 0. -1.
    10030    2    1    2    0    0  0.00000000000E+00  0.00000000000E+00  0.23162592843E+04  0.28109185046E+04  0.15925469436E+04 0.  0.
        2    1    3    3  502    0  0.32476593941E+03  0.48565178049E+03  0.21130845359E+04  0.21923632964E+04  0.25500000920E-02 0.  1.
       -2    1    3    3    0  502 -0.32476593941E+03 -0.48565178049E+03  0.20317474840E+03  0.61855520827E+03  0.25500000920E-02 0. -1.
</event>
<event>
 5   0  0.2730707E-04  0.1612599E+04  0.7818609E-02  0.8812845E-01
       -1   -1    0    0    0  501  0.00000000000E+00  0.00000000000E+00  0.12548831028E+04  0.12548831029E+04  0.50400001928E-02 0. -1.
        1   -1    0    0  501    0  0.00000000000E+00  0.00000000000E+00 -0.51807121716E+03  0.51807121718E+03  0.50400001928E-02 0.  1.
    10030    2    1    2    0    0  0.00000000000E+00  0.00000000000E+00  0.73681188568E+03  0.17729543200E+04  0.16125989167E+04 0.  0.
        5    1    3    3  502    0 -0.42653359366E+03 -0.29134322696E+03 -0.31225693012E+03  0.60360439264E+03  0.46999998093E+01 0.  1.
       -5    1    3    3    0  502  0.42653359366E+03  0.29134322696E+03  0.10490688158E+04  0.11693499274E+04  0.46999998093E+01 0. -1.
</event>
<event>
 5   0  0.5264308E-04  0.1594551E+04  0.7818609E-02  0.8823902E-01
        2   -1    0    0  501    0  0.00000000000E+00  0.00000000000E+00  0.21711565178E+04  0.21711565178E+04  0.25500000920E-02 0. -1.
       -2   -1    0    0    0  501  0.00000000000E+00  0.00000000000E+00 -0.29276958687E+03  0.29276958688E+03  0.25500000920E-02 0.  1.
    10030    2    1    2    0    0  0.00000000000E+00  0.00000000000E+00  0.18783869309E+04  0.24639261047E+04  0.15945514689E+04 0.  0.
        3    1    3    3  502    0  0.29737455256E+03 -0.65531078603E+03  0.40887879333E+03  0.82767489308E+03  0.10100000352E+00 0.  1.
       -3    1    3    3    0  502 -0.29737455256E+03  0.65531078603E+03  0.14695081376E+04  0.16362512116E+04  0.10100000352E+00 0. -1.
</event>
<event>
 5   0  0.5264308E-04  0.1631514E+04  0.7818609E-02  0.8801418E-01
        2   -1    0    0  501    0  0.00000000000E+00  0.00000000000E+00  0.97107576877E+03  0.97107576877E+03  0.25500000920E-02 0.  1.
       -2   -1    0    0    0  501  0.00000000000E+00  0.00000000000E+00 -0.68528069381E+03  0.68528069381E+03  0.25500000920E-02 0. -1.
    10030    2    1    2    0    0  0.00000000000E+00  0.00000000000E+00  0.28579507496E+03  0.16563564626E+04  0.16315139921E+04 0.  0.
        3    1    3    3  502    0 -0.29939506508E+03  0.59550090793E+03 -0.33458366816E+03  0.74579151078E+03  0.10100000352E+00 0. -1.
       -3    1    3    3    0  502  0.29939506508E+03 -0.59550090793E+03  0.62037874312E+03  0.91056495181E+03  0.10100000352E+00 0.  1.
</event>
<event>
 5   0  0.5315984E-04  0.1624828E+04  0.7818609E-02  0.8805439E-01
        2   -1    0    0  501    0  0.00000000000E+00  0.00000000000E+00  0.22504738275E+04  0.22504738275E+04  0.25500000920E-02 0. -1.
       -2   -1    0    0    0  501  0.00000000000E+00  0.00000000000E+00 -0.29327873946E+03  0.29327873947E+03  0.25500000920E-02 0.  1.
    10030    2    1    2    0    0  0.00000000000E+00  0.00000000000E+00  0.19571950880E+04  0.25437525670E+04  0.16248275322E+04 0.  0.
        2    1    3    3  502    0  0.20375850997E+03  0.38433503069E+03  0.20527823063E+04  0.20983674948E+04  0.25500000920E-02 0. -1.
       -2    1    3    3    0  502 -0.20375850997E+03 -0.38433503069E+03 -0.95587218256E+02  0.44538507216E+03  0.25500000920E-02 0.  1.
</event>
<event>
 5   0  0.2689675E-04  0.1549046E+04  0.7818609E-02  0.8852477E-01
       -1   -1    0    0    0  501  0.00000000000E+00  0.00000000000E+00  0.76165143791E+03  0.76165143793E+03  0.50400001928E-02 0. -1.
        1   -1    0    0  501    0  0.00000000000E+00  0.00000000000E+00 -0.78761215439E+03  0.78761215441E+03  0.50400001928E-02 0.  1.
    10030    2    1    2    0    0  0.00000000000E+00  0.00000000000E+00 -0.25960716481E+02  0.15492635923E+04  0.15490460677E+04 0.  0.
        1    1    3    3  502    0  0.22896286512E+03 -0.42265721518E+03  0.59441276475E+03  0.76445382469E+03  0.50400001928E-02 0. -1.
       -1    1    3    3    0  502 -0.22896286512E+03  0.42265721518E+03 -0.62037348123E+03  0.78480976765E+03  0.50400001928E-02 0.  1.
</event>
<event>
 5   0  0.5083831E-04  0.1581878E+04  0.7818609E-02  0.8831759E-01
       -2   -1    0    0    0  501  0.00000000000E+00  0.00000000000E+00  0.63350759952E+03  0.63350759952E+03  0.25500000920E-02 0. -1.
        2   -1    0    0  501    0  0.00000000000E+00  0.00000000000E+00 -0.98749297714E+03  0.98749297715E+03  0.25500000920E-02 0.  1.
    10030    2    1    2    0    0  0.00000000000E+00  0.00000000000E+00 -0.35398537763E+03  0.16210005767E+04  0.15818777519E+04 0.  0.
        4    1    3    3  502    0  0.31267240167E+02  0.11520656140E+03  0.62422216809E+03  0.63553530204E+03  0.12699999809E+01 0. -1.
       -4    1    3    3    0  502 -0.31267240167E+02 -0.11520656140E+03 -0.97820754572E+03  0.98546527463E+03  0.12699999809E+01 0.  1.
</event>
<event>
 5   0  0.5264308E-04  0.1556989E+04  0.7818609E-02  0.8847416E-01
        2   -1    0    0  501    0  0.00000000000E+00  0.00000000000E+00  0.11910312849E+04  0.11910312849E+04  0.25500000920E-02 0. -1.
       -2   -1    0    0    0  501  0.00000000000E+00  0.00000000000E+00 -0.50884807654E+03  0.50884807654E+03  0.25500000920E-02 0.  1.
    10030    2    1    2    0    0  0.00000000000E+00  0.00000000000E+00  0.68218320836E+03  0.16998793614E+04  0.15569893749E+04 0.  0.
        3    1    3    3  502    0 -0.30978489878E+03  0.31968216784E+03  0.10383669322E+04  0.11297651384E+04  0.10100000352E+00 0. -1.
       -3    1    3    3    0  502  0.30978489878E+03 -0.31968216784E+03 -0.35618372384E+03  0.57011422301E+03  0.10100000352E+00 0.  1.
</event>
<event>
 5   0  0.2649086E-04  0.1616832E+04  0.7818609E-02  0.8810274E-01
       -1   -1    0    0    0  501  0.00000000000E+00  0.00000000000E+00  0.47619628961E+03  0.47619628963E+03  0.50400001928E-02 0. -1.
        1   -1    0    0  501    0  0.00000000000E+00  0.00000000000E+00 -0.13724095064E+04  0.13724095064E+04  0.50400001928E-02 0.  1.
    10030    2    1    2    0    0  0.00000000000E+00  0.00000000000E+00 -0.89621321683E+03  0.18486057961E+04  0.16168318587E+04 0.  0.
        2    1    3    3  502    0  0.42239731841E+03 -0.18506297106E+03 -0.12072677942E+04  0.12923479890E+04  0.25500000920E-02 0.  1.
       -2    1    3    3    0  502 -0.42239731841E+03  0.18506297106E+03  0.31105457732E+03  0.55625780708E+03  0.25500000920E-02 0. -1.
</event>
<event>
 5   0  0.2689675E-04  0.1605246E+04  0.7818609E-02  0.8817332E-01
       -1   -1    0    0    0  501  0.00000000000E+00  0.00000000000E+00  0.13377531282E+04  0.13377531282E+04  0.50400001928E-02 0.  1.
        1   -1    0    0  501    0  0.00000000000E+00  0.00000000000E+00 -0.48155639465E+03  0.48155639468E+03  0.50400001928E-02 0. -1.
    10030    2    1    2    0    0  0.00000000000E+00  0.00000000000E+00  0.85619673353E+03  0.18193095229E+04  0.16052458670E+04 0.  0.
        1    1    3    3  502    0  0.20145285871E+03 -0.67051825910E+03 -0.16698237872E+02  0.70032622487E+03  0.50400001928E-02 0. -1.
       -1    1    3    3    0  502 -0.20145285871E+03  0.67051825910E+03  0.87289497140E+03  0.11189832980E+04  0.50400001928E-02 0.  1.
</event>
<event>
 5   0  0.5131239E-04  0.1590642E+04  0.7818609E-02  0.8826318E-01
        2   -1    0    0  501    0  0.00000000000E+00  0.00000000000E+00  0.13495644655E+04  0.13495644655E+04  0.25500000920E-02 0.  1.
       -2   -1    0    0    0  501  0.00000000000E+00  0.00000000000E+00 -0.46869614860E+03  0.46869614861E+03  0.25500000920E-02 0. -1.
    10030    2    1    2    0    0  0.00000000000E+00  0.00000000000E+00  0.88086831690E+03  0.18182606141E+04  0.15906422191E+04 0.  0.
        1    1    3    3  502    0 -0.77067105278E+03 -0.11662880406E+03  0.62117214559E+03  0.99669001401E+03  0.50400001928E-02 0.  1.
       -1    1    3    3    0  502  0.77067105278E+03  0.11662880406E+03  0.25969617130E+03  0.82157060010E+03  0.50400001928E-02 0. -1.
</event>
<event>
 5   0  0.2730707E-04  0.1594096E+04  0.7818609E-02  0.8824183E-01
       -1   -1    0    0    0  501  0.00000000000E+00  0.00000000000E+00  0.41067010553E+03  0.41067010556E+03  0.50400001928E-02 0. -1.
        1   -1    0    0  501    0  0.00000000000E+00  0.00000000000E+00 -0.15469487350E+04  0.15469487350E+04  0.50400001928E-02 0.  1.
    10030    2    1    2    0    0  0.00000000000E+00  0.00000000000E+00 -0.11362786295E+04  0.19576188406E+04  0.15940961079E+04 0.  0.
        5    1    3    3  502    0  0.87770127273E+02  0.57013283884E+03  0.10729387576E+03  0.58676154862E+03  0.46999998093E+01 0. -1.
       -5    1    3    3    0  502 -0.87770127273E+02 -0.57013283884E+03 -0.12435725053E+04  0.13708572920E+04  0.46999998093E+01 0.  1.
</event>
<event>
 5   0  0.2689675E-04  0.1599013E+04  0.7818609E-02  0.8821155E-01
        1   -1    0    0  501    0  0.00000000000E+00  0.00000000000E+00  0.18886765121E+04  0.18886765122E+04  0.50400001928E-02 0.  1.
       -1   -1    0    0    0  501  0.00000000000E+00  0.00000000000E+00 -0.33844362333E+03  0.33844362336E+03  0.50400001928E-02 0. -1.
    10030    2    1    2    0    0  0.00000000000E+00  0.00000000000E+00  0.15502328888E+04  0.22271201355E+04  0.15990128481E+04 0.  0.
        1    1    3    3  502    0  0.59997793896E+03 -0.29872692689E+03  0.13822267400E+04  0.15361517063E+04  0.50400001928E-02 0.  1.
       -1    1    3    3    0  502 -0.59997793896E+03  0.29872692689E+03  0.16800614886E+03  0.69096842921E+03  0.50400001928E-02 0. -1.
</event>
<event>
 5   0  0.5264308E-04  0.1630816E+04  0.7818609E-02  0.8801837E-01
        2   -1    0    0  501    0  0.00000000000E+00  0.00000000000E+00  0.80416885398E+03  0.80416885399E+03  0.25500000920E-02 0.  1.
       -2   -1    0    0    0  501  0.00000000000E+00  0.00000000000E+00 -0.82680409076E+03  0.82680409077E+03  0.25500000920E-02 0. -1.
    10030    2    1    2    0    0  0.00000000000E+00  0.00000000000E+00 -0.22635236780E+02  0.16309729448E+04  0.16308158672E+04 0.  0.
        3    1    3    3  502    0  0.54146183146E+02  0.64040291231E+03 -0.51320496148E+03  0.82245184779E+03  0.10100000352E+00 0. -1.
       -3    1    3    3    0  502 -0.54146183146E+02 -0.64040291231E+03  0.49056972471E+03  0.80852109697E+03  0.10100000352E+00 0.  1.
</event>
<event>
 5   0  0.2689675E-04  0.1601952E+04  0.7818609E-02  0.8819349E-01
       -1   -1    0    0    0  501  0.00000000000E+00  0.00000000000E+00  0.56100198483E+03  0.56100198485E+03  0.50400001928E-02 0. -1.
        1   -1    0    0  501    0  0.00000000000E+00  0.00000000000E+00 -0.11436018938E+04  0.11436018938E+04  0.50400001928E-02 0.  1.
    10030    2    1    2    0    0  0.00000000000E+00  0.00000000000E+00 -0.58259990900E+03  0.17046038787E+04  0.16019524741E+04 0.  0.
        1    1    3    3  502    0 -0.38054704026E+03  0.39862266423E+03  0.32719161520E+03  0.64091374721E+03  0.50400001928E-02 0. -1.
       -1    1    3    3    0  502  0.38054704026E+03 -0.39862266423E+03 -0.90979152420E+03  0.10636901315E+04  0.50400001928E-02 0.  1.
</event>
<event>
 5   0  0.2689675E-04  0.1429614E+04  0.7818609E-02  0.8932657E-01
       -1   -1    0    0    0  501  0.00000000000E+00  0.00000000000E+00  0.30056514812E+03  0.30056514816E+03  0.50400001928E-02 0.  1.
        1   -1    0    0  501    0  0.00000000000E+00  0.00000000000E+00 -0.16999618520E+04  0.16999618520E+04  0.50400001928E-02 0. -1.
    10030    2    1    2    0    0  0.00000000000E+00  0.00000000000E+00 -0.13993967039E+04  0.20005270002E+04  0.14296143339E+04 0.  0.
        1    1    3    3  502    0  0.82311075553E+02 -0.67720948346E+03 -0.40100574454E+03  0.79132383057E+03  0.50400001928E-02 0. -1.
       -1    1    3    3    0  502 -0.82311075553E+02  0.67720948346E+03 -0.99839095931E+03  0.12092031696E+04  0.50400001928E-02 0.  1.
</event>
<event>
 5   0  0.2649086E-04  0.1645048E+04  0.7818609E-02  0.8793341E-01
       -1   -1    0    0    0  501  0.00000000000E+00  0.00000000000E+00  0.53469162481E+03  0.53469162484E+03  0.50400001928E-02 0.  1.
        1   -1    0    0  501    0  0.00000000000E+00  0.00000000000E+00 -0.12653012986E+04  0.12653012986E+04  0.50400001928E-02 0. -1.
    10030    2    1    2    0    0  0.00000000000E+00  0.00000000000E+00 -0.73060967382E+03  0.17999929235E+04  0.16450483364E+04 0.  0.
        2    1    3    3  502    0  0.45503128727E+03  0.60500919084E+03 -0.13363042062E+02  0.75714474461E+03  0.25500000920E-02 0.  1.
       -2    1    3    3    0  502 -0.45503128727E+03 -0.60500919084E+03 -0.71724663176E+03  0.10428481789E+04  0.25500000920E-02 0. -1.
</event>
<event>
 5   0  0.5131239E-04  0.1615169E+04  0.7818609E-02  0.8811283E-01
       -2   -1    0    0    0  501  0.00000000000E+00  0.00000000000E+00  0.10573798930E+04  0.10573798930E+04  0.25500000920E-02 0.  1.
        2   -1    0    0  501    0  0.00000000000E+00  0.00000000000E+00 -0.61680084174E+03  0.61680084175E+03  0.25500000920E-02 0. -1.
    10030    2    1    2    0    0  0.00000000000E+00  0.00000000000E+00  0.44057905128E+03  0.16741807348E+04  0.16151691033E+04 0.  0.
        1    1    3    3  502    0  0.38047759164E+03 -0.70719605802E+03  0.13170756794E+03  0.81377905214E+03  0.50400001928E-02 0. -1.
       -1    1    3    3    0  502 -0.38047759164E+03  0.70719605802E+03  0.30887148333E+03  0.86040168263E+03  0.50400001928E-02 0.  1.
</event>
<event>
 5   0  0.1908125E-04  0.1537103E+04  0.7818609E-02  0.8860148E-01
       -3   -1    0    0    0  501  0.00000000000E+00  0.00000000000E+00  0.37481902805E+03  0.37481904166E+03  0.10100000352E+00 0.  1.
        3   -1    0    0  501    0  0.00000000000E+00  0.00000000000E+00 -0.15758842390E+04  0.15758842422E+04  0.10100000352E+00 0. -1.
    10030    2    1    2    0    0  0.00000000000E+00  0.00000000000E+00 -0.12010652109E+04  0.19507032839E+04  0.15371030092E+04 0.  0.
        1    1    3    3  502    0  0.54407778596E+03  0.44740853321E+03 -0.21045603110E+03  0.73517805586E+03  0.50400001928E-02 0.  1.
       -1    1    3    3    0  502 -0.54407778596E+03 -0.44740853321E+03 -0.99060917980E+03  0.12155252280E+04  0.50400001928E-02 0. -1.
</event>
<event>
 5   0  0.5264308E-04  0.1542115E+04  0.7818609E-02  0.8856920E-01
       -2   -1    0    0    0  501  0.00000000000E+00  0.00000000000E+00  0.63957963403E+03  0.63957963403E+03  0.25500000920E-02 0.  1.
        2   -1    0    0  501    0  0.00000000000E+00  0.00000000000E+00 -0.92956277160E+03  0.92956277160E+03  0.25500000920E-02 0. -1.
    10030    2    1    2    0    0  0.00000000000E+00  0.00000000000E+00 -0.28998313757E+03  0.15691424056E+04  0.15421146744E+04 0.  0.
        3    1    3    3  502    0  0.52059275649E+03  0.43880654461E+03 -0.51322002984E+03  0.85262114149E+03  0.10100000352E+00 0. -1.
       -3    1    3    3    0  502 -0.52059275649E+03 -0.43880654461E+03  0.22323689227E+03  0.71652126414E+03  0.10100000352E+00 0.  1.
</event>
<event>
 5   0  0.5315984E-04  0.1604412E+04  0.7818609E-02  0.8817842E-01
        2   -1    0    0  501    0  0.00000000000E+00  0.00000000000E+00  0.15826546096E+04  0.15826546096E+04  0.25500000920E-02 0. -1.
       -2   -1    0    0    0  501  0.00000000000E+00  0.00000000000E+00 -0.40661729168E+03  0.40661729169E+03  0.25500000920E-02 0.  1.
    10030    2    1    2    0    0  0.00000000000E+00  0.00000000000E+00  0.11760373179E+04  0.19892719013E+04  0.16044123298E+04 0.  0.
        2    1    3    3  502    0 -0.46318421678E+03 -0.14583338446E+03  0.13797234724E+04  0.14626837850E+04  0.25500000920E-02 0. -1.
       -2    1    3    3    0  502  0.46318421678E+03  0.14583338446E+03 -0.20368615445E+03  0.52658811629E+03  0.25500000920E-02 0.  1.
</event>
<event>
 5   0  0.5131239E-04  0.1601235E+04  0.7818609E-02  0.8819790E-01
        2   -1    0    0  501    0  0.00000000000E+00  0.00000000000E+00  0.89663773713E+03  0.89663773713E+03  0.25500000920E-02 0. -1.
       -2   -1    0    0    0  501  0.00000000000E+00  0.00000000000E+00 -0.71487960090E+03  0.71487960090E+03  0.25500000920E-02 0.  1.
    10030    2    1    2    0    0  0.00000000000E+00  0.00000000000E+00  0.18175813623E+03  0.16115173380E+04  0.16012345583E+04 0.  0.
        1    1    3    3  502    0 -0.55855706687E+03  0.30442753947E+03  0.58013454006E+03  0.86094030475E+03  0.50400001928E-02 0. -1.
       -1    1    3    3    0  502  0.55855706687E+03 -0.30442753947E+03 -0.39837640383E+03  0.75057703329E+03  0.50400001928E-02 0.  1.
</event>
<event>
 5   0  0.5264308E-04  0.1576965E+04  0.7818609E-02  0.8834826E-01
       -2   -1    0    0    0  501  0.00000000000E+00  0.00000000000E+00  0.37420894381E+03  0.37420894381E+03  0.25500000920E-02 0.  1.
        2   -1    0    0  501    0  0.00000000000E+00  0.00000000000E+00 -0.16613831905E+04  0.16613831905E+04  0.25500000920E-02 0. -1.
    10030    2    1    2    0    0  0.00000000000E+00  0.00000000000E+00 -0.12871742467E+04  0.20355921343E+04  0.15769647415E+04 0.  0.
        3    1    3    3  502    0 -0.15150766546E+03  0.39999045525E+02 -0.16410815508E+04  0.16485457722E+04  0.10100000352E+00 0. -1.
       -3    1    3    3    0  502  0.15150766546E+03 -0.39999045525E+02  0.35390730412E+03  0.38704636214E+03  0.10100000352E+00 0.  1.
</event>
<event>
 5   0  0.2689675E-04  0.1592896E+04  0.7818609E-02  0.8824924E-01
        1   -1    0    0  501    0  0.00000000000E+00  0.00000000000E+00  0.71996416211E+03  0.71996416213E+03  0.50400001928E-02 0. -1.
       -1   -1    0    0    0  501  0.00000000000E+00  0.00000000000E+00 -0.88105675719E+03  0.88105675720E+03  0.50400001928E-02 0.  1.
    10030    2    1    2    0    0  0.00000000000E+00  0.00000000000E+00 -0.16109259507E+03  0.16010209193E+04  0.15928958409E+04 0.  0.
        1    1    3    3  502    0 -0.53169782159E+03 -0.43647364023E+03 -0.48398815592E+03  0.84110424276E+03  0.50400001928E-02 0.  1.
       -1    1    3    3    0  502  0.53169782159E+03  0.43647364023E+03  0.32289556084E+03  0.75991667657E+03  0.50400001928E-02 0. -1.
</event>
<event>
 5   0  0.1908125E-04  0.1597783E+04  0.7818609E-02  0.8821911E-01
        3   -1    0    0  501    0  0.00000000000E+00  0.00000000000E+00  0.12223008646E+04  0.12223008688E+04  0.10100000352E+00 0. -1.
       -3   -1    0    0    0  501  0.00000000000E+00  0.00000000000E+00 -0.52215256590E+03  0.52215257567E+03  0.10100000352E+00 0.  1.
    10030    2    1    2    0    0  0.00000000000E+00  0.00000000000E+00  0.70014829871E+03  0.17444534445E+04  0.15977828950E+04 0.  0.
        1    1    3    3  502    0  0.35591066263E+03  0.24506890737E+03  0.10836900745E+04  0.11666684819E+04  0.50400001928E-02 0. -1.
       -1    1    3    3    0  502 -0.35591066263E+03 -0.24506890737E+03 -0.38354177578E+03  0.57778496253E+03  0.50400001928E-02 0.  1.
</event>
<event>
 5   0  0.5083831E-04  0.1592065E+04  0.7818609E-02  0.8825438E-01
       -2   -1    0    0    0  501  0.00000000000E+00  0.00000000000E+00  0.57138162306E+03  0.57138162306E+03  0.25500000920E-02 0. -1.
        2   -1    0    0  501    0  0.00000000000E+00  0.00000000000E+00 -0.11090095103E+04  0.11090095103E+04  0.25500000920E-02 0.  1.
    10030    2    1    2    0    0  0.00000000000E+00  0.00000000000E+00 -0.53762788719E+03  0.16803911333E+04  0.15920648906E+04 0.  0.
        4    1    3    3  502    0 -0.56462607755E+03 -0.55026040216E+03 -0.38480587298E+03  0.87730626945E+03  0.12699999809E+01 0.  1.
       -4    1    3    3    0  502  0.56462607755E+03  0.55026040216E+03 -0.15282201421E+03  0.80308486386E+03  0.12699999809E+01 0. -1.
</event>
<event>
 5   0  0.5315984E-04  0.1609990E+04  0.7818609E-02  0.8814434E-01
       -2   -1    0    0    0  501  0.00000000000E+00  0.00000000000E+00  0.29302315764E+03  0.29302315765E+03  0.25500000920E-02 0.  1.
        2   -1    0    0  501    0  0.00000000000E+00  0.00000000000E+00 -0.22114867110E+04  0.22114867110E+04  0.25500000920E-02 0. -1.
    10030    2    1    2    0    0  0.00000000000E+00  0.00000000000E+00 -0.19184635534E+04  0.25045098686E+04  0.16099898374E+04 0.  0.
        2    1    3    3  502    0 -0.23521955776E+03  0.72786298450E+03 -0.13493883537E+04  0.15511162734E+04  0.25500000920E-02 0. -1.
       -2    1    3    3    0  502  0.23521955776E+03 -0.72786298450E+03 -0.56907519966E+03  0.95339359523E+03  0.25500000920E-02 0.  1.
</event>
<event>
 5   0  0.2649086E-04  0.1491628E+04  0.7818609E-02  0.8890039E-01
        1   -1    0    0  501    0  0.00000000000E+00  0.00000000000E+00  0.13494871726E+04  0.13494871726E+04  0.50400001928E-02 0.  1.
       -1   -1    0    0    0  501  0.00000000000E+00  0.00000000000E+00 -0.41218535844E+03  0.41218535847E+03  0.50400001928E-02 0. -1.
    10030    2    1    2    0    0  0.00000000000E+00  0.00000000000E+00  0.93730181418E+03  0.17616725311E+04  0.14916284443E+04 0.  0.
        2    1    3    3  502    0 -0.13001638598E+03 -0.53416005183E+03 -0.12658333835E+03  0.56414055266E+03  0.25500000920E-02 0. -1.
       -2    1    3    3    0  502  0.13001638598E+03  0.53416005183E+03  0.10638851525E+04  0.11975319784E+04  0.25500000920E-02 0.  1.
</event>
<event>
 5   0  0.2649086E-04  0.1594710E+04  0.7818609E-02  0.8823804E-01
       -1   -1    0    0    0  501  0.00000000000E+00  0.00000000000E+00  0.92284486855E+03  0.92284486856E+03  0.50400001928E-02 0. -1.
        1   -1    0    0  501    0  0.00000000000E+00  0.00000000000E+00 -0.68892956042E+03  0.68892956044E+03  0.50400001928E-02 0.  1.
    10030    2    1    2    0    0  0.00000000000E+00  0.00000000000E+00  0.23391530812E+03  0.16117744290E+04  0.15947101425E+04 0.  0.
        2    1    3    3  502    0  0.73275634520E+03  0.66054363758E+02  0.42762285342E+03  0.85097376292E+03  0.25500000920E-02 0.  1.
       -2    1    3    3    0  502 -0.73275634520E+03 -0.66054363758E+02 -0.19370754530E+03  0.76080066608E+03  0.25500000920E-02 0. -1.
</event>
<event>
 5   0  0.5131239E-04  0.1597194E+04  0.7818609E-02  0.8822274E-01
        2   -1    0    0  501    0  0.00000000000E+00  0.00000000000E+00  0.20367008638E+04  0.20367008638E+04  0.25500000920E-02 0.  1.
       -2   -1    0    0    0  501  0.00000000000E+00  0.00000000000E+00 -0.31313250261E+03  0.31313250262E+03  0.25500000920E-02 0. -1.
    10030    2    1    2    0    0  0.00000000000E+00  0.00000000000E+00  0.17235683612E+04  0.23498333664E+04  0.15971940879E+04 0.  0.
        1    1    3    3  502    0 -0.44786313813E+03  0.54187934241E+03  0.30438052021E+03  0.76606926144E+03  0.50400001928E-02 0. -1.
       -1    1    3    3    0  502  0.44786313813E+03 -0.54187934241E+03  0.14191878410E+04  0.15837641050E+04  0.50400001928E-02 0.  1.
</event>
<event>
 5   0  0.2689675E-04  0.1602943E+04  0.7818609E-02  0.8818742E-01
        1   -1    0    0  501    0  0.00000000000E+00  0.00000000000E+00  0.92233967395E+03  0.92233967396E+03  0.50400001928E-02 0. -1.
       -1   -1    0    0    0  501  0.00000000000E+00  0.00000000000E+00 -0.69644242821E+03  0.69644242823E+03  0.50400001928E-02 0.  1.
    10030    2    1    2    0    0  0.00000000000E+00  0.00000000000E+00  0.22589724574E+03  0.16187821022E+04  0.16029428963E+04 0.  0.
        1    1    3    3  502    0 -0.71086858313E+03 -0.27650279996E+03  0.36148725284E+03  0.84407403399E+03  0.50400001928E-02 0. -1.
       -1    1    3    3    0  502  0.71086858313E+03  0.27650279996E+03 -0.13559000710E+03  0.77470806819E+03  0.50400001928E-02 0.  1.
</event>
<event>
 5   0  0.2730707E-04  0.1601037E+04  0.7818609E-02  0.8819911E-01
       -1   -1    0    0    0  501  0.00000000000E+00  0.00000000000E+00  0.86663031726E+03  0.86663031727E+03  0.50400001928E-02 0. -1.
        1   -1    0    0  501    0  0.00000000000E+00  0.00000000000E+00 -0.73945008303E+03  0.73945008305E+03  0.50400001928E-02 0.  1.
    10030    2    1    2    0    0  0.00000000000E+00  0.00000000000E+00  0.12718023423E+03  0.16060804003E+04  0.16010369891E+04 0.  0.
        5    1    3    3  502    0  0.42822607548E+03  0.57437810268E+03  0.42181442943E+03  0.83140680742E+03  0.46999998093E+01 0. -1.
       -5    1    3    3    0  502 -0.42822607548E+03 -0.57437810268E+03 -0.29463419520E+03  0.77467359290E+03  0.46999998093E+01 0.  1.
</event>
<event>
 5   0  0.2689675E-04  0.1598517E+04  0.7818609E-02  0.8821459E-01
        1   -1    0    0  501    0  0.00000000000E+00  0.00000000000E+00  0.20794630351E+04  0.20794630351E+04  0.50400001928E-02 0.  1.
       -1   -1    0    0    0  501  0.00000000000E+00  0.00000000000E+00 -0.30720161466E+03  0.30720161470E+03  0.50400001928E-02 0. -1.
    10030    2    1    2    0    0  0.00000000000E+00  0.00000000000E+00  0.17722614204E+04  0.23866646498E+04  0.15985173156E+04 0.  0.
        1    1    3    3  502    0  0.60810041772E+03  0.48584105195E+03  0.11573020964E+04  0.13946955898E+04  0.50400001928E-02 0.  1.
       -1    1    3    3    0  502 -0.60810041772E+03 -0.48584105195E+03  0.61495932402E+03  0.99196906001E+03  0.50400001928E-02 0. -1.
</event>
<event>
 5   0  0.2796994E-04  0.1604540E+04  0.7818609E-02  0.8817764E-01
       -1   -1    0    0    0  501  0.00000000000E+00  0.00000000000E+00  0.68863170515E+03  0.68863170517E+03  0.50400001928E-02 0.  1.
        1   -1    0    0  501    0  0.00000000000E+00  0.00000000000E+00 -0.93466038958E+03  0.93466038959E+03  0.50400001928E-02 0. -1.
    10030    2    1    2    0    0  0.00000000000E+00  0.00000000000E+00 -0.24602868443E+03  0.16232920948E+04  0.16045395325E+04 0.  0.
        3    1    3    3  502    0 -0.12924372539E+03 -0.15199020191E+03  0.66313353210E+03  0.69249624809E+03  0.10100000352E+00 0.  1.
       -3    1    3    3    0  502  0.12924372539E+03  0.15199020191E+03 -0.90916221653E+03  0.93079584667E+03  0.10100000352E+00 0. -1.
</event>
<event>
 5   0  0.5264308E-04  0.1586959E+04  0.7818609E-02  0.8828600E-01
       -2   -1    0    0    0  501  0.00000000000E+00  0.00000000000E+00  0.72523799257E+03  0.72523799257E+03  0.25500000920E-02 0. -1.
        2   -1    0    0  501    0  0.00000000000E+00  0.00000000000E+00 -0.86814219874E+03  0.86814219874E+03  0.25500000920E-02 0.  1.
    10030    2    1    2    0    0  0.00000000000E+00  0.00000000000E+00 -0.14290420617E+03  0.15933801913E+04  0.15869589856E+04 0.  0.
        3    1    3    3  502    0 -0.24091795120E+03 -0.51296013182E+03  0.48616894236E+03  0.74667918597E+03  0.10100000352E+00 0. -1.
       -3    1    3    3    0  502  0.24091795120E+03  0.51296013182E+03 -0.62907314853E+03  0.84670100535E+03  0.10100000352E+00 0.  1.
</event>
<event>
 5   0  0.5131239E-04  0.1596556E+04  0.7818609E-02  0.8822667E-01
        2   -1    0    0  501    0  0.00000000000E+00  0.00000000000E+00  0.10890024012E+04  0.10890024012E+04  0.25500000920E-02 0. -1.
       -2   -1    0    0    0  501  0.00000000000E+00  0.00000000000E+00 -0.58516656502E+03  0.58516656502E+03  0.25500000920E-02 0.  1.
    10030    2    1    2    0    0  0.00000000000E+00  0.00000000000E+00  0.50383583620E+03  0.16741689662E+04  0.15965560365E+04 0.  0.
        1    1    3    3  502    0  0.78994106977E+03  0.59856309023E+02  0.14886471712E+03  0.80607094940E+03  0.50400001928E-02 0.  1.
       -1    1    3    3    0  502 -0.78994106977E+03 -0.59856309023E+02  0.35497111908E+03  0.86809801684E+03  0.50400001928E-02 0. -1.
</event>
<event>
 5   0  0.1908125E-04  0.1585265E+04  0.7818609E-02  0.8829652E-01
       -3   -1    0    0    0  501  0.00000000000E+00  0.00000000000E+00  0.22786364156E+03  0.22786366394E+03  0.10100000352E+00 0. -1.
        3   -1    0    0  501    0  0.00000000000E+00  0.00000000000E+00 -0.27572029544E+04  0.27572029563E+04  0.10100000352E+00 0.  1.
    10030    2    1    2    0    0  0.00000000000E+00  0.00000000000E+00 -0.25293393129E+04  0.29850666202E+04  0.15852650780E+04 0.  0.
        3    1    3    3  502    0 -0.42193668366E+03  0.64057371227E+03 -0.16408053020E+04  0.18112446812E+04  0.10100000352E+00 0.  1.
       -3    1    3    3    0  502  0.42193668366E+03 -0.64057371227E+03 -0.88853401085E+03  0.11738219390E+04  0.10100000352E+00 0. -1.
</event>
<event>
 5   0  0.5083831E-04  0.1609816E+04  0.7818609E-02  0.8814540E-01
        2   -1    0    0  501    0  0.00000000000E+00  0.00000000000E+00  0.31639867950E+03  0.31639867951E+03  0.25500000920E-02 0.  1.
       -2   -1    0    0    0  501  0.00000000000E+00  0.00000000000E+00 -0.20476590190E+04  0.20476590190E+04  0.25500000920E-02 0. -1.
    10030    2    1    2    0    0  0.00000000000E+00  0.00000000000E+00 -0.17312603395E+04  0.23640576985E+04  0.16098156537E+04 0.  0.
        4    1    3    3  502    0  0.61943443360E+03  0.15052499131E+03 -0.15873304321E+04  0.17105485389E+04  0.12699999809E+01 0. -1.
       -4    1    3    3    0  502 -0.61943443360E+03 -0.15052499131E+03 -0.14392990744E+03  0.65350915960E+03  0.12699999809E+01 0.  1.
</event>
<event>
 5   0  0.2649086E-04  0.1600387E+04  0.7818609E-02  0.8820310E-01
        1   -1    0    0  501    0  0.00000000000E+00  0.00000000000E+00  0.96410807576E+03  0.96410807578E+03  0.50400001928E-02 0.  1.
       -1   -1    0    0    0  501  0.00000000000E+00  0.00000000000E+00 -0.66414729744E+03  0.66414729746E+03  0.50400001928E-02 0. -1.
    10030    2    1    2    0    0  0.00000000000E+00  0.00000000000E+00  0.29996077832E+03  0.16282553732E+04  0.16003871694E+04 0.  0.
        2    1    3    3  502    0 -0.74078789720E+02 -0.79323497098E+03  0.73841512132E+02  0.80010121559E+03  0.25500000920E-02 0.  1.
       -2    1    3    3    0  502  0.74078789720E+02  0.79323497098E+03  0.22611926619E+03  0.82815415764E+03  0.25500000920E-02 0. -1.
</event>
<event>
 5   0  0.5381164E-04  0.1608189E+04  0.7818609E-02  0.8815533E-01
       -2   -1    0    0    0  501  0.00000000000E+00  0.00000000000E+00  0.71857459097E+03  0.71857459098E+03  0.25500000920E-02 0.  1.
        2   -1    0    0  501    0  0.00000000000E+00  0.00000000000E+00 -0.89979210831E+03  0.89979210831E+03  0.25500000920E-02 0. -1.
    10030    2    1    2    0    0  0.00000000000E+00  0.00000000000E+00 -0.18121751734E+03  0.16183666993E+04  0.16081887280E+04 0.  0.
        5    1    3    3  502    0 -0.39685486352E+02 -0.82962956223E+02 -0.89446828503E+03  0.89919597022E+03  0.46999998093E+01 0. -1.
       -5    1    3    3    0  502  0.39685486352E+02  0.82962956223E+02  0.71325076770E+03  0.71917072907E+03  0.46999998093E+01 0.  1.
</event>
<event>
 5   0  0.5381164E-04  0.1607932E+04  0.7818609E-02  0.8815690E-01
        2   -1    0    0  501    0  0.00000000000E+00  0.00000000000E+00  0.15922343193E+04  0.15922343193E+04  0.25500000920E-02 0.  1.
       -2   -1    0    0    0  501  0.00000000000E+00  0.00000000000E+00 -0.40594628941E+03  0.40594628942E+03  0.25500000920E-02 0. -1.
    10030    2    1    2    0    0  0.00000000000E+00  0.00000000000E+00  0.11862880299E+04  0.19981806088E+04  0.16079323541E+04 0.  0.
        5    1    3    3  502    0  0.28374698306E+03  0.74354796672E+03  0.45165273123E+03  0.91508918081E+03  0.46999998093E+01 0. -1.
       -5    1    3    3    0  502 -0.28374698306E+03 -0.74354796672E+03  0.73463529870E+03  0.10830914279E+04  0.46999998093E+01 0.  1.
</event>
<event>
 5   0  0.5264308E-04  0.1602678E+04  0.7818609E-02  0.8818904E-01
       -2   -1    0    0    0  501  0.00000000000E+00  0.00000000000E+00  0.98887900852E+03  0.98887900852E+03  0.25500000920E-02 0.  1.
        2   -1    0    0  501    0  0.00000000000E+00  0.00000000000E+00 -0.64936593602E+03  0.64936593602E+03  0.25500000920E-02 0. -1.
    10030    2    1    2    0    0  0.00000000000E+00  0.00000000000E+00  0.33951307250E+03  0.16382449445E+04  0.16026781873E+04 0.  0.
        3    1    3    3  502    0 -0.19455325768E+03  0.70655089283E+03 -0.16159644788E+03  0.75045223459E+03  0.10100000352E+00 0. -1.
       -3    1    3    3    0  502  0.19455325768E+03 -0.70655089283E+03  0.50110952038E+03  0.88779270995E+03  0.10100000352E+00 0.  1.
</event>
<event>
 5   0  0.5381164E-04  0.1689172E+04  0.7818609E-02  0.8767564E-01
       -2   -1    0    0    0  501  0.00000000000E+00  0.00000000000E+00  0.44260270611E+03  0.44260270612E+03  0.25500000920E-02 0.  1.
        2   -1    0    0  501    0  0.00000000000E+00  0.00000000000E+00 -0.16116613730E+04  0.16116613730E+04  0.25500000920E-02 0. -1.
    10030    2    1    2    0    0  0.00000000000E+00  0.00000000000E+00 -0.11690586669E+04  0.20542640792E+04  0.16891722056E+04 0.  0.
        5    1    3    3  502    0 -0.66928672986E+03 -0.26391960861E+03 -0.46527632932E+02  0.72096130077E+03  0.46999998093E+01 0.  1.
       -5    1    3    3    0  502  0.66928672986E+03  0.26391960861E+03 -0.11225310340E+04  0.13333027784E+04  0.46999998093E+01 0. -1.
</event>
<event>
 5   0  0.5315984E-04  0.1609909E+04  0.7818609E-02  0.8814484E-01
       -2   -1    0    0    0  501  0.00000000000E+00  0.00000000000E+00  0.53726362989E+03  0.53726362989E+03  0.25500000920E-02 0.  1.
        2   -1    0    0  501    0  0.00000000000E+00  0.00000000000E+00 -0.12060218425E+04  0.12060218425E+04  0.25500000920E-02 0. -1.
    10030    2    1    2    0    0  0.00000000000E+00  0.00000000000E+00 -0.66875821265E+03  0.17432854724E+04  0.16099089078E+04 0.  0.
        2    1    3    3  502    0  0.26412826713E+03  0.70125172477E+03 -0.16025783258E+02  0.74951620979E+03  0.25500000920E-02 0.  1.
       -2    1    3    3    0  502 -0.26412826713E+03 -0.70125172477E+03 -0.65273242940E+03  0.99376926265E+03  0.25500000920E-02 0. -1.
</event>
<event>
 5   0  0.5381164E-04  0.1597945E+04  0.7818609E-02  0.8821812E-01
       -2   -1    0    0    0  501  0.00000000000E+00  0.00000000000E+00  0.59060359936E+03  0.59060359936E+03  0.25500000920E-02 0. -1.
        2   -1    0    0  501    0  0.00000000000E+00  0.00000000000E+00 -0.10808549263E+04  0.10808549263E+04  0.25500000920E-02 0.  1.
    10030    2    1    2    0    0  0.00000000000E+00  0.00000000000E+00 -0.49025132698E+03  0.16714585257E+04  0.15979446923E+04 0.  0.
        5    1    3    3  502    0 -0.14308438334E+03 -0.20490413686E+03 -0.10389022843E+04  0.10685499016E+04  0.46999998093E+01 0.  1.
       -5    1    3    3    0  502  0.14308438334E+03  0.20490413686E+03  0.54865095727E+03  0.60290862407E+03  0.46999998093E+01 0. -1.
</event>
<event>
 5   0  0.5315984E-04  0.1588925E+04  0.7818609E-02  0.8827381E-01
       -2   -1    0    0    0  501  0.00000000000E+00  0.00000000000E+00  0.47558222055E+03  0.47558222055E+03  0.25500000920E-02 0. -1.
        2   -1    0    0  501    0  0.00000000000E+00  0.00000000000E+00 -0.13271531208E+04  0.13271531208E+04  0.25500000920E-02 0.  1.
    10030    2    1    2    0    0  0.00000000000E+00  0.00000000000E+00 -0.85157090026E+03  0.18027353414E+04  0.15889247033E+04 0.  0.
        2    1    3    3  502    0 -0.14835341646E+03 -0.75488349913E+03 -0.65073985966E+03  0.10076309832E+04  0.25500000920E-02 0.  1.
       -2    1    3    3    0  502  0.14835341646E+03  0.75488349913E+03 -0.20083104061E+03  0.79510435813E+03  0.25500000920E-02 0. -1.
</event>
<event>
 5   0  0.5083831E-04  0.1609416E+04  0.7818609E-02  0.8814784E-01
       -2   -1    0    0    0  501  0.00000000000E+00  0.00000000000E+00  0.56463510034E+03  0.56463510035E+03  0.25500000920E-02 0. -1.
        2   -1    0    0  501    0  0.00000000000E+00  0.00000000000E+00 -0.11468559181E+04  0.11468559181E+04  0.25500000920E-02 0.  1.
    10030    2    1    2    0    0  0.00000000000E+00  0.00000000000E+00 -0.58222081776E+03  0.17114910185E+04  0.16094161754E+04 0.  0.
        4    1    3    3  502    0  0.16756634270E+03 -0.68436107280E+03  0.12229326132E+03  0.71511244698E+03  0.12699999809E+01 0. -1.
       -4    1    3    3    0  502 -0.16756634270E+03  0.68436107280E+03 -0.70451407908E+03  0.99637857147E+03  0.12699999809E+01 0.  1.
</event>
<event>
 5   0  0.5131239E-04  0.1626401E+04  0.7818609E-02  0.8804491E-01
       -2   -1    0    0    0  501  0.00000000000E+00  0.00000000000E+00  0.87514325666E+03  0.87514325667E+03  0.25500000920E-02 0. -1.
        2   -1    0    0  501    0  0.00000000000E+00  0.00000000000E+00 -0.75564204114E+03  0.75564204115E+03  0.25500000920E-02 0.  1.
    10030    2    1    2    0    0  0.00000000000E+00  0.00000000000E+00  0.11950121552E+03  0.16307852978E+04  0.16264009798E+04 0.  0.
        1    1    3    3  502    0 -0.28909116762E+03  0.75510920610E+03 -0.27267093311E+02  0.80901613750E+03  0.50400001928E-02 0.  1.
       -1    1    3    3    0  502  0.28909116762E+03 -0.75510920610E+03  0.14676830883E+03  0.82176916031E+03  0.50400001928E-02 0. -1.
</event>
<event>
 5   0  0.2689675E-04  0.1576796E+04  0.7818609E-02  0.8834931E-01
        1   -1    0    0  501    0  0.00000000000E+00  0.00000000000E+00  0.24370553080E+04  0.24370553080E+04  0.50400001928E-02 0.  1.
       -1   -1    0    0    0  501  0.00000000000E+00  0.00000000000E+00 -0.25505012939E+03  0.25505012944E+03  0.50400001928E-02 0. -1.
    10030    2    1    2    0    0  0.00000000000E+00  0.00000000000E+00  0.21820051786E+04  0.26921054375E+04  0.15767958292E+04 0.  0.
        1    1    3    3  502    0  0.49353356445E+02 -0.77673891545E+03  0.13056928832E+04  0.15200634861E+04  0.50400001928E-02 0. -1.
       -1    1    3    3    0  502 -0.49353356445E+02  0.77673891545E+03  0.87631229545E+03  0.11720419514E+04  0.50400001928E-02 0.  1.
</event>
<event>
 5   0  0.2730707E-04  0.1594416E+04  0.7818609E-02  0.8823986E-01
        1   -1    0    0  501    0  0.00000000000E+00  0.00000000000E+00  0.14478069744E+04  0.14478069744E+04  0.50400001928E-02 0. -1.
       -1   -1    0    0    0  501  0.00000000000E+00  0.00000000000E+00 -0.43896796719E+03  0.43896796722E+03  0.50400001928E-02 0.  1.
    10030    2    1    2    0    0  0.00000000000E+00  0.00000000000E+00  0.10088390072E+04  0.18867749416E+04  0.15944163628E+04 0.  0.
        5    1    3    3  502    0 -0.73204103217E+03  0.83365361487E+02  0.86468522303E+03  0.11360178173E+04  0.46999998093E+01 0.  1.
       -5    1    3    3    0  502  0.73204103217E+03 -0.83365361487E+02  0.14415378418E+03  0.75075712435E+03  0.46999998093E+01 0. -1.
</event>
<event>
 5   0  0.2649086E-04  0.1554187E+04  0.7818609E-02  0.8849198E-01
        1   -1    0    0  501    0  0.00000000000E+00  0.00000000000E+00  0.14548536526E+04  0.14548536526E+04  0.50400001928E-02 0.  1.
       -1   -1    0    0    0  501  0.00000000000E+00  0.00000000000E+00 -0.41507577230E+03  0.41507577233E+03  0.50400001928E-02 0. -1.
    10030    2    1    2    0    0  0.00000000000E+00  0.00000000000E+00  0.10397778803E+04  0.18699294250E+04  0.15541872519E+04 0.  0.
        2    1    3    3  502    0 -0.44468210046E+03 -0.53591076172E+03  0.10496240131E+03  0.70424400650E+03  0.25500000920E-02 0. -1.
       -2    1    3    3    0  502  0.44468210046E+03  0.53591076172E+03  0.93481547902E+03  0.11656854185E+04  0.25500000920E-02 0.  1.
</event>
<event>
 5   0  0.2730707E-04  0.1596417E+04  0.7818609E-02  0.8822752E-01
        1   -1    0    0  501    0  0.00000000000E+00  0.00000000000E+00  0.10726900849E+04  0.10726900849E+04  0.50400001928E-02 0. -1.
       -1   -1    0    0    0  501  0.00000000000E+00  0.00000000000E+00 -0.59396159747E+03  0.59396159749E+03  0.50400001928E-02 0.  1.
    10030    2    1    2    0    0  0.00000000000E+00  0.00000000000E+00  0.47872848742E+03  0.16666516824E+04  0.15964168834E+04 0.  0.
        5    1    3    3  502    0  0.73105809253E+03 -0.27230436597E+03  0.41566974449E+03  0.88396777592E+03  0.46999998093E+01 0. -1.
       -5    1    3    3    0  502 -0.73105809253E+03  0.27230436597E+03  0.63058742928E+02  0.78268390647E+03  0.46999998093E+01 0.  1.
</event>
<event>
 5   0  0.5131239E-04  0.1588896E+04  0.7818609E-02  0.8827399E-01
       -2   -1    0    0    0  501  0.00000000000E+00  0.00000000000E+00  0.65542329132E+03  0.65542329133E+03  0.25500000920E-02 0.  1.
        2   -1    0    0  501    0  0.00000000000E+00  0.00000000000E+00 -0.96296177998E+03  0.96296177998E+03  0.25500000920E-02 0. -1.
    10030    2    1    2    0    0  0.00000000000E+00  0.00000000000E+00 -0.30753848866E+03  0.16183850713E+04  0.15888959428E+04 0.  0.
        1    1    3    3  502    0 -0.82330195253E+02  0.76079727493E+03  0.63632553091E+02  0.76788010551E+03  0.50400001928E-02 0. -1.
       -1    1    3    3    0  502  0.82330195253E+02 -0.76079727493E+03 -0.37117104175E+03  0.85050496580E+03  0.50400001928E-02 0.  1.
</event>
<event>
 5   0  0.5083831E-04  0.1612973E+04  0.7818609E-02  0.8812618E-01
       -2   -1    0    0    0  501  0.00000000000E+00  0.00000000000E+00  0.71347040421E+03  0.71347040421E+03  0.25500000920E-02 0.  1.
        2   -1    0    0  501    0  0.00000000000E+00  0.00000000000E+00 -0.91162882034E+03  0.91162882035E+03  0.25500000920E-02 0. -1.
    10030    2    1    2    0    0  0.00000000000E+00  0.00000000000E+00 -0.19815841614E+03  0.16250992246E+04  0.16129726383E+04 0.  0.
        4    1    3    3  502    0 -0.52079863956E+03  0.57017369027E+03  0.13524038445E+03  0.78397757273E+03  0.12699999809E+01 0.  1.
       -4    1    3    3    0  502  0.52079863956E+03 -0.57017369027E+03 -0.33339880058E+03  0.84112165183E+03  0.12699999809E+01 0. -1.
</event>
<event>
 5   0  0.2763895E-04  0.1617409E+04  0.7818609E-02  0.8809924E-01
       -1   -1    0    0    0  501  0.00000000000E+00  0.00000000000E+00  0.31914347292E+03  0.31914347296E+03  0.50400001928E-02 0. -1.
        1   -1    0    0  501    0  0.00000000000E+00  0.00000000000E+00 -0.20492449797E+04  0.20492449797E+04  0.50400001928E-02 0.  1.
    10030    2    1    2    0    0  0.00000000000E+00  0.00000000000E+00 -0.17301015067E+04  0.23683884526E+04  0.16174092367E+04 0.  0.
        4    1    3    3  502    0  0.45474619068E+03 -0.46801244897E+02 -0.18418860906E+04  0.18977698591E+04  0.12699999809E+01 0.  1.
       -4    1    3    3    0  502 -0.45474619068E+03  0.46801244897E+02  0.11178458387E+03  0.47061859351E+03  0.12699999809E+01 0. -1.
</event>
<event>
 5   0  0.2649086E-04  0.1590940E+04  0.7818609E-02  0.8826133E-01
       -1   -1    0    0    0  501  0.00000000000E+00  0.00000000000E+00  0.14036311311E+04  0.14036311311E+04  0.50400001928E-02 0.  1.
        1   -1    0    0  501    0  0.00000000000E+00  0.00000000000E+00 -0.45081126527E+03  0.45081126529E+03  0.50400001928E-02 0. -1.
    10030    2    1    2    0    0  0.00000000000E+00  0.00000000000E+00  0.95281986583E+03  0.18544423964E+04  0.15909402581E+04 0.  0.
        2    1    3    3  502    0 -0.22391127905E+03  0.72069646032E+02 -0.40934549564E+03  0.47211654236E+03  0.25500000920E-02 0. -1.
       -2    1    3    3    0  502  0.22391127905E+03 -0.72069646032E+02  0.13621653615E+04  0.13823258540E+04  0.25500000920E-02 0.  1.
</event>
<event>
 5   0  0.2649086E-04  0.1613419E+04  0.7818609E-02  0.8812346E-01
       -1   -1    0    0    0  501  0.00000000000E+00  0.00000000000E+00  0.62028624467E+03  0.62028624469E+03  0.50400001928E-02 0. -1.
        1   -1    0    0  501    0  0.00000000000E+00  0.00000000000E+00 -0.10491609688E+04  0.10491609688E+04  0.50400001928E-02 0.  1.
    10030    2    1    2    0    0  0.00000000000E+00  0.00000000000E+00 -0.42887472408E+03  0.16694472135E+04  0.16134188760E+04 0.  0.
        2    1    3    3  502    0 -0.46893732533E+03 -0.61910708519E+03  0.11276113863E+02  0.77673866182E+03  0.25500000920E-02 0. -1.
       -2    1    3    3    0  502  0.46893732533E+03  0.61910708519E+03 -0.44015083794E+03  0.89270855164E+03  0.25500000920E-02 0.  1.
</event>
<event>
 5   0  0.5315984E-04  0.1609570E+04  0.7818609E-02  0.8814691E-01
       -2   -1    0    0    0  501  0.00000000000E+00  0.00000000000E+00  0.80328917659E+03  0.80328917660E+03  0.25500000920E-02 0. -1.
        2   -1    0    0  501    0  0.00000000000E+00  0.00000000000E+00 -0.80628324030E+03  0.80628324030E+03  0.25500000920E-02 0.  1.
    10030    2    1    2    0    0  0.00000000000E+00  0.00000000000E+00 -0.29940637054E+01  0.16095724169E+04  0.16095696322E+04 0.  0.
        2    1    3    3  502    0  0.80059561652E+03  0.74295813439E+02 -0.36215834807E+02  0.80485079101E+03  0.25500000920E-02 0.  1.
       -2    1    3    3    0  502 -0.80059561652E+03 -0.74295813439E+02  0.33221771101E+02  0.80472162589E+03  0.25500000920E-02 0. -1.
</event>
<event>
 5   0  0.2689675E-04  0.1695774E+04  0.7818609E-02  0.8763779E-01
       -1   -1    0    0    0  501  0.00000000000E+00  0.00000000000E+00  0.87173629679E+03  0.87173629680E+03  0.50400001928E-02 0.  1.
        1   -1    0    0  501    0  0.00000000000E+00  0.00000000000E+00 -0.82468971170E+03  0.82468971172E+03  0.50400001928E-02 0. -1.
    10030    2    1    2    0    0  0.00000000000E+00  0.00000000000E+00  0.47046585089E+02  0.16964260085E+04  0.16957735171E+04 0.  0.
        1    1    3    3  502    0 -0.73426366488E+03  0.13545205541E+03  0.42545091326E+03  0.85935956881E+03  0.50400001928E-02 0.  1.
       -1    1    3    3    0  502  0.73426366488E+03 -0.13545205541E+03 -0.37840432817E+03  0.83706643971E+03  0.50400001928E-02 0. -1.
</event>
<event>
 5   0  0.2649086E-04  0.1607571E+04  0.7818609E-02  0.8815910E-01
       -1   -1    0    0    0  501  0.00000000000E+00  0.00000000000E+00  0.52404636914E+03  0.52404636917E+03  0.50400001928E-02 0. -1.
        1   -1    0    0  501    0  0.00000000000E+00  0.00000000000E+00 -0.12328506742E+04  0.12328506742E+04  0.50400001928E-02 0.  1.
    10030    2    1    2    0    0  0.00000000000E+00  0.00000000000E+00 -0.70880430505E+03  0.17568970434E+04  0.16075707381E+04 0.  0.
        2    1    3    3  502    0 -0.28875827570E+03  0.46627246628E+03 -0.99658937104E+03  0.11375331771E+04  0.25500000920E-02 0.  1.
       -2    1    3    3    0  502  0.28875827570E+03 -0.46627246628E+03  0.28778506599E+03  0.61936386624E+03  0.25500000920E-02 0. -1.
</event>
<event>
 5   0  0.2796994E-04  0.1570803E+04  0.7818609E-02  0.8838688E-01
        1   -1    0    0  501    0  0.00000000000E+00  0.00000000000E+00  0.16349375771E+04  0.16349375771E+04  0.50400001928E-02 0. -1.
       -1   -1    0    0    0  501  0.00000000000E+00  0.00000000000E+00 -0.37729625302E+03  0.37729625305E+03  0.50400001928E-02 0.  1.
    10030    2    1    2    0    0  0.00000000000E+00  0.00000000000E+00  0.12576413241E+04  0.20122338301E+04  0.15708033891E+04 0.  0.
        3    1    3    3  502    0  0.30578539269E+03  0.66362215563E+01  0.15555115996E+04  0.15852965314E+04  0.10100000352E+00 0. -1.
       -3    1    3    3    0  502 -0.30578539269E+03 -0.66362215563E+01 -0.29787027552E+03  0.42693729874E+03  0.10100000352E+00 0.  1.
</event>
<event>
 5   0  0.2763895E-04  0.1518835E+04  0.7818609E-02  0.8872023E-01
        1   -1    0    0  501    0  0.00000000000E+00  0.00000000000E+00  0.59476971421E+03  0.59476971423E+03  0.50400001928E-02 0. -1.
       -1   -1    0    0    0  501  0.00000000000E+00  0.00000000000E+00 -0.96964464557E+03  0.96964464558E+03  0.50400001928E-02 0.  1.
    10030    2    1    2    0    0  0.00000000000E+00  0.00000000000E+00 -0.37487493136E+03  0.15644143598E+04  0.15188354338E+04 0.  0.
        4    1    3    3  502    0  0.50315822233E+01  0.20580405124E+03 -0.94035443317E+03  0.96262593836E+03  0.12699999809E+01 0.  1.
       -4    1    3    3    0  502 -0.50315822233E+01 -0.20580405124E+03  0.56547950181E+03  0.60178842145E+03  0.12699999809E+01 0. -1.
</event>
<event>
 5   0  0.5083831E-04  0.1604342E+04  0.7818609E-02  0.8817885E-01
        2   -1    0    0  501    0  0.00000000000E+00  0.00000000000E+00  0.14442629056E+04  0.14442629056E+04  0.25500000920E-02 0.  1.
       -2   -1    0    0    0  501  0.00000000000E+00  0.00000000000E+00 -0.44554082876E+03  0.44554082877E+03  0.25500000920E-02 0. -1.
    10030    2    1    2    0    0  0.00000000000E+00  0.00000000000E+00  0.99872207682E+03  0.18898037343E+04  0.16043417241E+04 0.  0.
        4    1    3    3  502    0 -0.26591220303E+03 -0.62642279172E+03  0.99961661978E+03  0.12092765660E+04  0.12699999809E+01 0. -1.
       -4    1    3    3    0  502  0.26591220303E+03  0.62642279172E+03 -0.89454296680E+00  0.68052716831E+03  0.12699999809E+01 0.  1.
</event>
<event>
 5   0  0.5315984E-04  0.1589895E+04  0.7818609E-02  0.8826780E-01
        2   -1    0    0  501    0  0.00000000000E+00  0.00000000000E+00  0.11385519622E+04  0.11385519622E+04  0.25500000920E-02 0. -1.
       -2   -1    0    0    0  501  0.00000000000E+00  0.00000000000E+00 -0.55503952127E+03  0.55503952128E+03  0.25500000920E-02 0.  1.
    10030    2    1    2    0    0  0.00000000000E+00  0.00000000000E+00  0.58351244095E+03  0.16935914835E+04  0.15898947589E+04 0.  0.
        2    1    3    3  502    0 -0.43644472070E+02  0.78217367095E+03  0.14788870120E+03  0.79722742013E+03  0.25500000920E-02 0.  1.
       -2    1    3    3    0  502  0.43644472070E+02 -0.78217367095E+03  0.43562373974E+03  0.89636406337E+03  0.25500000920E-02 0. -1.
</event>
<event>
 5   0  0.5381164E-04  0.1565472E+04  0.7818609E-02  0.8842045E-01
        2   -1    0    0  501    0  0.00000000000E+00  0.00000000000E+00  0.82437978252E+03  0.82437978253E+03  0.25500000920E-02 0. -1.
       -2   -1    0    0    0  501  0.00000000000E+00  0.00000000000E+00 -0.74319587213E+03  0.74319587214E+03  0.25500000920E-02 0.  1.
    10030    2    1    2    0    0  0.00000000000E+00  0.00000000000E+00  0.81183910390E+02  0.15675756547E+04  0.15654720073E+04 0.  0.
        5    1    3    3  502    0 -0.25295980244E+03 -0.23816233751E+03 -0.66173746565E+03  0.74741455974E+03  0.46999998093E+01 0.  1.
       -5    1    3    3    0  502  0.25295980244E+03  0.23816233751E+03  0.74292137604E+03  0.82016109493E+03  0.46999998093E+01 0. -1.
</event>
<event>
 5   0  0.5264308E-04  0.1595738E+04  0.7818609E-02  0.8823171E-01
       -2   -1    0    0    0  501  0.00000000000E+00  0.00000000000E+00  0.26326145510E+03  0.26326145511E+03  0.25500000920E-02 0.  1.
        2   -1    0    0  501    0  0.00000000000E+00  0.00000000000E+00 -0.24181094183E+04  0.24181094183E+04  0.25500000920E-02 0. -1.
    10030    2    1    2    0    0  0.00000000000E+00  0.00000000000E+00 -0.21548479632E+04  0.26813708734E+04  0.15957380789E+04 0.  0.
        3    1    3    3  502    0 -0.23823095606E+03 -0.25809283558E+03  0.12636652094E+03  0.37327524432E+03  0.10100000352E+00 0.  1.
       -3    1    3    3    0  502  0.23823095606E+03  0.25809283558E+03 -0.22812144842E+04  0.23080956291E+04  0.10100000352E+00 0. -1.
</event>
<event>
 5   0  0.5131239E-04  0.1561342E+04  0.7818609E-02  0.8844655E-01
        2   -1    0    0  501    0  0.00000000000E+00  0.00000000000E+00  0.20916350898E+04  0.20916350898E+04  0.25500000920E-02 0.  1.
       -2   -1    0    0    0  501  0.00000000000E+00  0.00000000000E+00 -0.29137367076E+03  0.29137367077E+03  0.25500000920E-02 0. -1.
    10030    2    1    2    0    0  0.00000000000E+00  0.00000000000E+00  0.18002614190E+04  0.23830087606E+04  0.15613422354E+04 0.  0.
        1    1    3    3  502    0  0.26166326468E+03  0.37702843739E+03 -0.63745036606E+02  0.46333738938E+03  0.50400001928E-02 0. -1.
       -1    1    3    3    0  502 -0.26166326468E+03 -0.37702843739E+03  0.18640064556E+04  0.19196713712E+04  0.50400001928E-02 0.  1.
</event>
<event>
 5   0  0.2796994E-04  0.1610544E+04  0.7818609E-02  0.8814096E-01
        1   -1    0    0  501    0  0.00000000000E+00  0.00000000000E+00  0.73889977490E+03  0.73889977492E+03  0.50400001928E-02 0.  1.
       -1   -1    0    0    0  501  0.00000000000E+00  0.00000000000E+00 -0.87760664226E+03  0.87760664228E+03  0.50400001928E-02 0. -1.
    10030    2    1    2    0    0  0.00000000000E+00  0.00000000000E+00 -0.13870686736E+03  0.16165064172E+04  0.16105444427E+04 0.  0.
        3    1    3    3  502    0 -0.39125452762E+03  0.29539207497E+02 -0.77517114626E+03  0.86881700395E+03  0.10100000352E+00 0. -1.
       -3    1    3    3    0  502  0.39125452762E+03 -0.29539207497E+02  0.63646427890E+03  0.74768941325E+03  0.10100000352E+00 0.  1.
</event>
<event>
 5   0  0.2796994E-04  0.1582470E+04  0.7818609E-02  0.8831390E-01
       -1   -1    0    0    0  501  0.00000000000E+00  0.00000000000E+00  0.54398725856E+03  0.54398725858E+03  0.50400001928E-02 0. -1.
        1   -1    0    0  501    0  0.00000000000E+00  0.00000000000E+00 -0.11508598101E+04  0.11508598101E+04  0.50400001928E-02 0.  1.
    10030    2    1    2    0    0  0.00000000000E+00  0.00000000000E+00 -0.60687255157E+03  0.16948470687E+04  0.15824703133E+04 0.  0.
        3    1    3    3  502    0 -0.33168354906E+03 -0.42220490049E+02 -0.10714780582E+04  0.11224356489E+04  0.10100000352E+00 0.  1.
       -3    1    3    3    0  502  0.33168354906E+03  0.42220490049E+02  0.46460550666E+03  0.57241141980E+03  0.10100000352E+00 0. -1.
</event>
<event>
 5   0  0.5381164E-04  0.1592042E+04  0.7818609E-02  0.8825452E-01
        2   -1    0    0  501    0  0.00000000000E+00  0.00000000000E+00  0.92795159860E+03  0.92795159860E+03  0.25500000920E-02 0.  1.
       -2   -1    0    0    0  501  0.00000000000E+00  0.00000000000E+00 -0.68284707515E+03  0.68284707515E+03  0.25500000920E-02 0. -1.
    10030    2    1    2    0    0  0.00000000000E+00  0.00000000000E+00  0.24510452345E+03  0.16107986738E+04  0.15920415007E+04 0.  0.
        5    1    3    3  502    0  0.29522318337E+03 -0.28099207927E+03 -0.56925327755E+03  0.70013188801E+03  0.46999998093E+01 0. -1.
       -5    1    3    3    0  502 -0.29522318337E+03  0.28099207927E+03  0.81435780100E+03  0.91066678574E+03  0.46999998093E+01 0.  1.
</event>
<event>
 5   0  0.2763895E-04  0.1536722E+04  0.7818609E-02  0.8860394E-01
       -1   -1    0    0    0  501  0.00000000000E+00  0.00000000000E+00  0.11308398566E+04  0.11308398566E+04  0.50400001928E-02 0. -1.
        1   -1    0    0  501    0  0.00000000000E+00  0.00000000000E+00 -0.52207110524E+03  0.52207110526E+03  0.50400001928E-02 0.  1.
    10030    2    1    2    0    0  0.00000000000E+00  0.00000000000E+00  0.60876875136E+03  0.16529109619E+04  0.15367222440E+04 0.  0.
        4    1    3    3  502    0 -0.18871200226E+03  0.38860076766E+03  0.98784378893E+03  0.10781742627E+04  0.12699999809E+01 0. -1.
       -4    1    3    3    0  502  0.18871200226E+03 -0.38860076766E+03 -0.37907503757E+03  0.57473669922E+03  0.12699999809E+01 0.  1.
</event>
<event>
 5   0  0.5131239E-04  0.1598273E+04  0.7818609E-02  0.8821610E-01
        2   -1    0    0  501    0  0.00000000000E+00  0.00000000000E+00  0.14630209457E+04  0.14630209457E+04  0.25500000920E-02 0.  1.
       -2   -1    0    0    0  501  0.00000000000E+00  0.00000000000E+00 -0.43650708382E+03  0.43650708382E+03  0.25500000920E-02 0. -1.
    10030    2    1    2    0    0  0.00000000000E+00  0.00000000000E+00  0.10265138619E+04  0.18995280295E+04  0.15982728260E+04 0.  0.
        1    1    3    3  502    0 -0.60964031778E+03 -0.27607747226E+03 -0.57993480811E+01  0.66926356558E+03  0.50400001928E-02 0. -1.
       -1    1    3    3    0  502  0.60964031778E+03  0.27607747226E+03  0.10323132100E+04  0.12302644639E+04  0.50400001928E-02 0.  1.
</event>
<event>
 5   0  0.5264308E-04  0.1625215E+04  0.7818609E-02  0.8805206E-01
       -2   -1    0    0    0  501  0.00000000000E+00  0.00000000000E+00  0.22168859530E+03  0.22168859531E+03  0.25500000920E-02 0. -1.
        2   -1    0    0  501    0  0.00000000000E+00  0.00000000000E+00 -0.29786401213E+04  0.29786401213E+04  0.25500000920E-02 0.  1.
    10030    2    1    2    0    0  0.00000000000E+00  0.00000000000E+00 -0.27569515260E+04  0.32003287166E+04  0.16252145020E+04 0.  0.
        3    1    3    3  502    0  0.45261371487E+03  0.40294010380E+03 -0.31237148636E+03  0.68175938412E+03  0.10100000352E+00 0. -1.
       -3    1    3    3    0  502 -0.45261371487E+03 -0.40294010380E+03 -0.24445800396E+04  0.25185693325E+04  0.10100000352E+00 0.  1.
</event>
<event>
 5   0  0.2796994E-04  0.1546820E+04  0.7818609E-02  0.8853902E-01
       -1   -1    0    0    0  501  0.00000000000E+00  0.00000000000E+00  0.64168335529E+03  0.64168335531E+03  0.50400001928E-02 0. -1.
        1   -1    0    0  501    0  0.00000000000E+00  0.00000000000E+00 -0.93217731172E+03  0.93217731173E+03  0.50400001928E-02 0.  1.
    10030    2    1    2    0    0  0.00000000000E+00  0.00000000000E+00 -0.29049395643E+03  0.15738606670E+04  0.15468195307E+04 0.  0.
        3    1    3    3  502    0  0.10385941413E+03  0.11191946049E+02  0.63447248639E+03  0.64301429513E+03  0.10100000352E+00 0. -1.
       -3    1    3    3    0  502 -0.10385941413E+03 -0.11191946049E+02 -0.92496644282E+03  0.93084637191E+03  0.10100000352E+00 0.  1.
</event>
<event>
 5   0  0.5264308E-04  0.1597699E+04  0.7818609E-02  0.8821963E-01
       -2   -1    0    0    0  501  0.00000000000E+00  0.00000000000E+00  0.87009690832E+03  0.87009690833E+03  0.25500000920E-02 0. -1.
        2   -1    0    0  501    0  0.00000000000E+00  0.00000000000E+00 -0.73343607897E+03  0.73343607897E+03  0.25500000920E-02 0.  1.
    10030    2    1    2    0    0  0.00000000000E+00  0.00000000000E+00  0.13666082936E+03  0.16035329873E+04  0.15976989263E+04 0.  0.
        3    1    3    3  502    0 -0.19612309944E+03  0.68078371068E+03  0.43877128263E+03  0.83333725437E+03  0.10100000352E+00 0. -1.
       -3    1    3    3    0  502  0.19612309944E+03 -0.68078371068E+03 -0.30211045327E+03  0.77019573294E+03  0.10100000352E+00 0.  1.
</event>
<event>
 5   0  0.5131239E-04  0.1598094E+04  0.7818609E-02  0.8821720E-01
        2   -1    0    0  501    0  0.00000000000E+00  0.00000000000E+00  0.12842156714E+04  0.12842156714E+04  0.25500000920E-02 0. -1.
       -2   -1    0    0    0  501  0.00000000000E+00  0.00000000000E+00 -0.49717204548E+03  0.49717204549E+03  0.25500000920E-02 0.  1.
    10030    2    1    2    0    0  0.00000000000E+00  0.00000000000E+00  0.78704362588E+03  0.17813877169E+04  0.15980940300E+04 0.  0.
        1    1    3    3  502    0 -0.57616349396E+02 -0.79658161167E+03  0.42114791730E+03  0.90289948281E+03  0.50400001928E-02 0. -1.
       -1    1    3    3    0  502  0.57616349396E+02  0.79658161167E+03  0.36589570858E+03  0.87848823405E+03  0.50400001928E-02 0.  1.
</event>
<event>
 5   0  0.2649086E-04  0.1611361E+04  0.7818609E-02  0.8813599E-01
       -1   -1    0    0    0  501  0.00000000000E+00  0.00000000000E+00  0.10021745780E+04  0.10021745780E+04  0.50400001928E-02 0. -1.
        1   -1    0    0  501    0  0.00000000000E+00  0.00000000000E+00 -0.64771287300E+03  0.64771287302E+03  0.50400001928E-02 0.  1.
    10030    2    1    2    0    0  0.00000000000E+00  0.00000000000E+00  0.35446170497E+03  0.16498874510E+04  0.16113613812E+04 0.  0.
        2    1    3    3  502    0  0.56514743028E+03 -0.30855103782E+03 -0.31862664000E+03  0.71841373638E+03  0.25500000920E-02 0.  1.
       -2    1    3    3    0  502 -0.56514743028E+03  0.30855103782E+03  0.67308834497E+03  0.93147371462E+03  0.25500000920E-02 0. -1.
</event>
<event>
 5   0  0.5083831E-04  0.1596106E+04  0.7818609E-02  0.8822944E-01
        2   -1    0    0  501    0  0.00000000000E+00  0.00000000000E+00  0.50618314002E+03  0.50618314003E+03  0.25500000920E-02 0. -1.
       -2   -1    0    0    0  501  0.00000000000E+00  0.00000000000E+00 -0.12582171801E+04  0.12582171801E+04  0.25500000920E-02 0.  1.
    10030    2    1    2    0    0  0.00000000000E+00  0.00000000000E+00 -0.75203404008E+03  0.17644003201E+04  0.15961056645E+04 0.  0.
        4    1    3    3  502    0 -0.47743378489E+03  0.32648808827E+03 -0.98385791392E+03  0.11412780110E+04  0.12699999809E+01 0.  1.
       -4    1    3    3    0  502  0.47743378489E+03 -0.32648808827E+03  0.23182387384E+03  0.62312230912E+03  0.12699999809E+01 0. -1.
</event>
<event>
 5   0  0.5315984E-04  0.1621289E+04  0.7818609E-02  0.8807575E-01
        2   -1    0    0  501    0  0.00000000000E+00  0.00000000000E+00  0.11149874457E+04  0.11149874457E+04  0.25500000920E-02 0. -1.
       -2   -1    0    0    0  501  0.00000000000E+00  0.00000000000E+00 -0.58937361063E+03  0.58937361064E+03  0.25500000920E-02 0.  1.
    10030    2    1    2    0    0  0.00000000000E+00  0.00000000000E+00  0.52561383511E+03  0.17043610564E+04  0.16212885946E+04 0.  0.
        2    1    3    3  502    0  0.36152948788E+03  0.48601325999E+03 -0.30352848437E+03  0.67752638349E+03  0.25500000920E-02 0.  1.
       -2    1    3    3    0  502 -0.36152948788E+03 -0.48601325999E+03  0.82914231948E+03  0.10268346729E+04  0.25500000920E-02 0. -1.
</event>
<event>
 5   0  0.2796994E-04  0.1562917E+04  0.7818609E-02  0.8843659E-01
       -1   -1    0    0    0  501  0.00000000000E+00  0.00000000000E+00  0.40309098968E+03  0.40309098971E+03  0.50400001928E-02 0. -1.
        1   -1    0    0  501    0  0.00000000000E+00  0.00000000000E+00 -0.15149866595E+04  0.15149866595E+04  0.50400001928E-02 0.  1.
    10030    2    1    2    0    0  0.00000000000E+00  0.00000000000E+00 -0.11118956698E+04  0.19180776492E+04  0.15629171084E+04 0.  0.
        3    1    3    3  502    0  0.41959608684E+03  0.41398855308E+03 -0.11855960605E+04  0.13240413238E+04  0.10100000352E+00 0.  1.
       -3    1    3    3    0  502 -0.41959608684E+03 -0.41398855308E+03  0.73700390673E+02  0.59403632545E+03  0.10100000352E+00 0. -1.
</event>
<event>
 5   0  0.2763895E-04  0.1601676E+04  0.7818609E-02  0.8819519E-01
       -1   -1    0    0    0  501  0.00000000000E+00  0.00000000000E+00  0.32813453593E+03  0.32813453597E+03  0.50400001928E-02 0. -1.
        1   -1    0    0  501    0  0.00000000000E+00  0.00000000000E+00 -0.19545084055E+04  0.19545084055E+04  0.50400001928E-02 0.  1.
    10030    2    1    2    0    0  0.00000000000E+00  0.00000000000E+00 -0.16263738695E+04  0.22826429414E+04  0.16016762577E+04 0.  0.
        4    1    3    3  502    0  0.21923255581E+03  0.45703994599E+02 -0.19089740016E+04  0.19220653268E+04  0.12699999809E+01 0.  1.
       -4    1    3    3    0  502 -0.21923255581E+03 -0.45703994599E+02  0.28260013208E+03  0.36057761467E+03  0.12699999809E+01 0. -1.
</event>
<event>
 5   0  0.2730707E-04  0.1523879E+04  0.7818609E-02  0.8868727E-01
       -1   -1    0    0    0  501  0.00000000000E+00  0.00000000000E+00  0.38308817303E+03  0.38308817307E+03  0.50400001928E-02 0. -1.
        1   -1    0    0  501    0  0.00000000000E+00  0.00000000000E+00 -0.15154523031E+04  0.15154523032E+04  0.50400001928E-02 0.  1.
    10030    2    1    2    0    0  0.00000000000E+00  0.00000000000E+00 -0.11323641301E+04  0.18985404762E+04  0.15238790689E+04 0.  0.
        5    1    3    3  502    0  0.38850556644E+03 -0.30915042047E+03 -0.12862195010E+04  0.13787288538E+04  0.46999998093E+01 0.  1.
       -5    1    3    3    0  502 -0.38850556644E+03  0.30915042047E+03  0.15385537088E+03  0.51981162240E+03  0.46999998093E+01 0. -1.
</event>
<event>
 5   0  0.2763895E-04  0.1607399E+04  0.7818609E-02  0.8816015E-01
       -1   -1    0    0    0  501  0.00000000000E+00  0.00000000000E+00  0.52895486528E+03  0.52895486530E+03  0.50400001928E-02 0.  1.
        1   -1    0    0  501    0  0.00000000000E+00  0.00000000000E+00 -0.12211490919E+04  0.12211490919E+04  0.50400001928E-02 0. -1.
    10030    2    1    2    0    0  0.00000000000E+00  0.00000000000E+00 -0.69219422665E+03  0.17501039572E+04  0.16073988347E+04 0.  0.
        4    1    3    3  502    0  0.65444112660E+03  0.39426947899E+03 -0.61761524460E+03  0.98244176088E+03  0.12699999809E+01 0.  1.
       -4    1    3    3    0  502 -0.65444112660E+03 -0.39426947899E+03 -0.74578982050E+02  0.76766219636E+03  0.12699999809E+01 0. -1.
</event>
<event>
 5   0  0.2689675E-04  0.1602126E+04  0.7818609E-02  0.8819243E-01
        1   -1    0    0  501    0  0.00000000000E+00  0.00000000000E+00  0.18795872525E+04  0.18795872525E+04  0.50400001928E-02 0. -1.
       -1   -1    0    0    0  501  0.00000000000E+00  0.00000000000E+00 -0.34140594426E+03  0.34140594430E+03  0.50400001928E-02 0.  1.
    10030    2    1    2    0    0  0.00000000000E+00  0.00000000000E+00  0.15381813083E+04  0.22209931968E+04  0.16021264130E+04 0.  0.
        1    1    3    3  502    0  0.33175960125E+03  0.48453821062E+03  0.15244031886E+04  0.16335993365E+04  0.50400001928E-02 0. -1.
       -1    1    3    3    0  502 -0.33175960125E+03 -0.48453821062E+03  0.13778119624E+02  0.58739386035E+03  0.50400001928E-02 0.  1.
</event>
<event>
 5   0  0.5381164E-04  0.1573011E+04  0.7818609E-02  0.8837302E-01
       -2   -1    0    0    0  501  0.00000000000E+00  0.00000000000E+00  0.57319189086E+03  0.57319189086E+03  0.25500000920E-02 0.  1.
        2   -1    0    0  501    0  0.00000000000E+00  0.00000000000E+00 -0.10792032264E+04  0.10792032264E+04  0.25500000920E-02 0. -1.
    10030    2    1    2    0    0  0.00000000000E+00  0.00000000000E+00 -0.50601133555E+03  0.16523951173E+04  0.15730105378E+04 0.  0.
        5    1    3    3  502    0 -0.63085948370E+03  0.16834970872E+03  0.20757710657E+03  0.68515374754E+03  0.46999998093E+01 0. -1.
       -5    1    3    3    0  502  0.63085948370E+03 -0.16834970872E+03 -0.71358844212E+03  0.96724136973E+03  0.46999998093E+01 0.  1.
</event>
<event>
 5   0  0.2763895E-04  0.1595759E+04  0.7818609E-02  0.8823157E-01
        1   -1    0    0  501    0  0.00000000000E+00  0.00000000000E+00  0.10505873778E+04  0.10505873778E+04  0.50400001928E-02 0.  1.
       -1   -1    0    0    0  501  0.00000000000E+00  0.00000000000E+00 -0.60595816076E+03  0.60595816078E+03  0.50400001928E-02 0. -1.
    10030    2    1    2    0    0  0.00000000000E+00  0.00000000000E+00  0.44462921706E+03  0.16565455386E+04  0.15957593744E+04 0.  0.
        4    1    3    3  502    0 -0.78812456943E+03  0.12053240549E+03  0.25417549643E+03  0.83682447001E+03  0.12699999809E+01 0. -1.
       -4    1    3    3    0  502  0.78812456943E+03 -0.12053240549E+03  0.19045372063E+03  0.81972106861E+03  0.12699999809E+01 0.  1.
</event>
<event>
 5   0  0.1908125E-04  0.1667773E+04  0.7818609E-02  0.8779961E-01
       -4   -1    0    0    0  501  0.00000000000E+00  0.00000000000E+00  0.98315638090E+03  0.98315720116E+03  0.12699999809E+01 0. -1.
        4   -1    0    0  501    0  0.00000000000E+00  0.00000000000E+00 -0.70727828717E+03  0.70727942738E+03  0.12699999809E+01 0.  1.
    10030    2    1    2    0    0  0.00000000000E+00  0.00000000000E+00  0.27587809373E+03  0.16904366285E+04  0.16677731478E+04 0.  0.
        3    1    3    3  502    0 -0.42847377646E+03  0.24063815250E+03  0.82079296336E+03  0.95665960323E+03  0.10100000352E+00 0. -1.
       -3    1    3    3    0  502  0.42847377646E+03 -0.24063815250E+03 -0.54491486963E+03  0.73377702532E+03  0.10100000352E+00 0.  1.
</event>
<event>
 5   0  0.5264308E-04  0.1562675E+04  0.7818609E-02  0.8843812E-01
        2   -1    0    0  501    0  0.00000000000E+00  0.00000000000E+00  0.12034669961E+04  0.12034669961E+04  0.25500000920E-02 0.  1.
       -2   -1    0    0    0  501  0.00000000000E+00  0.00000000000E+00 -0.50727456761E+03  0.50727456761E+03  0.25500000920E-02 0. -1.
    10030    2    1    2    0    0  0.00000000000E+00  0.00000000000E+00  0.69619242847E+03  0.17107415637E+04  0.15626748863E+04 0.  0.
        3    1    3    3  502    0  0.64058661954E+03  0.63241301474E+01  0.83780290674E+03  0.10546586806E+04  0.10100000352E+00 0.  1.
       -3    1    3    3    0  502 -0.64058661954E+03 -0.63241301474E+01 -0.14161047828E+03  0.65608288312E+03  0.10100000352E+00 0. -1.
</event>
<event>
 5   0  0.5264308E-04  0.1572147E+04  0.7818609E-02  0.8837844E-01
        2   -1    0    0  501    0  0.00000000000E+00  0.00000000000E+00  0.63324069176E+03  0.63324069176E+03  0.25500000920E-02 0. -1.
       -2   -1    0    0    0  501  0.00000000000E+00  0.00000000000E+00 -0.97579297705E+03  0.97579297706E+03  0.25500000920E-02 0.  1.
    10030    2    1    2    0    0  0.00000000000E+00  0.00000000000E+00 -0.34255228529E+03  0.16090336688E+04  0.15721473465E+04 0.  0.
        3    1    3    3  502    0  0.28914558971E+02  0.11698206996E+03 -0.96628374543E+03  0.97376852655E+03  0.10100000352E+00 0.  1.
       -3    1    3    3    0  502 -0.28914558971E+02 -0.11698206996E+03  0.62373146014E+03  0.63526514227E+03  0.10100000352E+00 0. -1.
</event>
<event>
 5   0  0.2730707E-04  0.1617381E+04  0.7818609E-02  0.8809941E-01
        1   -1    0    0  501    0  0.00000000000E+00  0.00000000000E+00  0.72561730114E+03  0.72561730116E+03  0.50400001928E-02 0. -1.
       -1   -1    0    0    0  501  0.00000000000E+00  0.00000000000E+00 -0.90127389209E+03  0.90127389210E+03  0.50400001928E-02 0.  1.
    10030    2    1    2    0    0  0.00000000000E+00  0.00000000000E+00 -0.17565659095E+03  0.16268911933E+04  0.16173805108E+04 0.  0.
        5    1    3    3  502    0 -0.37536196120E+03 -0.53347068917E+03  0.39296803190E+03  0.76153367766E+03  0.46999998093E+01 0. -1.
       -5    1    3    3    0  502  0.37536196120E+03  0.53347068917E+03 -0.56862462284E+03  0.86535751561E+03  0.46999998093E+01 0.  1.
</event>
<event>
 5   0  0.5381164E-04  0.1556718E+04  0.7818609E-02  0.8847588E-01
        2   -1    0    0  501    0  0.00000000000E+00  0.00000000000E+00  0.64872784704E+03  0.64872784705E+03  0.25500000920E-02 0.  1.
       -2   -1    0    0    0  501  0.00000000000E+00  0.00000000000E+00 -0.93389329679E+03  0.93389329680E+03  0.25500000920E-02 0. -1.
    10030    2    1    2    0    0  0.00000000000E+00  0.00000000000E+00 -0.28516544975E+03  0.15826211438E+04  0.15567178136E+04 0.  0.
        5    1    3    3  502    0  0.51096484184E+03 -0.47228813317E+03 -0.49721275141E+03  0.85520977573E+03  0.46999998093E+01 0. -1.
       -5    1    3    3    0  502 -0.51096484184E+03  0.47228813317E+03  0.21204730166E+03  0.72741136812E+03  0.46999998093E+01 0.  1.
</event>
<event>
 5   0  0.5264308E-04  0.1665176E+04  0.7818609E-02  0.8781479E-01
        2   -1    0    0  501    0  0.00000000000E+00  0.00000000000E+00  0.81255448003E+03  0.81255448004E+03  0.25500000920E-02 0. -1.
       -2   -1    0    0    0  501  0.00000000000E+00  0.00000000000E+00 -0.85311517374E+03  0.85311517374E+03  0.25500000920E-02 0.  1.
    10030    2    1    2    0    0  0.00000000000E+00  0.00000000000E+00 -0.40560693710E+02  0.16656696538E+04  0.16651757342E+04 0.  0.
        3    1    3    3  502    0  0.49297024809E+03 -0.56243563871E+03  0.34568201272E+03  0.82392328363E+03  0.10100000352E+00 0. -1.
       -3    1    3    3    0  502 -0.49297024809E+03  0.56243563871E+03 -0.38624270643E+03  0.84174637015E+03  0.10100000352E+00 0.  1.
</event>
<event>
 5   0  0.2796994E-04  0.1552099E+04  0.7818609E-02  0.8850528E-01
       -1   -1    0    0    0  501  0.00000000000E+00  0.00000000000E+00  0.52621633185E+03  0.52621633188E+03  0.50400001928E-02 0.  1.
        1   -1    0    0  501    0  0.00000000000E+00  0.00000000000E+00 -0.11444965859E+04  0.11444965859E+04  0.50400001928E-02 0. -1.
    10030    2    1    2    0    0  0.00000000000E+00  0.00000000000E+00 -0.61828025406E+03  0.16707129178E+04  0.15520989598E+04 0.  0.
        3    1    3    3  502    0  0.47095095120E+03 -0.39872703154E+03 -0.81571602611E+03  0.10228248577E+04  0.10100000352E+00 0. -1.
       -3    1    3    3    0  502 -0.47095095120E+03  0.39872703154E+03  0.19743577205E+03  0.64788806008E+03  0.10100000352E+00 0.  1.
</event>
<event>
 5   0  0.2796994E-04  0.1588401E+04  0.7818609E-02  0.8827706E-01
        1   -1    0    0  501    0  0.00000000000E+00  0.00000000000E+00  0.83984365382E+03  0.83984365384E+03  0.50400001928E-02 0.  1.
       -1   -1    0    0    0  501  0.00000000000E+00  0.00000000000E+00 -0.75103784070E+03  0.75103784072E+03  0.50400001928E-02 0. -1.
    10030    2    1    2    0    0  0.00000000000E+00  0.00000000000E+00  0.88805813121E+02  0.15908814946E+04  0.15884009120E+04 0.  0.
        3    1    3    3  502    0  0.15531952889E+03 -0.39511095326E+03 -0.62785133459E+03  0.75791432893E+03  0.10100000352E+00 0. -1.
       -3    1    3    3    0  502 -0.15531952889E+03  0.39511095326E+03  0.71665714771E+03  0.83296716563E+03  0.10100000352E+00 0.  1.
</event>
<event>
 5   0  0.2763895E-04  0.1593940E+04  0.7818609E-02  0.8824279E-01
       -1   -1    0    0    0  501  0.00000000000E+00  0.00000000000E+00  0.76854097607E+03  0.76854097608E+03  0.50400001928E-02 0.  1.
        1   -1    0    0  501    0  0.00000000000E+00  0.00000000000E+00 -0.82645082288E+03  0.82645082290E+03  0.50400001928E-02 0. -1.
    10030    2    1    2    0    0  0.00000000000E+00  0.00000000000E+00 -0.57909846813E+02  0.15949917990E+04  0.15939401772E+04 0.  0.
        4    1    3    3  502    0 -0.51684558502E+03 -0.41291195316E+02 -0.63460244675E+03  0.81948532622E+03  0.12699999809E+01 0. -1.
       -4    1    3    3    0  502  0.51684558502E+03  0.41291195316E+02  0.57669259994E+03  0.77550647276E+03  0.12699999809E+01 0.  1.
</event>
<event>
 5   0  0.5131239E-04  0.1584033E+04  0.7818609E-02  0.8830418E-01
       -2   -1    0    0    0  501  0.00000000000E+00  0.00000000000E+00  0.31396060150E+03  0.31396060151E+03  0.25500000920E-02 0.  1.
        2   -1    0    0  501    0  0.00000000000E+00  0.00000000000E+00 -0.19979894779E+04  0.19979894779E+04  0.25500000920E-02 0. -1.
    10030    2    1    2    0    0  0.00000000000E+00  0.00000000000E+00 -0.16840288764E+04  0.23119500794E+04  0.15840328005E+04 0.  0.
        1    1    3    3  502    0  0.39006517185E+03 -0.65377531771E+03 -0.11608382348E+04  0.13882069053E+04  0.50400001928E-02 0. -1.
       -1    1    3    3    0  502 -0.39006517185E+03  0.65377531771E+03 -0.52319064155E+03  0.92374317414E+03  0.50400001928E-02 0.  1.
</event>
<event>
 5   0  0.1908125E-04  0.1421501E+04  0.7818609E-02  0.8938400E-01
        4   -1    0    0  501    0  0.00000000000E+00  0.00000000000E+00  0.84076504636E+03  0.84076600555E+03  0.12699999809E+01 0. -1.
       -4   -1    0    0    0  501  0.00000000000E+00  0.00000000000E+00 -0.60083959320E+03  0.60084093541E+03  0.12699999809E+01 0.  1.
    10030    2    1    2    0    0  0.00000000000E+00  0.00000000000E+00  0.23992545316E+03  0.14416069410E+04  0.14215014418E+04 0.  0.
        1    1    3    3  502    0 -0.38617141325E+03  0.14081162909E+03  0.70800029751E+03  0.81867007799E+03  0.50400001928E-02 0.  1.
       -1    1    3    3    0  502  0.38617141325E+03 -0.14081162909E+03 -0.46807484435E+03  0.62293686296E+03  0.50400001928E-02 0. -1.
</event>
<event>
 5   0  0.5315984E-04  0.1597664E+04  0.7818609E-02  0.8821984E-01
        2   -1    0    0  501    0  0.00000000000E+00  0.00000000000E+00  0.13958049970E+04  0.13958049970E+04  0.25500000920E-02 0. -1.
       -2   -1    0    0    0  501  0.00000000000E+00  0.00000000000E+00 -0.45717899633E+03  0.45717899633E+03  0.25500000920E-02 0.  1.
    10030    2    1    2    0    0  0.00000000000E+00  0.00000000000E+00  0.93862600065E+03  0.18529839933E+04  0.15976642045E+04 0.  0.
        2    1    3    3  502    0  0.30862223760E+03 -0.62213318978E+03  0.92715869422E+03  0.11584129815E+04  0.25500000920E-02 0. -1.
       -2    1    3    3    0  502 -0.30862223760E+03  0.62213318978E+03  0.11467306429E+02  0.69457101184E+03  0.25500000920E-02 0.  1.
</event>
<event>
 5   0  0.5264308E-04  0.1610129E+04  0.7818609E-02  0.8814349E-01
        2   -1    0    0  501    0  0.00000000000E+00  0.00000000000E+00  0.88445636132E+03  0.88445636133E+03  0.25500000920E-02 0.  1.
       -2   -1    0    0    0  501  0.00000000000E+00  0.00000000000E+00 -0.73279922831E+03  0.73279922831E+03  0.25500000920E-02 0. -1.
    10030    2    1    2    0    0  0.00000000000E+00  0.00000000000E+00  0.15165713302E+03  0.16172555896E+04  0.16101291117E+04 0.  0.
        3    1    3    3  502    0 -0.12076684770E+03  0.40966577753E+03  0.76128457255E+03  0.87290600375E+03  0.10100000352E+00 0.  1.
       -3    1    3    3    0  502  0.12076684770E+03 -0.40966577753E+03 -0.60962743953E+03  0.74434958589E+03  0.10100000352E+00 0. -1.
</event>
<event>
 5   0  0.2649086E-04  0.1594463E+04  0.7818609E-02  0.8823957E-01
       -1   -1    0    0    0  501  0.00000000000E+00  0.00000000000E+00  0.35626544577E+03  0.35626544581E+03  0.50400001928E-02 0.  1.
        1   -1    0    0  501    0  0.00000000000E+00  0.00000000000E+00 -0.17840024977E+04  0.17840024977E+04  0.50400001928E-02 0. -1.
    10030    2    1    2    0    0  0.00000000000E+00  0.00000000000E+00 -0.14277370519E+04  0.21402679435E+04  0.15944634773E+04 0.  0.
        2    1    3    3  502    0  0.31466477900E+03  0.69055471071E+03 -0.10418399890E+04  0.12889182651E+04  0.25500000920E-02 0. -1.
       -2    1    3    3    0  502 -0.31466477900E+03 -0.69055471071E+03 -0.38589706295E+03  0.85134967834E+03  0.25500000920E-02 0.  1.
</event>
<event>
 5   0  0.2689675E-04  0.1633668E+04  0.7818609E-02  0.8800128E-01
       -1   -1    0    0    0  501  0.00000000000E+00  0.00000000000E+00  0.16411537435E+04  0.16411537435E+04  0.50400001928E-02 0. -1.
        1   -1    0    0  501    0  0.00000000000E+00  0.00000000000E+00 -0.40655394623E+03  0.40655394626E+03  0.50400001928E-02 0.  1.
    10030    2    1    2    0    0  0.00000000000E+00  0.00000000000E+00  0.12345997972E+04  0.20477076897E+04  0.16336676906E+04 0.  0.
        1    1    3    3  502    0 -0.20597685102E+03  0.93834407705E+02 -0.36646137559E+03  0.43072647823E+03  0.50400001928E-02 0.  1.
       -1    1    3    3    0  502  0.20597685102E+03 -0.93834407705E+02  0.16010611728E+04  0.16169812115E+04  0.50400001928E-02 0. -1.
</event>
<event>
 5   0  0.5264308E-04  0.1601544E+04  0.7818609E-02  0.8819600E-01
        2   -1    0    0  501    0  0.00000000000E+00  0.00000000000E+00  0.81047640396E+03  0.81047640396E+03  0.25500000920E-02 0.  1.
       -2   -1    0    0    0  501  0.00000000000E+00  0.00000000000E+00 -0.79118348546E+03  0.79118348546E+03  0.25500000920E-02 0. -1.
    10030    2    1    2    0    0  0.00000000000E+00  0.00000000000E+00  0.19292918501E+02  0.16016598894E+04  0.16015436880E+04 0.  0.
        3    1    3    3  502    0  0.71987740923E+03 -0.34993502031E+03  0.33260313598E+02  0.80111438723E+03  0.10100000352E+00 0.  1.
       -3    1    3    3    0  502 -0.71987740923E+03  0.34993502031E+03 -0.13967395097E+02  0.80054550220E+03  0.10100000352E+00 0. -1.
</event>
<event>
 5   0  0.5381164E-04  0.1596690E+04  0.7818609E-02  0.8822584E-01
       -2   -1    0    0    0  501  0.00000000000E+00  0.00000000000E+00  0.43145043338E+03  0.43145043339E+03  0.25500000920E-02 0. -1.
        2   -1    0    0  501    0  0.00000000000E+00  0.00000000000E+00 -0.14772383719E+04  0.14772383719E+04  0.25500000920E-02 0.  1.
    10030    2    1    2    0    0  0.00000000000E+00  0.00000000000E+00 -0.10457879386E+04  0.19086888053E+04  0.15966904970E+04 0.  0.
        5    1    3    3  502    0  0.32493831571E+03 -0.43105861688E+03  0.18019882277E+03  0.56911347369E+03  0.46999998093E+01 0. -1.
       -5    1    3    3    0  502 -0.32493831571E+03  0.43105861688E+03 -0.12259867613E+04  0.13395753316E+04  0.46999998093E+01 0.  1.
</event>
<event>
 5   0  0.2796994E-04  0.1598548E+04  0.7818609E-02  0.8821441E-01
        1   -1    0    0  501    0  0.00000000000E+00  0.00000000000E+00  0.15851495275E+04  0.15851495275E+04  0.50400001928E-02 0. -1.
       -1   -1    0    0    0  501  0.00000000000E+00  0.00000000000E+00 -0.40301478982E+03  0.40301478986E+03  0.50400001928E-02 0.  1.
    10030    2    1    2    0    0  0.00000000000E+00  0.00000000000E+00  0.11821347376E+04  0.19881643173E+04  0.15985477205E+04 0.  0.
        3    1    3    3  502    0  0.31386802392E+03  0.19714984717E+03 -0.28966454353E+03  0.47041126332E+03  0.10100000352E+00 0.  1.
       -3    1    3    3    0  502 -0.31386802392E+03 -0.19714984717E+03  0.14717992812E+04  0.15177530540E+04  0.10100000352E+00 0. -1.
</event>
<event>
 5   0  0.2649086E-04  0.1593570E+04  0.7818609E-02  0.8824508E-01
       -1   -1    0    0    0  501  0.00000000000E+00  0.00000000000E+00  0.10515111470E+04  0.10515111471E+04  0.50400001928E-02 0.  1.
        1   -1    0    0  501    0  0.00000000000E+00  0.00000000000E+00 -0.60376546179E+03  0.60376546181E+03  0.50400001928E-02 0. -1.
    10030    2    1    2    0    0  0.00000000000E+00  0.00000000000E+00  0.44774568526E+03  0.16552766089E+04  0.15935697202E+04 0.  0.
        2    1    3    3  502    0 -0.18669705066E+03  0.27926369923E+03  0.97436119814E+03  0.10306423952E+04  0.25500000920E-02 0.  1.
       -2    1    3    3    0  502  0.18669705066E+03 -0.27926369923E+03 -0.52661551288E+03  0.62463421363E+03  0.25500000920E-02 0. -1.
</event>
<event>
 5   0  0.2649086E-04  0.1544846E+04  0.7818609E-02  0.8855167E-01
       -1   -1    0    0    0  501  0.00000000000E+00  0.00000000000E+00  0.29583744817E+03  0.29583744821E+03  0.50400001928E-02 0. -1.
        1   -1    0    0  501    0  0.00000000000E+00  0.00000000000E+00 -0.20167741538E+04  0.20167741538E+04  0.50400001928E-02 0.  1.
    10030    2    1    2    0    0  0.00000000000E+00  0.00000000000E+00 -0.17209367057E+04  0.23126116021E+04  0.15448460367E+04 0.  0.
        2    1    3    3  502    0 -0.28967052170E+03 -0.68955319922E+02 -0.19274034789E+04  0.19502687040E+04  0.25500000920E-02 0.  1.
       -2    1    3    3    0  502  0.28967052170E+03  0.68955319922E+02  0.20646677326E+03  0.36234289803E+03  0.25500000920E-02 0. -1.
</event>
<event>
 5   0  0.5083831E-04  0.1510249E+04  0.7818609E-02  0.8877666E-01
        2   -1    0    0  501    0  0.00000000000E+00  0.00000000000E+00  0.16426534593E+04  0.16426534593E+04  0.25500000920E-02 0.  1.
       -2   -1    0    0    0  501  0.00000000000E+00  0.00000000000E+00 -0.34712909126E+03  0.34712909127E+03  0.25500000920E-02 0. -1.
    10030    2    1    2    0    0  0.00000000000E+00  0.00000000000E+00  0.12955243680E+04  0.19897825506E+04  0.15102487247E+04 0.  0.
        4    1    3    3  502    0  0.36242537086E+03  0.44611528619E+03  0.25268802231E+01  0.57478604371E+03  0.12699999809E+01 0. -1.
       -4    1    3    3    0  502 -0.36242537086E+03 -0.44611528619E+03  0.12929974878E+04  0.14149965069E+04  0.12699999809E+01 0.  1.
</event>
<event>
 5   0  0.2730707E-04  0.1595591E+04  0.7818609E-02  0.8823261E-01
        1   -1    0    0  501    0  0.00000000000E+00  0.00000000000E+00  0.31675341401E+03  0.31675341405E+03  0.50400001928E-02 0. -1.
       -1   -1    0    0    0  501  0.00000000000E+00  0.00000000000E+00 -0.20093792784E+04  0.20093792784E+04  0.50400001928E-02 0.  1.
    10030    2    1    2    0    0  0.00000000000E+00  0.00000000000E+00 -0.16926258644E+04  0.23261326925E+04  0.15955911087E+04 0.  0.
        5    1    3    3  502    0  0.95748736425E+02 -0.14252690619E+02 -0.20007651935E+04  0.20031111825E+04  0.46999998093E+01 0.  1.
       -5    1    3    3    0  502 -0.95748736425E+02  0.14252690619E+02  0.30813932917E+03  0.32302150996E+03  0.46999998093E+01 0. -1.
</event>
<event>
 5   0  0.5381164E-04  0.1469362E+04  0.7818609E-02  0.8905086E-01
       -2   -1    0    0    0  501  0.00000000000E+00  0.00000000000E+00  0.51990442995E+03  0.51990442996E+03  0.25500000920E-02 0. -1.
        2   -1    0    0  501    0  0.00000000000E+00  0.00000000000E+00 -0.10381841032E+04  0.10381841032E+04  0.25500000920E-02 0.  1.
    10030    2    1    2    0    0  0.00000000000E+00  0.00000000000E+00 -0.51827967326E+03  0.15580885332E+04  0.14693624663E+04 0.  0.
        5    1    3    3  502    0 -0.71538374686E+03 -0.10113399672E+02 -0.82153388547E+02  0.72017182351E+03  0.46999998093E+01 0. -1.
       -5    1    3    3    0  502  0.71538374686E+03  0.10113399672E+02 -0.43612628471E+03  0.83791670967E+03  0.46999998093E+01 0.  1.
</event>
<event>
 5   0  0.2649086E-04  0.1605156E+04  0.7818609E-02  0.8817387E-01
        1   -1    0    0  501    0  0.00000000000E+00  0.00000000000E+00  0.63284063799E+03  0.63284063801E+03  0.50400001928E-02 0. -1.
       -1   -1    0    0    0  501  0.00000000000E+00  0.00000000000E+00 -0.10178417832E+04  0.10178417832E+04  0.50400001928E-02 0.  1.
    10030    2    1    2    0    0  0.00000000000E+00  0.00000000000E+00 -0.38500114524E+03  0.16506824213E+04  0.16051562460E+04 0.  0.
        2    1    3    3  502    0 -0.63944524452E+03  0.46106598744E+03 -0.34730098807E+03  0.86144648228E+03  0.25500000920E-02 0.  1.
       -2    1    3    3    0  502  0.63944524452E+03 -0.46106598744E+03 -0.37700157172E+02  0.78923593898E+03  0.25500000920E-02 0. -1.
</event>
<event>
 5   0  0.5131239E-04  0.1603104E+04  0.7818609E-02  0.8818643E-01
        2   -1    0    0  501    0  0.00000000000E+00  0.00000000000E+00  0.10118206139E+04  0.10118206139E+04  0.25500000920E-02 0. -1.
       -2   -1    0    0    0  501  0.00000000000E+00  0.00000000000E+00 -0.63497963991E+03  0.63497963991E+03  0.25500000920E-02 0.  1.
    10030    2    1    2    0    0  0.00000000000E+00  0.00000000000E+00  0.37684097403E+03  0.16468002539E+04  0.16031038508E+04 0.  0.
        1    1    3    3  502    0  0.17692963616E+03 -0.47865378179E+02  0.99000403535E+03  0.10068282776E+04  0.50400001928E-02 0. -1.
       -1    1    3    3    0  502 -0.17692963616E+03  0.47865378179E+02 -0.61316306132E+03  0.63997197624E+03  0.50400001928E-02 0.  1.
</event>
<event>
 5   0  0.2730707E-04  0.1320572E+04  0.7818609E-02  0.9013409E-01
       -1   -1    0    0    0  501  0.00000000000E+00  0.00000000000E+00  0.58697272941E+03  0.58697272943E+03  0.50400001928E-02 0.  1.
        1   -1    0    0  501    0  0.00000000000E+00  0.00000000000E+00 -0.74275587401E+03  0.74275587403E+03  0.50400001928E-02 0. -1.
    10030    2    1    2    0    0  0.00000000000E+00  0.00000000000E+00 -0.15578314460E+03  0.13297286035E+04  0.13205717590E+04 0.  0.
        5    1    3    3  502    0 -0.55537493039E+03 -0.10567486434E+03  0.26557015000E+03  0.62462635618E+03  0.46999998093E+01 0.  1.
       -5    1    3    3    0  502  0.55537493039E+03  0.10567486434E+03 -0.42135329460E+03  0.70510224729E+03  0.46999998093E+01 0. -1.
</event>
<event>
 5   0  0.2649086E-04  0.1589549E+04  0.7818609E-02  0.8826994E-01
        1   -1    0    0  501    0  0.00000000000E+00  0.00000000000E+00  0.96759399153E+03  0.96759399154E+03  0.50400001928E-02 0.  1.
       -1   -1    0    0    0  501  0.00000000000E+00  0.00000000000E+00 -0.65282195512E+03  0.65282195514E+03  0.50400001928E-02 0. -1.
    10030    2    1    2    0    0  0.00000000000E+00  0.00000000000E+00  0.31477203641E+03  0.16204159467E+04  0.15895491202E+04 0.  0.
        2    1    3    3  502    0 -0.16879876867E+03  0.17498142774E+03  0.92875325831E+03  0.96004902958E+03  0.25500000920E-02 0.  1.
       -2    1    3    3    0  502  0.16879876867E+03 -0.17498142774E+03 -0.61398122190E+03  0.66036691711E+03  0.25500000920E-02 0. -1.
</event>
<event>
 5   0  0.5315984E-04  0.1609131E+04  0.7818609E-02  0.8814958E-01
       -2   -1    0    0    0  501  0.00000000000E+00  0.00000000000E+00  0.64293411010E+03  0.64293411010E+03  0.25500000920E-02 0. -1.
        2   -1    0    0  501    0  0.00000000000E+00  0.00000000000E+00 -0.10068300017E+04  0.10068300017E+04  0.25500000920E-02 0.  1.
    10030    2    1    2    0    0  0.00000000000E+00  0.00000000000E+00 -0.36389589157E+03  0.16497641118E+04  0.16091306363E+04 0.  0.
        2    1    3    3  502    0  0.45586304853E+03  0.35737500319E+03 -0.75443642433E+03  0.95115841493E+03  0.25500000920E-02 0.  1.
       -2    1    3    3    0  502 -0.45586304853E+03 -0.35737500319E+03  0.39054053277E+03  0.69860569684E+03  0.25500000920E-02 0. -1.
</event>
<event>
 5   0  0.5315984E-04  0.1611474E+04  0.7818609E-02  0.8813530E-01
        2   -1    0    0  501    0  0.00000000000E+00  0.00000000000E+00  0.10188564014E+04  0.10188564014E+04  0.25500000920E-02 0.  1.
       -2   -1    0    0    0  501  0.00000000000E+00  0.00000000000E+00 -0.63719684412E+03  0.63719684413E+03  0.25500000920E-02 0. -1.
    10030    2    1    2    0    0  0.00000000000E+00  0.00000000000E+00  0.38165955726E+03  0.16560532455E+04  0.16114739633E+04 0.  0.
        2    1    3    3  502    0  0.30109836077E+03 -0.35139198750E+03 -0.48701980408E+03  0.67180714592E+03  0.25500000920E-02 0. -1.
       -2    1    3    3    0  502 -0.30109836077E+03  0.35139198750E+03  0.86867936134E+03  0.98424609959E+03  0.25500000920E-02 0.  1.
</event>
<event>
 5   0  0.5083831E-04  0.1594507E+04  0.7818609E-02  0.8823930E-01
        2   -1    0    0  501    0  0.00000000000E+00  0.00000000000E+00  0.81695047321E+03  0.81695047322E+03  0.25500000920E-02 0. -1.
       -2   -1    0    0    0  501  0.00000000000E+00  0.00000000000E+00 -0.77803098490E+03  0.77803098491E+03  0.25500000920E-02 0.  1.
    10030    2    1    2    0    0  0.00000000000E+00  0.00000000000E+00  0.38919488310E+02  0.15949814581E+04  0.15945065460E+04 0.  0.
        4    1    3    3  502    0 -0.39896194543E+03 -0.19199050746E+02  0.70964490937E+03  0.81433208689E+03  0.12699999809E+01 0. -1.
       -4    1    3    3    0  502  0.39896194543E+03  0.19199050746E+02 -0.67072542106E+03  0.78064937123E+03  0.12699999809E+01 0.  1.
</event>
<event>
 5   0  0.5315984E-04  0.1588540E+04  0.7818609E-02  0.8827620E-01
       -2   -1    0    0    0  501  0.00000000000E+00  0.00000000000E+00  0.33153942808E+03  0.33153942809E+03  0.25500000920E-02 0.  1.
        2   -1    0    0  501    0  0.00000000000E+00  0.00000000000E+00 -0.19028338882E+04  0.19028338882E+04  0.25500000920E-02 0. -1.
    10030    2    1    2    0    0  0.00000000000E+00  0.00000000000E+00 -0.15712944601E+04  0.22343733163E+04  0.15885395293E+04 0.  0.
        2    1    3    3  502    0  0.30207198446E+03 -0.66304884679E+03 -0.34089182933E+03  0.80441811040E+03  0.25500000920E-02 0.  1.
       -2    1    3    3    0  502 -0.30207198446E+03  0.66304884679E+03 -0.12304026308E+04  0.14299552059E+04  0.25500000920E-02 0. -1.
</event>
<event>
 5   0  0.5315984E-04  0.1449149E+04  0.7818609E-02  0.8918990E-01
       -2   -1    0    0    0  501  0.00000000000E+00  0.00000000000E+00  0.34964466800E+03  0.34964466801E+03  0.25500000920E-02 0.  1.
        2   -1    0    0  501    0  0.00000000000E+00  0.00000000000E+00 -0.15015486594E+04  0.15015486594E+04  0.25500000920E-02 0. -1.
    10030    2    1    2    0    0  0.00000000000E+00  0.00000000000E+00 -0.11519039913E+04  0.18511933274E+04  0.14491493815E+04 0.  0.
        2    1    3    3  502    0  0.68923968604E+03  0.16274686653E+03 -0.38024755904E+03  0.80381968969E+03  0.25500000920E-02 0. -1.
       -2    1    3    3    0  502 -0.68923968604E+03 -0.16274686653E+03 -0.77165643231E+03  0.10473736377E+04  0.25500000920E-02 0.  1.
</event>
<event>
 5   0  0.5264308E-04  0.1627390E+04  0.7818609E-02  0.8803896E-01
       -2   -1    0    0    0  501  0.00000000000E+00  0.00000000000E+00  0.26644674162E+03  0.26644674164E+03  0.25500000920E-02 0. -1.
        2   -1    0    0  501    0  0.00000000000E+00  0.00000000000E+00 -0.24849212069E+04  0.24849212069E+04  0.25500000920E-02 0.  1.
    10030    2    1    2    0    0  0.00000000000E+00  0.00000000000E+00 -0.22184744653E+04  0.27513679485E+04  0.16273895155E+04 0.  0.
        3    1    3    3  502    0 -0.67071033609E+03  0.39703248967E+03 -0.15043319146E+04  0.16942554921E+04  0.10100000352E+00 0.  1.
       -3    1    3    3    0  502  0.67071033609E+03 -0.39703248967E+03 -0.71414255064E+03  0.10571124565E+04  0.10100000352E+00 0. -1.
</event>
<event>
 5   0  0.2763895E-04  0.1585173E+04  0.7818609E-02  0.8829709E-01
       -1   -1    0    0    0  501  0.00000000000E+00  0.00000000000E+00  0.18762710471E+04  0.18762710471E+04  0.50400001928E-02 0. -1.
        1   -1    0    0  501    0  0.00000000000E+00  0.00000000000E+00 -0.33480958387E+03  0.33480958391E+03  0.50400001928E-02 0.  1.
    10030    2    1    2    0    0  0.00000000000E+00  0.00000000000E+00  0.15414614632E+04  0.22110806310E+04  0.15851732127E+04 0.  0.
        4    1    3    3  502    0  0.24889873416E+03  0.59133304030E+03  0.14198486024E+04  0.15580747771E+04  0.12699999809E+01 0. -1.
       -4    1    3    3    0  502 -0.24889873416E+03 -0.59133304030E+03  0.12161286082E+03  0.65300585390E+03  0.12699999809E+01 0.  1.
</event>
<event>
 5   0  0.2689675E-04  0.1546215E+04  0.7818609E-02  0.8854289E-01
        1   -1    0    0  501    0  0.00000000000E+00  0.00000000000E+00  0.14873155986E+04  0.14873155986E+04  0.50400001928E-02 0.  1.
       -1   -1    0    0    0  501  0.00000000000E+00  0.00000000000E+00 -0.40186165723E+03  0.40186165726E+03  0.50400001928E-02 0. -1.
    10030    2    1    2    0    0  0.00000000000E+00  0.00000000000E+00  0.10854539413E+04  0.18891772558E+04  0.15462148768E+04 0.  0.
        1    1    3    3  502    0  0.45909417309E+03 -0.40849427277E+03  0.11158838307E+04  0.12739041385E+04  0.50400001928E-02 0.  1.
       -1    1    3    3    0  502 -0.45909417309E+03  0.40849427277E+03 -0.30429889335E+02  0.61527311728E+03  0.50400001928E-02 0. -1.
</event>
<event>
 5   0  0.2796994E-04  0.1629832E+04  0.7818609E-02  0.8802428E-01
        1   -1    0    0  501    0  0.00000000000E+00  0.00000000000E+00  0.86937672056E+03  0.86937672058E+03  0.50400001928E-02 0.  1.
       -1   -1    0    0    0  501  0.00000000000E+00  0.00000000000E+00 -0.76386730989E+03  0.76386730991E+03  0.50400001928E-02 0. -1.
    10030    2    1    2    0    0  0.00000000000E+00  0.00000000000E+00  0.10550941067E+03  0.16332440305E+04  0.16298324538E+04 0.  0.
        3    1    3    3  502    0 -0.73897583063E+03  0.15997019795E+03 -0.25187619740E+03  0.79694251456E+03  0.10100000352E+00 0. -1.
       -3    1    3    3    0  502  0.73897583063E+03 -0.15997019795E+03  0.35738560807E+03  0.83630151593E+03  0.10100000352E+00 0.  1.
</event>
<event>
 5   0  0.2649086E-04  0.1612980E+04  0.7818609E-02  0.8812614E-01
        1   -1    0    0  501    0  0.00000000000E+00  0.00000000000E+00  0.16697700488E+04  0.16697700488E+04  0.50400001928E-02 0. -1.
       -1   -1    0    0    0  501  0.00000000000E+00  0.00000000000E+00 -0.38953018266E+03  0.38953018269E+03  0.50400001928E-02 0.  1.
    10030    2    1    2    0    0  0.00000000000E+00  0.00000000000E+00  0.12802398662E+04  0.20593002315E+04  0.16129796430E+04 0.  0.
        2    1    3    3  502    0  0.74196862792E+03 -0.31381196004E+03  0.68840643762E+03  0.10596692005E+04  0.25500000920E-02 0.  1.
       -2    1    3    3    0  502 -0.74196862792E+03  0.31381196004E+03  0.59183342855E+03  0.99963103105E+03  0.25500000920E-02 0. -1.
</event>
<event>
 5   0  0.2796994E-04  0.1589788E+04  0.7818609E-02  0.8826846E-01
        1   -1    0    0  501    0  0.00000000000E+00  0.00000000000E+00  0.93402793488E+03  0.93402793490E+03  0.50400001928E-02 0.  1.
       -1   -1    0    0    0  501  0.00000000000E+00  0.00000000000E+00 -0.67648544895E+03  0.67648544897E+03  0.50400001928E-02 0. -1.
    10030    2    1    2    0    0  0.00000000000E+00  0.00000000000E+00  0.25754248593E+03  0.16105133839E+04  0.15897877932E+04 0.  0.
        3    1    3    3  502    0  0.11738658270E+03  0.26897999401E+03 -0.61959240247E+03  0.68558340293E+03  0.10100000352E+00 0. -1.
       -3    1    3    3    0  502 -0.11738658270E+03 -0.26897999401E+03  0.87713488840E+03  0.92492998093E+03  0.10100000352E+00 0.  1.
</event>
<event>
 5   0  0.5083831E-04  0.1600607E+04  0.7818609E-02  0.8820175E-01
        2   -1    0    0  501    0  0.00000000000E+00  0.00000000000E+00  0.21367798819E+04  0.21367798819E+04  0.25500000920E-02 0.  1.
       -2   -1    0    0    0  501  0.00000000000E+00  0.00000000000E+00 -0.29974348654E+03  0.29974348655E+03  0.25500000920E-02 0. -1.
    10030    2    1    2    0    0  0.00000000000E+00  0.00000000000E+00  0.18370363953E+04  0.24365233684E+04  0.16006071995E+04 0.  0.
        4    1    3    3  502    0  0.53493429554E+03 -0.12821851155E+03  0.18033754123E+04  0.18854068999E+04  0.12699999809E+01 0.  1.
       -4    1    3    3    0  502 -0.53493429554E+03  0.12821851155E+03  0.33660982975E+02  0.55111646857E+03  0.12699999809E+01 0. -1.
</event>
<event>
 5   0  0.5083831E-04  0.1714999E+04  0.7818609E-02  0.8752856E-01
       -2   -1    0    0    0  501  0.00000000000E+00  0.00000000000E+00  0.40002259042E+03  0.40002259043E+03  0.25500000920E-02 0. -1.
        2   -1    0    0  501    0  0.00000000000E+00  0.00000000000E+00 -0.18381605854E+04  0.18381605854E+04  0.25500000920E-02 0.  1.
    10030    2    1    2    0    0  0.00000000000E+00  0.00000000000E+00 -0.14381379949E+04  0.22381831758E+04  0.17149994274E+04 0.  0.
        4    1    3    3  502    0  0.22268858704E+03  0.19301932116E+02 -0.17994703599E+04  0.18133002952E+04  0.12699999809E+01 0.  1.
       -4    1    3    3    0  502 -0.22268858704E+03 -0.19301932116E+02  0.36133236496E+03  0.42488288063E+03  0.12699999809E+01 0. -1.
</event>
<event>
 5   0  0.5315984E-04  0.1604529E+04  0.7818609E-02  0.8817771E-01
       -2   -1    0    0    0  501  0.00000000000E+00  0.00000000000E+00  0.40024749101E+03  0.40024749102E+03  0.25500000920E-02 0.  1.
        2   -1    0    0  501    0  0.00000000000E+00  0.00000000000E+00 -0.16080752760E+04  0.16080752760E+04  0.25500000920E-02 0. -1.
    10030    2    1    2    0    0  0.00000000000E+00  0.00000000000E+00 -0.12078277850E+04  0.20083227670E+04  0.16045287091E+04 0.  0.
        2    1    3    3  502    0  0.60198921635E+03 -0.10360096737E+03 -0.12549016166E+04  0.13956726853E+04  0.25500000920E-02 0. -1.
       -2    1    3    3    0  502 -0.60198921635E+03  0.10360096737E+03  0.47073831607E+02  0.61265008176E+03  0.25500000920E-02 0.  1.
</event>
<event>
 5   0  0.1908125E-04  0.1569289E+04  0.7818609E-02  0.8839641E-01
       -3   -1    0    0    0  501  0.00000000000E+00  0.00000000000E+00  0.79261248696E+03  0.79261249340E+03  0.10100000352E+00 0.  1.
        3   -1    0    0  501    0  0.00000000000E+00  0.00000000000E+00 -0.77675620264E+03  0.77675620921E+03  0.10100000352E+00 0. -1.
    10030    2    1    2    0    0  0.00000000000E+00  0.00000000000E+00  0.15856284318E+02  0.15693687026E+04  0.15692885977E+04 0.  0.
        1    1    3    3  502    0 -0.33138086235E+03 -0.34944897805E+03  0.62742631704E+03  0.79094351728E+03  0.50400001928E-02 0.  1.
       -1    1    3    3    0  502  0.33138086235E+03  0.34944897805E+03 -0.61157003272E+03  0.77842518532E+03  0.50400001928E-02 0. -1.
</event>
<event>
 5   0  0.2763895E-04  0.1488340E+04  0.7818609E-02  0.8892244E-01
        1   -1    0    0  501    0  0.00000000000E+00  0.00000000000E+00  0.85209578425E+03  0.85209578427E+03  0.50400001928E-02 0. -1.
       -1   -1    0    0    0  501  0.00000000000E+00  0.00000000000E+00 -0.64991393688E+03  0.64991393690E+03  0.50400001928E-02 0.  1.
    10030    2    1    2    0    0  0.00000000000E+00  0.00000000000E+00  0.20218184737E+03  0.15020097212E+04  0.14883399152E+04 0.  0.
        4    1    3    3  502    0 -0.42086093001E+03  0.57786795493E+03  0.30970677828E+03  0.77908612948E+03  0.12699999809E+01 0. -1.
       -4    1    3    3    0  502  0.42086093001E+03 -0.57786795493E+03 -0.10752493091E+03  0.72292359168E+03  0.12699999809E+01 0.  1.
</event>
<event>
 5   0  0.2796994E-04  0.1600044E+04  0.7818609E-02  0.8820521E-01
        1   -1    0    0  501    0  0.00000000000E+00  0.00000000000E+00  0.78537104217E+03  0.78537104219E+03  0.50400001928E-02 0. -1.
       -1   -1    0    0    0  501  0.00000000000E+00  0.00000000000E+00 -0.81494622739E+03  0.81494622741E+03  0.50400001928E-02 0.  1.
    10030    2    1    2    0    0  0.00000000000E+00  0.00000000000E+00 -0.29575185219E+02  0.16003172696E+04  0.16000439593E+04 0.  0.
        3    1    3    3  502    0 -0.49234235108E+03  0.39928878134E+03  0.47335584935E+03  0.79113734072E+03  0.10100000352E+00 0. -1.
       -3    1    3    3    0  502  0.49234235108E+03 -0.39928878134E+03 -0.50293103457E+03  0.80917992888E+03  0.10100000352E+00 0.  1.
</event>
<event>
 5   0  0.2763895E-04  0.1597605E+04  0.7818609E-02  0.8822021E-01
       -1   -1    0    0    0  501  0.00000000000E+00  0.00000000000E+00  0.70099316567E+03  0.70099316569E+03  0.50400001928E-02 0.  1.
        1   -1    0    0  501    0  0.00000000000E+00  0.00000000000E+00 -0.91025885916E+03  0.91025885917E+03  0.50400001928E-02 0. -1.
    10030    2    1    2    0    0  0.00000000000E+00  0.00000000000E+00 -0.20926569349E+03  0.16112520249E+04  0.15976047562E+04 0.  0.
        4    1    3    3  502    0  0.75957719722E+02  0.58226995199E+03 -0.65080834243E+03  0.87656202499E+03  0.12699999809E+01 0. -1.
       -4    1    3    3    0  502 -0.75957719722E+02 -0.58226995199E+03  0.44154264894E+03  0.73468999987E+03  0.12699999809E+01 0.  1.
</event>
<event>
 5   0  0.2763895E-04  0.1595183E+04  0.7818609E-02  0.8823513E-01
       -1   -1    0    0    0  501  0.00000000000E+00  0.00000000000E+00  0.62776597673E+03  0.62776597675E+03  0.50400001928E-02 0.  1.
        1   -1    0    0  501    0  0.00000000000E+00  0.00000000000E+00 -0.10133585907E+04  0.10133585907E+04  0.50400001928E-02 0. -1.
    10030    2    1    2    0    0  0.00000000000E+00  0.00000000000E+00 -0.38559261398E+03  0.16411245675E+04  0.15951828052E+04 0.  0.
        4    1    3    3  502    0  0.17759110625E+03  0.38042339314E+03  0.50488648369E+03  0.65663729210E+03  0.12699999809E+01 0.  1.
       -4    1    3    3    0  502 -0.17759110625E+03 -0.38042339314E+03 -0.89047909767E+03  0.98448727537E+03  0.12699999809E+01 0. -1.
</event>
<event>
 5   0  0.5131239E-04  0.1621040E+04  0.7818609E-02  0.8807726E-01
        2   -1    0    0  501    0  0.00000000000E+00  0.00000000000E+00  0.16333278216E+04  0.16333278216E+04  0.25500000920E-02 0. -1.
       -2   -1    0    0    0  501  0.00000000000E+00  0.00000000000E+00 -0.40221111704E+03  0.40221111705E+03  0.25500000920E-02 0.  1.
    10030    2    1    2    0    0  0.00000000000E+00  0.00000000000E+00  0.12311167045E+04  0.20355389386E+04  0.16210399225E+04 0.  0.
        1    1    3    3  502    0  0.30845609353E+03  0.40485477098E+03  0.14076350722E+04  0.14968263238E+04  0.50400001928E-02 0. -1.
       -1    1    3    3    0  502 -0.30845609353E+03 -0.40485477098E+03 -0.17651836764E+03  0.53871261481E+03  0.50400001928E-02 0.  1.
</event>
<event>
 5   0  0.5315984E-04  0.1598933E+04  0.7818609E-02  0.8821204E-01
       -2   -1    0    0    0  501  0.00000000000E+00  0.00000000000E+00  0.60768838908E+03  0.60768838909E+03  0.25500000920E-02 0. -1.
        2   -1    0    0  501    0  0.00000000000E+00  0.00000000000E+00 -0.10517674637E+04  0.10517674637E+04  0.25500000920E-02 0.  1.
    10030    2    1    2    0    0  0.00000000000E+00  0.00000000000E+00 -0.44407907464E+03  0.16594558528E+04  0.15989332390E+04 0.  0.
        2    1    3    3  502    0 -0.13063918382E+03 -0.48558181561E+03 -0.86708812846E+03  0.10023463067E+04  0.25500000920E-02 0.  1.
       -2    1    3    3    0  502  0.13063918382E+03  0.48558181561E+03  0.42300905382E+03  0.65710954613E+03  0.25500000920E-02 0. -1.
</event>
<event>
 5   0  0.5264308E-04  0.1584496E+04  0.7818609E-02  0.8830130E-01
        2   -1    0    0  501    0  0.00000000000E+00  0.00000000000E+00  0.14372303773E+04  0.14372303773E+04  0.25500000920E-02 0.  1.
       -2   -1    0    0    0  501  0.00000000000E+00  0.00000000000E+00 -0.43671261521E+03  0.43671261522E+03  0.25500000920E-02 0. -1.
    10030    2    1    2    0    0  0.00000000000E+00  0.00000000000E+00  0.10005177621E+04  0.18739429925E+04  0.15844956759E+04 0.  0.
        3    1    3    3  502    0 -0.61271523920E+03 -0.24556546393E+03  0.10183922632E+04  0.12136083278E+04  0.10100000352E+00 0.  1.
       -3    1    3    3    0  502  0.61271523920E+03  0.24556546393E+03 -0.17874501101E+02  0.66033466471E+03  0.10100000352E+00 0. -1.
</event>
<event>
 5   0  0.5381164E-04  0.1592089E+04  0.7818609E-02  0.8825423E-01
        2   -1    0    0  501    0  0.00000000000E+00  0.00000000000E+00  0.12167772170E+04  0.12167772170E+04  0.25500000920E-02 0. -1.
       -2   -1    0    0    0  501  0.00000000000E+00  0.00000000000E+00 -0.52079108158E+03  0.52079108158E+03  0.25500000920E-02 0.  1.
    10030    2    1    2    0    0  0.00000000000E+00  0.00000000000E+00  0.69598613538E+03  0.17375682985E+04  0.15920888453E+04 0.  0.
        5    1    3    3  502    0 -0.60477688735E+03 -0.40210344693E+03  0.70369200931E+03  0.10112600059E+04  0.46999998093E+01 0.  1.
       -5    1    3    3    0  502  0.60477688735E+03  0.40210344693E+03 -0.77058739336E+01  0.72630829267E+03  0.46999998093E+01 0. -1.
</event>
<event>
 5   0  0.2730707E-04  0.1585665E+04  0.7818609E-02  0.8829403E-01
       -1   -1    0    0    0  501  0.00000000000E+00  0.00000000000E+00  0.10745410618E+04  0.10745410618E+04  0.50400001928E-02 0.  1.
        1   -1    0    0  501    0  0.00000000000E+00  0.00000000000E+00 -0.58497849947E+03  0.58497849949E+03  0.50400001928E-02 0. -1.
    10030    2    1    2    0    0  0.00000000000E+00  0.00000000000E+00  0.48956256228E+03  0.16595195613E+04  0.15856650566E+04 0.  0.
        5    1    3    3  502    0 -0.34383428310E+03  0.69365680083E+03  0.66004850250E+02  0.77702027118E+03  0.46999998093E+01 0. -1.
       -5    1    3    3    0  502  0.34383428310E+03 -0.69365680083E+03  0.42355771203E+03  0.88249929008E+03  0.46999998093E+01 0.  1.
</event>
<event>
 5   0  0.2649086E-04  0.1573266E+04  0.7818609E-02  0.8837142E-01
        1   -1    0    0  501    0  0.00000000000E+00  0.00000000000E+00  0.69452533656E+03  0.69452533658E+03  0.50400001928E-02 0. -1.
       -1   -1    0    0    0  501  0.00000000000E+00  0.00000000000E+00 -0.89095585414E+03  0.89095585415E+03  0.50400001928E-02 0.  1.
    10030    2    1    2    0    0  0.00000000000E+00  0.00000000000E+00 -0.19643051758E+03  0.15854811907E+04  0.15732659209E+04 0.  0.
        2    1    3    3  502    0  0.79355321459E+02  0.77611873457E+03 -0.19966392710E+03  0.80530940699E+03  0.25500000920E-02 0.  1.
       -2    1    3    3    0  502 -0.79355321459E+02 -0.77611873457E+03  0.32334095182E+01  0.78017178374E+03  0.25500000920E-02 0. -1.
</event>
<event>
 5   0  0.2730707E-04  0.1595168E+04  0.7818609E-02  0.8823522E-01
        1   -1    0    0  501    0  0.00000000000E+00  0.00000000000E+00  0.18172355231E+04  0.18172355231E+04  0.50400001928E-02 0. -1.
       -1   -1    0    0    0  501  0.00000000000E+00  0.00000000000E+00 -0.35005920513E+03  0.35005920517E+03  0.50400001928E-02 0.  1.
    10030    2    1    2    0    0  0.00000000000E+00  0.00000000000E+00  0.14671763180E+04  0.21672947283E+04  0.15951677314E+04 0.  0.
        5    1    3    3  502    0 -0.12852394613E+03 -0.21362723608E+03 -0.29573926021E+03  0.38683174734E+03  0.46999998093E+01 0.  1.
       -5    1    3    3    0  502  0.12852394613E+03  0.21362723608E+03  0.17629155782E+04  0.17804629809E+04  0.46999998093E+01 0. -1.
</event>
<event>
 5   0  0.5315984E-04  0.1595500E+04  0.7818609E-02  0.8823317E-01
       -2   -1    0    0    0  501  0.00000000000E+00  0.00000000000E+00  0.88314488258E+03  0.88314488258E+03  0.25500000920E-02 0.  1.
        2   -1    0    0  501    0  0.00000000000E+00  0.00000000000E+00 -0.72061262963E+03  0.72061262963E+03  0.25500000920E-02 0. -1.
    10030    2    1    2    0    0  0.00000000000E+00  0.00000000000E+00  0.16253225296E+03  0.16037575122E+04  0.15955003681E+04 0.  0.
        2    1    3    3  502    0  0.20267229144E+03 -0.42014023805E+03 -0.56923953869E+03  0.73595348342E+03  0.25500000920E-02 0. -1.
       -2    1    3    3    0  502 -0.20267229144E+03  0.42014023805E+03  0.73177179164E+03  0.86780402880E+03  0.25500000920E-02 0.  1.
</event>
<event>
 5   0  0.5131239E-04  0.1591759E+04  0.7818609E-02  0.8825627E-01
        2   -1    0    0  501    0  0.00000000000E+00  0.00000000000E+00  0.22022709740E+04  0.22022709740E+04  0.25500000920E-02 0.  1.
       -2   -1    0    0    0  501  0.00000000000E+00  0.00000000000E+00 -0.28762321844E+03  0.28762321845E+03  0.25500000920E-02 0. -1.
    10030    2    1    2    0    0  0.00000000000E+00  0.00000000000E+00  0.19146477555E+04  0.24898941924E+04  0.15917591092E+04 0.  0.
        1    1    3    3  502    0 -0.66361942522E+03  0.43800550875E+03  0.10111641703E+04  0.12863485323E+04  0.50400001928E-02 0. -1.
       -1    1    3    3    0  502  0.66361942522E+03 -0.43800550875E+03  0.90348358525E+03  0.12035456602E+04  0.50400001928E-02 0.  1.
</event>
<event>
 5   0  0.5131239E-04  0.1603454E+04  0.7818609E-02  0.8818429E-01
        2   -1    0    0  501    0  0.00000000000E+00  0.00000000000E+00  0.11057218721E+04  0.11057218721E+04  0.25500000920E-02 0. -1.
       -2   -1    0    0    0  501  0.00000000000E+00  0.00000000000E+00 -0.58130894517E+03  0.58130894517E+03  0.25500000920E-02 0.  1.
    10030    2    1    2    0    0  0.00000000000E+00  0.00000000000E+00  0.52441292695E+03  0.16870308173E+04  0.16034537912E+04 0.  0.
        1    1    3    3  502    0  0.63239725158E+03  0.19251026564E+03 -0.21506739932E+03  0.69515499888E+03  0.50400001928E-02 0.  1.
       -1    1    3    3    0  502 -0.63239725158E+03 -0.19251026564E+03  0.73948032627E+03  0.99187581841E+03  0.50400001928E-02 0. -1.
</event>
<event>
 5   0  0.5264308E-04  0.1601341E+04  0.7818609E-02  0.8819725E-01
       -2   -1    0    0    0  501  0.00000000000E+00  0.00000000000E+00  0.47429279345E+03  0.47429279346E+03  0.25500000920E-02 0.  1.
        2   -1    0    0  501    0  0.00000000000E+00  0.00000000000E+00 -0.13516405579E+04  0.13516405580E+04  0.25500000920E-02 0. -1.
    10030    2    1    2    0    0  0.00000000000E+00  0.00000000000E+00 -0.87734776450E+03  0.18259333514E+04  0.16013411579E+04 0.  0.
        3    1    3    3  502    0  0.29113226526E+03  0.65618816365E+03 -0.84299345728E+03  0.11072393062E+04  0.10100000352E+00 0. -1.
       -3    1    3    3    0  502 -0.29113226526E+03 -0.65618816365E+03 -0.34354307218E+02  0.71869404520E+03  0.10100000352E+00 0.  1.
</event>
<event>
 5   0  0.2763895E-04  0.1612369E+04  0.7818609E-02  0.8812985E-01
        1   -1    0    0  501    0  0.00000000000E+00  0.00000000000E+00  0.44417757813E+03  0.44417757815E+03  0.50400001928E-02 0.  1.
       -1   -1    0    0    0  501  0.00000000000E+00  0.00000000000E+00 -0.14632287202E+04  0.14632287202E+04  0.50400001928E-02 0. -1.
    10030    2    1    2    0    0  0.00000000000E+00  0.00000000000E+00 -0.10190511421E+04  0.19074062984E+04  0.16123689270E+04 0.  0.
        4    1    3    3  502    0  0.61240784151E+03  0.51778832234E+03 -0.60695967513E+03  0.10057583066E+04  0.12699999809E+01 0. -1.
       -4    1    3    3    0  502 -0.61240784151E+03 -0.51778832234E+03 -0.41209146694E+03  0.90164799180E+03  0.12699999809E+01 0.  1.
</event>
<event>
 5   0  0.5264308E-04  0.1604941E+04  0.7818609E-02  0.8817518E-01
       -2   -1    0    0    0  501  0.00000000000E+00  0.00000000000E+00  0.44079750697E+03  0.44079750698E+03  0.25500000920E-02 0.  1.
        2   -1    0    0  501    0  0.00000000000E+00  0.00000000000E+00 -0.14608951486E+04  0.14608951486E+04  0.25500000920E-02 0. -1.
    10030    2    1    2    0    0  0.00000000000E+00  0.00000000000E+00 -0.10200976416E+04  0.19016926556E+04  0.16049410450E+04 0.  0.
        3    1    3    3  502    0  0.72284740111E+03 -0.26141086638E+03 -0.23696905415E+03  0.80436207592E+03  0.10100000352E+00 0.  1.
       -3    1    3    3    0  502 -0.72284740111E+03  0.26141086638E+03 -0.78312858748E+03  0.10973305797E+04  0.10100000352E+00 0. -1.
</event>
<event>
 5   0  0.2649086E-04  0.1574000E+04  0.7818609E-02  0.8836682E-01
        1   -1    0    0  501    0  0.00000000000E+00  0.00000000000E+00  0.93875961622E+03  0.93875961624E+03  0.50400001928E-02 0.  1.
       -1   -1    0    0    0  501  0.00000000000E+00  0.00000000000E+00 -0.65977414054E+03  0.65977414056E+03  0.50400001928E-02 0. -1.
    10030    2    1    2    0    0  0.00000000000E+00  0.00000000000E+00  0.27898547568E+03  0.15985337568E+04  0.15740004053E+04 0.  0.
        2    1    3    3  502    0 -0.11415513804E+03 -0.68133722036E+03 -0.24336795016E+03  0.73244778828E+03  0.25500000920E-02 0. -1.
       -2    1    3    3    0  502  0.11415513804E+03  0.68133722036E+03  0.52235342584E+03  0.86608596852E+03  0.25500000920E-02 0.  1.
</event>
<event>
 5   0  0.1908125E-04  0.1465064E+04  0.7818609E-02  0.8908023E-01
        4   -1    0    0  501    0  0.00000000000E+00  0.00000000000E+00  0.50807030938E+03  0.50807189666E+03  0.12699999809E+01 0. -1.
       -4   -1    0    0    0  501  0.00000000000E+00  0.00000000000E+00 -0.10561560149E+04  0.10561567785E+04  0.12699999809E+01 0.  1.
    10030    2    1    2    0    0  0.00000000000E+00  0.00000000000E+00 -0.54808570556E+03  0.15642286752E+04  0.14650643015E+04 0.  0.
        4    1    3    3  502    0  0.23921171411E+03  0.23583118967E+03 -0.96907540942E+03  0.10256448490E+04  0.12699999809E+01 0.  1.
       -4    1    3    3    0  502 -0.23921171411E+03 -0.23583118967E+03  0.42098970386E+03  0.53858382620E+03  0.12699999809E+01 0. -1.
</event>
<event>
 5   0  0.5264308E-04  0.1598218E+04  0.7818609E-02  0.8821644E-01
       -2   -1    0    0    0  501  0.00000000000E+00  0.00000000000E+00  0.27236532061E+03  0.27236532062E+03  0.25500000920E-02 0.  1.
        2   -1    0    0  501    0  0.00000000000E+00  0.00000000000E+00 -0.23445526304E+04  0.23445526304E+04  0.25500000920E-02 0. -1.
    10030    2    1    2    0    0  0.00000000000E+00  0.00000000000E+00 -0.20721873098E+04  0.26169179510E+04  0.15982175432E+04 0.  0.
        3    1    3    3  502    0  0.11095160716E+03 -0.69051530312E+03 -0.16690981392E+04  0.18096989394E+04  0.10100000352E+00 0. -1.
       -3    1    3    3    0  502 -0.11095160716E+03  0.69051530312E+03 -0.40308917056E+03  0.80721901155E+03  0.10100000352E+00 0.  1.
</event>
<event>
 5   0  0.2649086E-04  0.1600494E+04  0.7818609E-02  0.8820244E-01
       -1   -1    0    0    0  501  0.00000000000E+00  0.00000000000E+00  0.42222318969E+03  0.42222318972E+03  0.50400001928E-02 0. -1.
        1   -1    0    0  501    0  0.00000000000E+00  0.00000000000E+00 -0.15167229576E+04  0.15167229576E+04  0.50400001928E-02 0.  1.
    10030    2    1    2    0    0  0.00000000000E+00  0.00000000000E+00 -0.10944997679E+04  0.19389461473E+04  0.16004944299E+04 0.  0.
        2    1    3    3  502    0 -0.31918971536E+03 -0.44919782058E+03 -0.12502503483E+04  0.13663040254E+04  0.25500000920E-02 0.  1.
       -2    1    3    3    0  502  0.31918971536E+03  0.44919782058E+03  0.15575058045E+03  0.57264212186E+03  0.25500000920E-02 0. -1.
</event>
<event>
 5   0  0.2649086E-04  0.1593966E+04  0.7818609E-02  0.8824263E-01
       -1   -1    0    0    0  501  0.00000000000E+00  0.00000000000E+00  0.68337860070E+03  0.68337860072E+03  0.50400001928E-02 0.  1.
        1   -1    0    0  501    0  0.00000000000E+00  0.00000000000E+00 -0.92947327930E+03  0.92947327931E+03  0.50400001928E-02 0. -1.
    10030    2    1    2    0    0  0.00000000000E+00  0.00000000000E+00 -0.24609467860E+03  0.16128518800E+04  0.15939663096E+04 0.  0.
        2    1    3    3  502    0 -0.11808357040E+03 -0.75816597747E+03 -0.34105957695E+03  0.83969102295E+03  0.25500000920E-02 0.  1.
       -2    1    3    3    0  502  0.11808357040E+03  0.75816597747E+03  0.94964898355E+02  0.77316085707E+03  0.25500000920E-02 0. -1.
</event>
<event>
 5   0  0.1908125E-04  0.1602106E+04  0.7818609E-02  0.8819256E-01
        3   -1    0    0  501    0  0.00000000000E+00  0.00000000000E+00  0.61679206586E+03  0.61679207413E+03  0.10100000352E+00 0. -1.
       -3   -1    0    0    0  501  0.00000000000E+00  0.00000000000E+00 -0.10403596035E+04  0.10403596084E+04  0.10100000352E+00 0.  1.
    10030    2    1    2    0    0  0.00000000000E+00  0.00000000000E+00 -0.42356753766E+03  0.16571516825E+04  0.16021055646E+04 0.  0.
        2    1    3    3  502    0  0.28358626909E+03 -0.43774671857E+03  0.41708771992E+03  0.66783645284E+03  0.25500000920E-02 0. -1.
       -2    1    3    3    0  502 -0.28358626909E+03  0.43774671857E+03 -0.84065525758E+03  0.98931522971E+03  0.25500000920E-02 0.  1.
</event>
<event>
 5   0  0.5315984E-04  0.1604903E+04  0.7818609E-02  0.8817542E-01
       -2   -1    0    0    0  501  0.00000000000E+00  0.00000000000E+00  0.50213836932E+03  0.50213836933E+03  0.25500000920E-02 0. -1.
        2   -1    0    0  501    0  0.00000000000E+00  0.00000000000E+00 -0.12823724841E+04  0.12823724841E+04  0.25500000920E-02 0.  1.
    10030    2    1    2    0    0  0.00000000000E+00  0.00000000000E+00 -0.78023411482E+03  0.17845108535E+04  0.16049030227E+04 0.  0.
        2    1    3    3  502    0 -0.48603650190E+03 -0.10109162096E+03 -0.10911309677E+04  0.11987567667E+04  0.25500000920E-02 0.  1.
       -2    1    3    3    0  502  0.48603650190E+03  0.10109162096E+03  0.31089685290E+03  0.58575408676E+03  0.25500000920E-02 0. -1.
</event>
<event>
 5   0  0.5315984E-04  0.1333736E+04  0.7818609E-02  0.9003232E-01
        2   -1    0    0  501    0  0.00000000000E+00  0.00000000000E+00  0.71348464976E+03  0.71348464976E+03  0.25500000920E-02 0. -1.
       -2   -1    0    0    0  501  0.00000000000E+00  0.00000000000E+00 -0.62329736026E+03  0.62329736026E+03  0.25500000920E-02 0.  1.
    10030    2    1    2    0    0  0.00000000000E+00  0.00000000000E+00  0.90187289499E+02  0.13367820100E+04  0.13337362540E+04 0.  0.
        2    1    3    3  502    0 -0.75117111159E+02 -0.42005022349E+03  0.55873669979E+03  0.70304442985E+03  0.25500000920E-02 0. -1.
       -2    1    3    3    0  502  0.75117111159E+02  0.42005022349E+03 -0.46854941029E+03  0.63373758018E+03  0.25500000920E-02 0.  1.
</event>
<event>
 5   0  0.2796994E-04  0.1638292E+04  0.7818609E-02  0.8797363E-01
        1   -1    0    0  501    0  0.00000000000E+00  0.00000000000E+00  0.20299343889E+04  0.20299343889E+04  0.50400001928E-02 0.  1.
       -1   -1    0    0    0  501  0.00000000000E+00  0.00000000000E+00 -0.33055253952E+03  0.33055253956E+03  0.50400001928E-02 0. -1.
    10030    2    1    2    0    0  0.00000000000E+00  0.00000000000E+00  0.16993818494E+04  0.23604869284E+04  0.16382917534E+04 0.  0.
        3    1    3    3  502    0  0.17935590596E+03  0.23602506410E+03 -0.25055725405E+03  0.38814342664E+03  0.10100000352E+00 0. -1.
       -3    1    3    3    0  502 -0.17935590596E+03 -0.23602506410E+03  0.19499391034E+04  0.19723435018E+04  0.10100000352E+00 0.  1.
</event>
<event>
 5   0  0.5083831E-04  0.1444715E+04  0.7818609E-02  0.8922072E-01
       -2   -1    0    0    0  501  0.00000000000E+00  0.00000000000E+00  0.58312586448E+03  0.58312586449E+03  0.25500000920E-02 0.  1.
        2   -1    0    0  501    0  0.00000000000E+00  0.00000000000E+00 -0.89483366085E+03  0.89483366086E+03  0.25500000920E-02 0. -1.
    10030    2    1    2    0    0  0.00000000000E+00  0.00000000000E+00 -0.31170779637E+03  0.14779595253E+04  0.14447154074E+04 0.  0.
        4    1    3    3  502    0  0.17614435926E+03  0.60674052694E+02 -0.86983255266E+03  0.88956082340E+03  0.12699999809E+01 0. -1.
       -4    1    3    3    0  502 -0.17614435926E+03 -0.60674052694E+02  0.55812475629E+03  0.58839870194E+03  0.12699999809E+01 0.  1.
</event>
<event>
 5   0  0.2689675E-04  0.1599246E+04  0.7818609E-02  0.8821012E-01
       -1   -1    0    0    0  501  0.00000000000E+00  0.00000000000E+00  0.13538313283E+04  0.13538313283E+04  0.50400001928E-02 0. -1.
        1   -1    0    0  501    0  0.00000000000E+00  0.00000000000E+00 -0.47228675100E+03  0.47228675102E+03  0.50400001928E-02 0.  1.
    10030    2    1    2    0    0  0.00000000000E+00  0.00000000000E+00  0.88154457733E+03  0.18261180794E+04  0.15992455715E+04 0.  0.
        1    1    3    3  502    0  0.13013572498E+02  0.70211466697E+03  0.40756885076E+01  0.70224708608E+03  0.50400001928E-02 0.  1.
       -1    1    3    3    0  502 -0.13013572498E+02 -0.70211466697E+03  0.87746888882E+03  0.11238709933E+04  0.50400001928E-02 0. -1.
</event>
<event>
 5   0  0.5315984E-04  0.1608826E+04  0.7818609E-02  0.8815144E-01
       -2   -1    0    0    0  501  0.00000000000E+00  0.00000000000E+00  0.90173730786E+03  0.90173730786E+03  0.25500000920E-02 0. -1.
        2   -1    0    0  501    0  0.00000000000E+00  0.00000000000E+00 -0.71759248113E+03  0.71759248113E+03  0.25500000920E-02 0.  1.
    10030    2    1    2    0    0  0.00000000000E+00  0.00000000000E+00  0.18414482673E+03  0.16193297890E+04  0.16088255494E+04 0.  0.
        2    1    3    3  502    0 -0.22868088150E+03  0.14151474518E+03 -0.67100582488E+03  0.72289016157E+03  0.25500000920E-02 0.  1.
       -2    1    3    3    0  502  0.22868088150E+03 -0.14151474518E+03  0.85515065161E+03  0.89643962743E+03  0.25500000920E-02 0. -1.
</event>
<event>
 5   0  0.2730707E-04  0.1610827E+04  0.7818609E-02  0.8813924E-01
        1   -1    0    0  501    0  0.00000000000E+00  0.00000000000E+00  0.71818317103E+03  0.71818317105E+03  0.50400001928E-02 0. -1.
       -1   -1    0    0    0  501  0.00000000000E+00  0.00000000000E+00 -0.90323864106E+03  0.90323864107E+03  0.50400001928E-02 0.  1.
    10030    2    1    2    0    0  0.00000000000E+00  0.00000000000E+00 -0.18505547003E+03  0.16214218121E+04  0.16108268578E+04 0.  0.
        5    1    3    3  502    0 -0.67931428938E+03 -0.88483219740E+02  0.33378066503E+03  0.76205564513E+03  0.46999998093E+01 0. -1.
       -5    1    3    3    0  502  0.67931428938E+03  0.88483219740E+02 -0.51883613506E+03  0.85936616699E+03  0.46999998093E+01 0.  1.
</event>
<event>
 5   0  0.5131239E-04  0.1553603E+04  0.7818609E-02  0.8849570E-01
        2   -1    0    0  501    0  0.00000000000E+00  0.00000000000E+00  0.92937626271E+03  0.92937626271E+03  0.25500000920E-02 0. -1.
       -2   -1    0    0    0  501  0.00000000000E+00  0.00000000000E+00 -0.64927443647E+03  0.64927443647E+03  0.25500000920E-02 0.  1.
    10030    2    1    2    0    0  0.00000000000E+00  0.00000000000E+00  0.28010182624E+03  0.15786506992E+04  0.15536025866E+04 0.  0.
        1    1    3    3  502    0  0.74331102632E+03 -0.13174986193E+03 -0.46071410112E+02  0.75630144971E+03  0.50400001928E-02 0.  1.
       -1    1    3    3    0  502 -0.74331102632E+03  0.13174986193E+03  0.32617323635E+03  0.82234924947E+03  0.50400001928E-02 0. -1.
</event>
<event>
 5   0  0.1908125E-04  0.1437457E+04  0.7818609E-02  0.8927143E-01
        4   -1    0    0  501    0  0.00000000000E+00  0.00000000000E+00  0.73987980651E+03  0.73988089648E+03  0.12699999809E+01 0.  1.
       -4   -1    0    0    0  501  0.00000000000E+00  0.00000000000E+00 -0.69817952424E+03  0.69818067932E+03  0.12699999809E+01 0. -1.
    10030    2    1    2    0    0  0.00000000000E+00  0.00000000000E+00  0.41700282266E+02  0.14380615758E+04  0.14374568454E+04 0.  0.
        4    1    3    3  502    0 -0.27094302964E+03  0.44508777622E+03  0.51608938576E+03  0.73339151948E+03  0.12699999809E+01 0.  1.
       -4    1    3    3    0  502  0.27094302964E+03 -0.44508777622E+03 -0.47438910350E+03  0.70467005632E+03  0.12699999809E+01 0. -1.
</event>
<event>
 5   0  0.2689675E-04  0.1589789E+04  0.7818609E-02  0.8826846E-01
       -1   -1    0    0    0  501  0.00000000000E+00  0.00000000000E+00  0.38682143360E+03  0.38682143363E+03  0.50400001928E-02 0.  1.
        1   -1    0    0  501    0  0.00000000000E+00  0.00000000000E+00 -0.16334600012E+04  0.16334600012E+04  0.50400001928E-02 0. -1.
    10030    2    1    2    0    0  0.00000000000E+00  0.00000000000E+00 -0.12466385676E+04  0.20202814349E+04  0.15897890922E+04 0.  0.
        1    1    3    3  502    0 -0.54100464526E+03 -0.31269979603E+03 -0.12476750588E+04  0.13954068371E+04  0.50400001928E-02 0. -1.
       -1    1    3    3    0  502  0.54100464526E+03  0.31269979603E+03  0.10364911461E+01  0.62487459779E+03  0.50400001928E-02 0.  1.
</event>
<event>
 5   0  0.2763895E-04  0.1624031E+04  0.7818609E-02  0.8805919E-01
       -1   -1    0    0    0  501  0.00000000000E+00  0.00000000000E+00  0.49998117284E+03  0.49998117287E+03  0.50400001928E-02 0.  1.
        1   -1    0    0  501    0  0.00000000000E+00  0.00000000000E+00 -0.13187883834E+04  0.13187883835E+04  0.50400001928E-02 0. -1.
    10030    2    1    2    0    0  0.00000000000E+00  0.00000000000E+00 -0.81880721060E+03  0.18187695563E+04  0.16240312346E+04 0.  0.
        4    1    3    3  502    0  0.39209013643E+03 -0.18746238998E+03  0.35876919401E+03  0.56355458495E+03  0.12699999809E+01 0.  1.
       -4    1    3    3    0  502 -0.39209013643E+03  0.18746238998E+03 -0.11775764046E+04  0.12552149714E+04  0.12699999809E+01 0. -1.
</event>
<event>
 5   0  0.2763895E-04  0.1673742E+04  0.7818609E-02  0.8776484E-01
       -1   -1    0    0    0  501  0.00000000000E+00  0.00000000000E+00  0.15785252879E+04  0.15785252879E+04  0.50400001928E-02 0.  1.
        1   -1    0    0  501    0  0.00000000000E+00  0.00000000000E+00 -0.44367550310E+03  0.44367550313E+03  0.50400001928E-02 0. -1.
    10030    2    1    2    0    0  0.00000000000E+00  0.00000000000E+00  0.11348497848E+04  0.20222007910E+04  0.16737419171E+04 0.  0.
        4    1    3    3  502    0 -0.16810518163E+03 -0.81971133388E+03  0.58296156915E+03  0.10198195071E+04  0.12699999809E+01 0. -1.
       -4    1    3    3    0  502  0.16810518163E+03  0.81971133388E+03  0.55188821564E+03  0.10023812840E+04  0.12699999809E+01 0.  1.
</event>
<event>
 5   0  0.5315984E-04  0.1603320E+04  0.7818609E-02  0.8818511E-01
       -2   -1    0    0    0  501  0.00000000000E+00  0.00000000000E+00  0.33421579632E+03  0.33421579633E+03  0.25500000920E-02 0.  1.
        2   -1    0    0  501    0  0.00000000000E+00  0.00000000000E+00 -0.19228862545E+04  0.19228862545E+04  0.25500000920E-02 0. -1.
    10030    2    1    2    0    0  0.00000000000E+00  0.00000000000E+00 -0.15886704582E+04  0.22571020509E+04  0.16033202560E+04 0.  0.
        2    1    3    3  502    0 -0.66285792857E+03  0.32717947104E+03 -0.12310425715E+04  0.14359292645E+04  0.25500000920E-02 0. -1.
       -2    1    3    3    0  502  0.66285792857E+03 -0.32717947104E+03 -0.35762788671E+03  0.82117278638E+03  0.25500000920E-02 0.  1.
</event>
<event>
 5   0  0.5315984E-04  0.1646161E+04  0.7818609E-02  0.8792681E-01
        2   -1    0    0  501    0  0.00000000000E+00  0.00000000000E+00  0.11067861942E+04  0.11067861942E+04  0.25500000920E-02 0.  1.
       -2   -1    0    0    0  501  0.00000000000E+00  0.00000000000E+00 -0.61209820711E+03  0.61209820712E+03  0.25500000920E-02 0. -1.
    10030    2    1    2    0    0  0.00000000000E+00  0.00000000000E+00  0.49468798709E+03  0.17188844013E+04  0.16461614078E+04 0.  0.
        2    1    3    3  502    0 -0.66604493079E+03  0.28857928401E+03  0.65251707461E+03  0.97604937665E+03  0.25500000920E-02 0.  1.
       -2    1    3    3    0  502  0.66604493079E+03 -0.28857928401E+03 -0.15782908753E+03  0.74283502467E+03  0.25500000920E-02 0. -1.
</event>
<event>
 5   0  0.5083831E-04  0.1585486E+04  0.7818609E-02  0.8829514E-01
       -2   -1    0    0    0  501  0.00000000000E+00  0.00000000000E+00  0.10728361835E+04  0.10728361835E+04  0.25500000920E-02 0.  1.
        2   -1    0    0  501    0  0.00000000000E+00  0.00000000000E+00 -0.58577594609E+03  0.58577594610E+03  0.25500000920E-02 0. -1.
    10030    2    1    2    0    0  0.00000000000E+00  0.00000000000E+00  0.48706023740E+03  0.16586121296E+04  0.15854862098E+04 0.  0.
        4    1    3    3  502    0  0.17047817513E+03  0.56177605904E+03  0.80081464671E+03  0.99295561834E+03  0.12699999809E+01 0.  1.
       -4    1    3    3    0  502 -0.17047817513E+03 -0.56177605904E+03 -0.31375440931E+03  0.66565651125E+03  0.12699999809E+01 0. -1.
</event>
<event>
 5   0  0.5381164E-04  0.1599353E+04  0.7818609E-02  0.8820946E-01
       -2   -1    0    0    0  501  0.00000000000E+00  0.00000000000E+00  0.32704342764E+03  0.32704342765E+03  0.25500000920E-02 0. -1.
        2   -1    0    0  501    0  0.00000000000E+00  0.00000000000E+00 -0.19553440530E+04  0.19553440530E+04  0.25500000920E-02 0.  1.
    10030    2    1    2    0    0  0.00000000000E+00  0.00000000000E+00 -0.16283006254E+04  0.22823874807E+04  0.15993528958E+04 0.  0.
        5    1    3    3  502    0 -0.40696272366E+03 -0.68761054169E+03 -0.76827462053E+03  0.11084651091E+04  0.46999998093E+01 0. -1.
       -5    1    3    3    0  502  0.40696272366E+03  0.68761054169E+03 -0.86002600483E+03  0.11739223716E+04  0.46999998093E+01 0.  1.
</event>
<event>
 5   0  0.5315984E-04  0.1593840E+04  0.7818609E-02  0.8824341E-01
       -2   -1    0    0    0  501  0.00000000000E+00  0.00000000000E+00  0.32278817263E+03  0.32278817264E+03  0.25500000920E-02 0.  1.
        2   -1    0    0  501    0  0.00000000000E+00  0.00000000000E+00 -0.19674869153E+04  0.19674869153E+04  0.25500000920E-02 0. -1.
    10030    2    1    2    0    0  0.00000000000E+00  0.00000000000E+00 -0.16446987427E+04  0.22902750880E+04  0.15938400247E+04 0.  0.
        2    1    3    3  502    0 -0.36166630337E+03 -0.23239957791E+03  0.14187732256E+03  0.45270437757E+03  0.25500000920E-02 0.  1.
       -2    1    3    3    0  502  0.36166630337E+03  0.23239957791E+03 -0.17865760653E+04  0.18375707104E+04  0.25500000920E-02 0. -1.
</event>
<event>
 5   0  0.5131239E-04  0.1584095E+04  0.7818609E-02  0.8830379E-01
        2   -1    0    0  501    0  0.00000000000E+00  0.00000000000E+00  0.25325250894E+04  0.25325250894E+04  0.25500000920E-02 0. -1.
       -2   -1    0    0    0  501  0.00000000000E+00  0.00000000000E+00 -0.24771285529E+03  0.24771285531E+03  0.25500000920E-02 0.  1.
    10030    2    1    2    0    0  0.00000000000E+00  0.00000000000E+00  0.22848122341E+04  0.27802379447E+04  0.15840947207E+04 0.  0.
        1    1    3    3  502    0 -0.62637481989E+03 -0.27240396709E+03  0.18461747584E+04  0.19684792543E+04  0.50400001928E-02 0. -1.
       -1    1    3    3    0  502  0.62637481989E+03  0.27240396709E+03  0.43863747577E+03  0.81175869041E+03  0.50400001928E-02 0.  1.
</event>
<event>
 5   0  0.5083831E-04  0.1560853E+04  0.7818609E-02  0.8844965E-01
       -2   -1    0    0    0  501  0.00000000000E+00  0.00000000000E+00  0.44399431567E+03  0.44399431568E+03  0.25500000920E-02 0.  1.
        2   -1    0    0  501    0  0.00000000000E+00  0.00000000000E+00 -0.13717867765E+04  0.13717867765E+04  0.25500000920E-02 0. -1.
    10030    2    1    2    0    0  0.00000000000E+00  0.00000000000E+00 -0.92779246082E+03  0.18157810922E+04  0.15608530118E+04 0.  0.
        4    1    3    3  502    0 -0.21828186684E+03  0.27284451304E+03 -0.12757051939E+04  0.13226928806E+04  0.12699999809E+01 0. -1.
       -4    1    3    3    0  502  0.21828186684E+03 -0.27284451304E+03  0.34791273307E+03  0.49308821160E+03  0.12699999809E+01 0.  1.
</event>
<event>
 5   0  0.5083831E-04  0.1564189E+04  0.7818609E-02  0.8842855E-01
       -2   -1    0    0    0  501  0.00000000000E+00  0.00000000000E+00  0.35834035442E+03  0.35834035443E+03  0.25500000920E-02 0. -1.
        2   -1    0    0  501    0  0.00000000000E+00  0.00000000000E+00 -0.17069579532E+04  0.17069579532E+04  0.25500000920E-02 0.  1.
    10030    2    1    2    0    0  0.00000000000E+00  0.00000000000E+00 -0.13486175988E+04  0.20652983076E+04  0.15641891419E+04 0.  0.
        4    1    3    3  502    0 -0.25701004513E+02  0.39296549572E+03  0.21787783539E+03  0.45006086979E+03  0.12699999809E+01 0. -1.
       -4    1    3    3    0  502  0.25701004513E+02 -0.39296549572E+03 -0.15664954341E+04  0.16152374378E+04  0.12699999809E+01 0.  1.
</event>
<event>
 5   0  0.5381164E-04  0.1610359E+04  0.7818609E-02  0.8814209E-01
       -2   -1    0    0    0  501  0.00000000000E+00  0.00000000000E+00  0.31185813731E+03  0.31185813732E+03  0.25500000920E-02 0. -1.
        2   -1    0    0  501    0  0.00000000000E+00  0.00000000000E+00 -0.20788746897E+04  0.20788746897E+04  0.25500000920E-02 0.  1.
    10030    2    1    2    0    0  0.00000000000E+00  0.00000000000E+00 -0.17670165524E+04  0.23907328270E+04  0.16103589519E+04 0.  0.
        5    1    3    3  502    0 -0.22678434782E+03 -0.52047899194E+03 -0.17311105071E+04  0.18218384119E+04  0.46999998093E+01 0.  1.
       -5    1    3    3    0  502  0.22678434782E+03  0.52047899194E+03 -0.35906045337E+02  0.56889441512E+03  0.46999998093E+01 0. -1.
</event>
<event>
 5   0  0.2763895E-04  0.1607943E+04  0.7818609E-02  0.8815683E-01
       -1   -1    0    0    0  501  0.00000000000E+00  0.00000000000E+00  0.52456632007E+03  0.52456632010E+03  0.50400001928E-02 0. -1.
        1   -1    0    0  501    0  0.00000000000E+00  0.00000000000E+00 -0.12321997239E+04  0.12321997239E+04  0.50400001928E-02 0.  1.
    10030    2    1    2    0    0  0.00000000000E+00  0.00000000000E+00 -0.70763340385E+03  0.17567660440E+04  0.16079433756E+04 0.  0.
        4    1    3    3  502    0  0.57835897797E+03  0.19599920639E+03 -0.92514451942E+03  0.11085164821E+04  0.12699999809E+01 0.  1.
       -4    1    3    3    0  502 -0.57835897797E+03 -0.19599920639E+03  0.21751111556E+03  0.64824956197E+03  0.12699999809E+01 0. -1.
</event>
<event>
 5   0  0.5381164E-04  0.1611391E+04  0.7818609E-02  0.8813580E-01
       -2   -1    0    0    0  501  0.00000000000E+00  0.00000000000E+00  0.83361716471E+03  0.83361716471E+03  0.25500000920E-02 0.  1.
        2   -1    0    0  501    0  0.00000000000E+00  0.00000000000E+00 -0.77870952143E+03  0.77870952143E+03  0.25500000920E-02 0. -1.
    10030    2    1    2    0    0  0.00000000000E+00  0.00000000000E+00  0.54907643278E+02  0.16123266861E+04  0.16113914774E+04 0.  0.
        5    1    3    3  502    0 -0.53761355798E+01  0.74143826426E+03 -0.28794957194E+03  0.79542230829E+03  0.46999998093E+01 0. -1.
       -5    1    3    3    0  502  0.53761355798E+01 -0.74143826426E+03  0.34285721521E+03  0.81690437786E+03  0.46999998093E+01 0.  1.
</event>
<event>
 5   0  0.5264308E-04  0.1606312E+04  0.7818609E-02  0.8816680E-01
        2   -1    0    0  501    0  0.00000000000E+00  0.00000000000E+00  0.68210972901E+03  0.68210972902E+03  0.25500000920E-02 0. -1.
       -2   -1    0    0    0  501  0.00000000000E+00  0.00000000000E+00 -0.94568274945E+03  0.94568274945E+03  0.25500000920E-02 0.  1.
    10030    2    1    2    0    0  0.00000000000E+00  0.00000000000E+00 -0.26357302044E+03  0.16277924785E+04  0.16063118053E+04 0.  0.
        3    1    3    3  502    0  0.62918702942E+03  0.29959467064E+03 -0.53640796736E+03  0.87941275992E+03  0.10100000352E+00 0.  1.
       -3    1    3    3    0  502 -0.62918702942E+03 -0.29959467064E+03  0.27283494692E+03  0.74837971854E+03  0.10100000352E+00 0. -1.
</event>
<event>
 5   0  0.1908125E-04  0.1605990E+04  0.7818609E-02  0.8816877E-01
        4   -1    0    0  501    0  0.00000000000E+00  0.00000000000E+00  0.42290340874E+03  0.42290531567E+03  0.12699999809E+01 0. -1.
       -4   -1    0    0    0  501  0.00000000000E+00  0.00000000000E+00 -0.15246945963E+04  0.15246951252E+04  0.12699999809E+01 0.  1.
    10030    2    1    2    0    0  0.00000000000E+00  0.00000000000E+00 -0.11017911875E+04  0.19476004409E+04  0.16059899303E+04 0.  0.
        5    1    3    3  502    0  0.26493981242E+03 -0.45264468762E+03 -0.12882578348E+04  0.13909387680E+04  0.46999998093E+01 0.  1.
       -5    1    3    3    0  502 -0.26493981242E+03  0.45264468762E+03  0.18646664730E+03  0.55666167282E+03  0.46999998093E+01 0. -1.
</event>
<event>
 5   0  0.2689675E-04  0.1608981E+04  0.7818609E-02  0.8815050E-01
       -1   -1    0    0    0  501  0.00000000000E+00  0.00000000000E+00  0.93631891807E+03  0.93631891808E+03  0.50400001928E-02 0. -1.
        1   -1    0    0  501    0  0.00000000000E+00  0.00000000000E+00 -0.69122274178E+03  0.69122274180E+03  0.50400001928E-02 0.  1.
    10030    2    1    2    0    0  0.00000000000E+00  0.00000000000E+00  0.24509617628E+03  0.16275416599E+04  0.16089809567E+04 0.  0.
        1    1    3    3  502    0  0.30801393379E+03  0.43985099593E+02  0.87299417668E+03  0.92678266328E+03  0.50400001928E-02 0. -1.
       -1    1    3    3    0  502 -0.30801393379E+03 -0.43985099593E+02 -0.62789800040E+03  0.70075899661E+03  0.50400001928E-02 0.  1.
</event>
<event>
 5   0  0.2730707E-04  0.1607167E+04  0.7818609E-02  0.8816157E-01
       -1   -1    0    0    0  501  0.00000000000E+00  0.00000000000E+00  0.70836143351E+03  0.70836143353E+03  0.50400001928E-02 0. -1.
        1   -1    0    0  501    0  0.00000000000E+00  0.00000000000E+00 -0.91160634494E+03  0.91160634496E+03  0.50400001928E-02 0.  1.
    10030    2    1    2    0    0  0.00000000000E+00  0.00000000000E+00 -0.20324491143E+03  0.16199677785E+04  0.16071674179E+04 0.  0.
        5    1    3    3  502    0 -0.29071343078E+03  0.35649766195E+03 -0.76574780437E+03  0.89330659446E+03  0.46999998093E+01 0.  1.
       -5    1    3    3    0  502  0.29071343078E+03 -0.35649766195E+03  0.56250289294E+03  0.72666118403E+03  0.46999998093E+01 0. -1.
</event>
<event>
 5   0  0.2730707E-04  0.1680985E+04  0.7818609E-02  0.8772284E-01
        1   -1    0    0  501    0  0.00000000000E+00  0.00000000000E+00  0.15138995541E+04  0.15138995542E+04  0.50400001928E-02 0.  1.
       -1   -1    0    0    0  501  0.00000000000E+00  0.00000000000E+00 -0.46662767279E+03  0.46662767282E+03  0.50400001928E-02 0. -1.
    10030    2    1    2    0    0  0.00000000000E+00  0.00000000000E+00  0.10472718814E+04  0.19805272270E+04  0.16809847421E+04 0.  0.
        5    1    3    3  502    0 -0.24704299387E+03  0.41527805019E+03 -0.28659819320E+03  0.56182445135E+03  0.46999998093E+01 0. -1.
       -5    1    3    3    0  502  0.24704299387E+03 -0.41527805019E+03  0.13338700746E+04  0.14187027756E+04  0.46999998093E+01 0.  1.
</event>
<event>
 5   0  0.5131239E-04  0.1606336E+04  0.7818609E-02  0.8816665E-01
        2   -1    0    0  501    0  0.00000000000E+00  0.00000000000E+00  0.55609821705E+03  0.55609821705E+03  0.25500000920E-02 0. -1.
       -2   -1    0    0    0  501  0.00000000000E+00  0.00000000000E+00 -0.11600093222E+04  0.11600093222E+04  0.25500000920E-02 0.  1.
    10030    2    1    2    0    0  0.00000000000E+00  0.00000000000E+00 -0.60391110520E+03  0.17161075393E+04  0.16063363482E+04 0.  0.
        1    1    3    3  502    0 -0.52710439157E+02  0.33588968682E+03 -0.10793336827E+04  0.11316189600E+04  0.50400001928E-02 0.  1.
       -1    1    3    3    0  502  0.52710439157E+02 -0.33588968682E+03  0.47542257747E+03  0.58448857928E+03  0.50400001928E-02 0. -1.
</event>
<event>
 5   0  0.5131239E-04  0.1593564E+04  0.7818609E-02  0.8824511E-01
       -2   -1    0    0    0  501  0.00000000000E+00  0.00000000000E+00  0.79215808121E+03  0.79215808122E+03  0.25500000920E-02 0.  1.
        2   -1    0    0  501    0  0.00000000000E+00  0.00000000000E+00 -0.80143338121E+03  0.80143338121E+03  0.25500000920E-02 0. -1.
    10030    2    1    2    0    0  0.00000000000E+00  0.00000000000E+00 -0.92752999976E+01  0.15935914624E+04  0.15935644693E+04 0.  0.
        1    1    3    3  502    0 -0.18387672826E+03  0.77522839373E+03  0.38604831134E+01  0.79674626889E+03  0.50400001928E-02 0.  1.
       -1    1    3    3    0  502  0.18387672826E+03 -0.77522839373E+03 -0.13135783111E+02  0.79684519354E+03  0.50400001928E-02 0. -1.
</event>
<event>
 5   0  0.2763895E-04  0.1603567E+04  0.7818609E-02  0.8818360E-01
       -1   -1    0    0    0  501  0.00000000000E+00  0.00000000000E+00  0.38847046761E+03  0.38847046764E+03  0.50400001928E-02 0. -1.
        1   -1    0    0  501    0  0.00000000000E+00  0.00000000000E+00 -0.16548410402E+04  0.16548410402E+04  0.50400001928E-02 0.  1.
    10030    2    1    2    0    0  0.00000000000E+00  0.00000000000E+00 -0.12663705726E+04  0.20433115078E+04  0.16035671146E+04 0.  0.
        4    1    3    3  502    0 -0.42328584743E+03 -0.48482609925E+03 -0.23911977709E+02  0.64405019271E+03  0.12699999809E+01 0. -1.
       -4    1    3    3    0  502  0.42328584743E+03  0.48482609925E+03 -0.12424585948E+04  0.13992613151E+04  0.12699999809E+01 0.  1.
</event>
<event>
 5   0  0.5315984E-04  0.1664752E+04  0.7818609E-02  0.8781727E-01
       -2   -1    0    0    0  501  0.00000000000E+00  0.00000000000E+00  0.95544886309E+03  0.95544886310E+03  0.25500000920E-02 0. -1.
        2   -1    0    0  501    0  0.00000000000E+00  0.00000000000E+00 -0.72515597960E+03  0.72515597960E+03  0.25500000920E-02 0.  1.
    10030    2    1    2    0    0  0.00000000000E+00  0.00000000000E+00  0.23029288349E+03  0.16806048427E+04  0.16647515806E+04 0.  0.
        2    1    3    3  502    0  0.52418135769E+03 -0.54736505442E+02  0.76555445739E+03  0.92942767766E+03  0.25500000920E-02 0. -1.
       -2    1    3    3    0  502 -0.52418135769E+03  0.54736505442E+02 -0.53526157389E+03  0.75117716504E+03  0.25500000920E-02 0.  1.
</event>
<event>
 5   0  0.1908125E-04  0.1587940E+04  0.7818609E-02  0.8827991E-01
        3   -1    0    0  501    0  0.00000000000E+00  0.00000000000E+00  0.69503566041E+03  0.69503566775E+03  0.10100000352E+00 0.  1.
       -3   -1    0    0    0  501  0.00000000000E+00  0.00000000000E+00 -0.90698732143E+03  0.90698732705E+03  0.10100000352E+00 0. -1.
    10030    2    1    2    0    0  0.00000000000E+00  0.00000000000E+00 -0.21195166101E+03  0.16020229948E+04  0.15879402285E+04 0.  0.
        3    1    3    3  502    0  0.50508138990E+00 -0.70119919978E+03  0.26976231316E+03  0.75130039843E+03  0.10100000352E+00 0.  1.
       -3    1    3    3    0  502 -0.50508138990E+00  0.70119919978E+03 -0.48171397417E+03  0.85072259638E+03  0.10100000352E+00 0. -1.
</event>
<event>
 5   0  0.5381164E-04  0.1598366E+04  0.7818609E-02  0.8821552E-01
       -2   -1    0    0    0  501  0.00000000000E+00  0.00000000000E+00  0.24744667899E+03  0.24744667900E+03  0.25500000920E-02 0. -1.
        2   -1    0    0  501    0  0.00000000000E+00  0.00000000000E+00 -0.25811359810E+04  0.25811359810E+04  0.25500000920E-02 0.  1.
    10030    2    1    2    0    0  0.00000000000E+00  0.00000000000E+00 -0.23336893020E+04  0.28285826600E+04  0.15983660739E+04 0.  0.
        5    1    3    3  502    0 -0.58129422758E+03  0.45867293078E+03 -0.16988880380E+04  0.18532475529E+04  0.46999998093E+01 0.  1.
       -5    1    3    3    0  502  0.58129422758E+03 -0.45867293078E+03 -0.63480126397E+03  0.97533510712E+03  0.46999998093E+01 0. -1.
</event>
<event>
 5   0  0.5381164E-04  0.1605124E+04  0.7818609E-02  0.8817407E-01
       -2   -1    0    0    0  501  0.00000000000E+00  0.00000000000E+00  0.80951720419E+03  0.80951720419E+03  0.25500000920E-02 0.  1.
        2   -1    0    0  501    0  0.00000000000E+00  0.00000000000E+00 -0.79566618863E+03  0.79566618863E+03  0.25500000920E-02 0. -1.
    10030    2    1    2    0    0  0.00000000000E+00  0.00000000000E+00  0.13851015562E+02  0.16051833928E+04  0.16051236320E+04 0.  0.
        5    1    3    3  502    0  0.47896393659E+03  0.41901321513E+03  0.49592720122E+03  0.80681125793E+03  0.46999998093E+01 0.  1.
       -5    1    3    3    0  502 -0.47896393659E+03 -0.41901321513E+03 -0.48207618566E+03  0.79837213490E+03  0.46999998093E+01 0. -1.
</event>
<event>
 5   0  0.2689675E-04  0.1617028E+04  0.7818609E-02  0.8810155E-01
       -1   -1    0    0    0  501  0.00000000000E+00  0.00000000000E+00  0.47057586670E+03  0.47057586673E+03  0.50400001928E-02 0. -1.
        1   -1    0    0  501    0  0.00000000000E+00  0.00000000000E+00 -0.13891382759E+04  0.13891382759E+04  0.50400001928E-02 0.  1.
    10030    2    1    2    0    0  0.00000000000E+00  0.00000000000E+00 -0.91856240921E+03  0.18597141426E+04  0.16170280742E+04 0.  0.
        1    1    3    3  502    0 -0.10882819677E+03 -0.22464207898E+03 -0.13437135836E+04  0.13667018090E+04  0.50400001928E-02 0.  1.
       -1    1    3    3    0  502  0.10882819677E+03  0.22464207898E+03  0.42515117434E+03  0.49301233365E+03  0.50400001928E-02 0. -1.
</event>
<event>
 5   0  0.2763895E-04  0.1522590E+04  0.7818609E-02  0.8869568E-01
       -1   -1    0    0    0  501  0.00000000000E+00  0.00000000000E+00  0.51704886763E+03  0.51704886765E+03  0.50400001928E-02 0.  1.
        1   -1    0    0  501    0  0.00000000000E+00  0.00000000000E+00 -0.11209193349E+04  0.11209193349E+04  0.50400001928E-02 0. -1.
    10030    2    1    2    0    0  0.00000000000E+00  0.00000000000E+00 -0.60387046723E+03  0.16379682025E+04  0.15225899945E+04 0.  0.
        4    1    3    3  502    0 -0.62862594167E+03  0.12355538018E+03  0.14048535326E+03  0.65587670632E+03  0.12699999809E+01 0.  1.
       -4    1    3    3    0  502  0.62862594167E+03 -0.12355538018E+03 -0.74435582048E+03  0.98209149620E+03  0.12699999809E+01 0. -1.
</event>
<event>
 5   0  0.5264308E-04  0.1602999E+04  0.7818609E-02  0.8818708E-01
        2   -1    0    0  501    0  0.00000000000E+00  0.00000000000E+00  0.14406617924E+04  0.14406617924E+04  0.25500000920E-02 0.  1.
       -2   -1    0    0    0  501  0.00000000000E+00  0.00000000000E+00 -0.44590709783E+03  0.44590709783E+03  0.25500000920E-02 0. -1.
    10030    2    1    2    0    0  0.00000000000E+00  0.00000000000E+00  0.99475469454E+03  0.18865688902E+04  0.16029988382E+04 0.  0.
        3    1    3    3  502    0  0.29748897459E+03 -0.26764287905E+03 -0.31992753421E+03  0.51233391266E+03  0.10100000352E+00 0. -1.
       -3    1    3    3    0  502 -0.29748897459E+03  0.26764287905E+03  0.13146822287E+04  0.13742349775E+04  0.10100000352E+00 0.  1.
</event>
<event>
 5   0  0.5131239E-04  0.1584952E+04  0.7818609E-02  0.8829846E-01
       -2   -1    0    0    0  501  0.00000000000E+00  0.00000000000E+00  0.55005651394E+03  0.55005651395E+03  0.25500000920E-02 0.  1.
        2   -1    0    0  501    0  0.00000000000E+00  0.00000000000E+00 -0.11417343078E+04  0.11417343078E+04  0.25500000920E-02 0. -1.
    10030    2    1    2    0    0  0.00000000000E+00  0.00000000000E+00 -0.59167779388E+03  0.16917908218E+04  0.15849522305E+04 0.  0.
        1    1    3    3  502    0  0.39079948435E+03 -0.62338307032E+03  0.18435670298E+02  0.73598271942E+03  0.50400001928E-02 0.  1.
       -1    1    3    3    0  502 -0.39079948435E+03  0.62338307032E+03 -0.61011346418E+03  0.95580810235E+03  0.50400001928E-02 0. -1.
</event>
<event>
 5   0  0.5381164E-04  0.1596274E+04  0.7818609E-02  0.8822840E-01
        2   -1    0    0  501    0  0.00000000000E+00  0.00000000000E+00  0.14157499859E+04  0.14157499859E+04  0.25500000920E-02 0. -1.
       -2   -1    0    0    0  501  0.00000000000E+00  0.00000000000E+00 -0.44995430169E+03  0.44995430170E+03  0.25500000920E-02 0.  1.
    10030    2    1    2    0    0  0.00000000000E+00  0.00000000000E+00  0.96579568417E+03  0.18657042876E+04  0.15962741572E+04 0.  0.
        5    1    3    3  502    0 -0.68250618693E+03  0.41076543805E+03  0.54084145764E+03  0.96284708682E+03  0.46999998093E+01 0. -1.
       -5    1    3    3    0  502  0.68250618693E+03 -0.41076543805E+03  0.42495422653E+03  0.90285720075E+03  0.46999998093E+01 0.  1.
</event>
<event>
 5   0  0.1908125E-04  0.1592825E+04  0.7818609E-02  0.8824968E-01
       -4   -1    0    0    0  501  0.00000000000E+00  0.00000000000E+00  0.52092244246E+03  0.52092399058E+03  0.12699999809E+01 0.  1.
        4   -1    0    0  501    0  0.00000000000E+00  0.00000000000E+00 -0.12175926275E+04  0.12175932898E+04  0.12699999809E+01 0. -1.
    10030    2    1    2    0    0  0.00000000000E+00  0.00000000000E+00 -0.69667018500E+03  0.17385172804E+04  0.15928254730E+04 0.  0.
        5    1    3    3  502    0 -0.16428979322E+03 -0.64743139967E+03  0.12503049018E+03  0.67956844166E+03  0.46999998093E+01 0.  1.
       -5    1    3    3    0  502  0.16428979322E+03  0.64743139967E+03 -0.82170067518E+03  0.10589488387E+04  0.46999998093E+01 0. -1.
</event>
<event>
 5   0  0.5264308E-04  0.1587975E+04  0.7818609E-02  0.8827970E-01
       -2   -1    0    0    0  501  0.00000000000E+00  0.00000000000E+00  0.56924667490E+03  0.56924667491E+03  0.25500000920E-02 0. -1.
        2   -1    0    0  501    0  0.00000000000E+00  0.00000000000E+00 -0.11074570016E+04  0.11074570016E+04  0.25500000920E-02 0.  1.
    10030    2    1    2    0    0  0.00000000000E+00  0.00000000000E+00 -0.53821032668E+03  0.16767036765E+04  0.15879750826E+04 0.  0.
        3    1    3    3  502    0  0.44625596803E+03  0.16044395855E+03  0.40328892646E+03  0.62251796861E+03  0.10100000352E+00 0. -1.
       -3    1    3    3    0  502 -0.44625596803E+03 -0.16044395855E+03 -0.94149925314E+03  0.10541857079E+04  0.10100000352E+00 0.  1.
</event>
<event>
 5   0  0.5083831E-04  0.1602859E+04  0.7818609E-02  0.8818793E-01
        2   -1    0    0  501    0  0.00000000000E+00  0.00000000000E+00  0.15735681813E+04  0.15735681813E+04  0.25500000920E-02 0. -1.
       -2   -1    0    0    0  501  0.00000000000E+00  0.00000000000E+00 -0.40817400729E+03  0.40817400730E+03  0.25500000920E-02 0.  1.
    10030    2    1    2    0    0  0.00000000000E+00  0.00000000000E+00  0.11653941740E+04  0.19817421886E+04  0.16028594827E+04 0.  0.
        4    1    3    3  502    0 -0.46159651032E+02 -0.60625145212E+03  0.12282439243E+04  0.13704949059E+04  0.12699999809E+01 0. -1.
       -4    1    3    3    0  502  0.46159651032E+02  0.60625145212E+03 -0.62849750324E+02  0.61124728269E+03  0.12699999809E+01 0.  1.
</event>
<event>
 5   0  0.1908125E-04  0.1594685E+04  0.7818609E-02  0.8823820E-01
        3   -1    0    0  501    0  0.00000000000E+00  0.00000000000E+00  0.11430050265E+04  0.11430050310E+04  0.10100000352E+00 0.  1.
       -3   -1    0    0    0  501  0.00000000000E+00  0.00000000000E+00 -0.55621371114E+03  0.55621372031E+03  0.10100000352E+00 0. -1.
    10030    2    1    2    0    0  0.00000000000E+00  0.00000000000E+00  0.58679131538E+03  0.16992187513E+04  0.15946850212E+04 0.  0.
        4    1    3    3  502    0  0.37809192325E+03 -0.44226365805E+03  0.87429494073E+03  0.10502113606E+04  0.12699999809E+01 0.  1.
       -4    1    3    3    0  502 -0.37809192325E+03  0.44226365805E+03 -0.28750362535E+03  0.64900739068E+03  0.12699999809E+01 0. -1.
</event>
<event>
 5   0  0.5264308E-04  0.1592367E+04  0.7818609E-02  0.8825251E-01
       -2   -1    0    0    0  501  0.00000000000E+00  0.00000000000E+00  0.66761432917E+03  0.66761432917E+03  0.25500000920E-02 0.  1.
        2   -1    0    0  501    0  0.00000000000E+00  0.00000000000E+00 -0.94951253930E+03  0.94951253931E+03  0.25500000920E-02 0. -1.
    10030    2    1    2    0    0  0.00000000000E+00  0.00000000000E+00 -0.28189821014E+03  0.16171268685E+04  0.15923670142E+04 0.  0.
        3    1    3    3  502    0  0.29423244086E+03 -0.15237878684E+03 -0.87616466275E+03  0.93672650778E+03  0.10100000352E+00 0. -1.
       -3    1    3    3    0  502 -0.29423244086E+03  0.15237878684E+03  0.59426645261E+03  0.68040036070E+03  0.10100000352E+00 0.  1.
</event>
<event>
 5   0  0.5083831E-04  0.1598913E+04  0.7818609E-02  0.8821216E-01
        2   -1    0    0  501    0  0.00000000000E+00  0.00000000000E+00  0.15146675189E+04  0.15146675189E+04  0.25500000920E-02 0.  1.
       -2   -1    0    0    0  501  0.00000000000E+00  0.00000000000E+00 -0.42196088587E+03  0.42196088588E+03  0.25500000920E-02 0. -1.
    10030    2    1    2    0    0  0.00000000000E+00  0.00000000000E+00  0.10927066330E+04  0.19366284048E+04  0.15989126907E+04 0.  0.
        4    1    3    3  502    0 -0.39004933561E+03  0.21957023419E+03 -0.25596109851E+03  0.51562318490E+03  0.12699999809E+01 0. -1.
       -4    1    3    3    0  502  0.39004933561E+03 -0.21957023419E+03  0.13486677315E+04  0.14210052199E+04  0.12699999809E+01 0.  1.
</event>
<event>
 5   0  0.5131239E-04  0.1594631E+04  0.7818609E-02  0.8823853E-01
       -2   -1    0    0    0  501  0.00000000000E+00  0.00000000000E+00  0.27704789254E+03  0.27704789255E+03  0.25500000920E-02 0. -1.
        2   -1    0    0  501    0  0.00000000000E+00  0.00000000000E+00 -0.22945911785E+04  0.22945911785E+04  0.25500000920E-02 0.  1.
    10030    2    1    2    0    0  0.00000000000E+00  0.00000000000E+00 -0.20175432860E+04  0.25716390711E+04  0.15946305532E+04 0.  0.
        1    1    3    3  502    0 -0.63327640221E+03 -0.48337274583E+03 -0.10603634263E+04  0.13262951440E+04  0.50400001928E-02 0. -1.
       -1    1    3    3    0  502  0.63327640221E+03  0.48337274583E+03 -0.95717985966E+03  0.12453439271E+04  0.50400001928E-02 0.  1.
</event>
<event>
 5   0  0.2763895E-04  0.1554432E+04  0.7818609E-02  0.8849042E-01
        1   -1    0    0  501    0  0.00000000000E+00  0.00000000000E+00  0.97152839338E+03  0.97152839339E+03  0.50400001928E-02 0.  1.
       -1   -1    0    0    0  501  0.00000000000E+00  0.00000000000E+00 -0.62176774998E+03  0.62176775000E+03  0.50400001928E-02 0. -1.
    10030    2    1    2    0    0  0.00000000000E+00  0.00000000000E+00  0.34976064339E+03  0.15932961434E+04  0.15544324022E+04 0.  0.
        4    1    3    3  502    0  0.29004784302E+03 -0.38049257504E+03  0.80269800089E+03  0.93446671660E+03  0.12699999809E+01 0.  1.
       -4    1    3    3    0  502 -0.29004784302E+03  0.38049257504E+03 -0.45293735749E+03  0.65882942679E+03  0.12699999809E+01 0. -1.
</event>
<event>
 5   0  0.5264308E-04  0.1549879E+04  0.7818609E-02  0.8851945E-01
        2   -1    0    0  501    0  0.00000000000E+00  0.00000000000E+00  0.13277444123E+04  0.13277444123E+04  0.25500000920E-02 0.  1.
       -2   -1    0    0    0  501  0.00000000000E+00  0.00000000000E+00 -0.45229430912E+03  0.45229430913E+03  0.25500000920E-02 0. -1.
    10030    2    1    2    0    0  0.00000000000E+00  0.00000000000E+00  0.87545010314E+03  0.17800387214E+04  0.15498790168E+04 0.  0.
        3    1    3    3  502    0  0.51267211961E+03 -0.39068150603E+03 -0.56352981357E+02  0.64702427318E+03  0.10100000352E+00 0. -1.
       -3    1    3    3    0  502 -0.51267211961E+03  0.39068150603E+03  0.93180308450E+03  0.11330144482E+04  0.10100000352E+00 0.  1.
</event>
<event>
 5   0  0.5381164E-04  0.1641492E+04  0.7818609E-02  0.8795456E-01
       -2   -1    0    0    0  501  0.00000000000E+00  0.00000000000E+00  0.53768408844E+03  0.53768408845E+03  0.25500000920E-02 0.  1.
        2   -1    0    0  501    0  0.00000000000E+00  0.00000000000E+00 -0.12528251824E+04  0.12528251824E+04  0.25500000920E-02 0. -1.
    10030    2    1    2    0    0  0.00000000000E+00  0.00000000000E+00 -0.71514109393E+03  0.17905092708E+04  0.16414922067E+04 0.  0.
        5    1    3    3  502    0  0.36622322185E+03  0.77634747304E+02  0.43911481345E+03  0.57705330048E+03  0.46999998093E+01 0.  1.
       -5    1    3    3    0  502 -0.36622322185E+03 -0.77634747304E+02 -0.11542559074E+04  0.12134559703E+04  0.46999998093E+01 0. -1.
</event>
<event>
 5   0  0.2796994E-04  0.1586035E+04  0.7818609E-02  0.8829173E-01
        1   -1    0    0  501    0  0.00000000000E+00  0.00000000000E+00  0.83669223398E+03  0.83669223399E+03  0.50400001928E-02 0. -1.
       -1   -1    0    0    0  501  0.00000000000E+00  0.00000000000E+00 -0.75162271644E+03  0.75162271645E+03  0.50400001928E-02 0.  1.
    10030    2    1    2    0    0  0.00000000000E+00  0.00000000000E+00  0.85069517539E+02  0.15883149504E+04  0.15860351695E+04 0.  0.
        3    1    3    3  502    0 -0.68013425088E+03  0.77932186418E+02 -0.35831657454E+03  0.77268803711E+03  0.10100000352E+00 0. -1.
       -3    1    3    3    0  502  0.68013425088E+03 -0.77932186418E+02  0.44338609208E+03  0.81562691333E+03  0.10100000352E+00 0.  1.
</event>
<event>
 5   0  0.2763895E-04  0.1610872E+04  0.7818609E-02  0.8813896E-01
        1   -1    0    0  501    0  0.00000000000E+00  0.00000000000E+00  0.89832680908E+03  0.89832680909E+03  0.50400001928E-02 0.  1.
       -1   -1    0    0    0  501  0.00000000000E+00  0.00000000000E+00 -0.72215074317E+03  0.72215074319E+03  0.50400001928E-02 0. -1.
    10030    2    1    2    0    0  0.00000000000E+00  0.00000000000E+00  0.17617606590E+03  0.16204775523E+04  0.16108722765E+04 0.  0.
        4    1    3    3  502    0 -0.30317089109E+03 -0.34824941248E+02 -0.66174261019E+03  0.72871823140E+03  0.12699999809E+01 0. -1.
       -4    1    3    3    0  502  0.30317089109E+03  0.34824941248E+02  0.83791867609E+03  0.89175932088E+03  0.12699999809E+01 0.  1.
</event>
<event>
 5   0  0.5083831E-04  0.1598744E+04  0.7818609E-02  0.8821320E-01
       -2   -1    0    0    0  501  0.00000000000E+00  0.00000000000E+00  0.42332838152E+03  0.42332838152E+03  0.25500000920E-02 0. -1.
        2   -1    0    0  501    0  0.00000000000E+00  0.00000000000E+00 -0.15094553956E+04  0.15094553956E+04  0.25500000920E-02 0.  1.
    10030    2    1    2    0    0  0.00000000000E+00  0.00000000000E+00 -0.10861270140E+04  0.19327837771E+04  0.15987436437E+04 0.  0.
        4    1    3    3  502    0 -0.16508645672E+03  0.25292905855E+03 -0.14378149203E+04  0.14691970612E+04  0.12699999809E+01 0.  1.
       -4    1    3    3    0  502  0.16508645672E+03 -0.25292905855E+03  0.35168790622E+03  0.46358671587E+03  0.12699999809E+01 0. -1.
</event>
<event>
 5   0  0.2796994E-04  0.1587556E+04  0.7818609E-02  0.8828229E-01
        1   -1    0    0  501    0  0.00000000000E+00  0.00000000000E+00  0.98296609261E+03  0.98296609262E+03  0.50400001928E-02 0. -1.
       -1   -1    0    0    0  501  0.00000000000E+00  0.00000000000E+00 -0.64100263398E+03  0.64100263400E+03  0.50400001928E-02 0.  1.
    10030    2    1    2    0    0  0.00000000000E+00  0.00000000000E+00  0.34196345863E+03  0.16239687266E+04  0.15875564299E+04 0.  0.
        3    1    3    3  502    0 -0.25955402647E+03  0.67123466459E+03 -0.17160195139E+03  0.73984559709E+03  0.10100000352E+00 0.  1.
       -3    1    3    3    0  502  0.25955402647E+03 -0.67123466459E+03  0.51356541002E+03  0.88412312954E+03  0.10100000352E+00 0. -1.
</event>
<event>
 5   0  0.5381164E-04  0.1599435E+04  0.7818609E-02  0.8820895E-01
        2   -1    0    0  501    0  0.00000000000E+00  0.00000000000E+00  0.19393915019E+04  0.19393915019E+04  0.25500000920E-02 0.  1.
       -2   -1    0    0    0  501  0.00000000000E+00  0.00000000000E+00 -0.32976746330E+03  0.32976746331E+03  0.25500000920E-02 0. -1.
    10030    2    1    2    0    0  0.00000000000E+00  0.00000000000E+00  0.16096240386E+04  0.22691589652E+04  0.15994351702E+04 0.  0.
        5    1    3    3  502    0  0.79198469208E+03 -0.82065090262E+02  0.69910324021E+03  0.10595951406E+04  0.46999998093E+01 0. -1.
       -5    1    3    3    0  502 -0.79198469208E+03  0.82065090262E+02  0.91052079842E+03  0.12095638246E+04  0.46999998093E+01 0.  1.
</event>
<event>
 5   0  0.5315984E-04  0.1588429E+04  0.7818609E-02  0.8827688E-01
        2   -1    0    0  501    0  0.00000000000E+00  0.00000000000E+00  0.67351013741E+03  0.67351013742E+03  0.25500000920E-02 0.  1.
       -2   -1    0    0    0  501  0.00000000000E+00  0.00000000000E+00 -0.93655132744E+03  0.93655132745E+03  0.25500000920E-02 0. -1.
    10030    2    1    2    0    0  0.00000000000E+00  0.00000000000E+00 -0.26304119003E+03  0.16100614649E+04  0.15884291778E+04 0.  0.
        2    1    3    3  502    0 -0.54194043586E+02 -0.78059973573E+03  0.63608738053E+01  0.78250457027E+03  0.25500000920E-02 0.  1.
       -2    1    3    3    0  502  0.54194043586E+02  0.78059973573E+03 -0.26940206384E+03  0.82755689459E+03  0.25500000920E-02 0. -1.
</event>
<event>
 5   0  0.5381164E-04  0.1602593E+04  0.7818609E-02  0.8818956E-01
        2   -1    0    0  501    0  0.00000000000E+00  0.00000000000E+00  0.16325408006E+04  0.16325408006E+04  0.25500000920E-02 0. -1.
       -2   -1    0    0    0  501  0.00000000000E+00  0.00000000000E+00 -0.39329881674E+03  0.39329881675E+03  0.25500000920E-02 0.  1.
    10030    2    1    2    0    0  0.00000000000E+00  0.00000000000E+00  0.12392419838E+04  0.20258396173E+04  0.16025933547E+04 0.  0.
        5    1    3    3  502    0 -0.38636020214E+03  0.35359065337E+03  0.13862058898E+04  0.14818533716E+04  0.46999998093E+01 0. -1.
       -5    1    3    3    0  502  0.38636020214E+03 -0.35359065337E+03 -0.14696390592E+03  0.54398624578E+03  0.46999998093E+01 0.  1.
</event>
<event>
 5   0  0.2730707E-04  0.1589843E+04  0.7818609E-02  0.8826812E-01
       -1   -1    0    0    0  501  0.00000000000E+00  0.00000000000E+00  0.92958327689E+03  0.92958327690E+03  0.50400001928E-02 0.  1.
        1   -1    0    0  501    0  0.00000000000E+00  0.00000000000E+00 -0.67976699607E+03  0.67976699608E+03  0.50400001928E-02 0. -1.
    10030    2    1    2    0    0  0.00000000000E+00  0.00000000000E+00  0.24981628082E+03  0.16093502730E+04  0.15898427995E+04 0.  0.
        5    1    3    3  502    0  0.28905233528E+03  0.47758968677E+03 -0.44792830732E+03  0.71575486022E+03  0.46999998093E+01 0. -1.
       -5    1    3    3    0  502 -0.28905233528E+03 -0.47758968677E+03  0.69774458814E+03  0.89359541276E+03  0.46999998093E+01 0.  1.
</event>
<event>
 5   0  0.2763895E-04  0.1579778E+04  0.7818609E-02  0.8833069E-01
       -1   -1    0    0    0  501  0.00000000000E+00  0.00000000000E+00  0.47211258408E+03  0.47211258410E+03  0.50400001928E-02 0.  1.
        1   -1    0    0  501    0  0.00000000000E+00  0.00000000000E+00 -0.13215584877E+04  0.13215584878E+04  0.50400001928E-02 0. -1.
    10030    2    1    2    0    0  0.00000000000E+00  0.00000000000E+00 -0.84944590367E+03  0.17936710719E+04  0.15797776966E+04 0.  0.
        4    1    3    3  502    0 -0.41687541604E+03  0.63560097963E+02 -0.11830592730E+04  0.12559680947E+04  0.12699999809E+01 0. -1.
       -4    1    3    3    0  502  0.41687541604E+03 -0.63560097963E+02  0.33361336934E+03  0.53770297716E+03  0.12699999809E+01 0.  1.
</event>
<event>
 5   0  0.5264308E-04  0.1528144E+04  0.7818609E-02  0.8865950E-01
        2   -1    0    0  501    0  0.00000000000E+00  0.00000000000E+00  0.10730289998E+04  0.10730289998E+04  0.25500000920E-02 0. -1.
       -2   -1    0    0    0  501  0.00000000000E+00  0.00000000000E+00 -0.54407299237E+03  0.54407299238E+03  0.25500000920E-02 0.  1.
    10030    2    1    2    0    0  0.00000000000E+00  0.00000000000E+00  0.52895600745E+03  0.16171019922E+04  0.15281441016E+04 0.  0.
        3    1    3    3  502    0 -0.55133898395E+03  0.47294672182E+02  0.82202134179E+03  0.99092409286E+03  0.10100000352E+00 0. -1.
       -3    1    3    3    0  502  0.55133898395E+03 -0.47294672182E+02 -0.29306533434E+03  0.62617789935E+03  0.10100000352E+00 0.  1.
</event>
<event>
 5   0  0.2649086E-04  0.1591794E+04  0.7818609E-02  0.8825605E-01
        1   -1    0    0  501    0  0.00000000000E+00  0.00000000000E+00  0.58654632469E+03  0.58654632471E+03  0.50400001928E-02 0. -1.
       -1   -1    0    0    0  501  0.00000000000E+00  0.00000000000E+00 -0.10799695201E+04  0.10799695201E+04  0.50400001928E-02 0.  1.
    10030    2    1    2    0    0  0.00000000000E+00  0.00000000000E+00 -0.49342319537E+03  0.16665158448E+04  0.15917941485E+04 0.  0.
        2    1    3    3  502    0 -0.18980442359E+03 -0.63848425981E+03 -0.70277978650E+03  0.96829091577E+03  0.25500000920E-02 0.  1.
       -2    1    3    3    0  502  0.18980442359E+03  0.63848425981E+03  0.20935659113E+03  0.69822492902E+03  0.25500000920E-02 0. -1.
</event>
<event>
 5   0  0.5083831E-04  0.1587330E+04  0.7818609E-02  0.8828370E-01
       -2   -1    0    0    0  501  0.00000000000E+00  0.00000000000E+00  0.53963474889E+03  0.53963474890E+03  0.25500000920E-02 0.  1.
        2   -1    0    0  501    0  0.00000000000E+00  0.00000000000E+00 -0.11672790198E+04  0.11672790198E+04  0.25500000920E-02 0. -1.
    10030    2    1    2    0    0  0.00000000000E+00  0.00000000000E+00 -0.62764427095E+03  0.17069137688E+04  0.15873302376E+04 0.  0.
        4    1    3    3  502    0  0.78187875551E+03 -0.56174703287E+02 -0.44732296635E+03  0.90254608454E+03  0.12699999809E+01 0. -1.
       -4    1    3    3    0  502 -0.78187875551E+03  0.56174703287E+02 -0.18032130460E+03  0.80436768421E+03  0.12699999809E+01 0.  1.
</event>
<event>
 5   0  0.2763895E-04  0.1598967E+04  0.7818609E-02  0.8821183E-01
       -1   -1    0    0    0  501  0.00000000000E+00  0.00000000000E+00  0.31998631313E+03  0.31998631317E+03  0.50400001928E-02 0.  1.
        1   -1    0    0  501    0  0.00000000000E+00  0.00000000000E+00 -0.19975027102E+04  0.19975027102E+04  0.50400001928E-02 0. -1.
    10030    2    1    2    0    0  0.00000000000E+00  0.00000000000E+00 -0.16775163971E+04  0.23174890234E+04  0.15989665760E+04 0.  0.
        4    1    3    3  502    0 -0.27638922744E+03 -0.34526693864E+03 -0.18040534979E+04  0.18574743337E+04  0.12699999809E+01 0. -1.
       -4    1    3    3    0  502  0.27638922744E+03  0.34526693864E+03  0.12653710085E+03  0.46001468971E+03  0.12699999809E+01 0.  1.
</event>
<event>
 5   0  0.2689675E-04  0.1614381E+04  0.7818609E-02  0.8811761E-01
        1   -1    0    0  501    0  0.00000000000E+00  0.00000000000E+00  0.91652943537E+03  0.91652943538E+03  0.50400001928E-02 0. -1.
       -1   -1    0    0    0  501  0.00000000000E+00  0.00000000000E+00 -0.71089554571E+03  0.71089554572E+03  0.50400001928E-02 0.  1.
    10030    2    1    2    0    0  0.00000000000E+00  0.00000000000E+00  0.20563388966E+03  0.16274249811E+04  0.16143812352E+04 0.  0.
        1    1    3    3  502    0  0.66403953314E+03  0.44172344523E+03  0.22827565311E+03  0.82956487237E+03  0.50400001928E-02 0.  1.
       -1    1    3    3    0  502 -0.66403953314E+03 -0.44172344523E+03 -0.22641763448E+02  0.79786010874E+03  0.50400001928E-02 0. -1.
</event>
<event>
 5   0  0.2730707E-04  0.1609401E+04  0.7818609E-02  0.8814794E-01
       -1   -1    0    0    0  501  0.00000000000E+00  0.00000000000E+00  0.20312031703E+04  0.20312031703E+04  0.50400001928E-02 0. -1.
        1   -1    0    0  501    0  0.00000000000E+00  0.00000000000E+00 -0.31879759013E+03  0.31879759017E+03  0.50400001928E-02 0.  1.
    10030    2    1    2    0    0  0.00000000000E+00  0.00000000000E+00  0.17124055801E+04  0.23500007604E+04  0.16094007280E+04 0.  0.
        5    1    3    3  502    0 -0.24420752728E+03 -0.74774168258E+03  0.60855134194E+03  0.99454098258E+03  0.46999998093E+01 0. -1.
       -5    1    3    3    0  502  0.24420752728E+03  0.74774168258E+03  0.11038542382E+04  0.13554597779E+04  0.46999998093E+01 0.  1.
</event>
<event>
 5   0  0.2796994E-04  0.1628833E+04  0.7818609E-02  0.8803028E-01
       -1   -1    0    0    0  501  0.00000000000E+00  0.00000000000E+00  0.68866826472E+03  0.68866826474E+03  0.50400001928E-02 0.  1.
        1   -1    0    0  501    0  0.00000000000E+00  0.00000000000E+00 -0.96312553374E+03  0.96312553375E+03  0.50400001928E-02 0. -1.
    10030    2    1    2    0    0  0.00000000000E+00  0.00000000000E+00 -0.27445726901E+03  0.16517937985E+04  0.16288326987E+04 0.  0.
        3    1    3    3  502    0 -0.81050545009E+03 -0.24969841133E+02 -0.60455407168E+02  0.81314048236E+03  0.10100000352E+00 0. -1.
       -3    1    3    3    0  502  0.81050545009E+03  0.24969841133E+02 -0.21400186185E+03  0.83865331613E+03  0.10100000352E+00 0.  1.
</event>
<event>
 5   0  0.5315984E-04  0.1608728E+04  0.7818609E-02  0.8815204E-01
        2   -1    0    0  501    0  0.00000000000E+00  0.00000000000E+00  0.40786456220E+03  0.40786456221E+03  0.25500000920E-02 0. -1.
       -2   -1    0    0    0  501  0.00000000000E+00  0.00000000000E+00 -0.15863138290E+04  0.15863138290E+04  0.25500000920E-02 0.  1.
    10030    2    1    2    0    0  0.00000000000E+00  0.00000000000E+00 -0.11784492668E+04  0.19941783912E+04  0.16087276903E+04 0.  0.
        2    1    3    3  502    0  0.53436576268E+03  0.48361754957E+03 -0.10319691396E+04  0.12587267407E+04  0.25500000920E-02 0.  1.
       -2    1    3    3    0  502 -0.53436576268E+03 -0.48361754957E+03 -0.14648012717E+03  0.73545165051E+03  0.25500000920E-02 0. -1.
</event>
<event>
 5   0  0.2763895E-04  0.1607075E+04  0.7818609E-02  0.8816213E-01
        1   -1    0    0  501    0  0.00000000000E+00  0.00000000000E+00  0.15091590880E+04  0.15091590880E+04  0.50400001928E-02 0.  1.
       -1   -1    0    0    0  501  0.00000000000E+00  0.00000000000E+00 -0.42783583312E+03  0.42783583315E+03  0.50400001928E-02 0. -1.
    10030    2    1    2    0    0  0.00000000000E+00  0.00000000000E+00  0.10813232549E+04  0.19369949211E+04  0.16070747783E+04 0.  0.
        4    1    3    3  502    0 -0.15244046669E+03  0.65275671811E+03  0.65915809168E+01  0.67035400406E+03  0.12699999809E+01 0. -1.
       -4    1    3    3    0  502  0.15244046669E+03 -0.65275671811E+03  0.10747316740E+04  0.12666409171E+04  0.12699999809E+01 0.  1.
</event>
<event>
 5   0  0.5381164E-04  0.1597570E+04  0.7818609E-02  0.8822042E-01
        2   -1    0    0  501    0  0.00000000000E+00  0.00000000000E+00  0.19466899363E+04  0.19466899363E+04  0.25500000920E-02 0. -1.
       -2   -1    0    0    0  501  0.00000000000E+00  0.00000000000E+00 -0.32776537009E+03  0.32776537010E+03  0.25500000920E-02 0.  1.
    10030    2    1    2    0    0  0.00000000000E+00  0.00000000000E+00  0.16189245662E+04  0.22744553064E+04  0.15975700892E+04 0.  0.
        5    1    3    3  502    0  0.66321878205E+03  0.26273257515E+03  0.29782620832E+03  0.77305245570E+03  0.46999998093E+01 0.  1.
       -5    1    3    3    0  502 -0.66321878205E+03 -0.26273257515E+03  0.13210983579E+04  0.15014028507E+04  0.46999998093E+01 0. -1.
</event>
<event>
 5   0  0.5083831E-04  0.1632441E+04  0.7818609E-02  0.8800862E-01
        2   -1    0    0  501    0  0.00000000000E+00  0.00000000000E+00  0.29851010778E+04  0.29851010778E+04  0.25500000920E-02 0. -1.
       -2   -1    0    0    0  501  0.00000000000E+00  0.00000000000E+00 -0.22318034346E+03  0.22318034347E+03  0.25500000920E-02 0.  1.
    10030    2    1    2    0    0  0.00000000000E+00  0.00000000000E+00  0.27619207343E+04  0.32082814213E+04  0.16324409745E+04 0.  0.
        4    1    3    3  502    0 -0.88379674382E+02 -0.77791742590E+03  0.92745155254E+03  0.12137275162E+04  0.12699999809E+01 0.  1.
       -4    1    3    3    0  502  0.88379674382E+02  0.77791742590E+03  0.18344691818E+04  0.19945539051E+04  0.12699999809E+01 0. -1.
</event>
<event>
 5   0  0.2689675E-04  0.1596153E+04  0.7818609E-02  0.8822915E-01
       -1   -1    0    0    0  501  0.00000000000E+00  0.00000000000E+00  0.14551895382E+04  0.14551895382E+04  0.50400001928E-02 0.  1.
        1   -1    0    0  501    0  0.00000000000E+00  0.00000000000E+00 -0.43769290039E+03  0.43769290042E+03  0.50400001928E-02 0. -1.
    10030    2    1    2    0    0  0.00000000000E+00  0.00000000000E+00  0.10174966379E+04  0.18928824387E+04  0.15961530373E+04 0.  0.
        1    1    3    3  502    0  0.79386038642E+03  0.31972946404E+02  0.59819988853E+03  0.99452485594E+03  0.50400001928E-02 0.  1.
       -1    1    3    3    0  502 -0.79386038642E+03 -0.31972946404E+02  0.41929674932E+03  0.89835758272E+03  0.50400001928E-02 0. -1.
</event>
<event>
 5   0  0.5381164E-04  0.1641708E+04  0.7818609E-02  0.8795327E-01
        2   -1    0    0  501    0  0.00000000000E+00  0.00000000000E+00  0.61552490506E+03  0.61552490507E+03  0.25500000920E-02 0. -1.
       -2   -1    0    0    0  501  0.00000000000E+00  0.00000000000E+00 -0.10946773990E+04  0.10946773990E+04  0.25500000920E-02 0.  1.
    10030    2    1    2    0    0  0.00000000000E+00  0.00000000000E+00 -0.47915249398E+03  0.17102023041E+04  0.16417078938E+04 0.  0.
        5    1    3    3  502    0  0.58166075855E+03  0.31232070299E+03 -0.74768184678E+03  0.99745861746E+03  0.46999998093E+01 0.  1.
       -5    1    3    3    0  502 -0.58166075855E+03 -0.31232070299E+03  0.26852935280E+03  0.71274368665E+03  0.46999998093E+01 0. -1.
</event>
<event>
 5   0  0.5131239E-04  0.1607206E+04  0.7818609E-02  0.8816133E-01
        2   -1    0    0  501    0  0.00000000000E+00  0.00000000000E+00  0.18998802042E+04  0.18998802042E+04  0.25500000920E-02 0. -1.
       -2   -1    0    0    0  501  0.00000000000E+00  0.00000000000E+00 -0.33990438095E+03  0.33990438096E+03  0.25500000920E-02 0.  1.
    10030    2    1    2    0    0  0.00000000000E+00  0.00000000000E+00  0.15599758232E+04  0.22397845851E+04  0.16072057798E+04 0.  0.
        1    1    3    3  502    0 -0.72139036355E+03  0.27991044681E+03  0.10821869777E+04  0.13303693357E+04  0.50400001928E-02 0. -1.
       -1    1    3    3    0  502  0.72139036355E+03 -0.27991044681E+03  0.47778884556E+03  0.90941524939E+03  0.50400001928E-02 0.  1.
</event>
<event>
 5   0  0.5264308E-04  0.1602722E+04  0.7818609E-02  0.8818878E-01
        2   -1    0    0  501    0  0.00000000000E+00  0.00000000000E+00  0.11322779228E+04  0.11322779228E+04  0.25500000920E-02 0.  1.
       -2   -1    0    0    0  501  0.00000000000E+00  0.00000000000E+00 -0.56715679460E+03  0.56715679461E+03  0.25500000920E-02 0. -1.
    10030    2    1    2    0    0  0.00000000000E+00  0.00000000000E+00  0.56512112821E+03  0.16994347174E+04  0.16027215819E+04 0.  0.
        3    1    3    3  502    0 -0.28358300731E+03 -0.71904113816E+03  0.50684161330E+03  0.92429860520E+03  0.10100000352E+00 0.  1.
       -3    1    3    3    0  502  0.28358300731E+03  0.71904113816E+03  0.58279514903E+02  0.77513611222E+03  0.10100000352E+00 0. -1.
</event>
<event>
 5   0  0.2689675E-04  0.1582814E+04  0.7818609E-02  0.8831176E-01
        1   -1    0    0  501    0  0.00000000000E+00  0.00000000000E+00  0.15550598717E+04  0.15550598717E+04  0.50400001928E-02 0. -1.
       -1   -1    0    0    0  501  0.00000000000E+00  0.00000000000E+00 -0.40276569133E+03  0.40276569136E+03  0.50400001928E-02 0.  1.
    10030    2    1    2    0    0  0.00000000000E+00  0.00000000000E+00  0.11522941804E+04  0.19578255631E+04  0.15828136521E+04 0.  0.
        1    1    3    3  502    0  0.21585073030E+02 -0.42856015704E+03  0.13986759428E+04  0.14630188367E+04  0.50400001928E-02 0. -1.
       -1    1    3    3    0  502 -0.21585073030E+02  0.42856015704E+03 -0.24638176242E+03  0.49480672637E+03  0.50400001928E-02 0.  1.
</event>
<event>
 5   0  0.2649086E-04  0.1606391E+04  0.7818609E-02  0.8816632E-01
       -1   -1    0    0    0  501  0.00000000000E+00  0.00000000000E+00  0.27598233201E+03  0.27598233205E+03  0.50400001928E-02 0. -1.
        1   -1    0    0  501    0  0.00000000000E+00  0.00000000000E+00 -0.23375506725E+04  0.23375506725E+04  0.50400001928E-02 0.  1.
    10030    2    1    2    0    0  0.00000000000E+00  0.00000000000E+00 -0.20615683405E+04  0.26135330045E+04  0.16063905949E+04 0.  0.
        2    1    3    3  502    0 -0.21953630079E+03 -0.27408354488E+03  0.14446738101E+03  0.37972200505E+03  0.25500000920E-02 0. -1.
       -2    1    3    3    0  502  0.21953630079E+03  0.27408354488E+03 -0.22060357215E+04  0.22338109995E+04  0.25500000920E-02 0.  1.
</event>
<event>
 5   0  0.5131239E-04  0.1590234E+04  0.7818609E-02  0.8826570E-01
        2   -1    0    0  501    0  0.00000000000E+00  0.00000000000E+00  0.10753980329E+04  0.10753980329E+04  0.25500000920E-02 0. -1.
       -2   -1    0    0    0  501  0.00000000000E+00  0.00000000000E+00 -0.58788573310E+03  0.58788573311E+03  0.25500000920E-02 0.  1.
    10030    2    1    2    0    0  0.00000000000E+00  0.00000000000E+00  0.48751229981E+03  0.16632837660E+04  0.15902341475E+04 0.  0.
        1    1    3    3  502    0  0.67076804317E+03  0.13119529024E+02  0.69010179512E+03  0.96246681887E+03  0.50400001928E-02 0. -1.
       -1    1    3    3    0  502 -0.67076804317E+03 -0.13119529024E+02 -0.20258949531E+03  0.70081694715E+03  0.50400001928E-02 0.  1.
</event>
<event>
 5   0  0.5264308E-04  0.1564586E+04  0.7818609E-02  0.8842605E-01
        2   -1    0    0  501    0  0.00000000000E+00  0.00000000000E+00  0.17845042794E+04  0.17845042794E+04  0.25500000920E-02 0.  1.
       -2   -1    0    0    0  501  0.00000000000E+00  0.00000000000E+00 -0.34294230712E+03  0.34294230713E+03  0.25500000920E-02 0. -1.
    10030    2    1    2    0    0  0.00000000000E+00  0.00000000000E+00  0.14415619723E+04  0.21274465866E+04  0.15645855869E+04 0.  0.
        3    1    3    3  502    0 -0.28908610255E+03  0.30120919865E+03 -0.17879902888E+03  0.45416611385E+03  0.10100000352E+00 0. -1.
       -3    1    3    3    0  502  0.28908610255E+03 -0.30120919865E+03  0.16203610012E+04  0.16732804727E+04  0.10100000352E+00 0.  1.
</event>
<event>
 5   0  0.2730707E-04  0.1596121E+04  0.7818609E-02  0.8822935E-01
        1   -1    0    0  501    0  0.00000000000E+00  0.00000000000E+00  0.25645252177E+04  0.25645252177E+04  0.50400001928E-02 0. -1.
       -1   -1    0    0    0  501  0.00000000000E+00  0.00000000000E+00 -0.24835025890E+03  0.24835025895E+03  0.50400001928E-02 0.  1.
    10030    2    1    2    0    0  0.00000000000E+00  0.00000000000E+00  0.23161749588E+04  0.28128754766E+04  0.15961209250E+04 0.  0.
        5    1    3    3  502    0 -0.27185966081E+03  0.22366823920E+03 -0.10408694993E+03  0.36713940070E+03  0.46999998093E+01 0.  1.
       -5    1    3    3    0  502  0.27185966081E+03 -0.22366823920E+03  0.24202619087E+04  0.24457360759E+04  0.46999998093E+01 0. -1.
</event>
<event>
 5   0  0.5264308E-04  0.1630868E+04  0.7818609E-02  0.8801806E-01
        2   -1    0    0  501    0  0.00000000000E+00  0.00000000000E+00  0.91984287144E+03  0.91984287145E+03  0.25500000920E-02 0.  1.
       -2   -1    0    0    0  501  0.00000000000E+00  0.00000000000E+00 -0.72287636453E+03  0.72287636453E+03  0.25500000920E-02 0. -1.
    10030    2    1    2    0    0  0.00000000000E+00  0.00000000000E+00  0.19696650692E+03  0.16427192360E+04  0.16308680766E+04 0.  0.
        3    1    3    3  502    0 -0.74639315309E+03 -0.11135319023E+03  0.40964618709E+03  0.85866890054E+03  0.10100000352E+00 0.  1.
       -3    1    3    3    0  502  0.74639315309E+03  0.11135319023E+03 -0.21267968017E+03  0.78405033544E+03  0.10100000352E+00 0. -1.
</event>
<event>
 5   0  0.2763895E-04  0.1604104E+04  0.7818609E-02  0.8818031E-01
       -1   -1    0    0    0  501  0.00000000000E+00  0.00000000000E+00  0.10297465754E+04  0.10297465754E+04  0.50400001928E-02 0. -1.
        1   -1    0    0  501    0  0.00000000000E+00  0.00000000000E+00 -0.62470485297E+03  0.62470485299E+03  0.50400001928E-02 0.  1.
    10030    2    1    2    0    0  0.00000000000E+00  0.00000000000E+00  0.40504172244E+03  0.16544514284E+04  0.16041043395E+04 0.  0.
        4    1    3    3  502    0  0.20587638004E+03  0.27379383870E+03  0.95049856137E+03  0.10103451282E+04  0.12699999809E+01 0. -1.
       -4    1    3    3    0  502 -0.20587638004E+03 -0.27379383870E+03 -0.54545683893E+03  0.64410630024E+03  0.12699999809E+01 0.  1.
</event>
<event>
 5   0  0.2763895E-04  0.1609955E+04  0.7818609E-02  0.8814455E-01
        1   -1    0    0  501    0  0.00000000000E+00  0.00000000000E+00  0.14497380166E+04  0.14497380167E+04  0.50400001928E-02 0. -1.
       -1   -1    0    0    0  501  0.00000000000E+00  0.00000000000E+00 -0.44696982107E+03  0.44696982110E+03  0.50400001928E-02 0.  1.
    10030    2    1    2    0    0  0.00000000000E+00  0.00000000000E+00  0.10027681956E+04  0.18967078378E+04  0.16099554552E+04 0.  0.
        4    1    3    3  502    0 -0.58847625833E+03  0.45858682282E+03  0.85751967404E+03  0.11366388102E+04  0.12699999809E+01 0. -1.
       -4    1    3    3    0  502  0.58847625833E+03 -0.45858682282E+03  0.14524852153E+03  0.76006902751E+03  0.12699999809E+01 0.  1.
</event>
<event>
 5   0  0.5264308E-04  0.1438923E+04  0.7818609E-02  0.8926116E-01
        2   -1    0    0  501    0  0.00000000000E+00  0.00000000000E+00  0.11049294172E+04  0.11049294172E+04  0.25500000920E-02 0.  1.
       -2   -1    0    0    0  501  0.00000000000E+00  0.00000000000E+00 -0.46846887239E+03  0.46846887239E+03  0.25500000920E-02 0. -1.
    10030    2    1    2    0    0  0.00000000000E+00  0.00000000000E+00  0.63646054478E+03  0.15733982896E+04  0.14389232615E+04 0.  0.
        3    1    3    3  502    0  0.32939553415E+03 -0.41616704205E+03 -0.21288811679E+03  0.57185468895E+03  0.10100000352E+00 0. -1.
       -3    1    3    3    0  502 -0.32939553415E+03  0.41616704205E+03  0.84934866157E+03  0.10015436006E+04  0.10100000352E+00 0.  1.
</event>
<event>
 5   0  0.2730707E-04  0.1563570E+04  0.7818609E-02  0.8843246E-01
        1   -1    0    0  501    0  0.00000000000E+00  0.00000000000E+00  0.68756516765E+03  0.68756516767E+03  0.50400001928E-02 0.  1.
       -1   -1    0    0    0  501  0.00000000000E+00  0.00000000000E+00 -0.88891626941E+03  0.88891626943E+03  0.50400001928E-02 0. -1.
    10030    2    1    2    0    0  0.00000000000E+00  0.00000000000E+00 -0.20135110176E+03  0.15764814371E+04  0.15635700993E+04 0.  0.
        5    1    3    3  502    0 -0.31583655608E+03 -0.84566706649E+02 -0.81665312109E+03  0.87968668753E+03  0.46999998093E+01 0. -1.
       -5    1    3    3    0  502  0.31583655608E+03  0.84566706649E+02  0.61530201933E+03  0.69679474956E+03  0.46999998093E+01 0.  1.
</event>
<event>
 5   0  0.2689675E-04  0.1746113E+04  0.7818609E-02  0.8735493E-01
       -1   -1    0    0    0  501  0.00000000000E+00  0.00000000000E+00  0.54621610266E+03  0.54621610269E+03  0.50400001928E-02 0.  1.
        1   -1    0    0  501    0  0.00000000000E+00  0.00000000000E+00 -0.13954688416E+04  0.13954688416E+04  0.50400001928E-02 0. -1.
    10030    2    1    2    0    0  0.00000000000E+00  0.00000000000E+00 -0.84925273891E+03  0.19416849443E+04  0.17461128853E+04 0.  0.
        1    1    3    3  502    0 -0.89523203217E+02 -0.54871099021E+03 -0.11731707686E+04  0.12982402732E+04  0.50400001928E-02 0. -1.
       -1    1    3    3    0  502  0.89523203217E+02  0.54871099021E+03  0.32391802971E+03  0.64344467103E+03  0.50400001928E-02 0.  1.
</event>
<event>
 5   0  0.2763895E-04  0.1592993E+04  0.7818609E-02  0.8824864E-01
       -1   -1    0    0    0  501  0.00000000000E+00  0.00000000000E+00  0.10402345671E+04  0.10402345671E+04  0.50400001928E-02 0.  1.
        1   -1    0    0  501    0  0.00000000000E+00  0.00000000000E+00 -0.60986866186E+03  0.60986866188E+03  0.50400001928E-02 0. -1.
    10030    2    1    2    0    0  0.00000000000E+00  0.00000000000E+00  0.43036590522E+03  0.16501032290E+04  0.15929927351E+04 0.  0.
        4    1    3    3  502    0 -0.67446918625E+02  0.65750972947E+03 -0.24520212389E+03  0.70497789018E+03  0.12699999809E+01 0. -1.
       -4    1    3    3    0  502  0.67446918625E+02 -0.65750972947E+03  0.67556802911E+03  0.94512533880E+03  0.12699999809E+01 0.  1.
</event>
<event>
 5   0  0.5315984E-04  0.1588554E+04  0.7818609E-02  0.8827610E-01
        2   -1    0    0  501    0  0.00000000000E+00  0.00000000000E+00  0.85904271624E+03  0.85904271624E+03  0.25500000920E-02 0.  1.
       -2   -1    0    0    0  501  0.00000000000E+00  0.00000000000E+00 -0.73439461703E+03  0.73439461703E+03  0.25500000920E-02 0. -1.
    10030    2    1    2    0    0  0.00000000000E+00  0.00000000000E+00  0.12464809922E+03  0.15934373333E+04  0.15885544959E+04 0.  0.
        2    1    3    3  502    0 -0.15605384792E+03  0.10489980994E+03 -0.71174711609E+03  0.73616623860E+03  0.25500000920E-02 0. -1.
       -2    1    3    3    0  502  0.15605384792E+03 -0.10489980994E+03  0.83639521531E+03  0.85727109468E+03  0.25500000920E-02 0.  1.
</event>
<event>
 5   0  0.5315984E-04  0.1604016E+04  0.7818609E-02  0.8818085E-01
        2   -1    0    0  501    0  0.00000000000E+00  0.00000000000E+00  0.12386284794E+04  0.12386284794E+04  0.25500000920E-02 0. -1.
       -2   -1    0    0    0  501  0.00000000000E+00  0.00000000000E+00 -0.51929735086E+03  0.51929735087E+03  0.25500000920E-02 0.  1.
    10030    2    1    2    0    0  0.00000000000E+00  0.00000000000E+00  0.71933112856E+03  0.17579258303E+04  0.16040155711E+04 0.  0.
        2    1    3    3  502    0 -0.73601197210E+03 -0.77108397889E+02  0.20881023623E+02  0.74033461709E+03  0.25500000920E-02 0. -1.
       -2    1    3    3    0  502  0.73601197210E+03  0.77108397889E+02  0.69845010493E+03  0.10175912132E+04  0.25500000920E-02 0.  1.
</event>
<event>
 5   0  0.5315984E-04  0.1587613E+04  0.7818609E-02  0.8828194E-01
        2   -1    0    0  501    0  0.00000000000E+00  0.00000000000E+00  0.13191852779E+04  0.13191852779E+04  0.25500000920E-02 0.  1.
       -2   -1    0    0    0  501  0.00000000000E+00  0.00000000000E+00 -0.47766491756E+03  0.47766491757E+03  0.25500000920E-02 0. -1.
    10030    2    1    2    0    0  0.00000000000E+00  0.00000000000E+00  0.84152036035E+03  0.17968501955E+04  0.15876127072E+04 0.  0.
        2    1    3    3  502    0 -0.14666362731E+03 -0.34178430445E+03 -0.37295074886E+03  0.52670579210E+03  0.25500000920E-02 0. -1.
       -2    1    3    3    0  502  0.14666362731E+03  0.34178430445E+03  0.12144711092E+04  0.12701444034E+04  0.25500000920E-02 0.  1.
</event>
<event>
 5   0  0.2649086E-04  0.1618565E+04  0.7818609E-02  0.8809223E-01
        1   -1    0    0  501    0  0.00000000000E+00  0.00000000000E+00  0.17800735917E+04  0.17800735917E+04  0.50400001928E-02 0. -1.
       -1   -1    0    0    0  501  0.00000000000E+00  0.00000000000E+00 -0.36792764797E+03  0.36792764801E+03  0.50400001928E-02 0.  1.
    10030    2    1    2    0    0  0.00000000000E+00  0.00000000000E+00  0.14121459438E+04  0.21480012397E+04  0.16185651545E+04 0.  0.
        2    1    3    3  502    0  0.43076492479E+03 -0.67606993049E+03  0.85331145895E+03  0.11707986237E+04  0.25500000920E-02 0. -1.
       -2    1    3    3    0  502 -0.43076492479E+03  0.67606993049E+03  0.55883448482E+03  0.97720261602E+03  0.25500000920E-02 0.  1.
</event>
<event>
 5   0  0.2763895E-04  0.1581718E+04  0.7818609E-02  0.8831859E-01
        1   -1    0    0  501    0  0.00000000000E+00  0.00000000000E+00  0.78166619635E+03  0.78166619637E+03  0.50400001928E-02 0. -1.
       -1   -1    0    0    0  501  0.00000000000E+00  0.00000000000E+00 -0.80015973523E+03  0.80015973524E+03  0.50400001928E-02 0.  1.
    10030    2    1    2    0    0  0.00000000000E+00  0.00000000000E+00 -0.18493538878E+02  0.15818259316E+04  0.15817178215E+04 0.  0.
        4    1    3    3  502    0  0.18922944257E+02  0.46210226834E+03  0.63232620503E+03  0.78341216909E+03  0.12699999809E+01 0. -1.
       -4    1    3    3    0  502 -0.18922944257E+02 -0.46210226834E+03 -0.65081974390E+03  0.79841376252E+03  0.12699999809E+01 0.  1.
</event>
<event>
 5   0  0.2796994E-04  0.1598343E+04  0.7818609E-02  0.8821567E-01
        1   -1    0    0  501    0  0.00000000000E+00  0.00000000000E+00  0.89673894178E+03  0.89673894179E+03  0.50400001928E-02 0. -1.
       -1   -1    0    0    0  501  0.00000000000E+00  0.00000000000E+00 -0.71221925913E+03  0.71221925915E+03  0.50400001928E-02 0.  1.
    10030    2    1    2    0    0  0.00000000000E+00  0.00000000000E+00  0.18451968265E+03  0.16089582009E+04  0.15983425725E+04 0.  0.
        3    1    3    3  502    0  0.48408354849E+03  0.62852995920E+03  0.18927389822E+03  0.81560493518E+03  0.10100000352E+00 0.  1.
       -3    1    3    3    0  502 -0.48408354849E+03 -0.62852995920E+03 -0.47542155770E+01  0.79335326577E+03  0.10100000352E+00 0. -1.
</event>
<event>
 5   0  0.5381164E-04  0.1602806E+04  0.7818609E-02  0.8818826E-01
       -2   -1    0    0    0  501  0.00000000000E+00  0.00000000000E+00  0.49631759467E+03  0.49631759468E+03  0.25500000920E-02 0. -1.
        2   -1    0    0  501    0  0.00000000000E+00  0.00000000000E+00 -0.12940230372E+04  0.12940230372E+04  0.25500000920E-02 0.  1.
    10030    2    1    2    0    0  0.00000000000E+00  0.00000000000E+00 -0.79770544251E+03  0.17903406319E+04  0.16028055419E+04 0.  0.
        5    1    3    3  502    0  0.11705565742E+03  0.37349892017E+03 -0.11799740865E+04  0.12432073058E+04  0.46999998093E+01 0.  1.
       -5    1    3    3    0  502 -0.11705565742E+03 -0.37349892017E+03  0.38226864401E+03  0.54713332607E+03  0.46999998093E+01 0. -1.
</event>
<event>
 5   0  0.2763895E-04  0.1612278E+04  0.7818609E-02  0.8813040E-01
       -1   -1    0    0    0  501  0.00000000000E+00  0.00000000000E+00  0.18054506349E+04  0.18054506349E+04  0.50400001928E-02 0. -1.
        1   -1    0    0  501    0  0.00000000000E+00  0.00000000000E+00 -0.35994341558E+03  0.35994341561E+03  0.50400001928E-02 0.  1.
    10030    2    1    2    0    0  0.00000000000E+00  0.00000000000E+00  0.14455072194E+04  0.21653940505E+04  0.16122779763E+04 0.  0.
        4    1    3    3  502    0 -0.47036490787E+02 -0.78238230779E+03  0.46961544178E+03  0.91371482590E+03  0.12699999809E+01 0.  1.
       -4    1    3    3    0  502  0.47036490787E+02  0.78238230779E+03  0.97589177757E+03  0.12516792247E+04  0.12699999809E+01 0. -1.
</event>
<event>
 5   0  0.5381164E-04  0.1593807E+04  0.7818609E-02  0.8824362E-01
       -2   -1    0    0    0  501  0.00000000000E+00  0.00000000000E+00  0.54790636003E+03  0.54790636004E+03  0.25500000920E-02 0.  1.
        2   -1    0    0  501    0  0.00000000000E+00  0.00000000000E+00 -0.11590577150E+04  0.11590577150E+04  0.25500000920E-02 0. -1.
    10030    2    1    2    0    0  0.00000000000E+00  0.00000000000E+00 -0.61115135500E+03  0.17069640751E+04  0.15938068813E+04 0.  0.
        5    1    3    3  502    0 -0.19132825061E+03 -0.95062084794E+02 -0.11277993115E+04  0.11478661405E+04  0.46999998093E+01 0. -1.
       -5    1    3    3    0  502  0.19132825061E+03  0.95062084794E+02  0.51664795653E+03  0.55909793456E+03  0.46999998093E+01 0.  1.
</event>
<event>
 5   0  0.2763895E-04  0.1697634E+04  0.7818609E-02  0.8762715E-01
        1   -1    0    0  501    0  0.00000000000E+00  0.00000000000E+00  0.10308044344E+04  0.10308044345E+04  0.50400001928E-02 0. -1.
       -1   -1    0    0    0  501  0.00000000000E+00  0.00000000000E+00 -0.69895916048E+03  0.69895916050E+03  0.50400001928E-02 0.  1.
    10030    2    1    2    0    0  0.00000000000E+00  0.00000000000E+00  0.33184527396E+03  0.17297635950E+04  0.16976338853E+04 0.  0.
        4    1    3    3  502    0  0.27455449163E+03 -0.14320724104E+03 -0.63935148739E+03  0.71039455240E+03  0.12699999809E+01 0.  1.
       -4    1    3    3    0  502 -0.27455449163E+03  0.14320724104E+03  0.97119676134E+03  0.10193690425E+04  0.12699999809E+01 0. -1.
</event>
<event>
 5   0  0.1908125E-04  0.1603834E+04  0.7818609E-02  0.8818196E-01
        3   -1    0    0  501    0  0.00000000000E+00  0.00000000000E+00  0.89301780961E+03  0.89301781532E+03  0.10100000352E+00 0.  1.
       -3   -1    0    0    0  501  0.00000000000E+00  0.00000000000E+00 -0.72011006060E+03  0.72011006769E+03  0.10100000352E+00 0. -1.
    10030    2    1    2    0    0  0.00000000000E+00  0.00000000000E+00  0.17290774901E+03  0.16131278830E+04  0.16038343048E+04 0.  0.
        2    1    3    3  502    0 -0.58460620384E+03  0.14072329890E+01  0.63854691301E+03  0.86574162080E+03  0.25500000920E-02 0.  1.
       -2    1    3    3    0  502  0.58460620384E+03 -0.14072329890E+01 -0.46563916400E+03  0.74738626220E+03  0.25500000920E-02 0. -1.
</event>
<event>
 5   0  0.2796994E-04  0.1575996E+04  0.7818609E-02  0.8835432E-01
       -1   -1    0    0    0  501  0.00000000000E+00  0.00000000000E+00  0.41316053068E+03  0.41316053071E+03  0.50400001928E-02 0.  1.
        1   -1    0    0  501    0  0.00000000000E+00  0.00000000000E+00 -0.15029051840E+04  0.15029051840E+04  0.50400001928E-02 0. -1.
    10030    2    1    2    0    0  0.00000000000E+00  0.00000000000E+00 -0.10897446533E+04  0.19160657147E+04  0.15759963241E+04 0.  0.
        3    1    3    3  502    0  0.82566945162E+02  0.37492787471E+02 -0.14965405073E+04  0.14992853330E+04  0.10100000352E+00 0. -1.
       -3    1    3    3    0  502 -0.82566945162E+02 -0.37492787471E+02  0.40679585400E+03  0.41678038171E+03  0.10100000352E+00 0.  1.
</event>
<event>
 5   0  0.2796994E-04  0.1596157E+04  0.7818609E-02  0.8822912E-01
        1   -1    0    0  501    0  0.00000000000E+00  0.00000000000E+00  0.14519509963E+04  0.14519509963E+04  0.50400001928E-02 0. -1.
       -1   -1    0    0    0  501  0.00000000000E+00  0.00000000000E+00 -0.43867126779E+03  0.43867126782E+03  0.50400001928E-02 0.  1.
    10030    2    1    2    0    0  0.00000000000E+00  0.00000000000E+00  0.10132797285E+04  0.18906222641E+04  0.15961568649E+04 0.  0.
        3    1    3    3  502    0  0.42697579378E+03  0.61537507818E+03  0.83303852097E+03  0.11202446175E+04  0.10100000352E+00 0. -1.
       -3    1    3    3    0  502 -0.42697579378E+03 -0.61537507818E+03  0.18024120749E+03  0.77037764662E+03  0.10100000352E+00 0.  1.
</event>
<event>
 5   0  0.5083831E-04  0.1599561E+04  0.7818609E-02  0.8820818E-01
       -2   -1    0    0    0  501  0.00000000000E+00  0.00000000000E+00  0.30401923169E+03  0.30401923170E+03  0.25500000920E-02 0.  1.
        2   -1    0    0  501    0  0.00000000000E+00  0.00000000000E+00 -0.21039753129E+04  0.21039753129E+04  0.25500000920E-02 0. -1.
    10030    2    1    2    0    0  0.00000000000E+00  0.00000000000E+00 -0.17999560812E+04  0.24079945446E+04  0.15995611375E+04 0.  0.
        4    1    3    3  502    0 -0.22204260168E+03  0.51466890730E+03 -0.17588010951E+04  0.18459604292E+04  0.12699999809E+01 0. -1.
       -4    1    3    3    0  502  0.22204260168E+03 -0.51466890730E+03 -0.41154986103E+02  0.56203411541E+03  0.12699999809E+01 0.  1.
</event>
<event>
 5   0  0.5315984E-04  0.1612758E+04  0.7818609E-02  0.8812749E-01
        2   -1    0    0  501    0  0.00000000000E+00  0.00000000000E+00  0.72649740164E+03  0.72649740164E+03  0.25500000920E-02 0. -1.
       -2   -1    0    0    0  501  0.00000000000E+00  0.00000000000E+00 -0.89504354096E+03  0.89504354096E+03  0.25500000920E-02 0.  1.
    10030    2    1    2    0    0  0.00000000000E+00  0.00000000000E+00 -0.16854613932E+03  0.16215409426E+04  0.16127576468E+04 0.  0.
        2    1    3    3  502    0 -0.13551881356E+03 -0.27967676899E+03  0.66386423367E+03  0.73300761571E+03  0.25500000920E-02 0. -1.
       -2    1    3    3    0  502  0.13551881356E+03  0.27967676899E+03 -0.83241037299E+03  0.88853332690E+03  0.25500000920E-02 0.  1.
</event>
<event>
 5   0  0.2796994E-04  0.1611583E+04  0.7818609E-02  0.8813463E-01
       -1   -1    0    0    0  501  0.00000000000E+00  0.00000000000E+00  0.19516298321E+04  0.19516298321E+04  0.50400001928E-02 0.  1.
        1   -1    0    0  501    0  0.00000000000E+00  0.00000000000E+00 -0.33269636301E+03  0.33269636304E+03  0.50400001928E-02 0. -1.
    10030    2    1    2    0    0  0.00000000000E+00  0.00000000000E+00  0.16189334690E+04  0.22843261951E+04  0.16115832552E+04 0.  0.
        3    1    3    3  502    0 -0.39564840589E+03 -0.16093444934E+03 -0.15903389202E+03  0.45577335056E+03  0.10100000352E+00 0. -1.
       -3    1    3    3    0  502  0.39564840589E+03  0.16093444934E+03  0.17779673611E+04  0.18285528445E+04  0.10100000352E+00 0.  1.
</event>
<event>
 5   0  0.5264308E-04  0.1598231E+04  0.7818609E-02  0.8821635E-01
        2   -1    0    0  501    0  0.00000000000E+00  0.00000000000E+00  0.92284930108E+03  0.92284930108E+03  0.25500000920E-02 0.  1.
       -2   -1    0    0    0  501  0.00000000000E+00  0.00000000000E+00 -0.69197201689E+03  0.69197201689E+03  0.25500000920E-02 0. -1.
    10030    2    1    2    0    0  0.00000000000E+00  0.00000000000E+00  0.23087728419E+03  0.16148213180E+04  0.15982313877E+04 0.  0.
        3    1    3    3  502    0  0.28169111970E+03 -0.51298533752E+03 -0.43434377924E+03  0.72880612799E+03  0.10100000352E+00 0. -1.
       -3    1    3    3    0  502 -0.28169111970E+03  0.51298533752E+03  0.66522106343E+03  0.88601518998E+03  0.10100000352E+00 0.  1.
</event>
<event>
 5   0  0.2689675E-04  0.1601655E+04  0.7818609E-02  0.8819532E-01
        1   -1    0    0  501    0  0.00000000000E+00  0.00000000000E+00  0.72395340176E+03  0.72395340178E+03  0.50400001928E-02 0.  1.
       -1   -1    0    0    0  501  0.00000000000E+00  0.00000000000E+00 -0.88586514395E+03  0.88586514396E+03  0.50400001928E-02 0. -1.
    10030    2    1    2    0    0  0.00000000000E+00  0.00000000000E+00 -0.16191174218E+03  0.16098185457E+04  0.16016554991E+04 0.  0.
        1    1    3    3  502    0 -0.73683334843E+03 -0.30753169705E+03 -0.18786306405E+02  0.79865640508E+03  0.50400001928E-02 0.  1.
       -1    1    3    3    0  502  0.73683334843E+03  0.30753169705E+03 -0.14312543578E+03  0.81116214066E+03  0.50400001928E-02 0. -1.
</event>
<event>
 5   0  0.2763895E-04  0.1583668E+04  0.7818609E-02  0.8830644E-01
       -1   -1    0    0    0  501  0.00000000000E+00  0.00000000000E+00  0.17296632057E+04  0.17296632057E+04  0.50400001928E-02 0.  1.
        1   -1    0    0  501    0  0.00000000000E+00  0.00000000000E+00 -0.36249915173E+03  0.36249915176E+03  0.50400001928E-02 0. -1.
    10030    2    1    2    0    0  0.00000000000E+00  0.00000000000E+00  0.13671640539E+04  0.20921623574E+04  0.15836684563E+04 0.  0.
        4    1    3    3  502    0 -0.77026688942E+03  0.15443582916E+03  0.81461835524E+03  0.11317094079E+04  0.12699999809E+01 0.  1.
       -4    1    3    3    0  502  0.77026688942E+03 -0.15443582916E+03  0.55254569869E+03  0.96045294955E+03  0.12699999809E+01 0. -1.
</event>
<event>
 5   0  0.2730707E-04  0.1608497E+04  0.7818609E-02  0.8815345E-01
        1   -1    0    0  501    0  0.00000000000E+00  0.00000000000E+00  0.48483531044E+03  0.48483531046E+03  0.50400001928E-02 0.  1.
       -1   -1    0    0    0  501  0.00000000000E+00  0.00000000000E+00 -0.13340941703E+04  0.13340941704E+04  0.50400001928E-02 0. -1.
    10030    2    1    2    0    0  0.00000000000E+00  0.00000000000E+00 -0.84925885990E+03  0.18189294808E+04  0.16084973873E+04 0.  0.
        5    1    3    3  502    0 -0.43555321635E+03  0.65366665806E+03 -0.61986361032E+03  0.10006196528E+04  0.46999998093E+01 0. -1.
       -5    1    3    3    0  502  0.43555321635E+03 -0.65366665806E+03 -0.22939524959E+03  0.81830982804E+03  0.46999998093E+01 0.  1.
</event>
<event>
 5   0  0.5264308E-04  0.1583695E+04  0.7818609E-02  0.8830628E-01
        2   -1    0    0  501    0  0.00000000000E+00  0.00000000000E+00  0.12972135212E+04  0.12972135212E+04  0.25500000920E-02 0. -1.
       -2   -1    0    0    0  501  0.00000000000E+00  0.00000000000E+00 -0.48336119411E+03  0.48336119412E+03  0.25500000920E-02 0.  1.
    10030    2    1    2    0    0  0.00000000000E+00  0.00000000000E+00  0.81385232711E+03  0.17805747153E+04  0.15836952695E+04 0.  0.
        3    1    3    3  502    0  0.73953607064E+03 -0.13067480997E+02  0.89044075407E+02  0.74499209151E+03  0.10100000352E+00 0.  1.
       -3    1    3    3    0  502 -0.73953607064E+03  0.13067480997E+02  0.72480825170E+03  0.10355826238E+04  0.10100000352E+00 0. -1.
</event>
<event>
 5   0  0.2689675E-04  0.1582507E+04  0.7818609E-02  0.8831368E-01
       -1   -1    0    0    0  501  0.00000000000E+00  0.00000000000E+00  0.63553176658E+03  0.63553176660E+03  0.50400001928E-02 0.  1.
        1   -1    0    0  501    0  0.00000000000E+00  0.00000000000E+00 -0.98513055743E+03  0.98513055744E+03  0.50400001928E-02 0. -1.
    10030    2    1    2    0    0  0.00000000000E+00  0.00000000000E+00 -0.34959879085E+03  0.16206623240E+04  0.15825065731E+04 0.  0.
        1    1    3    3  502    0 -0.42496230966E+03  0.43521461936E+03 -0.69304106397E+03  0.92212290173E+03  0.50400001928E-02 0. -1.
       -1    1    3    3    0  502  0.42496230966E+03 -0.43521461936E+03  0.34344227311E+03  0.69853942231E+03  0.50400001928E-02 0.  1.
</event>
<event>
 5   0  0.5131239E-04  0.1591992E+04  0.7818609E-02  0.8825483E-01
       -2   -1    0    0    0  501  0.00000000000E+00  0.00000000000E+00  0.77520319813E+03  0.77520319814E+03  0.25500000920E-02 0. -1.
        2   -1    0    0  501    0  0.00000000000E+00  0.00000000000E+00 -0.81734664021E+03  0.81734664022E+03  0.25500000920E-02 0.  1.
    10030    2    1    2    0    0  0.00000000000E+00  0.00000000000E+00 -0.42143442078E+02  0.15925498384E+04  0.15919921224E+04 0.  0.
        1    1    3    3  502    0 -0.32823339848E+03 -0.52540765514E+03  0.47892270743E+03  0.78304363076E+03  0.50400001928E-02 0. -1.
       -1    1    3    3    0  502  0.32823339848E+03  0.52540765514E+03 -0.52106614951E+03  0.80950620760E+03  0.50400001928E-02 0.  1.
</event>
<event>
 5   0  0.2763895E-04  0.1586785E+04  0.7818609E-02  0.8828708E-01
       -1   -1    0    0    0  501  0.00000000000E+00  0.00000000000E+00  0.78557393707E+03  0.78557393708E+03  0.50400001928E-02 0.  1.
        1   -1    0    0  501    0  0.00000000000E+00  0.00000000000E+00 -0.80128931751E+03  0.80128931752E+03  0.50400001928E-02 0. -1.
    10030    2    1    2    0    0  0.00000000000E+00  0.00000000000E+00 -0.15715380438E+02  0.15868632546E+04  0.15867854347E+04 0.  0.
        4    1    3    3  502    0 -0.53561858614E+03  0.31471550323E+03  0.48566146966E+03  0.78854409756E+03  0.12699999809E+01 0.  1.
       -4    1    3    3    0  502  0.53561858614E+03 -0.31471550323E+03 -0.50137685010E+03  0.79831915704E+03  0.12699999809E+01 0. -1.
</event>
<event>
 5   0  0.2730707E-04  0.1592078E+04  0.7818609E-02  0.8825430E-01
       -1   -1    0    0    0  501  0.00000000000E+00  0.00000000000E+00  0.59802956388E+03  0.59802956390E+03  0.50400001928E-02 0. -1.
        1   -1    0    0  501    0  0.00000000000E+00  0.00000000000E+00 -0.10596096830E+04  0.10596096830E+04  0.50400001928E-02 0.  1.
    10030    2    1    2    0    0  0.00000000000E+00  0.00000000000E+00 -0.46158011911E+03  0.16576392469E+04  0.15920777828E+04 0.  0.
        5    1    3    3  502    0 -0.34956031242E+02  0.27818197273E+03  0.54490545620E+03  0.61282230725E+03  0.46999998093E+01 0. -1.
       -5    1    3    3    0  502  0.34956031242E+02 -0.27818197273E+03 -0.10064855753E+04  0.10448169397E+04  0.46999998093E+01 0.  1.
</event>
<event>
 5   0  0.2649086E-04  0.1601191E+04  0.7818609E-02  0.8819817E-01
       -1   -1    0    0    0  501  0.00000000000E+00  0.00000000000E+00  0.53801337928E+03  0.53801337930E+03  0.50400001928E-02 0.  1.
        1   -1    0    0  501    0  0.00000000000E+00  0.00000000000E+00 -0.11913333641E+04  0.11913333641E+04  0.50400001928E-02 0. -1.
    10030    2    1    2    0    0  0.00000000000E+00  0.00000000000E+00 -0.65331998486E+03  0.17293467435E+04  0.16011911680E+04 0.  0.
        2    1    3    3  502    0 -0.84246521128E+02 -0.76001701159E+03 -0.58276776677E+03  0.96142685849E+03  0.25500000920E-02 0. -1.
       -2    1    3    3    0  502  0.84246521128E+02  0.76001701159E+03 -0.70552218086E+02  0.76791988496E+03  0.25500000920E-02 0.  1.
</event>
<event>
 5   0  0.2763895E-04  0.1661859E+04  0.7818609E-02  0.8783422E-01
       -1   -1    0    0    0  501  0.00000000000E+00  0.00000000000E+00  0.16191788323E+04  0.16191788324E+04  0.50400001928E-02 0. -1.
        1   -1    0    0  501    0  0.00000000000E+00  0.00000000000E+00 -0.42641593698E+03  0.42641593701E+03  0.50400001928E-02 0.  1.
    10030    2    1    2    0    0  0.00000000000E+00  0.00000000000E+00  0.11927628954E+04  0.20455947694E+04  0.16618587894E+04 0.  0.
        4    1    3    3  502    0  0.13335918437E+03 -0.22386803230E+02 -0.41277986325E+03  0.43436697552E+03  0.12699999809E+01 0.  1.
       -4    1    3    3    0  502 -0.13335918437E+03  0.22386803230E+02  0.16055427586E+04  0.16112277938E+04  0.12699999809E+01 0. -1.
</event>
<event>
 5   0  0.2730707E-04  0.1611791E+04  0.7818609E-02  0.8813337E-01
       -1   -1    0    0    0  501  0.00000000000E+00  0.00000000000E+00  0.71967745148E+03  0.71967745149E+03  0.50400001928E-02 0.  1.
        1   -1    0    0  501    0  0.00000000000E+00  0.00000000000E+00 -0.90244303500E+03  0.90244303501E+03  0.50400001928E-02 0. -1.
    10030    2    1    2    0    0  0.00000000000E+00  0.00000000000E+00 -0.18276558352E+03  0.16221204865E+04  0.16117914301E+04 0.  0.
        5    1    3    3  502    0  0.26171457622E+03  0.62583012658E+03  0.34647768660E+03  0.76172616080E+03  0.46999998093E+01 0.  1.
       -5    1    3    3    0  502 -0.26171457622E+03 -0.62583012658E+03 -0.52924327012E+03  0.86039432570E+03  0.46999998093E+01 0. -1.
</event>
<event>
 5   0  0.5315984E-04  0.1594135E+04  0.7818609E-02  0.8824159E-01
        2   -1    0    0  501    0  0.00000000000E+00  0.00000000000E+00  0.11907915193E+04  0.11907915193E+04  0.25500000920E-02 0.  1.
       -2   -1    0    0    0  501  0.00000000000E+00  0.00000000000E+00 -0.53352485770E+03  0.53352485771E+03  0.25500000920E-02 0. -1.
    10030    2    1    2    0    0  0.00000000000E+00  0.00000000000E+00  0.65726666157E+03  0.17243163770E+04  0.15941353467E+04 0.  0.
        2    1    3    3  502    0  0.32974766871E+03  0.19731180237E+03 -0.42671365548E+03  0.57423864042E+03  0.25500000920E-02 0. -1.
       -2    1    3    3    0  502 -0.32974766871E+03 -0.19731180237E+03  0.10839803170E+04  0.11500777366E+04  0.25500000920E-02 0.  1.
</event>
<event>
 5   0  0.2689675E-04  0.1605973E+04  0.7818609E-02  0.8816887E-01
       -1   -1    0    0    0  501  0.00000000000E+00  0.00000000000E+00  0.39072939227E+03  0.39072939230E+03  0.50400001928E-02 0.  1.
        1   -1    0    0  501    0  0.00000000000E+00  0.00000000000E+00 -0.16502146522E+04  0.16502146522E+04  0.50400001928E-02 0. -1.
    10030    2    1    2    0    0  0.00000000000E+00  0.00000000000E+00 -0.12594852599E+04  0.20409440445E+04  0.16059730610E+04 0.  0.
        1    1    3    3  502    0  0.72559085411E+03 -0.76135845482E+02 -0.20347168806E+03  0.75741632040E+03  0.50400001928E-02 0.  1.
       -1    1    3    3    0  502 -0.72559085411E+03  0.76135845482E+02 -0.10560135718E+04  0.12835277241E+04  0.50400001928E-02 0. -1.
</event>
<event>
 5   0  0.2689675E-04  0.1640796E+04  0.7818609E-02  0.8795870E-01
        1   -1    0    0  501    0  0.00000000000E+00  0.00000000000E+00  0.76425105618E+03  0.76425105620E+03  0.50400001928E-02 0. -1.
       -1   -1    0    0    0  501  0.00000000000E+00  0.00000000000E+00 -0.88066990268E+03  0.88066990270E+03  0.50400001928E-02 0.  1.
    10030    2    1    2    0    0  0.00000000000E+00  0.00000000000E+00 -0.11641884650E+03  0.16449209589E+04  0.16407960303E+04 0.  0.
        1    1    3    3  502    0  0.24937940825E+03 -0.62832627524E+03 -0.52421012849E+03  0.85544155631E+03  0.50400001928E-02 0.  1.
       -1    1    3    3    0  502 -0.24937940825E+03  0.62832627524E+03  0.40779128200E+03  0.78947940259E+03  0.50400001928E-02 0. -1.
</event>
<event>
 5   0  0.2689675E-04  0.1600453E+04  0.7818609E-02  0.8820270E-01
        1   -1    0    0  501    0  0.00000000000E+00  0.00000000000E+00  0.10580842244E+04  0.10580842244E+04  0.50400001928E-02 0. -1.
       -1   -1    0    0    0  501  0.00000000000E+00  0.00000000000E+00 -0.60520955222E+03  0.60520955224E+03  0.50400001928E-02 0.  1.
    10030    2    1    2    0    0  0.00000000000E+00  0.00000000000E+00  0.45287467218E+03  0.16632937767E+04  0.16004532854E+04 0.  0.
        1    1    3    3  502    0  0.22626830830E+03  0.27356936335E+02  0.10236396311E+04  0.10487057946E+04  0.50400001928E-02 0. -1.
       -1    1    3    3    0  502 -0.22626830830E+03 -0.27356936335E+02 -0.57076495892E+03  0.61458798203E+03  0.50400001928E-02 0.  1.
</event>
<event>
 5   0  0.5083831E-04  0.1584016E+04  0.7818609E-02  0.8830428E-01
       -2   -1    0    0    0  501  0.00000000000E+00  0.00000000000E+00  0.65504612396E+03  0.65504612397E+03  0.25500000920E-02 0.  1.
        2   -1    0    0  501    0  0.00000000000E+00  0.00000000000E+00 -0.95760673596E+03  0.95760673596E+03  0.25500000920E-02 0. -1.
    10030    2    1    2    0    0  0.00000000000E+00  0.00000000000E+00 -0.30256061199E+03  0.16126528599E+04  0.15840158846E+04 0.  0.
        4    1    3    3  502    0  0.57948310143E+03 -0.49692936086E+03 -0.36612992585E+03  0.84663580719E+03  0.12699999809E+01 0.  1.
       -4    1    3    3    0  502 -0.57948310143E+03  0.49692936086E+03  0.63569313855E+02  0.76601705274E+03  0.12699999809E+01 0. -1.
</event>
<event>
 5   0  0.2796994E-04  0.1581968E+04  0.7818609E-02  0.8831703E-01
       -1   -1    0    0    0  501  0.00000000000E+00  0.00000000000E+00  0.48019244256E+03  0.48019244259E+03  0.50400001928E-02 0.  1.
        1   -1    0    0  501    0  0.00000000000E+00  0.00000000000E+00 -0.13029269771E+04  0.13029269771E+04  0.50400001928E-02 0. -1.
    10030    2    1    2    0    0  0.00000000000E+00  0.00000000000E+00 -0.82273453451E+03  0.17831194197E+04  0.15819679992E+04 0.  0.
        3    1    3    3  502    0 -0.12944098182E+03  0.67687197202E+03 -0.84899441578E+03  0.10934816699E+04  0.10100000352E+00 0.  1.
       -3    1    3    3    0  502  0.12944098182E+03 -0.67687197202E+03  0.26259881267E+02  0.68963774973E+03  0.10100000352E+00 0. -1.
</event>
<event>
 5   0  0.5083831E-04  0.1610796E+04  0.7818609E-02  0.8813943E-01
        2   -1    0    0  501    0  0.00000000000E+00  0.00000000000E+00  0.76042919289E+03  0.76042919289E+03  0.25500000920E-02 0.  1.
       -2   -1    0    0    0  501  0.00000000000E+00  0.00000000000E+00 -0.85302642200E+03  0.85302642200E+03  0.25500000920E-02 0. -1.
    10030    2    1    2    0    0  0.00000000000E+00  0.00000000000E+00 -0.92597229110E+02  0.16134556149E+04  0.16107963169E+04 0.  0.
        4    1    3    3  502    0  0.47620246590E+03 -0.44192408065E+03  0.43051131680E+03  0.77936338660E+03  0.12699999809E+01 0.  1.
       -4    1    3    3    0  502 -0.47620246590E+03  0.44192408065E+03 -0.52310854591E+03  0.83409222829E+03  0.12699999809E+01 0. -1.
</event>
<event>
 5   0  0.5264308E-04  0.1590081E+04  0.7818609E-02  0.8826665E-01
        2   -1    0    0  501    0  0.00000000000E+00  0.00000000000E+00  0.13992738906E+04  0.13992738906E+04  0.25500000920E-02 0.  1.
       -2   -1    0    0    0  501  0.00000000000E+00  0.00000000000E+00 -0.45172652276E+03  0.45172652277E+03  0.25500000920E-02 0. -1.
    10030    2    1    2    0    0  0.00000000000E+00  0.00000000000E+00  0.94754736781E+03  0.18510004133E+04  0.15900806633E+04 0.  0.
        3    1    3    3  502    0 -0.45011808208E+03  0.38246013020E+03  0.10932709761E+04  0.12426276500E+04  0.10100000352E+00 0.  1.
       -3    1    3    3    0  502  0.45011808208E+03 -0.38246013020E+03 -0.14572360832E+03  0.60837276338E+03  0.10100000352E+00 0. -1.
</event>
<event>
 5   0  0.5131239E-04  0.1836907E+04  0.7818609E-02  0.8686916E-01
        2   -1    0    0  501    0  0.00000000000E+00  0.00000000000E+00  0.15037848129E+04  0.15037848129E+04  0.25500000920E-02 0.  1.
       -2   -1    0    0    0  501  0.00000000000E+00  0.00000000000E+00 -0.56095554724E+03  0.56095554724E+03  0.25500000920E-02 0. -1.
    10030    2    1    2    0    0  0.00000000000E+00  0.00000000000E+00  0.94282926571E+03  0.20647403602E+04  0.18369065656E+04 0.  0.
        1    1    3    3  502    0  0.28911376849E+03 -0.52373281415E+03 -0.31192595506E+03  0.67467075912E+03  0.50400001928E-02 0. -1.
       -1    1    3    3    0  502 -0.28911376849E+03  0.52373281415E+03  0.12547552208E+04  0.13900696011E+04  0.50400001928E-02 0.  1.
</event>
<event>
 5   0  0.5083831E-04  0.1458784E+04  0.7818609E-02  0.8912334E-01
        2   -1    0    0  501    0  0.00000000000E+00  0.00000000000E+00  0.62949553180E+03  0.62949553181E+03  0.25500000920E-02 0. -1.
       -2   -1    0    0    0  501  0.00000000000E+00  0.00000000000E+00 -0.84514094462E+03  0.84514094463E+03  0.25500000920E-02 0.  1.
    10030    2    1    2    0    0  0.00000000000E+00  0.00000000000E+00 -0.21564541282E+03  0.14746364764E+04  0.14587836692E+04 0.  0.
        4    1    3    3  502    0  0.27065460081E+03  0.46950881998E+03  0.38566104567E+03  0.66515298994E+03  0.12699999809E+01 0. -1.
       -4    1    3    3    0  502 -0.27065460081E+03 -0.46950881998E+03 -0.60130645849E+03  0.80948348649E+03  0.12699999809E+01 0.  1.
</event>
<event>
 5   0  0.2796994E-04  0.1606813E+04  0.7818609E-02  0.8816374E-01
        1   -1    0    0  501    0  0.00000000000E+00  0.00000000000E+00  0.98161031455E+03  0.98161031456E+03  0.50400001928E-02 0.  1.
       -1   -1    0    0    0  501  0.00000000000E+00  0.00000000000E+00 -0.65755400898E+03  0.65755400900E+03  0.50400001928E-02 0. -1.
    10030    2    1    2    0    0  0.00000000000E+00  0.00000000000E+00  0.32405630557E+03  0.16391643236E+04  0.16068127428E+04 0.  0.
        3    1    3    3  502    0  0.54592949913E+03 -0.18460160906E+03 -0.40901459581E+03  0.70668926827E+03  0.10100000352E+00 0. -1.
       -3    1    3    3    0  502 -0.54592949913E+03  0.18460160906E+03  0.73307090138E+03  0.93247505529E+03  0.10100000352E+00 0.  1.
</event>
<event>
 5   0  0.5264308E-04  0.1579203E+04  0.7818609E-02  0.8833427E-01
        2   -1    0    0  501    0  0.00000000000E+00  0.00000000000E+00  0.91007053414E+03  0.91007053414E+03  0.25500000920E-02 0. -1.
       -2   -1    0    0    0  501  0.00000000000E+00  0.00000000000E+00 -0.68507921620E+03  0.68507921620E+03  0.25500000920E-02 0.  1.
    10030    2    1    2    0    0  0.00000000000E+00  0.00000000000E+00  0.22499131794E+03  0.15951497503E+04  0.15792028473E+04 0.  0.
        3    1    3    3  502    0  0.50185701715E+03  0.21952801065E+03 -0.46194506710E+03  0.71655165085E+03  0.10100000352E+00 0.  1.
       -3    1    3    3    0  502 -0.50185701715E+03 -0.21952801065E+03  0.68693638504E+03  0.87859809948E+03  0.10100000352E+00 0. -1.
</event>
<event>
 5   0  0.2796994E-04  0.1542245E+04  0.7818609E-02  0.8856837E-01
        1   -1    0    0  501    0  0.00000000000E+00  0.00000000000E+00  0.70852960850E+03  0.70852960852E+03  0.50400001928E-02 0. -1.
       -1   -1    0    0    0  501  0.00000000000E+00  0.00000000000E+00 -0.83924463145E+03  0.83924463146E+03  0.50400001928E-02 0.  1.
    10030    2    1    2    0    0  0.00000000000E+00  0.00000000000E+00 -0.13071502294E+03  0.15477742400E+04  0.15422446890E+04 0.  0.
        3    1    3    3  502    0 -0.17050109926E+03 -0.48898209569E+01 -0.82007449446E+03  0.83762564542E+03  0.10100000352E+00 0.  1.
       -3    1    3    3    0  502  0.17050109926E+03  0.48898209569E+01  0.68935947151E+03  0.71014859457E+03  0.10100000352E+00 0. -1.
</event>
<event>
 5   0  0.5083831E-04  0.1600855E+04  0.7818609E-02  0.8820023E-01
        2   -1    0    0  501    0  0.00000000000E+00  0.00000000000E+00  0.14442926251E+04  0.14442926251E+04  0.25500000920E-02 0.  1.
       -2   -1    0    0    0  501  0.00000000000E+00  0.00000000000E+00 -0.44359701550E+03  0.44359701551E+03  0.25500000920E-02 0. -1.
    10030    2    1    2    0    0  0.00000000000E+00  0.00000000000E+00  0.10006956096E+04  0.18878896406E+04  0.16008546443E+04 0.  0.
        4    1    3    3  502    0  0.16158075092E+03  0.74726886852E+03  0.77982769520E+03  0.10920860534E+04  0.12699999809E+01 0.  1.
       -4    1    3    3    0  502 -0.16158075092E+03 -0.74726886852E+03  0.22086791441E+03  0.79580358722E+03  0.12699999809E+01 0. -1.
</event>
<event>
 5   0  0.5315984E-04  0.1612193E+04  0.7818609E-02  0.8813092E-01
        2   -1    0    0  501    0  0.00000000000E+00  0.00000000000E+00  0.12369000067E+04  0.12369000067E+04  0.25500000920E-02 0. -1.
       -2   -1    0    0    0  501  0.00000000000E+00  0.00000000000E+00 -0.52533895903E+03  0.52533895904E+03  0.25500000920E-02 0.  1.
    10030    2    1    2    0    0  0.00000000000E+00  0.00000000000E+00  0.71156104767E+03  0.17622389657E+04  0.16121932415E+04 0.  0.
        2    1    3    3  502    0  0.43756817125E+03  0.46968320196E+03 -0.17716620973E+03  0.66592498119E+03  0.25500000920E-02 0.  1.
       -2    1    3    3    0  502 -0.43756817125E+03 -0.46968320196E+03  0.88872725740E+03  0.10963139846E+04  0.25500000920E-02 0. -1.
</event>
<event>
 5   0  0.5131239E-04  0.1602572E+04  0.7818609E-02  0.8818969E-01
        2   -1    0    0  501    0  0.00000000000E+00  0.00000000000E+00  0.80940039973E+03  0.80940039973E+03  0.25500000920E-02 0.  1.
       -2   -1    0    0    0  501  0.00000000000E+00  0.00000000000E+00 -0.79325304384E+03  0.79325304384E+03  0.25500000920E-02 0. -1.
    10030    2    1    2    0    0  0.00000000000E+00  0.00000000000E+00  0.16147355887E+02  0.16026534436E+04  0.16025720961E+04 0.  0.
        1    1    3    3  502    0 -0.56318502821E+03 -0.45804501089E+01 -0.56192101969E+03  0.79558380383E+03  0.50400001928E-02 0. -1.
       -1    1    3    3    0  502  0.56318502821E+03  0.45804501089E+01  0.57806837558E+03  0.80706963974E+03  0.50400001928E-02 0.  1.
</event>
<event>
 5   0  0.5264308E-04  0.1614035E+04  0.7818609E-02  0.8811972E-01
       -2   -1    0    0    0  501  0.00000000000E+00  0.00000000000E+00  0.44419995326E+03  0.44419995327E+03  0.25500000920E-02 0.  1.
        2   -1    0    0  501    0  0.00000000000E+00  0.00000000000E+00 -0.14661798170E+04  0.14661798170E+04  0.25500000920E-02 0. -1.
    10030    2    1    2    0    0  0.00000000000E+00  0.00000000000E+00 -0.10219798637E+04  0.19103797702E+04  0.16140347037E+04 0.  0.
        3    1    3    3  502    0 -0.63988462485E+03  0.72408966700E+02  0.64711525105E+02  0.64721169895E+03  0.10100000352E+00 0.  1.
       -3    1    3    3    0  502  0.63988462485E+03 -0.72408966700E+02 -0.10866913888E+04  0.12631680713E+04  0.10100000352E+00 0. -1.
</event>
<event>
 5   0  0.5315984E-04  0.1589233E+04  0.7818609E-02  0.8827190E-01
       -2   -1    0    0    0  501  0.00000000000E+00  0.00000000000E+00  0.64823280336E+03  0.64823280336E+03  0.25500000920E-02 0. -1.
        2   -1    0    0  501    0  0.00000000000E+00  0.00000000000E+00 -0.97405634191E+03  0.97405634191E+03  0.25500000920E-02 0.  1.
    10030    2    1    2    0    0  0.00000000000E+00  0.00000000000E+00 -0.32582353855E+03  0.16222891453E+04  0.15892328629E+04 0.  0.
        2    1    3    3  502    0  0.51018173588E+03  0.93509515733E+02 -0.77741806274E+03  0.93456314791E+03  0.25500000920E-02 0. -1.
       -2    1    3    3    0  502 -0.51018173588E+03 -0.93509515733E+02  0.45159452419E+03  0.68772599736E+03  0.25500000920E-02 0.  1.
</event>
<event>
 5   0  0.2649086E-04  0.1666341E+04  0.7818609E-02  0.8780797E-01
       -1   -1    0    0    0  501  0.00000000000E+00  0.00000000000E+00  0.63198793604E+03  0.63198793606E+03  0.50400001928E-02 0. -1.
        1   -1    0    0  501    0  0.00000000000E+00  0.00000000000E+00 -0.10983963313E+04  0.10983963313E+04  0.50400001928E-02 0.  1.
    10030    2    1    2    0    0  0.00000000000E+00  0.00000000000E+00 -0.46640839528E+03  0.17303842674E+04  0.16663411780E+04 0.  0.
        2    1    3    3  502    0  0.47021402959E+03 -0.67123025604E+03 -0.77363267583E+02  0.82318671358E+03  0.25500000920E-02 0. -1.
       -2    1    3    3    0  502 -0.47021402959E+03  0.67123025604E+03 -0.38904512769E+03  0.90719755381E+03  0.25500000920E-02 0.  1.
</event>
<event>
 5   0  0.2649086E-04  0.1594146E+04  0.7818609E-02  0.8824152E-01
        1   -1    0    0  501    0  0.00000000000E+00  0.00000000000E+00  0.13463970412E+04  0.13463970412E+04  0.50400001928E-02 0. -1.
       -1   -1    0    0    0  501  0.00000000000E+00  0.00000000000E+00 -0.47187094659E+03  0.47187094661E+03  0.50400001928E-02 0.  1.
    10030    2    1    2    0    0  0.00000000000E+00  0.00000000000E+00  0.87452609457E+03  0.18182679878E+04  0.15941463500E+04 0.  0.
        2    1    3    3  502    0 -0.13017008242E+03 -0.70024074615E+03  0.84540366500E+03  0.11054359817E+04  0.25500000920E-02 0. -1.
       -2    1    3    3    0  502  0.13017008242E+03  0.70024074615E+03  0.29122429566E+02  0.71283200604E+03  0.25500000920E-02 0.  1.
</event>
<event>
 5   0  0.2763895E-04  0.1602306E+04  0.7818609E-02  0.8819133E-01
       -1   -1    0    0    0  501  0.00000000000E+00  0.00000000000E+00  0.40307273167E+03  0.40307273170E+03  0.50400001928E-02 0.  1.
        1   -1    0    0  501    0  0.00000000000E+00  0.00000000000E+00 -0.15923822763E+04  0.15923822763E+04  0.50400001928E-02 0. -1.
    10030    2    1    2    0    0  0.00000000000E+00  0.00000000000E+00 -0.11893095446E+04  0.19954550080E+04  0.16023056812E+04 0.  0.
        4    1    3    3  502    0 -0.75006968426E+03 -0.23986974348E+03 -0.77811790655E+03  0.11070732200E+04  0.12699999809E+01 0.  1.
       -4    1    3    3    0  502  0.75006968426E+03  0.23986974348E+03 -0.41119163805E+03  0.88838178796E+03  0.12699999809E+01 0. -1.
</event>
<event>
 5   0  0.2730707E-04  0.1593845E+04  0.7818609E-02  0.8824338E-01
       -1   -1    0    0    0  501  0.00000000000E+00  0.00000000000E+00  0.53058573526E+03  0.53058573528E+03  0.50400001928E-02 0. -1.
        1   -1    0    0  501    0  0.00000000000E+00  0.00000000000E+00 -0.11969516510E+04  0.11969516510E+04  0.50400001928E-02 0.  1.
    10030    2    1    2    0    0  0.00000000000E+00  0.00000000000E+00 -0.66636591574E+03  0.17275373863E+04  0.15938450010E+04 0.  0.
        5    1    3    3  502    0  0.43666660057E+03  0.47390076245E+02 -0.10538940337E+04  0.11417697945E+04  0.46999998093E+01 0.  1.
       -5    1    3    3    0  502 -0.43666660057E+03 -0.47390076245E+02  0.38752811795E+03  0.58576759178E+03  0.46999998093E+01 0. -1.
</event>
<event>
 5   0  0.2730707E-04  0.1555357E+04  0.7818609E-02  0.8848453E-01
       -1   -1    0    0    0  501  0.00000000000E+00  0.00000000000E+00  0.53285895949E+03  0.53285895951E+03  0.50400001928E-02 0. -1.
        1   -1    0    0  501    0  0.00000000000E+00  0.00000000000E+00 -0.11349786247E+04  0.11349786247E+04  0.50400001928E-02 0.  1.
    10030    2    1    2    0    0  0.00000000000E+00  0.00000000000E+00 -0.60211966523E+03  0.16678375842E+04  0.15553565881E+04 0.  0.
        5    1    3    3  502    0 -0.46453975800E+03 -0.62307319293E+03 -0.27180993067E+03  0.82335904618E+03  0.46999998093E+01 0.  1.
       -5    1    3    3    0  502  0.46453975800E+03  0.62307319293E+03 -0.33030973456E+03  0.84447853806E+03  0.46999998093E+01 0. -1.
</event>
<event>
 5   0  0.5264308E-04  0.1575331E+04  0.7818609E-02  0.8835848E-01
       -2   -1    0    0    0  501  0.00000000000E+00  0.00000000000E+00  0.40910108873E+03  0.40910108874E+03  0.25500000920E-02 0.  1.
        2   -1    0    0  501    0  0.00000000000E+00  0.00000000000E+00 -0.15165361394E+04  0.15165361394E+04  0.25500000920E-02 0. -1.
    10030    2    1    2    0    0  0.00000000000E+00  0.00000000000E+00 -0.11074350506E+04  0.19256372281E+04  0.15753305504E+04 0.  0.
        3    1    3    3  502    0 -0.51104839410E+03  0.19127947938E+03  0.14062566744E+03  0.56350145420E+03  0.10100000352E+00 0.  1.
       -3    1    3    3    0  502  0.51104839410E+03 -0.19127947938E+03 -0.12480607181E+04  0.13621357739E+04  0.10100000352E+00 0. -1.
</event>
<event>
 5   0  0.5264308E-04  0.1436364E+04  0.7818609E-02  0.8927909E-01
       -2   -1    0    0    0  501  0.00000000000E+00  0.00000000000E+00  0.52573266983E+03  0.52573266984E+03  0.25500000920E-02 0.  1.
        2   -1    0    0  501    0  0.00000000000E+00  0.00000000000E+00 -0.98107905914E+03  0.98107905915E+03  0.25500000920E-02 0. -1.
    10030    2    1    2    0    0  0.00000000000E+00  0.00000000000E+00 -0.45534638931E+03  0.15068117290E+04  0.14363638997E+04 0.  0.
        3    1    3    3  502    0  0.67248639354E+03 -0.22141325156E+03 -0.35409748814E+03  0.79161026950E+03  0.10100000352E+00 0. -1.
       -3    1    3    3    0  502 -0.67248639354E+03  0.22141325156E+03 -0.10124890117E+03  0.71520145949E+03  0.10100000352E+00 0.  1.
</event>
<event>
 5   0  0.1908125E-04  0.1598884E+04  0.7818609E-02  0.8821234E-01
       -3   -1    0    0    0  501  0.00000000000E+00  0.00000000000E+00  0.65916778727E+03  0.65916779501E+03  0.10100000352E+00 0. -1.
        3   -1    0    0  501    0  0.00000000000E+00  0.00000000000E+00 -0.96956684920E+03  0.96956685446E+03  0.10100000352E+00 0.  1.
    10030    2    1    2    0    0  0.00000000000E+00  0.00000000000E+00 -0.31039906193E+03  0.16287346495E+04  0.15988836670E+04 0.  0.
        2    1    3    3  502    0 -0.32083599811E+03  0.61260834114E+03  0.25339063544E+03  0.73649951219E+03  0.25500000920E-02 0. -1.
       -2    1    3    3    0  502  0.32083599811E+03 -0.61260834114E+03 -0.56378969737E+03  0.89223513728E+03  0.25500000920E-02 0.  1.
</event>
<event>
 5   0  0.5131239E-04  0.1417390E+04  0.7818609E-02  0.8941326E-01
        2   -1    0    0  501    0  0.00000000000E+00  0.00000000000E+00  0.10496773489E+04  0.10496773489E+04  0.25500000920E-02 0.  1.
       -2   -1    0    0    0  501  0.00000000000E+00  0.00000000000E+00 -0.47847923533E+03  0.47847923533E+03  0.25500000920E-02 0. -1.
    10030    2    1    2    0    0  0.00000000000E+00  0.00000000000E+00  0.57119811361E+03  0.15281565843E+04  0.14173902995E+04 0.  0.
        1    1    3    3  502    0  0.15790798011E+03  0.44785543147E+03 -0.28157178593E+03  0.55207978439E+03  0.50400001928E-02 0. -1.
       -1    1    3    3    0  502 -0.15790798011E+03 -0.44785543147E+03  0.85276989954E+03  0.97607679988E+03  0.50400001928E-02 0.  1.
</event>
<event>
 5   0  0.2649086E-04  0.1596128E+04  0.7818609E-02  0.8822930E-01
        1   -1    0    0  501    0  0.00000000000E+00  0.00000000000E+00  0.16492278929E+04  0.16492278930E+04  0.50400001928E-02 0. -1.
       -1   -1    0    0    0  501  0.00000000000E+00  0.00000000000E+00 -0.38618462755E+03  0.38618462758E+03  0.50400001928E-02 0.  1.
    10030    2    1    2    0    0  0.00000000000E+00  0.00000000000E+00  0.12630432654E+04  0.20354125205E+04  0.15961283903E+04 0.  0.
        2    1    3    3  502    0  0.29491581349E+03 -0.64444604660E+03  0.10994076674E+04  0.13080455891E+04  0.25500000920E-02 0. -1.
       -2    1    3    3    0  502 -0.29491581349E+03  0.64444604660E+03  0.16363559803E+03  0.72736693145E+03  0.25500000920E-02 0.  1.
</event>
<event>
 5   0  0.5264308E-04  0.1609811E+04  0.7818609E-02  0.8814543E-01
        2   -1    0    0  501    0  0.00000000000E+00  0.00000000000E+00  0.90068947116E+03  0.90068947116E+03  0.25500000920E-02 0.  1.
       -2   -1    0    0    0  501  0.00000000000E+00  0.00000000000E+00 -0.71930809415E+03  0.71930809415E+03  0.25500000920E-02 0. -1.
    10030    2    1    2    0    0  0.00000000000E+00  0.00000000000E+00  0.18138137701E+03  0.16199975653E+04  0.16098114510E+04 0.  0.
        3    1    3    3  502    0 -0.23407278899E+03  0.76916408075E+03  0.12927075871E+03  0.81431836092E+03  0.10100000352E+00 0. -1.
       -3    1    3    3    0  502  0.23407278899E+03 -0.76916408075E+03  0.52110618302E+02  0.80567920440E+03  0.10100000352E+00 0.  1.
</event>
<event>
 5   0  0.5083831E-04  0.1599172E+04  0.7818609E-02  0.8821057E-01
       -2   -1    0    0    0  501  0.00000000000E+00  0.00000000000E+00  0.20207214423E+04  0.20207214423E+04  0.25500000920E-02 0. -1.
        2   -1    0    0  501    0  0.00000000000E+00  0.00000000000E+00 -0.31639095463E+03  0.31639095464E+03  0.25500000920E-02 0.  1.
    10030    2    1    2    0    0  0.00000000000E+00  0.00000000000E+00  0.17043304877E+04  0.23371123969E+04  0.15991722686E+04 0.  0.
        4    1    3    3  502    0 -0.38843416004E+03  0.58089371013E+03  0.14200999140E+04  0.15827204358E+04  0.12699999809E+01 0. -1.
       -4    1    3    3    0  502  0.38843416004E+03 -0.58089371013E+03  0.28423057367E+03  0.75439196117E+03  0.12699999809E+01 0.  1.
</event>
<event>
 5   0  0.5381164E-04  0.1606999E+04  0.7818609E-02  0.8816260E-01
        2   -1    0    0  501    0  0.00000000000E+00  0.00000000000E+00  0.14781190359E+04  0.14781190359E+04  0.25500000920E-02 0.  1.
       -2   -1    0    0    0  501  0.00000000000E+00  0.00000000000E+00 -0.43677925868E+03  0.43677925869E+03  0.25500000920E-02 0. -1.
    10030    2    1    2    0    0  0.00000000000E+00  0.00000000000E+00  0.10413397772E+04  0.19148982946E+04  0.16069993612E+04 0.  0.
        5    1    3    3  502    0 -0.14854891175E+03  0.65547959368E+03 -0.39981483312E+01  0.67212971375E+03  0.46999998093E+01 0. -1.
       -5    1    3    3    0  502  0.14854891175E+03 -0.65547959368E+03  0.10453379255E+04  0.12427685808E+04  0.46999998093E+01 0.  1.
</event>
<event>
 5   0  0.2689675E-04  0.1615804E+04  0.7818609E-02  0.8810897E-01
        1   -1    0    0  501    0  0.00000000000E+00  0.00000000000E+00  0.10108162692E+04  0.10108162692E+04  0.50400001928E-02 0.  1.
       -1   -1    0    0    0  501  0.00000000000E+00  0.00000000000E+00 -0.64572164949E+03  0.64572164951E+03  0.50400001928E-02 0. -1.
    10030    2    1    2    0    0  0.00000000000E+00  0.00000000000E+00  0.36509461968E+03  0.16565379187E+04  0.16158043801E+04 0.  0.
        1    1    3    3  502    0 -0.59632787685E+03  0.45176124091E+03 -0.13011769429E+03  0.75935878864E+03  0.50400001928E-02 0. -1.
       -1    1    3    3    0  502  0.59632787685E+03 -0.45176124091E+03  0.49521231397E+03  0.89717913006E+03  0.50400001928E-02 0.  1.
</event>
<event>
 5   0  0.2796994E-04  0.1583547E+04  0.7818609E-02  0.8830720E-01
        1   -1    0    0  501    0  0.00000000000E+00  0.00000000000E+00  0.92781941926E+03  0.92781941928E+03  0.50400001928E-02 0.  1.
       -1   -1    0    0    0  501  0.00000000000E+00  0.00000000000E+00 -0.67567614139E+03  0.67567614141E+03  0.50400001928E-02 0. -1.
    10030    2    1    2    0    0  0.00000000000E+00  0.00000000000E+00  0.25214327788E+03  0.16034955607E+04  0.15835472145E+04 0.  0.
        3    1    3    3  502    0  0.37346000608E+03 -0.43107882946E+03 -0.43003152615E+03  0.71430277686E+03  0.10100000352E+00 0. -1.
       -3    1    3    3    0  502 -0.37346000608E+03  0.43107882946E+03  0.68217480402E+03  0.88919278382E+03  0.10100000352E+00 0.  1.
</event>
<event>
 5   0  0.2763895E-04  0.1593127E+04  0.7818609E-02  0.8824782E-01
       -1   -1    0    0    0  501  0.00000000000E+00  0.00000000000E+00  0.88221887982E+03  0.88221887983E+03  0.50400001928E-02 0. -1.
        1   -1    0    0  501    0  0.00000000000E+00  0.00000000000E+00 -0.71922404292E+03  0.71922404294E+03  0.50400001928E-02 0.  1.
    10030    2    1    2    0    0  0.00000000000E+00  0.00000000000E+00  0.16299483690E+03  0.16014429228E+04  0.15931265229E+04 0.  0.
        4    1    3    3  502    0  0.57365373390E+02  0.71018216804E+03 -0.27653869521E+03  0.76428055105E+03  0.12699999809E+01 0.  1.
       -4    1    3    3    0  502 -0.57365373390E+02 -0.71018216804E+03  0.43953353211E+03  0.83716237172E+03  0.12699999809E+01 0. -1.
</event>
<event>
 5   0  0.2730707E-04  0.1530599E+04  0.7818609E-02  0.8864356E-01
       -1   -1    0    0    0  501  0.00000000000E+00  0.00000000000E+00  0.80168250375E+03  0.80168250376E+03  0.50400001928E-02 0.  1.
        1   -1    0    0  501    0  0.00000000000E+00  0.00000000000E+00 -0.73056743484E+03  0.73056743485E+03  0.50400001928E-02 0. -1.
    10030    2    1    2    0    0  0.00000000000E+00  0.00000000000E+00  0.71115068910E+02  0.15322499386E+04  0.15305987460E+04 0.  0.
        5    1    3    3  502    0  0.71736822433E+03 -0.25531278624E+03  0.11218586374E+03  0.76968145757E+03  0.46999998093E+01 0.  1.
       -5    1    3    3    0  502 -0.71736822433E+03  0.25531278624E+03 -0.41070794834E+02  0.76256848105E+03  0.46999998093E+01 0. -1.
</event>
<event>
 5   0  0.5264308E-04  0.1617940E+04  0.7818609E-02  0.8809602E-01
        2   -1    0    0  501    0  0.00000000000E+00  0.00000000000E+00  0.19008405953E+04  0.19008405953E+04  0.25500000920E-02 0. -1.
       -2   -1    0    0    0  501  0.00000000000E+00  0.00000000000E+00 -0.34428571055E+03  0.34428571056E+03  0.25500000920E-02 0.  1.
    10030    2    1    2    0    0  0.00000000000E+00  0.00000000000E+00  0.15565548848E+04  0.22451263059E+04  0.16179397455E+04 0.  0.
        3    1    3    3  502    0 -0.47172914952E+03  0.22486229935E+03  0.16351871675E+04  0.17166620306E+04  0.10100000352E+00 0. -1.
       -3    1    3    3    0  502  0.47172914952E+03 -0.22486229935E+03 -0.78632282757E+02  0.52846427530E+03  0.10100000352E+00 0.  1.
</event>
<event>
 5   0  0.2649086E-04  0.1622793E+04  0.7818609E-02  0.8806667E-01
        1   -1    0    0  501    0  0.00000000000E+00  0.00000000000E+00  0.85040753716E+03  0.85040753717E+03  0.50400001928E-02 0. -1.
       -1   -1    0    0    0  501  0.00000000000E+00  0.00000000000E+00 -0.77417487698E+03  0.77417487700E+03  0.50400001928E-02 0.  1.
    10030    2    1    2    0    0  0.00000000000E+00  0.00000000000E+00  0.76232660171E+02  0.16245824142E+04  0.16227928401E+04 0.  0.
        2    1    3    3  502    0 -0.41100713256E+03 -0.32571019872E+03  0.65795188684E+03  0.84137665880E+03  0.25500000920E-02 0. -1.
       -2    1    3    3    0  502  0.41100713256E+03  0.32571019872E+03 -0.58171922667E+03  0.78320575537E+03  0.25500000920E-02 0.  1.
</event>
<event>
 5   0  0.2763895E-04  0.1509826E+04  0.7818609E-02  0.8877945E-01
       -1   -1    0    0    0  501  0.00000000000E+00  0.00000000000E+00  0.60043306358E+03  0.60043306360E+03  0.50400001928E-02 0. -1.
        1   -1    0    0  501    0  0.00000000000E+00  0.00000000000E+00 -0.94913740433E+03  0.94913740434E+03  0.50400001928E-02 0.  1.
    10030    2    1    2    0    0  0.00000000000E+00  0.00000000000E+00 -0.34870434075E+03  0.15495704679E+04  0.15098257906E+04 0.  0.
        4    1    3    3  502    0  0.14412674235E+03 -0.55992850693E+03 -0.67251531698E+03  0.88688833300E+03  0.12699999809E+01 0.  1.
       -4    1    3    3    0  502 -0.14412674235E+03  0.55992850693E+03  0.32381097623E+03  0.66268213494E+03  0.12699999809E+01 0. -1.
</event>
<event>
 5   0  0.2796994E-04  0.1605915E+04  0.7818609E-02  0.8816922E-01
        1   -1    0    0  501    0  0.00000000000E+00  0.00000000000E+00  0.11904513503E+04  0.11904513503E+04  0.50400001928E-02 0. -1.
       -1   -1    0    0    0  501  0.00000000000E+00  0.00000000000E+00 -0.54159349741E+03  0.54159349743E+03  0.50400001928E-02 0.  1.
    10030    2    1    2    0    0  0.00000000000E+00  0.00000000000E+00  0.64885785286E+03  0.17320448477E+04  0.16059149546E+04 0.  0.
        3    1    3    3  502    0 -0.22620749089E+03 -0.47588035613E+03 -0.32905357572E+03  0.62121510620E+03  0.10100000352E+00 0.  1.
       -3    1    3    3    0  502  0.22620749089E+03  0.47588035613E+03  0.97791142858E+03  0.11108297415E+04  0.10100000352E+00 0. -1.
</event>
<event>
 5   0  0.2763895E-04  0.1615556E+04  0.7818609E-02  0.8811048E-01
       -1   -1    0    0    0  501  0.00000000000E+00  0.00000000000E+00  0.47946978376E+03  0.47946978379E+03  0.50400001928E-02 0. -1.
        1   -1    0    0  501    0  0.00000000000E+00  0.00000000000E+00 -0.13608888423E+04  0.13608888423E+04  0.50400001928E-02 0.  1.
    10030    2    1    2    0    0  0.00000000000E+00  0.00000000000E+00 -0.88141905852E+03  0.18403586261E+04  0.16155557297E+04 0.  0.
        4    1    3    3  502    0 -0.20839323384E+03 -0.29558537429E+03 -0.12635071402E+04  0.13142489717E+04  0.12699999809E+01 0.  1.
       -4    1    3    3    0  502  0.20839323384E+03  0.29558537429E+03  0.38208808165E+03  0.52610965439E+03  0.12699999809E+01 0. -1.
</event>
<event>
 5   0  0.5315984E-04  0.1630465E+04  0.7818609E-02  0.8802048E-01
        2   -1    0    0  501    0  0.00000000000E+00  0.00000000000E+00  0.70337873495E+03  0.70337873496E+03  0.25500000920E-02 0.  1.
       -2   -1    0    0    0  501  0.00000000000E+00  0.00000000000E+00 -0.94487376504E+03  0.94487376504E+03  0.25500000920E-02 0. -1.
    10030    2    1    2    0    0  0.00000000000E+00  0.00000000000E+00 -0.24149503009E+03  0.16482525000E+04  0.16304651036E+04 0.  0.
        2    1    3    3  502    0  0.69128933338E+02 -0.74871896612E+03 -0.43921641004E+03  0.87078697424E+03  0.25500000920E-02 0. -1.
       -2    1    3    3    0  502 -0.69128933338E+02  0.74871896612E+03  0.19772137995E+03  0.77746552576E+03  0.25500000920E-02 0.  1.
</event>
<event>
 5   0  0.5381164E-04  0.1614679E+04  0.7818609E-02  0.8811580E-01
       -2   -1    0    0    0  501  0.00000000000E+00  0.00000000000E+00  0.64329367206E+03  0.64329367206E+03  0.25500000920E-02 0.  1.
        2   -1    0    0  501    0  0.00000000000E+00  0.00000000000E+00 -0.10132186890E+04  0.10132186890E+04  0.25500000920E-02 0. -1.
    10030    2    1    2    0    0  0.00000000000E+00  0.00000000000E+00 -0.36992501690E+03  0.16565123610E+04  0.16146791273E+04 0.  0.
        5    1    3    3  502    0  0.68676764099E+03 -0.64861248067E+02 -0.61525519818E+03  0.92434724162E+03  0.46999998093E+01 0. -1.
       -5    1    3    3    0  502 -0.68676764099E+03  0.64861248067E+02  0.24533018129E+03  0.73216511939E+03  0.46999998093E+01 0.  1.
</event>
<event>
 5   0  0.5264308E-04  0.1609867E+04  0.7818609E-02  0.8814509E-01
        2   -1    0    0  501    0  0.00000000000E+00  0.00000000000E+00  0.27591239406E+04  0.27591239406E+04  0.25500000920E-02 0.  1.
       -2   -1    0    0    0  501  0.00000000000E+00  0.00000000000E+00 -0.23482727374E+03  0.23482727375E+03  0.25500000920E-02 0. -1.
    10030    2    1    2    0    0  0.00000000000E+00  0.00000000000E+00  0.25242966668E+04  0.29939512143E+04  0.16098665198E+04 0.  0.
        3    1    3    3  502    0  0.10614082065E+03 -0.37833892511E+01  0.27460356048E+04  0.27480887433E+04  0.10100000352E+00 0.  1.
       -3    1    3    3    0  502 -0.10614082065E+03  0.37833892511E+01 -0.22173893799E+03  0.24586247103E+03  0.10100000352E+00 0. -1.
</event>
<event>
 5   0  0.5381164E-04  0.1598427E+04  0.7818609E-02  0.8821515E-01
        2   -1    0    0  501    0  0.00000000000E+00  0.00000000000E+00  0.69309190727E+03  0.69309190727E+03  0.25500000920E-02 0.  1.
       -2   -1    0    0    0  501  0.00000000000E+00  0.00000000000E+00 -0.92158406649E+03  0.92158406649E+03  0.25500000920E-02 0. -1.
    10030    2    1    2    0    0  0.00000000000E+00  0.00000000000E+00 -0.22849215922E+03  0.16146759738E+04  0.15984273000E+04 0.  0.
        5    1    3    3  502    0 -0.61423169241E+03 -0.39188372340E+03 -0.44601575017E+03  0.85428658191E+03  0.46999998093E+01 0. -1.
       -5    1    3    3    0  502  0.61423169241E+03  0.39188372340E+03  0.21752359095E+03  0.76038939185E+03  0.46999998093E+01 0.  1.
</event>
<event>
 5   0  0.2763895E-04  0.1595327E+04  0.7818609E-02  0.8823424E-01
       -1   -1    0    0    0  501  0.00000000000E+00  0.00000000000E+00  0.41567004857E+03  0.41567004860E+03  0.50400001928E-02 0. -1.
        1   -1    0    0  501    0  0.00000000000E+00  0.00000000000E+00 -0.15307016119E+04  0.15307016119E+04  0.50400001928E-02 0.  1.
    10030    2    1    2    0    0  0.00000000000E+00  0.00000000000E+00 -0.11150315633E+04  0.19463716605E+04  0.15953266918E+04 0.  0.
        4    1    3    3  502    0  0.24032875690E+03 -0.54433910156E+03  0.90605620521E+02  0.60189198387E+03  0.12699999809E+01 0. -1.
       -4    1    3    3    0  502 -0.24032875690E+03  0.54433910156E+03 -0.12056371838E+04  0.13444796766E+04  0.12699999809E+01 0.  1.
</event>
<event>
 5   0  0.2730707E-04  0.1594807E+04  0.7818609E-02  0.8823744E-01
        1   -1    0    0  501    0  0.00000000000E+00  0.00000000000E+00  0.64746748289E+03  0.64746748291E+03  0.50400001928E-02 0. -1.
       -1   -1    0    0    0  501  0.00000000000E+00  0.00000000000E+00 -0.98206124604E+03  0.98206124606E+03  0.50400001928E-02 0.  1.
    10030    2    1    2    0    0  0.00000000000E+00  0.00000000000E+00 -0.33459376315E+03  0.16295287290E+04  0.15948074781E+04 0.  0.
        5    1    3    3  502    0 -0.61698281612E+02 -0.19011619409E+03 -0.95603546370E+03  0.97671733018E+03  0.46999998093E+01 0.  1.
       -5    1    3    3    0  502  0.61698281612E+02  0.19011619409E+03  0.62144170055E+03  0.65281139879E+03  0.46999998093E+01 0. -1.
</event>
<event>
 5   0  0.2796994E-04  0.1551765E+04  0.7818609E-02  0.8850741E-01
       -1   -1    0    0    0  501  0.00000000000E+00  0.00000000000E+00  0.52319947983E+03  0.52319947986E+03  0.50400001928E-02 0.  1.
        1   -1    0    0  501    0  0.00000000000E+00  0.00000000000E+00 -0.11506003917E+04  0.11506003917E+04  0.50400001928E-02 0. -1.
    10030    2    1    2    0    0  0.00000000000E+00  0.00000000000E+00 -0.62740091183E+03  0.16737998715E+04  0.15517648359E+04 0.  0.
        3    1    3    3  502    0 -0.62960771926E+03  0.37641094647E+03 -0.58636980991E+03  0.93910630120E+03  0.10100000352E+00 0.  1.
       -3    1    3    3    0  502  0.62960771926E+03 -0.37641094647E+03 -0.41031101916E+02  0.73469357034E+03  0.10100000352E+00 0. -1.
</event>
<event>
 5   0  0.2730707E-04  0.1593065E+04  0.7818609E-02  0.8824820E-01
       -1   -1    0    0    0  501  0.00000000000E+00  0.00000000000E+00  0.57679596060E+03  0.57679596062E+03  0.50400001928E-02 0.  1.
        1   -1    0    0  501    0  0.00000000000E+00  0.00000000000E+00 -0.10999798961E+04  0.10999798961E+04  0.50400001928E-02 0. -1.
    10030    2    1    2    0    0  0.00000000000E+00  0.00000000000E+00 -0.52318393545E+03  0.16767758567E+04  0.15930649212E+04 0.  0.
        5    1    3    3  502    0 -0.10327223678E+03 -0.64825933745E+03  0.21326491693E+03  0.69022412177E+03  0.46999998093E+01 0.  1.
       -5    1    3    3    0  502  0.10327223678E+03  0.64825933745E+03 -0.73644885239E+03  0.98655173491E+03  0.46999998093E+01 0. -1.
</event>
<event>
 5   0  0.5315984E-04  0.1608218E+04  0.7818609E-02  0.8815515E-01
       -2   -1    0    0    0  501  0.00000000000E+00  0.00000000000E+00  0.41530386425E+03  0.41530386426E+03  0.25500000920E-02 0. -1.
        2   -1    0    0  501    0  0.00000000000E+00  0.00000000000E+00 -0.15569117478E+04  0.15569117478E+04  0.25500000920E-02 0.  1.
    10030    2    1    2    0    0  0.00000000000E+00  0.00000000000E+00 -0.11416078835E+04  0.19722156120E+04  0.16082182254E+04 0.  0.
        2    1    3    3  502    0 -0.57491800012E+03 -0.53110569823E+03 -0.79688750795E+03  0.11169752324E+04  0.25500000920E-02 0.  1.
       -2    1    3    3    0  502  0.57491800012E+03  0.53110569823E+03 -0.34472037557E+03  0.85524037960E+03  0.25500000920E-02 0. -1.
</event>
<event>
 5   0  0.5264308E-04  0.1592785E+04  0.7818609E-02  0.8824993E-01
       -2   -1    0    0    0  501  0.00000000000E+00  0.00000000000E+00  0.14594177572E+04  0.14594177572E+04  0.25500000920E-02 0. -1.
        2   -1    0    0  501    0  0.00000000000E+00  0.00000000000E+00 -0.43458513259E+03  0.43458513260E+03  0.25500000920E-02 0.  1.
    10030    2    1    2    0    0  0.00000000000E+00  0.00000000000E+00  0.10248326246E+04  0.18940028898E+04  0.15927853082E+04 0.  0.
        3    1    3    3  502    0 -0.33187967127E+03  0.52936377155E+03  0.10996400350E+04  0.12647443756E+04  0.10100000352E+00 0. -1.
       -3    1    3    3    0  502  0.33187967127E+03 -0.52936377155E+03 -0.74807410400E+02  0.62925851419E+03  0.10100000352E+00 0.  1.
</event>
<event>
 5   0  0.5264308E-04  0.1531885E+04  0.7818609E-02  0.8863522E-01
       -2   -1    0    0    0  501  0.00000000000E+00  0.00000000000E+00  0.28607581278E+03  0.28607581279E+03  0.25500000920E-02 0. -1.
        2   -1    0    0  501    0  0.00000000000E+00  0.00000000000E+00 -0.20507423587E+04  0.20507423587E+04  0.25500000920E-02 0.  1.
    10030    2    1    2    0    0  0.00000000000E+00  0.00000000000E+00 -0.17646665459E+04  0.23368181715E+04  0.15318848352E+04 0.  0.
        3    1    3    3  502    0  0.50562448658E+03  0.48296937042E+03 -0.13592715398E+04  0.15285727537E+04  0.10100000352E+00 0. -1.
       -3    1    3    3    0  502 -0.50562448658E+03 -0.48296937042E+03 -0.40539500608E+03  0.80824541778E+03  0.10100000352E+00 0.  1.
</event>
<event>
 5   0  0.2649086E-04  0.1614881E+04  0.7818609E-02  0.8811458E-01
       -1   -1    0    0    0  501  0.00000000000E+00  0.00000000000E+00  0.16917224505E+04  0.16917224505E+04  0.50400001928E-02 0. -1.
        1   -1    0    0  501    0  0.00000000000E+00  0.00000000000E+00 -0.38538232253E+03  0.38538232256E+03  0.50400001928E-02 0.  1.
    10030    2    1    2    0    0  0.00000000000E+00  0.00000000000E+00  0.13063401280E+04  0.20771047731E+04  0.16148807103E+04 0.  0.
        2    1    3    3  502    0  0.17006585438E+03 -0.13300067256E+03 -0.34756850835E+03  0.40916432119E+03  0.25500000920E-02 0.  1.
       -2    1    3    3    0  502 -0.17006585438E+03  0.13300067256E+03  0.16539086363E+04  0.16679404519E+04  0.25500000920E-02 0. -1.
</event>
<event>
 5   0  0.5083831E-04  0.1593340E+04  0.7818609E-02  0.8824650E-01
        2   -1    0    0  501    0  0.00000000000E+00  0.00000000000E+00  0.90862953411E+03  0.90862953412E+03  0.25500000920E-02 0.  1.
       -2   -1    0    0    0  501  0.00000000000E+00  0.00000000000E+00 -0.69850577439E+03  0.69850577439E+03  0.25500000920E-02 0. -1.
    10030    2    1    2    0    0  0.00000000000E+00  0.00000000000E+00  0.21012375973E+03  0.16071353085E+04  0.15933398587E+04 0.  0.
        4    1    3    3  502    0  0.65187129983E+03 -0.43423723131E+03 -0.41742763986E+02  0.78437378579E+03  0.12699999809E+01 0. -1.
       -4    1    3    3    0  502 -0.65187129983E+03  0.43423723131E+03  0.25186652371E+03  0.82276152271E+03  0.12699999809E+01 0.  1.
</event>
<event>
 5   0  0.5264308E-04  0.1601009E+04  0.7818609E-02  0.8819928E-01
       -2   -1    0    0    0  501  0.00000000000E+00  0.00000000000E+00  0.95129346167E+03  0.95129346167E+03  0.25500000920E-02 0.  1.
        2   -1    0    0  501    0  0.00000000000E+00  0.00000000000E+00 -0.67361713633E+03  0.67361713633E+03  0.25500000920E-02 0. -1.
    10030    2    1    2    0    0  0.00000000000E+00  0.00000000000E+00  0.27767632534E+03  0.16249105980E+04  0.16010091536E+04 0.  0.
        3    1    3    3  502    0  0.16478771560E+03 -0.77818484236E+03  0.23007416606E+03  0.82804635871E+03  0.10100000352E+00 0.  1.
       -3    1    3    3    0  502 -0.16478771560E+03  0.77818484236E+03  0.47602159281E+02  0.79686423929E+03  0.10100000352E+00 0. -1.
</event>
<event>
 5   0  0.5264308E-04  0.1602990E+04  0.7818609E-02  0.8818713E-01
       -2   -1    0    0    0  501  0.00000000000E+00  0.00000000000E+00  0.56422894835E+03  0.56422894835E+03  0.25500000920E-02 0.  1.
        2   -1    0    0  501    0  0.00000000000E+00  0.00000000000E+00 -0.11385341866E+04  0.11385341866E+04  0.25500000920E-02 0. -1.
    10030    2    1    2    0    0  0.00000000000E+00  0.00000000000E+00 -0.57430523828E+03  0.17027631350E+04  0.16029896404E+04 0.  0.
        3    1    3    3  502    0  0.64890155976E+03  0.18341937470E+03  0.17303003823E+03  0.69617189372E+03  0.10100000352E+00 0.  1.
       -3    1    3    3    0  502 -0.64890155976E+03 -0.18341937470E+03 -0.74733527651E+03  0.10065912413E+04  0.10100000352E+00 0. -1.
</event>
<event>
 5   0  0.5264308E-04  0.1599469E+04  0.7818609E-02  0.8820874E-01
       -2   -1    0    0    0  501  0.00000000000E+00  0.00000000000E+00  0.44093114671E+03  0.44093114672E+03  0.25500000920E-02 0. -1.
        2   -1    0    0  501    0  0.00000000000E+00  0.00000000000E+00 -0.14505114282E+04  0.14505114282E+04  0.25500000920E-02 0.  1.
    10030    2    1    2    0    0  0.00000000000E+00  0.00000000000E+00 -0.10095802815E+04  0.18914425749E+04  0.15994694963E+04 0.  0.
        3    1    3    3  502    0 -0.68886966706E+03  0.40514165522E+03 -0.46942282735E+03  0.92684355748E+03  0.10100000352E+00 0.  1.
       -3    1    3    3    0  502  0.68886966706E+03 -0.40514165522E+03 -0.54015745413E+03  0.96459901744E+03  0.10100000352E+00 0. -1.
</event>
<event>
 5   0  0.5381164E-04  0.1588834E+04  0.7818609E-02  0.8827437E-01
        2   -1    0    0  501    0  0.00000000000E+00  0.00000000000E+00  0.18256900635E+04  0.18256900635E+04  0.25500000920E-02 0. -1.
       -2   -1    0    0    0  501  0.00000000000E+00  0.00000000000E+00 -0.34567681663E+03  0.34567681664E+03  0.25500000920E-02 0.  1.
    10030    2    1    2    0    0  0.00000000000E+00  0.00000000000E+00  0.14800132469E+04  0.21713668801E+04  0.15888344524E+04 0.  0.
        5    1    3    3  502    0  0.17742105891E+03  0.77456780645E+02 -0.31292722659E+03  0.36799908172E+03  0.46999998093E+01 0.  1.
       -5    1    3    3    0  502 -0.17742105891E+03 -0.77456780645E+02  0.17929404734E+04  0.18033677984E+04  0.46999998093E+01 0. -1.
</event>
<event>
 5   0  0.2796994E-04  0.1594238E+04  0.7818609E-02  0.8824096E-01
       -1   -1    0    0    0  501  0.00000000000E+00  0.00000000000E+00  0.33435828790E+03  0.33435828794E+03  0.50400001928E-02 0.  1.
        1   -1    0    0  501    0  0.00000000000E+00  0.00000000000E+00 -0.19003532099E+04  0.19003532099E+04  0.50400001928E-02 0. -1.
    10030    2    1    2    0    0  0.00000000000E+00  0.00000000000E+00 -0.15659949220E+04  0.22347114979E+04  0.15942381826E+04 0.  0.
        3    1    3    3  502    0  0.58722200945E+03  0.77918906523E+02 -0.35331332104E+02  0.59342173671E+03  0.10100000352E+00 0.  1.
       -3    1    3    3    0  502 -0.58722200945E+03 -0.77918906523E+02 -0.15306635899E+04  0.16412897612E+04  0.10100000352E+00 0. -1.
</event>
<event>
 5   0  0.2649086E-04  0.1639775E+04  0.7818609E-02  0.8796478E-01
       -1   -1    0    0    0  501  0.00000000000E+00  0.00000000000E+00  0.60434627311E+03  0.60434627313E+03  0.50400001928E-02 0.  1.
        1   -1    0    0  501    0  0.00000000000E+00  0.00000000000E+00 -0.11123021329E+04  0.11123021329E+04  0.50400001928E-02 0. -1.
    10030    2    1    2    0    0  0.00000000000E+00  0.00000000000E+00 -0.50795585978E+03  0.17166484060E+04  0.16397751658E+04 0.  0.
        2    1    3    3  502    0 -0.30101185313E+03 -0.21551260481E+03  0.51186483689E+03  0.63171150837E+03  0.25500000920E-02 0.  1.
       -2    1    3    3    0  502  0.30101185313E+03  0.21551260481E+03 -0.10198206967E+04  0.10849368977E+04  0.25500000920E-02 0. -1.
</event>
<event>
 5   0  0.2763895E-04  0.1541755E+04  0.7818609E-02  0.8857151E-01
       -1   -1    0    0    0  501  0.00000000000E+00  0.00000000000E+00  0.56421526458E+03  0.56421526460E+03  0.50400001928E-02 0.  1.
        1   -1    0    0  501    0  0.00000000000E+00  0.00000000000E+00 -0.10532367395E+04  0.10532367395E+04  0.50400001928E-02 0. -1.
    10030    2    1    2    0    0  0.00000000000E+00  0.00000000000E+00 -0.48902147490E+03  0.16174520041E+04  0.15417551630E+04 0.  0.
        4    1    3    3  502    0 -0.86636068323E+02  0.76006799337E+03 -0.34426592988E+03  0.83888605082E+03  0.12699999809E+01 0. -1.
       -4    1    3    3    0  502  0.86636068323E+02 -0.76006799337E+03 -0.14475554502E+03  0.77856595327E+03  0.12699999809E+01 0.  1.
</event>
<event>
 5   0  0.5264308E-04  0.1623574E+04  0.7818609E-02  0.8806195E-01
       -2   -1    0    0    0  501  0.00000000000E+00  0.00000000000E+00  0.10977631873E+04  0.10977631873E+04  0.25500000920E-02 0.  1.
        2   -1    0    0  501    0  0.00000000000E+00  0.00000000000E+00 -0.60030959792E+03  0.60030959792E+03  0.25500000920E-02 0. -1.
    10030    2    1    2    0    0  0.00000000000E+00  0.00000000000E+00  0.49745358937E+03  0.16980727852E+04  0.16235735617E+04 0.  0.
        3    1    3    3  502    0  0.56585987084E+03 -0.53482682498E+03  0.48896350021E+03  0.91941418354E+03  0.10100000352E+00 0.  1.
       -3    1    3    3    0  502 -0.56585987084E+03  0.53482682498E+03  0.84900891525E+01  0.77865860168E+03  0.10100000352E+00 0. -1.
</event>
<event>
 5   0  0.5264308E-04  0.1594491E+04  0.7818609E-02  0.8823940E-01
       -2   -1    0    0    0  501  0.00000000000E+00  0.00000000000E+00  0.75874473578E+03  0.75874473578E+03  0.25500000920E-02 0. -1.
        2   -1    0    0  501    0  0.00000000000E+00  0.00000000000E+00 -0.83769968753E+03  0.83769968753E+03  0.25500000920E-02 0.  1.
    10030    2    1    2    0    0  0.00000000000E+00  0.00000000000E+00 -0.78954951745E+02  0.15964444233E+04  0.15944908003E+04 0.  0.
        3    1    3    3  502    0  0.39012197407E+03 -0.62377006998E+03 -0.34696279698E+03  0.81342943612E+03  0.10100000352E+00 0.  1.
       -3    1    3    3    0  502 -0.39012197407E+03  0.62377006998E+03  0.26800784524E+03  0.78301498719E+03  0.10100000352E+00 0. -1.
</event>
<event>
 5   0  0.5131239E-04  0.1610201E+04  0.7818609E-02  0.8814306E-01
        2   -1    0    0  501    0  0.00000000000E+00  0.00000000000E+00  0.89956122131E+03  0.89956122131E+03  0.25500000920E-02 0. -1.
       -2   -1    0    0    0  501  0.00000000000E+00  0.00000000000E+00 -0.72055848437E+03  0.72055848438E+03  0.25500000920E-02 0.  1.
    10030    2    1    2    0    0  0.00000000000E+00  0.00000000000E+00  0.17900273693E+03  0.16201197057E+04  0.16102005716E+04 0.  0.
        1    1    3    3  502    0  0.54275077213E+03  0.45580869626E+03  0.47375248366E+03  0.85251474124E+03  0.50400001928E-02 0. -1.
       -1    1    3    3    0  502 -0.54275077213E+03 -0.45580869626E+03 -0.29474974672E+03  0.76760496445E+03  0.50400001928E-02 0.  1.
</event>
<event>
 5   0  0.2689675E-04  0.1487821E+04  0.7818609E-02  0.8892592E-01
        1   -1    0    0  501    0  0.00000000000E+00  0.00000000000E+00  0.98194406111E+03  0.98194406112E+03  0.50400001928E-02 0.  1.
       -1   -1    0    0    0  501  0.00000000000E+00  0.00000000000E+00 -0.56357890008E+03  0.56357890010E+03  0.50400001928E-02 0. -1.
    10030    2    1    2    0    0  0.00000000000E+00  0.00000000000E+00  0.41836516103E+03  0.15455229612E+04  0.14878211639E+04 0.  0.
        1    1    3    3  502    0 -0.38329128406E+03  0.59284748757E+03  0.45284878098E+03  0.83872067485E+03  0.50400001928E-02 0.  1.
       -1    1    3    3    0  502  0.38329128406E+03 -0.59284748757E+03 -0.34483619945E+02  0.70680228638E+03  0.50400001928E-02 0. -1.
</event>
<event>
 5   0  0.5315984E-04  0.1635848E+04  0.7818609E-02  0.8798823E-01
        2   -1    0    0  501    0  0.00000000000E+00  0.00000000000E+00  0.84670714807E+03  0.84670714807E+03  0.25500000920E-02 0.  1.
       -2   -1    0    0    0  501  0.00000000000E+00  0.00000000000E+00 -0.79011907796E+03  0.79011907796E+03  0.25500000920E-02 0. -1.
    10030    2    1    2    0    0  0.00000000000E+00  0.00000000000E+00  0.56588070112E+02  0.16368262260E+04  0.16358477571E+04 0.  0.
        2    1    3    3  502    0  0.27326955342E+03  0.47052598218E+03  0.63933804664E+03  0.83953801975E+03  0.25500000920E-02 0.  1.
       -2    1    3    3    0  502 -0.27326955342E+03 -0.47052598218E+03 -0.58274997652E+03  0.79728820628E+03  0.25500000920E-02 0. -1.
</event>
<event>
 5   0  0.5264308E-04  0.1598148E+04  0.7818609E-02  0.8821686E-01
        2   -1    0    0  501    0  0.00000000000E+00  0.00000000000E+00  0.93717569214E+03  0.93717569214E+03  0.25500000920E-02 0.  1.
       -2   -1    0    0    0  501  0.00000000000E+00  0.00000000000E+00 -0.68132311586E+03  0.68132311586E+03  0.25500000920E-02 0. -1.
    10030    2    1    2    0    0  0.00000000000E+00  0.00000000000E+00  0.25585257628E+03  0.16184988080E+04  0.15981482568E+04 0.  0.
        3    1    3    3  502    0  0.67022842678E+03 -0.37272050906E+02 -0.31109599202E+03  0.73984868472E+03  0.10100000352E+00 0. -1.
       -3    1    3    3    0  502 -0.67022842678E+03  0.37272050906E+02  0.56694856830E+03  0.87865012328E+03  0.10100000352E+00 0.  1.
</event>
<event>
 5   0  0.2689675E-04  0.1602957E+04  0.7818609E-02  0.8818734E-01
       -1   -1    0    0    0  501  0.00000000000E+00  0.00000000000E+00  0.91732642182E+03  0.91732642183E+03  0.50400001928E-02 0. -1.
        1   -1    0    0  501    0  0.00000000000E+00  0.00000000000E+00 -0.70026065150E+03  0.70026065152E+03  0.50400001928E-02 0.  1.
    10030    2    1    2    0    0  0.00000000000E+00  0.00000000000E+00  0.21706577031E+03  0.16175870734E+04  0.16029567652E+04 0.  0.
        1    1    3    3  502    0  0.65222118188E+03  0.35157547763E+03 -0.19982076890E+03  0.76741522416E+03  0.50400001928E-02 0. -1.
       -1    1    3    3    0  502 -0.65222118188E+03 -0.35157547763E+03  0.41688653921E+03  0.85017184919E+03  0.50400001928E-02 0.  1.
</event>
<event>
 5   0  0.5083831E-04  0.1589037E+04  0.7818609E-02  0.8827311E-01
       -2   -1    0    0    0  501  0.00000000000E+00  0.00000000000E+00  0.80055290454E+03  0.80055290455E+03  0.25500000920E-02 0.  1.
        2   -1    0    0  501    0  0.00000000000E+00  0.00000000000E+00 -0.78852971314E+03  0.78852971314E+03  0.25500000920E-02 0. -1.
    10030    2    1    2    0    0  0.00000000000E+00  0.00000000000E+00  0.12023191403E+02  0.15890826177E+04  0.15890371326E+04 0.  0.
        4    1    3    3  502    0 -0.20018175538E+03  0.24244090068E+03  0.73569529007E+03  0.80006218399E+03  0.12699999809E+01 0.  1.
       -4    1    3    3    0  502  0.20018175538E+03 -0.24244090068E+03 -0.72367209867E+03  0.78902043370E+03  0.12699999809E+01 0. -1.
</event>
<event>
 5   0  0.1908125E-04  0.1606461E+04  0.7818609E-02  0.8816588E-01
       -3   -1    0    0    0  501  0.00000000000E+00  0.00000000000E+00  0.93912673095E+03  0.93912673638E+03  0.10100000352E+00 0.  1.
        3   -1    0    0  501    0  0.00000000000E+00  0.00000000000E+00 -0.68699927038E+03  0.68699927780E+03  0.10100000352E+00 0. -1.
    10030    2    1    2    0    0  0.00000000000E+00  0.00000000000E+00  0.25212746057E+03  0.16261260142E+04  0.16064611908E+04 0.  0.
        4    1    3    3  502    0  0.41500495978E+03  0.10543718511E+03 -0.56183706282E+03  0.70640541809E+03  0.12699999809E+01 0. -1.
       -4    1    3    3    0  502 -0.41500495978E+03 -0.10543718511E+03  0.81396452339E+03  0.91972059609E+03  0.12699999809E+01 0.  1.
</event>
<event>
 5   0  0.5381164E-04  0.1611228E+04  0.7818609E-02  0.8813680E-01
       -2   -1    0    0    0  501  0.00000000000E+00  0.00000000000E+00  0.69107139981E+03  0.69107139982E+03  0.25500000920E-02 0. -1.
        2   -1    0    0  501    0  0.00000000000E+00  0.00000000000E+00 -0.93914125891E+03  0.93914125892E+03  0.25500000920E-02 0.  1.
    10030    2    1    2    0    0  0.00000000000E+00  0.00000000000E+00 -0.24806985910E+03  0.16302126587E+04  0.16112276865E+04 0.  0.
        5    1    3    3  502    0 -0.68045648849E+03  0.27243628859E+03 -0.46226264178E+03  0.86657452308E+03  0.46999998093E+01 0.  1.
       -5    1    3    3    0  502  0.68045648849E+03 -0.27243628859E+03  0.21419278267E+03  0.76363813565E+03  0.46999998093E+01 0. -1.
</event>
<event>
 5   0  0.5083831E-04  0.1607515E+04  0.7818609E-02  0.8815944E-01
        2   -1    0    0  501    0  0.00000000000E+00  0.00000000000E+00  0.49719671461E+03  0.49719671461E+03  0.25500000920E-02 0.  1.
       -2   -1    0    0    0  501  0.00000000000E+00  0.00000000000E+00 -0.12993378499E+04  0.12993378499E+04  0.25500000920E-02 0. -1.
    10030    2    1    2    0    0  0.00000000000E+00  0.00000000000E+00 -0.80214113530E+03  0.17965345645E+04  0.16075154869E+04 0.  0.
        4    1    3    3  502    0 -0.12859807331E+03 -0.52171985874E+03  0.26695699299E+03  0.59999727038E+03  0.12699999809E+01 0.  1.
       -4    1    3    3    0  502  0.12859807331E+03  0.52171985874E+03 -0.10690981283E+04  0.11965372941E+04  0.12699999809E+01 0. -1.
</event>
<event>
 5   0  0.5264308E-04  0.1395688E+04  0.7818609E-02  0.8956946E-01
       -2   -1    0    0    0  501  0.00000000000E+00  0.00000000000E+00  0.24542251859E+03  0.24542251861E+03  0.25500000920E-02 0. -1.
        2   -1    0    0  501    0  0.00000000000E+00  0.00000000000E+00 -0.19842757122E+04  0.19842757122E+04  0.25500000920E-02 0.  1.
    10030    2    1    2    0    0  0.00000000000E+00  0.00000000000E+00 -0.17388531936E+04  0.22296982308E+04  0.13956875623E+04 0.  0.
        3    1    3    3  502    0  0.15204241001E+03 -0.66064250383E+03 -0.60488393005E+03  0.90854278454E+03  0.10100000352E+00 0. -1.
       -3    1    3    3    0  502 -0.15204241001E+03  0.66064250383E+03 -0.11339692636E+04  0.13211554463E+04  0.10100000352E+00 0.  1.
</event>
<event>
 5   0  0.5264308E-04  0.1596193E+04  0.7818609E-02  0.8822890E-01
       -2   -1    0    0    0  501  0.00000000000E+00  0.00000000000E+00  0.53015502471E+03  0.53015502472E+03  0.25500000920E-02 0. -1.
        2   -1    0    0  501    0  0.00000000000E+00  0.00000000000E+00 -0.12014560330E+04  0.12014560330E+04  0.25500000920E-02 0.  1.
    10030    2    1    2    0    0  0.00000000000E+00  0.00000000000E+00 -0.67130100828E+03  0.17316110577E+04  0.15961929117E+04 0.  0.
        3    1    3    3  502    0 -0.37545561870E+03  0.68290259029E+03 -0.14889733735E+03  0.79340613604E+03  0.10100000352E+00 0.  1.
       -3    1    3    3    0  502  0.37545561870E+03 -0.68290259029E+03 -0.52240367093E+03  0.93820492167E+03  0.10100000352E+00 0. -1.
</event>
<event>
 5   0  0.5083831E-04  0.1634404E+04  0.7818609E-02  0.8799687E-01
       -2   -1    0    0    0  501  0.00000000000E+00  0.00000000000E+00  0.47876082565E+03  0.47876082566E+03  0.25500000920E-02 0.  1.
        2   -1    0    0  501    0  0.00000000000E+00  0.00000000000E+00 -0.13948901562E+04  0.13948901562E+04  0.25500000920E-02 0. -1.
    10030    2    1    2    0    0  0.00000000000E+00  0.00000000000E+00 -0.91612933054E+03  0.18736509818E+04  0.16344035767E+04 0.  0.
        4    1    3    3  502    0 -0.61467324845E+03 -0.34975225601E+03 -0.92747601439E+03  0.11663460949E+04  0.12699999809E+01 0. -1.
       -4    1    3    3    0  502  0.61467324845E+03  0.34975225601E+03  0.11346683851E+02  0.70730488693E+03  0.12699999809E+01 0.  1.
</event>
<event>
 5   0  0.5264308E-04  0.1592945E+04  0.7818609E-02  0.8824894E-01
       -2   -1    0    0    0  501  0.00000000000E+00  0.00000000000E+00  0.35960329027E+03  0.35960329028E+03  0.25500000920E-02 0. -1.
        2   -1    0    0  501    0  0.00000000000E+00  0.00000000000E+00 -0.17640788085E+04  0.17640788085E+04  0.25500000920E-02 0.  1.
    10030    2    1    2    0    0  0.00000000000E+00  0.00000000000E+00 -0.14044755183E+04  0.21236820988E+04  0.15929451263E+04 0.  0.
        3    1    3    3  502    0 -0.71724433625E+03 -0.21963065505E+03 -0.10592001296E+04  0.12979144761E+04  0.10100000352E+00 0.  1.
       -3    1    3    3    0  502  0.71724433625E+03  0.21963065505E+03 -0.34527538867E+03  0.82576762273E+03  0.10100000352E+00 0. -1.
</event>
<event>
 5   0  0.2730707E-04  0.1602672E+04  0.7818609E-02  0.8818908E-01
       -1   -1    0    0    0  501  0.00000000000E+00  0.00000000000E+00  0.57438421735E+03  0.57438421737E+03  0.50400001928E-02 0. -1.
        1   -1    0    0  501    0  0.00000000000E+00  0.00000000000E+00 -0.11179618941E+04  0.11179618941E+04  0.50400001928E-02 0.  1.
    10030    2    1    2    0    0  0.00000000000E+00  0.00000000000E+00 -0.54357767672E+03  0.16923461114E+04  0.16026723528E+04 0.  0.
        5    1    3    3  502    0  0.21310569992E+03  0.20936153105E+03  0.51336807825E+03  0.59398246084E+03  0.46999998093E+01 0. -1.
       -5    1    3    3    0  502 -0.21310569992E+03 -0.20936153105E+03 -0.10569457550E+04  0.10983636506E+04  0.46999998093E+01 0.  1.
</event>
<event>
 5   0  0.5131239E-04  0.1598095E+04  0.7818609E-02  0.8821719E-01
        2   -1    0    0  501    0  0.00000000000E+00  0.00000000000E+00  0.96246352160E+03  0.96246352161E+03  0.25500000920E-02 0.  1.
       -2   -1    0    0    0  501  0.00000000000E+00  0.00000000000E+00 -0.66337811552E+03  0.66337811552E+03  0.25500000920E-02 0. -1.
    10030    2    1    2    0    0  0.00000000000E+00  0.00000000000E+00  0.29908540608E+03  0.16258416371E+04  0.15980954129E+04 0.  0.
        1    1    3    3  502    0  0.73151663979E+03  0.11016220370E+03 -0.15773589320E+03  0.75639468365E+03  0.50400001928E-02 0. -1.
       -1    1    3    3    0  502 -0.73151663979E+03 -0.11016220370E+03  0.45682129928E+03  0.86944695348E+03  0.50400001928E-02 0.  1.
</event>
<event>
 5   0  0.2796994E-04  0.1573381E+04  0.7818609E-02  0.8837070E-01
       -1   -1    0    0    0  501  0.00000000000E+00  0.00000000000E+00  0.32740442211E+03  0.32740442215E+03  0.50400001928E-02 0. -1.
        1   -1    0    0  501    0  0.00000000000E+00  0.00000000000E+00 -0.18902675007E+04  0.18902675007E+04  0.50400001928E-02 0.  1.
    10030    2    1    2    0    0  0.00000000000E+00  0.00000000000E+00 -0.15628630786E+04  0.22176719229E+04  0.15733809949E+04 0.  0.
        3    1    3    3  502    0 -0.38152648723E+02 -0.70180407998E+03 -0.28330464772E+03  0.75779029085E+03  0.10100000352E+00 0. -1.
       -3    1    3    3    0  502  0.38152648723E+02  0.70180407998E+03 -0.12795584309E+04  0.14598816320E+04  0.10100000352E+00 0.  1.
</event>
<event>
 5   0  0.5083831E-04  0.1598637E+04  0.7818609E-02  0.8821386E-01
        2   -1    0    0  501    0  0.00000000000E+00  0.00000000000E+00  0.83183143183E+03  0.83183143183E+03  0.25500000920E-02 0. -1.
       -2   -1    0    0    0  501  0.00000000000E+00  0.00000000000E+00 -0.76807608871E+03  0.76807608871E+03  0.25500000920E-02 0.  1.
    10030    2    1    2    0    0  0.00000000000E+00  0.00000000000E+00  0.63755343117E+02  0.15999075205E+04  0.15986367100E+04 0.  0.
        4    1    3    3  502    0  0.69350393191E+03  0.39527102920E+03 -0.96442191446E+01  0.79829913814E+03  0.12699999809E+01 0.  1.
       -4    1    3    3    0  502 -0.69350393191E+03 -0.39527102920E+03  0.73399562261E+02  0.80160838240E+03  0.12699999809E+01 0. -1.
</event>
<event>
 5   0  0.5083831E-04  0.1570099E+04  0.7818609E-02  0.8839131E-01
       -2   -1    0    0    0  501  0.00000000000E+00  0.00000000000E+00  0.51610887891E+03  0.51610887891E+03  0.25500000920E-02 0.  1.
        2   -1    0    0  501    0  0.00000000000E+00  0.00000000000E+00 -0.11941331533E+04  0.11941331533E+04  0.25500000920E-02 0. -1.
    10030    2    1    2    0    0  0.00000000000E+00  0.00000000000E+00 -0.67802427437E+03  0.17102420322E+04  0.15700990071E+04 0.  0.
        4    1    3    3  502    0  0.15670001392E+03  0.45553784167E+03  0.33617943790E+03  0.58744178173E+03  0.12699999809E+01 0.  1.
       -4    1    3    3    0  502 -0.15670001392E+03 -0.45553784167E+03 -0.10142037123E+04  0.11228002505E+04  0.12699999809E+01 0. -1.
</event>
<event>
 5   0  0.1908125E-04  0.1587588E+04  0.7818609E-02  0.8828210E-01
       -3   -1    0    0    0  501  0.00000000000E+00  0.00000000000E+00  0.14081572773E+04  0.14081572809E+04  0.10100000352E+00 0.  1.
        3   -1    0    0  501    0  0.00000000000E+00  0.00000000000E+00 -0.44747034013E+03  0.44747035153E+03  0.10100000352E+00 0. -1.
    10030    2    1    2    0    0  0.00000000000E+00  0.00000000000E+00  0.96068693717E+03  0.18556276325E+04  0.15875876414E+04 0.  0.
        5    1    3    3  502    0 -0.35237298803E+03 -0.61336098626E+03  0.90129946461E+03  0.11457492034E+04  0.46999998093E+01 0.  1.
       -5    1    3    3    0  502  0.35237298803E+03  0.61336098626E+03  0.59387472562E+02  0.70987842907E+03  0.46999998093E+01 0. -1.
</event>
<event>
 5   0  0.5083831E-04  0.1598376E+04  0.7818609E-02  0.8821546E-01
       -2   -1    0    0    0  501  0.00000000000E+00  0.00000000000E+00  0.34157381562E+03  0.34157381563E+03  0.25500000920E-02 0. -1.
        2   -1    0    0  501    0  0.00000000000E+00  0.00000000000E+00 -0.18698777074E+04  0.18698777074E+04  0.25500000920E-02 0.  1.
    10030    2    1    2    0    0  0.00000000000E+00  0.00000000000E+00 -0.15283038918E+04  0.22114515231E+04  0.15983757547E+04 0.  0.
        4    1    3    3  502    0  0.22170883424E+03 -0.60743540401E+03 -0.14139357474E+04  0.15547824568E+04  0.12699999809E+01 0.  1.
       -4    1    3    3    0  502 -0.22170883424E+03  0.60743540401E+03 -0.11436814436E+03  0.65666906625E+03  0.12699999809E+01 0. -1.
</event>
<event>
 5   0  0.5131239E-04  0.1605868E+04  0.7818609E-02  0.8816951E-01
       -2   -1    0    0    0  501  0.00000000000E+00  0.00000000000E+00  0.64654952165E+03  0.64654952166E+03  0.25500000920E-02 0.  1.
        2   -1    0    0  501    0  0.00000000000E+00  0.00000000000E+00 -0.99714392288E+03  0.99714392288E+03  0.25500000920E-02 0. -1.
    10030    2    1    2    0    0  0.00000000000E+00  0.00000000000E+00 -0.35059440123E+03  0.16436934445E+04  0.16058678979E+04 0.  0.
        1    1    3    3  502    0 -0.62108039999E+03 -0.49582248922E+03 -0.29254725338E+03  0.84685577258E+03  0.50400001928E-02 0. -1.
       -1    1    3    3    0  502  0.62108039999E+03  0.49582248922E+03 -0.58047147848E+02  0.79683767196E+03  0.50400001928E-02 0.  1.
</event>
<event>
 5   0  0.2763895E-04  0.1581728E+04  0.7818609E-02  0.8831853E-01
        1   -1    0    0  501    0  0.00000000000E+00  0.00000000000E+00  0.22505921199E+04  0.22505921199E+04  0.50400001928E-02 0.  1.
       -1   -1    0    0    0  501  0.00000000000E+00  0.00000000000E+00 -0.27791164914E+03  0.27791164919E+03  0.50400001928E-02 0. -1.
    10030    2    1    2    0    0  0.00000000000E+00  0.00000000000E+00  0.19726804708E+04  0.25285037691E+04  0.15817278750E+04 0.  0.
        4    1    3    3  502    0 -0.57486201523E+03  0.54178159398E+03  0.10476412542E+04  0.13120775292E+04  0.12699999809E+01 0.  1.
       -4    1    3    3    0  502  0.57486201523E+03 -0.54178159398E+03  0.92503921655E+03  0.12164262399E+04  0.12699999809E+01 0. -1.
</event>
<event>
 5   0  0.2730707E-04  0.1593435E+04  0.7818609E-02  0.8824591E-01
       -1   -1    0    0    0  501  0.00000000000E+00  0.00000000000E+00  0.59113709952E+03  0.59113709954E+03  0.50400001928E-02 0. -1.
        1   -1    0    0  501    0  0.00000000000E+00  0.00000000000E+00 -0.10737929916E+04  0.10737929916E+04  0.50400001928E-02 0.  1.
    10030    2    1    2    0    0  0.00000000000E+00  0.00000000000E+00 -0.48265589208E+03  0.16649300912E+04  0.15934351252E+04 0.  0.
        5    1    3    3  502    0 -0.74200636818E+02 -0.28740089234E+03 -0.10138467396E+04  0.10564148375E+04  0.46999998093E+01 0.  1.
       -5    1    3    3    0  502  0.74200636818E+02  0.28740089234E+03  0.53119084755E+03  0.60851525366E+03  0.46999998093E+01 0. -1.
</event>
<event>
 5   0  0.5083831E-04  0.1296639E+04  0.7818609E-02  0.9032234E-01
        2   -1    0    0  501    0  0.00000000000E+00  0.00000000000E+00  0.11749962195E+04  0.11749962195E+04  0.25500000920E-02 0. -1.
       -2   -1    0    0    0  501  0.00000000000E+00  0.00000000000E+00 -0.35771896234E+03  0.35771896235E+03  0.25500000920E-02 0.  1.
    10030    2    1    2    0    0  0.00000000000E+00  0.00000000000E+00  0.81727725715E+03  0.15327151818E+04  0.12966393923E+04 0.  0.
        4    1    3    3  502    0 -0.31538326113E+03 -0.50292114684E+03  0.10057332055E+03  0.60209043095E+03  0.12699999809E+01 0.  1.
       -4    1    3    3    0  502  0.31538326113E+03  0.50292114684E+03  0.71670393660E+03  0.93062475089E+03  0.12699999809E+01 0. -1.
</event>
<event>
 5   0  0.5131239E-04  0.1601188E+04  0.7818609E-02  0.8819819E-01
       -2   -1    0    0    0  501  0.00000000000E+00  0.00000000000E+00  0.31718330045E+03  0.31718330046E+03  0.25500000920E-02 0.  1.
        2   -1    0    0  501    0  0.00000000000E+00  0.00000000000E+00 -0.20207574497E+04  0.20207574497E+04  0.25500000920E-02 0. -1.
    10030    2    1    2    0    0  0.00000000000E+00  0.00000000000E+00 -0.17035741492E+04  0.23379407501E+04  0.16011877058E+04 0.  0.
        1    1    3    3  502    0 -0.13950242695E+03  0.29591374291E+03 -0.19187055568E+04  0.19463958703E+04  0.50400001928E-02 0. -1.
       -1    1    3    3    0  502  0.13950242695E+03 -0.29591374291E+03  0.21513140756E+03  0.39154487981E+03  0.50400001928E-02 0.  1.
</event>
<event>
 5   0  0.5083831E-04  0.1573751E+04  0.7818609E-02  0.8836838E-01
       -2   -1    0    0    0  501  0.00000000000E+00  0.00000000000E+00  0.47227539177E+03  0.47227539178E+03  0.25500000920E-02 0. -1.
        2   -1    0    0  501    0  0.00000000000E+00  0.00000000000E+00 -0.13110425916E+04  0.13110425916E+04  0.25500000920E-02 0.  1.
    10030    2    1    2    0    0  0.00000000000E+00  0.00000000000E+00 -0.83876719988E+03  0.17833179834E+04  0.15737511285E+04 0.  0.
        4    1    3    3  502    0  0.88775527180E+02  0.49897917413E+01 -0.13053305027E+04  0.13083559632E+04  0.12699999809E+01 0.  1.
       -4    1    3    3    0  502 -0.88775527180E+02 -0.49897917413E+01  0.46656330281E+03  0.47496202025E+03  0.12699999809E+01 0. -1.
</event>
<event>
 5   0  0.5381164E-04  0.1599836E+04  0.7818609E-02  0.8820649E-01
       -2   -1    0    0    0  501  0.00000000000E+00  0.00000000000E+00  0.36442518782E+03  0.36442518783E+03  0.25500000920E-02 0.  1.
        2   -1    0    0  501    0  0.00000000000E+00  0.00000000000E+00 -0.17558304582E+04  0.17558304582E+04  0.25500000920E-02 0. -1.
    10030    2    1    2    0    0  0.00000000000E+00  0.00000000000E+00 -0.13914052704E+04  0.21202556460E+04  0.15998360473E+04 0.  0.
        5    1    3    3  502    0  0.68976875569E+03 -0.38292745693E+03 -0.52072155061E+03  0.94529751765E+03  0.46999998093E+01 0.  1.
       -5    1    3    3    0  502 -0.68976875569E+03  0.38292745693E+03 -0.87068371977E+03  0.11749581284E+04  0.46999998093E+01 0. -1.
</event>
<event>
 5   0  0.5315984E-04  0.1518964E+04  0.7818609E-02  0.8871939E-01
       -2   -1    0    0    0  501  0.00000000000E+00  0.00000000000E+00  0.10506315487E+04  0.10506315487E+04  0.25500000920E-02 0. -1.
        2   -1    0    0  501    0  0.00000000000E+00  0.00000000000E+00 -0.54901560144E+03  0.54901560144E+03  0.25500000920E-02 0.  1.
    10030    2    1    2    0    0  0.00000000000E+00  0.00000000000E+00  0.50161594724E+03  0.15996471501E+04  0.15189642676E+04 0.  0.
        2    1    3    3  502    0 -0.69793782849E+03  0.29916152870E+03  0.26563707662E+03  0.80447367214E+03  0.25500000920E-02 0. -1.
       -2    1    3    3    0  502  0.69793782849E+03 -0.29916152870E+03  0.23597887062E+03  0.79517347798E+03  0.25500000920E-02 0.  1.
</event>
<event>
 5   0  0.2796994E-04  0.1570816E+04  0.7818609E-02  0.8838680E-01
        1   -1    0    0  501    0  0.00000000000E+00  0.00000000000E+00  0.74183368074E+03  0.74183368076E+03  0.50400001928E-02 0. -1.
       -1   -1    0    0    0  501  0.00000000000E+00  0.00000000000E+00 -0.83154164027E+03  0.83154164029E+03  0.50400001928E-02 0.  1.
    10030    2    1    2    0    0  0.00000000000E+00  0.00000000000E+00 -0.89707959533E+02  0.15733753210E+04  0.15708158335E+04 0.  0.
        3    1    3    3  502    0  0.59209248613E+03 -0.11701173688E+03  0.45855854636E+03  0.75798496644E+03  0.10100000352E+00 0. -1.
       -3    1    3    3    0  502 -0.59209248613E+03  0.11701173688E+03 -0.54826650589E+03  0.81539035461E+03  0.10100000352E+00 0.  1.
</event>
<event>
 5   0  0.5131239E-04  0.1596963E+04  0.7818609E-02  0.8822416E-01
        2   -1    0    0  501    0  0.00000000000E+00  0.00000000000E+00  0.89078663524E+03  0.89078663524E+03  0.25500000920E-02 0. -1.
       -2   -1    0    0    0  501  0.00000000000E+00  0.00000000000E+00 -0.71574137161E+03  0.71574137162E+03  0.25500000920E-02 0.  1.
    10030    2    1    2    0    0  0.00000000000E+00  0.00000000000E+00  0.17504526363E+03  0.16065280069E+04  0.15969631782E+04 0.  0.
        1    1    3    3  502    0 -0.68855960890E+03 -0.68760711382E+00 -0.31919831740E+03  0.75894820223E+03  0.50400001928E-02 0.  1.
       -1    1    3    3    0  502  0.68855960890E+03  0.68760711382E+00  0.49424358102E+03  0.84757980463E+03  0.50400001928E-02 0. -1.
</event>
<event>
 5   0  0.2649086E-04  0.1582259E+04  0.7818609E-02  0.8831522E-01
        1   -1    0    0  501    0  0.00000000000E+00  0.00000000000E+00  0.19892295871E+04  0.19892295871E+04  0.50400001928E-02 0.  1.
       -1   -1    0    0    0  501  0.00000000000E+00  0.00000000000E+00 -0.31463730651E+03  0.31463730655E+03  0.50400001928E-02 0. -1.
    10030    2    1    2    0    0  0.00000000000E+00  0.00000000000E+00  0.16745922806E+04  0.23038668937E+04  0.15822589414E+04 0.  0.
        2    1    3    3  502    0 -0.26649406766E+03 -0.13034617089E+03  0.19051729660E+04  0.19281320605E+04  0.25500000920E-02 0.  1.
       -2    1    3    3    0  502  0.26649406766E+03  0.13034617089E+03 -0.23058068540E+03  0.37573483316E+03  0.25500000920E-02 0. -1.
</event>
<event>
 5   0  0.2763895E-04  0.1662741E+04  0.7818609E-02  0.8782905E-01
       -1   -1    0    0    0  501  0.00000000000E+00  0.00000000000E+00  0.12942323142E+04  0.12942323142E+04  0.50400001928E-02 0. -1.
        1   -1    0    0  501    0  0.00000000000E+00  0.00000000000E+00 -0.53404380689E+03  0.53404380691E+03  0.50400001928E-02 0.  1.
    10030    2    1    2    0    0  0.00000000000E+00  0.00000000000E+00  0.76018850726E+03  0.18282761211E+04  0.16627408121E+04 0.  0.
        4    1    3    3  502    0 -0.37786503530E+03 -0.53612130781E+03  0.94180160538E+03  0.11476933033E+04  0.12699999809E+01 0. -1.
       -4    1    3    3    0  502  0.37786503530E+03  0.53612130781E+03 -0.18161309811E+03  0.68058281781E+03  0.12699999809E+01 0.  1.
</event>
<event>
 5   0  0.5264308E-04  0.1602750E+04  0.7818609E-02  0.8818860E-01
       -2   -1    0    0    0  501  0.00000000000E+00  0.00000000000E+00  0.48244901091E+03  0.48244901092E+03  0.25500000920E-02 0.  1.
        2   -1    0    0  501    0  0.00000000000E+00  0.00000000000E+00 -0.13311292939E+04  0.13311292939E+04  0.25500000920E-02 0. -1.
    10030    2    1    2    0    0  0.00000000000E+00  0.00000000000E+00 -0.84868028302E+03  0.18135783049E+04  0.16027501505E+04 0.  0.
        3    1    3    3  502    0  0.20564344793E+03  0.55871971119E+03 -0.10313201984E+04  0.11908309305E+04  0.10100000352E+00 0. -1.
       -3    1    3    3    0  502 -0.20564344793E+03 -0.55871971119E+03  0.18263991534E+03  0.62274737432E+03  0.10100000352E+00 0.  1.
</event>
<event>
 5   0  0.5381164E-04  0.1547936E+04  0.7818609E-02  0.8853187E-01
       -2   -1    0    0    0  501  0.00000000000E+00  0.00000000000E+00  0.88895676085E+03  0.88895676085E+03  0.25500000920E-02 0. -1.
        2   -1    0    0  501    0  0.00000000000E+00  0.00000000000E+00 -0.67385308089E+03  0.67385308089E+03  0.25500000920E-02 0.  1.
    10030    2    1    2    0    0  0.00000000000E+00  0.00000000000E+00  0.21510367996E+03  0.15628098417E+04  0.15479357249E+04 0.  0.
        5    1    3    3  502    0  0.64709520512E+03 -0.41617208050E+02  0.53415192476E+03  0.84012175619E+03  0.46999998093E+01 0. -1.
       -5    1    3    3    0  502 -0.64709520512E+03  0.41617208050E+02 -0.31904824481E+03  0.72268808556E+03  0.46999998093E+01 0.  1.
</event>
<event>
 5   0  0.1908125E-04  0.1611624E+04  0.7818609E-02  0.8813438E-01
        3   -1    0    0  501    0  0.00000000000E+00  0.00000000000E+00  0.63692372998E+03  0.63692373799E+03  0.10100000352E+00 0. -1.
       -3   -1    0    0    0  501  0.00000000000E+00  0.00000000000E+00 -0.10194835637E+04  0.10194835687E+04  0.10100000352E+00 0.  1.
    10030    2    1    2    0    0  0.00000000000E+00  0.00000000000E+00 -0.38255983374E+03  0.16564073067E+04  0.16116243791E+04 0.  0.
        5    1    3    3  502    0  0.42712331449E+03  0.56796224680E+02 -0.89112019952E+03  0.98983707594E+03  0.46999998093E+01 0.  1.
       -5    1    3    3    0  502 -0.42712331449E+03 -0.56796224680E+02  0.50856036578E+03  0.66657023078E+03  0.46999998093E+01 0. -1.
</event>
<event>
 5   0  0.5381164E-04  0.1612081E+04  0.7818609E-02  0.8813161E-01
        2   -1    0    0  501    0  0.00000000000E+00  0.00000000000E+00  0.24227521097E+04  0.24227521097E+04  0.25500000920E-02 0.  1.
       -2   -1    0    0    0  501  0.00000000000E+00  0.00000000000E+00 -0.26816654302E+03  0.26816654303E+03  0.25500000920E-02 0. -1.
    10030    2    1    2    0    0  0.00000000000E+00  0.00000000000E+00  0.21545855666E+04  0.26909186527E+04  0.16120807149E+04 0.  0.
        5    1    3    3  502    0 -0.21649824767E+03 -0.69243163483E+03  0.16635337437E+04  0.18148552743E+04  0.46999998093E+01 0.  1.
       -5    1    3    3    0  502  0.21649824767E+03  0.69243163483E+03  0.49105182291E+03  0.87606337838E+03  0.46999998093E+01 0. -1.
</event>
<event>
 5   0  0.5131239E-04  0.1658235E+04  0.7818609E-02  0.8785550E-01
        2   -1    0    0  501    0  0.00000000000E+00  0.00000000000E+00  0.16706935736E+04  0.16706935736E+04  0.25500000920E-02 0. -1.
       -2   -1    0    0    0  501  0.00000000000E+00  0.00000000000E+00 -0.41146731340E+03  0.41146731341E+03  0.25500000920E-02 0.  1.
    10030    2    1    2    0    0  0.00000000000E+00  0.00000000000E+00  0.12592262602E+04  0.20821608870E+04  0.16582349608E+04 0.  0.
        1    1    3    3  502    0 -0.66386398261E+03  0.21191249595E+02  0.64881620014E+01  0.66423380879E+03  0.50400001928E-02 0.  1.
       -1    1    3    3    0  502  0.66386398261E+03 -0.21191249595E+02  0.12527380982E+04  0.14179270782E+04  0.50400001928E-02 0. -1.
</event>
<event>
 5   0  0.2763895E-04  0.1600461E+04  0.7818609E-02  0.8820265E-01
        1   -1    0    0  501    0  0.00000000000E+00  0.00000000000E+00  0.96347200082E+03  0.96347200083E+03  0.50400001928E-02 0. -1.
       -1   -1    0    0    0  501  0.00000000000E+00  0.00000000000E+00 -0.66464746031E+03  0.66464746033E+03  0.50400001928E-02 0.  1.
    10030    2    1    2    0    0  0.00000000000E+00  0.00000000000E+00  0.29882454051E+03  0.16281194612E+04  0.16004614565E+04 0.  0.
        4    1    3    3  502    0  0.24051975223E+03  0.74319322869E+03  0.32614327520E+03  0.84649688437E+03  0.12699999809E+01 0.  1.
       -4    1    3    3    0  502 -0.24051975223E+03 -0.74319322869E+03 -0.27318734693E+02  0.78162257679E+03  0.12699999809E+01 0. -1.
</event>
<event>
 5   0  0.1908125E-04  0.1596987E+04  0.7818609E-02  0.8822401E-01
       -3   -1    0    0    0  501  0.00000000000E+00  0.00000000000E+00  0.59672180828E+03  0.59672181683E+03  0.10100000352E+00 0.  1.
        3   -1    0    0  501    0  0.00000000000E+00  0.00000000000E+00 -0.10684912215E+04  0.10684912263E+04  0.10100000352E+00 0. -1.
    10030    2    1    2    0    0  0.00000000000E+00  0.00000000000E+00 -0.47176941322E+03  0.16652130431E+04  0.15969871946E+04 0.  0.
        4    1    3    3  502    0  0.48851120937E+03 -0.13047738194E+03  0.40851628326E+03  0.65004208746E+03  0.12699999809E+01 0.  1.
       -4    1    3    3    0  502 -0.48851120937E+03  0.13047738194E+03 -0.88028569648E+03  0.10151709557E+04  0.12699999809E+01 0. -1.
</event>
<event>
 5   0  0.5381164E-04  0.1607020E+04  0.7818609E-02  0.8816247E-01
        2   -1    0    0  501    0  0.00000000000E+00  0.00000000000E+00  0.21531021228E+04  0.21531021228E+04  0.25500000920E-02 0. -1.
       -2   -1    0    0    0  501  0.00000000000E+00  0.00000000000E+00 -0.29985953542E+03  0.29985953543E+03  0.25500000920E-02 0.  1.
    10030    2    1    2    0    0  0.00000000000E+00  0.00000000000E+00  0.18532425874E+04  0.24529616582E+04  0.16070198534E+04 0.  0.
        5    1    3    3  502    0 -0.42527335517E+03  0.62559110548E+03  0.51312506528E+03  0.91407936225E+03  0.46999998093E+01 0. -1.
       -5    1    3    3    0  502  0.42527335517E+03 -0.62559110548E+03  0.13401175221E+04  0.15388822960E+04  0.46999998093E+01 0.  1.
</event>
<event>
 5   0  0.5315984E-04  0.1567801E+04  0.7818609E-02  0.8840577E-01
        2   -1    0    0  501    0  0.00000000000E+00  0.00000000000E+00  0.22363186072E+04  0.22363186072E+04  0.25500000920E-02 0.  1.
       -2   -1    0    0    0  501  0.00000000000E+00  0.00000000000E+00 -0.27478185596E+03  0.27478185598E+03  0.25500000920E-02 0. -1.
    10030    2    1    2    0    0  0.00000000000E+00  0.00000000000E+00  0.19615367512E+04  0.25111004632E+04  0.15678007239E+04 0.  0.
        2    1    3    3  502    0 -0.73828622070E+03  0.66070291823E+02  0.57220748586E+03  0.93640441798E+03  0.25500000920E-02 0. -1.
       -2    1    3    3    0  502  0.73828622070E+03 -0.66070291823E+02  0.13893292654E+04  0.15746960452E+04  0.25500000920E-02 0.  1.
</event>
<event>
 5   0  0.5264308E-04  0.1676696E+04  0.7818609E-02  0.8774768E-01
       -2   -1    0    0    0  501  0.00000000000E+00  0.00000000000E+00  0.35805949862E+03  0.35805949863E+03  0.25500000920E-02 0.  1.
        2   -1    0    0  501    0  0.00000000000E+00  0.00000000000E+00 -0.19628785087E+04  0.19628785087E+04  0.25500000920E-02 0. -1.
    10030    2    1    2    0    0  0.00000000000E+00  0.00000000000E+00 -0.16048190101E+04  0.23209380074E+04  0.16766959112E+04 0.  0.
        3    1    3    3  502    0 -0.84571412290E+02 -0.17332883577E+03 -0.19317537837E+04  0.19413572314E+04  0.10100000352E+00 0. -1.
       -3    1    3    3    0  502  0.84571412290E+02  0.17332883577E+03  0.32693477356E+03  0.37958077593E+03  0.10100000352E+00 0.  1.
</event>
<event>
 5   0  0.2689675E-04  0.1594140E+04  0.7818609E-02  0.8824156E-01
       -1   -1    0    0    0  501  0.00000000000E+00  0.00000000000E+00  0.68276879821E+03  0.68276879822E+03  0.50400001928E-02 0.  1.
        1   -1    0    0  501    0  0.00000000000E+00  0.00000000000E+00 -0.93050572248E+03  0.93050572250E+03  0.50400001928E-02 0. -1.
    10030    2    1    2    0    0  0.00000000000E+00  0.00000000000E+00 -0.24773692428E+03  0.16132745207E+04  0.15941396098E+04 0.  0.
        1    1    3    3  502    0  0.19156995605E+03  0.74390831865E+03 -0.33907480757E+03  0.83968467877E+03  0.50400001928E-02 0. -1.
       -1    1    3    3    0  502 -0.19156995605E+03 -0.74390831865E+03  0.91337883297E+02  0.77358984195E+03  0.50400001928E-02 0.  1.
</event>
<event>
 5   0  0.5264308E-04  0.1609764E+04  0.7818609E-02  0.8814572E-01
       -2   -1    0    0    0  501  0.00000000000E+00  0.00000000000E+00  0.96766399452E+03  0.96766399452E+03  0.25500000920E-02 0. -1.
        2   -1    0    0  501    0  0.00000000000E+00  0.00000000000E+00 -0.66948339976E+03  0.66948339976E+03  0.25500000920E-02 0.  1.
    10030    2    1    2    0    0  0.00000000000E+00  0.00000000000E+00  0.29818059476E+03  0.16371473943E+04  0.16097639341E+04 0.  0.
        3    1    3    3  502    0 -0.71970563744E+02  0.26118627698E+03  0.91989928027E+03  0.95896440464E+03  0.10100000352E+00 0. -1.
       -3    1    3    3    0  502  0.71970563744E+02 -0.26118627698E+03 -0.62171868551E+03  0.67818298964E+03  0.10100000352E+00 0.  1.
</event>
<event>
 5   0  0.5381164E-04  0.1601618E+04  0.7818609E-02  0.8819555E-01
       -2   -1    0    0    0  501  0.00000000000E+00  0.00000000000E+00  0.50492383936E+03  0.50492383936E+03  0.25500000920E-02 0. -1.
        2   -1    0    0  501    0  0.00000000000E+00  0.00000000000E+00 -0.12700819621E+04  0.12700819621E+04  0.25500000920E-02 0.  1.
    10030    2    1    2    0    0  0.00000000000E+00  0.00000000000E+00 -0.76515812272E+03  0.17750058014E+04  0.16016175081E+04 0.  0.
        5    1    3    3  502    0  0.30919556324E+03  0.32140985196E+03 -0.11196885916E+04  0.12052513520E+04  0.46999998093E+01 0.  1.
       -5    1    3    3    0  502 -0.30919556324E+03 -0.32140985196E+03  0.35453046892E+03  0.56975444944E+03  0.46999998093E+01 0. -1.
</event>
<event>
 5   0  0.2689675E-04  0.1594509E+04  0.7818609E-02  0.8823929E-01
       -1   -1    0    0    0  501  0.00000000000E+00  0.00000000000E+00  0.68952995346E+03  0.68952995347E+03  0.50400001928E-02 0. -1.
        1   -1    0    0  501    0  0.00000000000E+00  0.00000000000E+00 -0.92180847549E+03  0.92180847551E+03  0.50400001928E-02 0.  1.
    10030    2    1    2    0    0  0.00000000000E+00  0.00000000000E+00 -0.23227852204E+03  0.16113384290E+04  0.15945087710E+04 0.  0.
        1    1    3    3  502    0  0.36081765499E+03  0.25991720750E+03  0.55256111162E+03  0.70927435947E+03  0.50400001928E-02 0. -1.
       -1    1    3    3    0  502 -0.36081765499E+03 -0.25991720750E+03 -0.78483963366E+03  0.90206406951E+03  0.50400001928E-02 0.  1.
</event>
<event>
 5   0  0.2649086E-04  0.1609836E+04  0.7818609E-02  0.8814528E-01
        1   -1    0    0  501    0  0.00000000000E+00  0.00000000000E+00  0.13831430840E+04  0.13831430840E+04  0.50400001928E-02 0.  1.
       -1   -1    0    0    0  501  0.00000000000E+00  0.00000000000E+00 -0.46842075245E+03  0.46842075248E+03  0.50400001928E-02 0. -1.
    10030    2    1    2    0    0  0.00000000000E+00  0.00000000000E+00  0.91472233150E+03  0.18515638364E+04  0.16098359223E+04 0.  0.
        2    1    3    3  502    0  0.13937286755E+02 -0.75117577094E+03  0.78958261194E+03  0.10899082475E+04  0.25500000920E-02 0.  1.
       -2    1    3    3    0  502 -0.13937286755E+02  0.75117577094E+03  0.12513971957E+03  0.76165558898E+03  0.25500000920E-02 0. -1.
</event>
<event>
 5   0  0.5083831E-04  0.1609111E+04  0.7818609E-02  0.8814970E-01
       -2   -1    0    0    0  501  0.00000000000E+00  0.00000000000E+00  0.39857670184E+03  0.39857670185E+03  0.25500000920E-02 0.  1.
        2   -1    0    0  501    0  0.00000000000E+00  0.00000000000E+00 -0.16240520410E+04  0.16240520410E+04  0.25500000920E-02 0. -1.
    10030    2    1    2    0    0  0.00000000000E+00  0.00000000000E+00 -0.12254753392E+04  0.20226287428E+04  0.16091106937E+04 0.  0.
        4    1    3    3  502    0 -0.19080199393E+03 -0.89893078242E+02  0.36320572683E+03  0.42000735626E+03  0.12699999809E+01 0.  1.
       -4    1    3    3    0  502  0.19080199393E+03  0.89893078242E+02 -0.15886810660E+04  0.16026213866E+04  0.12699999809E+01 0. -1.
</event>
<event>
 5   0  0.5083831E-04  0.1607492E+04  0.7818609E-02  0.8815958E-01
       -2   -1    0    0    0  501  0.00000000000E+00  0.00000000000E+00  0.10231119989E+04  0.10231119989E+04  0.25500000920E-02 0.  1.
        2   -1    0    0  501    0  0.00000000000E+00  0.00000000000E+00 -0.63141469222E+03  0.63141469222E+03  0.25500000920E-02 0. -1.
    10030    2    1    2    0    0  0.00000000000E+00  0.00000000000E+00  0.39169730671E+03  0.16545266911E+04  0.16074923924E+04 0.  0.
        4    1    3    3  502    0  0.27900015344E+03 -0.57884282077E+03  0.69278618608E+03  0.94490973606E+03  0.12699999809E+01 0.  1.
       -4    1    3    3    0  502 -0.27900015344E+03  0.57884282077E+03 -0.30108887937E+03  0.70961695509E+03  0.12699999809E+01 0. -1.
</event>
<event>
 5   0  0.5315984E-04  0.1598227E+04  0.7818609E-02  0.8821638E-01
        2   -1    0    0  501    0  0.00000000000E+00  0.00000000000E+00  0.84538875912E+03  0.84538875913E+03  0.25500000920E-02 0. -1.
       -2   -1    0    0    0  501  0.00000000000E+00  0.00000000000E+00 -0.75537168814E+03  0.75537168815E+03  0.25500000920E-02 0.  1.
    10030    2    1    2    0    0  0.00000000000E+00  0.00000000000E+00  0.90017070979E+02  0.16007604473E+04  0.15982274358E+04 0.  0.
        2    1    3    3  502    0  0.72074969697E+03  0.26871157937E+02 -0.29960151440E+03  0.78100144190E+03  0.25500000920E-02 0. -1.
       -2    1    3    3    0  502 -0.72074969697E+03 -0.26871157937E+02  0.38961858538E+03  0.81975900537E+03  0.25500000920E-02 0.  1.
</event>
<event>
 5   0  0.5131239E-04  0.1624892E+04  0.7818609E-02  0.8805400E-01
       -2   -1    0    0    0  501  0.00000000000E+00  0.00000000000E+00  0.25772161496E+03  0.25772161497E+03  0.25500000920E-02 0. -1.
        2   -1    0    0  501    0  0.00000000000E+00  0.00000000000E+00 -0.25611679488E+04  0.25611679488E+04  0.25500000920E-02 0.  1.
    10030    2    1    2    0    0  0.00000000000E+00  0.00000000000E+00 -0.23034463339E+04  0.28188895638E+04  0.16248917994E+04 0.  0.
        1    1    3    3  502    0  0.23110249933E+03 -0.77863242768E+03 -0.11173967001E+04  0.13813950225E+04  0.50400001928E-02 0. -1.
       -1    1    3    3    0  502 -0.23110249933E+03  0.77863242768E+03 -0.11860496338E+04  0.14374945414E+04  0.50400001928E-02 0.  1.
</event>
<event>
 5   0  0.5083831E-04  0.1629890E+04  0.7818609E-02  0.8802393E-01
       -2   -1    0    0    0  501  0.00000000000E+00  0.00000000000E+00  0.79822357712E+03  0.79822357712E+03  0.25500000920E-02 0. -1.
        2   -1    0    0  501    0  0.00000000000E+00  0.00000000000E+00 -0.83201638192E+03  0.83201638192E+03  0.25500000920E-02 0.  1.
    10030    2    1    2    0    0  0.00000000000E+00  0.00000000000E+00 -0.33792804803E+02  0.16302399590E+04  0.16298896804E+04 0.  0.
        4    1    3    3  502    0 -0.46567652343E+03 -0.20246484897E+03  0.62064692055E+03  0.80190451578E+03  0.12699999809E+01 0. -1.
       -4    1    3    3    0  502  0.46567652343E+03  0.20246484897E+03 -0.65443972535E+03  0.82833544326E+03  0.12699999809E+01 0.  1.
</event>
<event>
 5   0  0.5381164E-04  0.1617040E+04  0.7818609E-02  0.8810147E-01
        2   -1    0    0  501    0  0.00000000000E+00  0.00000000000E+00  0.90404552512E+03  0.90404552512E+03  0.25500000920E-02 0.  1.
       -2   -1    0    0    0  501  0.00000000000E+00  0.00000000000E+00 -0.72308856178E+03  0.72308856179E+03  0.25500000920E-02 0. -1.
    10030    2    1    2    0    0  0.00000000000E+00  0.00000000000E+00  0.18095696333E+03  0.16271340869E+04  0.16170404801E+04 0.  0.
        5    1    3    3  502    0 -0.37459553105E+03 -0.70162118062E+02 -0.62702101920E+03  0.73377243285E+03  0.46999998093E+01 0. -1.
       -5    1    3    3    0  502  0.37459553105E+03  0.70162118062E+02  0.80797798253E+03  0.89336165406E+03  0.46999998093E+01 0.  1.
</event>
<event>
 5   0  0.2796994E-04  0.1606330E+04  0.7818609E-02  0.8816669E-01
       -1   -1    0    0    0  501  0.00000000000E+00  0.00000000000E+00  0.51043889661E+03  0.51043889663E+03  0.50400001928E-02 0.  1.
        1   -1    0    0  501    0  0.00000000000E+00  0.00000000000E+00 -0.12637636346E+04  0.12637636346E+04  0.50400001928E-02 0. -1.
    10030    2    1    2    0    0  0.00000000000E+00  0.00000000000E+00 -0.75332473799E+03  0.17742025312E+04  0.16063301220E+04 0.  0.
        3    1    3    3  502    0  0.29638551970E+03  0.59872713145E+03  0.11574894650E+03  0.67802388088E+03  0.10100000352E+00 0.  1.
       -3    1    3    3    0  502 -0.29638551970E+03 -0.59872713145E+03 -0.86907368449E+03  0.10961786504E+04  0.10100000352E+00 0. -1.
</event>
<event>
 5   0  0.2796994E-04  0.1329398E+04  0.7818609E-02  0.9006572E-01
       -1   -1    0    0    0  501  0.00000000000E+00  0.00000000000E+00  0.86167368108E+03  0.86167368109E+03  0.50400001928E-02 0. -1.
        1   -1    0    0  501    0  0.00000000000E+00  0.00000000000E+00 -0.51275177740E+03  0.51275177743E+03  0.50400001928E-02 0.  1.
    10030    2    1    2    0    0  0.00000000000E+00  0.00000000000E+00  0.34892190368E+03  0.13744254585E+04  0.13293979262E+04 0.  0.
        3    1    3    3  502    0  0.42897881374E+03 -0.19809889569E+03 -0.30887627909E+03  0.56450913287E+03  0.10100000352E+00 0.  1.
       -3    1    3    3    0  502 -0.42897881374E+03  0.19809889569E+03  0.65779818277E+03  0.80991632565E+03  0.10100000352E+00 0. -1.
</event>
<event>
 5   0  0.2763895E-04  0.1627369E+04  0.7818609E-02  0.8803909E-01
       -1   -1    0    0    0  501  0.00000000000E+00  0.00000000000E+00  0.58766507858E+03  0.58766507860E+03  0.50400001928E-02 0. -1.
        1   -1    0    0  501    0  0.00000000000E+00  0.00000000000E+00 -0.11266317687E+04  0.11266317687E+04  0.50400001928E-02 0.  1.
    10030    2    1    2    0    0  0.00000000000E+00  0.00000000000E+00 -0.53896669014E+03  0.17142968473E+04  0.16273686084E+04 0.  0.
        4    1    3    3  502    0  0.31410656999E+03  0.11248060161E+03 -0.10512615154E+04  0.11029357233E+04  0.12699999809E+01 0.  1.
       -4    1    3    3    0  502 -0.31410656999E+03 -0.11248060161E+03  0.51229482529E+03  0.61136112402E+03  0.12699999809E+01 0. -1.
</event>
<event>
 5   0  0.2689675E-04  0.1594649E+04  0.7818609E-02  0.8823842E-01
        1   -1    0    0  501    0  0.00000000000E+00  0.00000000000E+00  0.12554217209E+04  0.12554217209E+04  0.50400001928E-02 0. -1.
       -1   -1    0    0    0  501  0.00000000000E+00  0.00000000000E+00 -0.50638492677E+03  0.50638492680E+03  0.50400001928E-02 0.  1.
    10030    2    1    2    0    0  0.00000000000E+00  0.00000000000E+00  0.74903679410E+03  0.17618066477E+04  0.15946493486E+04 0.  0.
        1    1    3    3  502    0 -0.28608781993E+03 -0.43740443876E+03 -0.29072663886E+03  0.59807262295E+03  0.50400001928E-02 0. -1.
       -1    1    3    3    0  502  0.28608781993E+03  0.43740443876E+03  0.10397634330E+04  0.11637340247E+04  0.50400001928E-02 0.  1.
</event>
<event>
 5   0  0.5131239E-04  0.1588835E+04  0.7818609E-02  0.8827437E-01
        2   -1    0    0  501    0  0.00000000000E+00  0.00000000000E+00  0.93606085268E+03  0.93606085268E+03  0.25500000920E-02 0. -1.
       -2   -1    0    0    0  501  0.00000000000E+00  0.00000000000E+00 -0.67420734751E+03  0.67420734751E+03  0.25500000920E-02 0.  1.
    10030    2    1    2    0    0  0.00000000000E+00  0.00000000000E+00  0.26185350517E+03  0.16102682002E+04  0.15888349248E+04 0.  0.
        1    1    3    3  502    0 -0.38105797059E+03  0.32750997991E+03  0.75455762107E+03  0.90654573378E+03  0.50400001928E-02 0. -1.
       -1    1    3    3    0  502  0.38105797059E+03 -0.32750997991E+03 -0.49270411590E+03  0.70372246641E+03  0.50400001928E-02 0.  1.
</event>
<event>
 5   0  0.5083831E-04  0.1611689E+04  0.7818609E-02  0.8813399E-01
        2   -1    0    0  501    0  0.00000000000E+00  0.00000000000E+00  0.18857862460E+04  0.18857862460E+04  0.25500000920E-02 0.  1.
       -2   -1    0    0    0  501  0.00000000000E+00  0.00000000000E+00 -0.34435804394E+03  0.34435804395E+03  0.25500000920E-02 0. -1.
    10030    2    1    2    0    0  0.00000000000E+00  0.00000000000E+00  0.15414282020E+04  0.22301442899E+04  0.16116893782E+04 0.  0.
        4    1    3    3  502    0  0.75564617774E+03  0.44875721409E+02  0.11531074947E+04  0.13793743087E+04  0.12699999809E+01 0.  1.
       -4    1    3    3    0  502 -0.75564617774E+03 -0.44875721409E+02  0.38832070735E+03  0.85076998123E+03  0.12699999809E+01 0. -1.
</event>
<event>
 5   0  0.5315984E-04  0.1601803E+04  0.7818609E-02  0.8819441E-01
       -2   -1    0    0    0  501  0.00000000000E+00  0.00000000000E+00  0.24340640110E+03  0.24340640111E+03  0.25500000920E-02 0.  1.
        2   -1    0    0  501    0  0.00000000000E+00  0.00000000000E+00 -0.26352779667E+04  0.26352779668E+04  0.25500000920E-02 0. -1.
    10030    2    1    2    0    0  0.00000000000E+00  0.00000000000E+00 -0.23918715656E+04  0.28786843679E+04  0.16018033909E+04 0.  0.
        2    1    3    3  502    0 -0.43506029176E+03 -0.52112728258E+03 -0.19596565569E+04  0.20739105388E+04  0.25500000920E-02 0. -1.
       -2    1    3    3    0  502  0.43506029176E+03  0.52112728258E+03 -0.43221500879E+03  0.80477382906E+03  0.25500000920E-02 0.  1.
</event>
<event>
 5   0  0.2730707E-04  0.1594500E+04  0.7818609E-02  0.8823934E-01
        1   -1    0    0  501    0  0.00000000000E+00  0.00000000000E+00  0.56329556602E+03  0.56329556605E+03  0.50400001928E-02 0.  1.
       -1   -1    0    0    0  501  0.00000000000E+00  0.00000000000E+00 -0.11283730327E+04  0.11283730327E+04  0.50400001928E-02 0. -1.
    10030    2    1    2    0    0  0.00000000000E+00  0.00000000000E+00 -0.56507746668E+03  0.16916685988E+04  0.15944999544E+04 0.  0.
        5    1    3    3  502    0 -0.69599490857E+03 -0.25111720542E+03  0.32395463933E+02  0.74063507863E+03  0.46999998093E+01 0.  1.
       -5    1    3    3    0  502  0.69599490857E+03  0.25111720542E+03 -0.59747293061E+03  0.95103352014E+03  0.46999998093E+01 0. -1.
</event>
<event>
 5   0  0.2796994E-04  0.1576637E+04  0.7818609E-02  0.8835031E-01
        1   -1    0    0  501    0  0.00000000000E+00  0.00000000000E+00  0.12750559918E+04  0.12750559919E+04  0.50400001928E-02 0. -1.
       -1   -1    0    0    0  501  0.00000000000E+00  0.00000000000E+00 -0.48738707820E+03  0.48738707823E+03  0.50400001928E-02 0.  1.
    10030    2    1    2    0    0  0.00000000000E+00  0.00000000000E+00  0.78766891365E+03  0.17624430701E+04  0.15766366918E+04 0.  0.
        3    1    3    3  502    0  0.52589730945E+03  0.46426197608E+03 -0.81855031794E+01  0.70155126340E+03  0.10100000352E+00 0. -1.
       -3    1    3    3    0  502 -0.52589730945E+03 -0.46426197608E+03  0.79585441683E+03  0.10608918067E+04  0.10100000352E+00 0.  1.
</event>
<event>
 5   0  0.5131239E-04  0.1599160E+04  0.7818609E-02  0.8821064E-01
       -2   -1    0    0    0  501  0.00000000000E+00  0.00000000000E+00  0.57631129496E+03  0.57631129496E+03  0.25500000920E-02 0. -1.
        2   -1    0    0  501    0  0.00000000000E+00  0.00000000000E+00 -0.11093447651E+04  0.11093447651E+04  0.25500000920E-02 0.  1.
    10030    2    1    2    0    0  0.00000000000E+00  0.00000000000E+00 -0.53303347019E+03  0.16856560601E+04  0.15991596770E+04 0.  0.
        1    1    3    3  502    0  0.29543273036E+03 -0.66276942644E+03  0.87481493686E+02  0.73088769490E+03  0.50400001928E-02 0. -1.
       -1    1    3    3    0  502 -0.29543273036E+03  0.66276942644E+03 -0.62051496387E+03  0.95476836521E+03  0.50400001928E-02 0.  1.
</event>
<event>
 5   0  0.2763895E-04  0.1595209E+04  0.7818609E-02  0.8823497E-01
       -1   -1    0    0    0  501  0.00000000000E+00  0.00000000000E+00  0.37984363914E+03  0.37984363917E+03  0.50400001928E-02 0.  1.
        1   -1    0    0  501    0  0.00000000000E+00  0.00000000000E+00 -0.16748277654E+04  0.16748277654E+04  0.50400001928E-02 0. -1.
    10030    2    1    2    0    0  0.00000000000E+00  0.00000000000E+00 -0.12949841263E+04  0.20546714046E+04  0.15952086677E+04 0.  0.
        4    1    3    3  502    0  0.23400067514E+02 -0.11740391192E+03 -0.16631889939E+04  0.16674922740E+04  0.12699999809E+01 0. -1.
       -4    1    3    3    0  502 -0.23400067514E+02  0.11740391192E+03  0.36820486762E+03  0.38717913055E+03  0.12699999809E+01 0.  1.
</event>
<event>
 5   0  0.2796994E-04  0.1586381E+04  0.7818609E-02  0.8828959E-01
       -1   -1    0    0    0  501  0.00000000000E+00  0.00000000000E+00  0.11531748178E+04  0.11531748178E+04  0.50400001928E-02 0. -1.
        1   -1    0    0  501    0  0.00000000000E+00  0.00000000000E+00 -0.54558157721E+03  0.54558157723E+03  0.50400001928E-02 0.  1.
    10030    2    1    2    0    0  0.00000000000E+00  0.00000000000E+00  0.60759324060E+03  0.16987563951E+04  0.15863807058E+04 0.  0.
        3    1    3    3  502    0 -0.39461544015E+03 -0.59960420903E+03 -0.57608152513E+02  0.72011475650E+03  0.10100000352E+00 0.  1.
       -3    1    3    3    0  502  0.39461544015E+03  0.59960420903E+03  0.66520139312E+03  0.97864163855E+03  0.10100000352E+00 0. -1.
</event>
<event>
 5   0  0.2689675E-04  0.1322111E+04  0.7818609E-02  0.9012213E-01
       -1   -1    0    0    0  501  0.00000000000E+00  0.00000000000E+00  0.53154226121E+03  0.53154226124E+03  0.50400001928E-02 0. -1.
        1   -1    0    0  501    0  0.00000000000E+00  0.00000000000E+00 -0.82212477532E+03  0.82212477534E+03  0.50400001928E-02 0.  1.
    10030    2    1    2    0    0  0.00000000000E+00  0.00000000000E+00 -0.29058251411E+03  0.13536670366E+04  0.13221105281E+04 0.  0.
        1    1    3    3  502    0  0.46509366851E+03  0.46649064112E+03 -0.88575761833E+02  0.66465878791E+03  0.50400001928E-02 0.  1.
       -1    1    3    3    0  502 -0.46509366851E+03 -0.46649064112E+03 -0.20200675227E+03  0.68900824866E+03  0.50400001928E-02 0. -1.
</event>
<event>
 5   0  0.2730707E-04  0.1590192E+04  0.7818609E-02  0.8826596E-01
       -1   -1    0    0    0  501  0.00000000000E+00  0.00000000000E+00  0.66528737689E+03  0.66528737690E+03  0.50400001928E-02 0. -1.
        1   -1    0    0  501    0  0.00000000000E+00  0.00000000000E+00 -0.95023298476E+03  0.95023298477E+03  0.50400001928E-02 0.  1.
    10030    2    1    2    0    0  0.00000000000E+00  0.00000000000E+00 -0.28494560788E+03  0.16155203617E+04  0.15901924536E+04 0.  0.
        5    1    3    3  502    0  0.46979171976E+03  0.61571746367E+03 -0.32518071917E+03  0.83998621723E+03  0.46999998093E+01 0.  1.
       -5    1    3    3    0  502 -0.46979171976E+03 -0.61571746367E+03  0.40235111290E+02  0.77553414445E+03  0.46999998093E+01 0. -1.
</event>
<event>
 5   0  0.2796994E-04  0.1596312E+04  0.7818609E-02  0.8822817E-01
       -1   -1    0    0    0  501  0.00000000000E+00  0.00000000000E+00  0.50503937160E+03  0.50503937163E+03  0.50400001928E-02 0.  1.
        1   -1    0    0  501    0  0.00000000000E+00  0.00000000000E+00 -0.12613923781E+04  0.12613923781E+04  0.50400001928E-02 0. -1.
    10030    2    1    2    0    0  0.00000000000E+00  0.00000000000E+00 -0.75635300652E+03  0.17664317498E+04  0.15963117666E+04 0.  0.
        3    1    3    3  502    0 -0.26405891711E+03  0.27227162820E+03  0.39894329713E+03  0.55046772453E+03  0.10100000352E+00 0.  1.
       -3    1    3    3    0  502  0.26405891711E+03 -0.27227162820E+03 -0.11552963036E+04  0.12159640252E+04  0.10100000352E+00 0. -1.
</event>
<event>
 5   0  0.5083831E-04  0.1617217E+04  0.7818609E-02  0.8810040E-01
       -2   -1    0    0    0  501  0.00000000000E+00  0.00000000000E+00  0.45535094272E+03  0.45535094273E+03  0.25500000920E-02 0. -1.
        2   -1    0    0  501    0  0.00000000000E+00  0.00000000000E+00 -0.14359207648E+04  0.14359207648E+04  0.25500000920E-02 0.  1.
    10030    2    1    2    0    0  0.00000000000E+00  0.00000000000E+00 -0.98056982207E+03  0.18912717075E+04  0.16172172073E+04 0.  0.
        4    1    3    3  502    0  0.49586183827E+03 -0.70357105609E+01 -0.12372011454E+04  0.13328903747E+04  0.12699999809E+01 0.  1.
       -4    1    3    3    0  502 -0.49586183827E+03  0.70357105609E+01  0.25663132330E+03  0.55838133285E+03  0.12699999809E+01 0. -1.
</event>
<event>
 5   0  0.5131239E-04  0.1591799E+04  0.7818609E-02  0.8825602E-01
        2   -1    0    0  501    0  0.00000000000E+00  0.00000000000E+00  0.41511433023E+03  0.41511433024E+03  0.25500000920E-02 0.  1.
       -2   -1    0    0    0  501  0.00000000000E+00  0.00000000000E+00 -0.15259797897E+04  0.15259797897E+04  0.25500000920E-02 0. -1.
    10030    2    1    2    0    0  0.00000000000E+00  0.00000000000E+00 -0.11108654594E+04  0.19410941199E+04  0.15917990807E+04 0.  0.
        1    1    3    3  502    0  0.41365334048E+03  0.19262250283E+03 -0.13506342816E+04  0.14256316064E+04  0.50400001928E-02 0. -1.
       -1    1    3    3    0  502 -0.41365334048E+03 -0.19262250283E+03  0.23976882214E+03  0.51546251346E+03  0.50400001928E-02 0.  1.
</event>
<event>
 5   0  0.2763895E-04  0.1603655E+04  0.7818609E-02  0.8818306E-01
        1   -1    0    0  501    0  0.00000000000E+00  0.00000000000E+00  0.15038803032E+04  0.15038803032E+04  0.50400001928E-02 0. -1.
       -1   -1    0    0    0  501  0.00000000000E+00  0.00000000000E+00 -0.42751233552E+03  0.42751233555E+03  0.50400001928E-02 0.  1.
    10030    2    1    2    0    0  0.00000000000E+00  0.00000000000E+00  0.10763679677E+04  0.19313926387E+04  0.16036550512E+04 0.  0.
        4    1    3    3  502    0  0.48961984108E+02 -0.26388054623E+03 -0.37180879057E+03  0.45855600335E+03  0.12699999809E+01 0.  1.
       -4    1    3    3    0  502 -0.48961984108E+02  0.26388054623E+03  0.14481767582E+04  0.14728366354E+04  0.12699999809E+01 0. -1.
</event>
<event>
 5   0  0.5381164E-04  0.1605105E+04  0.7818609E-02  0.8817418E-01
       -2   -1    0    0    0  501  0.00000000000E+00  0.00000000000E+00  0.40823150123E+03  0.40823150124E+03  0.25500000920E-02 0.  1.
        2   -1    0    0  501    0  0.00000000000E+00  0.00000000000E+00 -0.15777578584E+04  0.15777578584E+04  0.25500000920E-02 0. -1.
    10030    2    1    2    0    0  0.00000000000E+00  0.00000000000E+00 -0.11695263571E+04  0.19859893596E+04  0.16051049300E+04 0.  0.
        5    1    3    3  502    0  0.22428157387E+03 -0.23977981737E+03  0.32131560699E+03  0.45941527455E+03  0.46999998093E+01 0.  1.
       -5    1    3    3    0  502 -0.22428157387E+03  0.23977981737E+03 -0.14908419641E+04  0.15265740850E+04  0.46999998093E+01 0. -1.
</event>
<event>
 5   0  0.2763895E-04  0.1591010E+04  0.7818609E-02  0.8826090E-01
       -1   -1    0    0    0  501  0.00000000000E+00  0.00000000000E+00  0.76271590758E+03  0.76271590759E+03  0.50400001928E-02 0. -1.
        1   -1    0    0  501    0  0.00000000000E+00  0.00000000000E+00 -0.82970354052E+03  0.82970354054E+03  0.50400001928E-02 0.  1.
    10030    2    1    2    0    0  0.00000000000E+00  0.00000000000E+00 -0.66987632945E+02  0.15924194481E+04  0.15910098541E+04 0.  0.
        4    1    3    3  502    0  0.23981627418E+03 -0.11916768279E+03 -0.78323270388E+03  0.82774867158E+03  0.12699999809E+01 0.  1.
       -4    1    3    3    0  502 -0.23981627418E+03  0.11916768279E+03  0.71624507093E+03  0.76467077655E+03  0.12699999809E+01 0. -1.
</event>
<event>
 5   0  0.2689675E-04  0.1677625E+04  0.7818609E-02  0.8774230E-01
        1   -1    0    0  501    0  0.00000000000E+00  0.00000000000E+00  0.74028979146E+03  0.74028979148E+03  0.50400001928E-02 0.  1.
       -1   -1    0    0    0  501  0.00000000000E+00  0.00000000000E+00 -0.95044704848E+03  0.95044704849E+03  0.50400001928E-02 0. -1.
    10030    2    1    2    0    0  0.00000000000E+00  0.00000000000E+00 -0.21015725701E+03  0.16907368400E+04  0.16776248059E+04 0.  0.
        1    1    3    3  502    0  0.29218158563E+03 -0.11199143803E+03  0.67926765539E+03  0.74787479491E+03  0.50400001928E-02 0.  1.
       -1    1    3    3    0  502 -0.29218158563E+03  0.11199143803E+03 -0.88942491241E+03  0.94286204506E+03  0.50400001928E-02 0. -1.
</event>
<event>
 5   0  0.2689675E-04  0.1609526E+04  0.7818609E-02  0.8814717E-01
        1   -1    0    0  501    0  0.00000000000E+00  0.00000000000E+00  0.81137945217E+03  0.81137945218E+03  0.50400001928E-02 0. -1.
       -1   -1    0    0    0  501  0.00000000000E+00  0.00000000000E+00 -0.79820048709E+03  0.79820048711E+03  0.50400001928E-02 0.  1.
    10030    2    1    2    0    0  0.00000000000E+00  0.00000000000E+00  0.13178965074E+02  0.16095799393E+04  0.16095259848E+04 0.  0.
        1    1    3    3  502    0 -0.12968341167E+03  0.68076391870E+03  0.41573175130E+03  0.80813995652E+03  0.50400001928E-02 0. -1.
       -1    1    3    3    0  502  0.12968341167E+03 -0.68076391870E+03 -0.40255278622E+03  0.80143998277E+03  0.50400001928E-02 0.  1.
</event>
<event>
 5   0  0.2796994E-04  0.1592024E+04  0.7818609E-02  0.8825463E-01
        1   -1    0    0  501    0  0.00000000000E+00  0.00000000000E+00  0.26522217705E+04  0.26522217705E+04  0.50400001928E-02 0. -1.
       -1   -1    0    0    0  501  0.00000000000E+00  0.00000000000E+00 -0.23890741320E+03  0.23890741325E+03  0.50400001928E-02 0.  1.
    10030    2    1    2    0    0  0.00000000000E+00  0.00000000000E+00  0.24133143573E+04  0.28911291837E+04  0.15920244251E+04 0.  0.
        3    1    3    3  502    0  0.19273936413E+03  0.50694876374E+03  0.22647681403E+04  0.23288023212E+04  0.10100000352E+00 0. -1.
       -3    1    3    3    0  502 -0.19273936413E+03 -0.50694876374E+03  0.14854621692E+03  0.56232686251E+03  0.10100000352E+00 0.  1.
</event>
<event>
 5   0  0.5381164E-04  0.1607004E+04  0.7818609E-02  0.8816257E-01
       -2   -1    0    0    0  501  0.00000000000E+00  0.00000000000E+00  0.73395270719E+03  0.73395270720E+03  0.25500000920E-02 0. -1.
        2   -1    0    0  501    0  0.00000000000E+00  0.00000000000E+00 -0.87964197053E+03  0.87964197053E+03  0.25500000920E-02 0.  1.
    10030    2    1    2    0    0  0.00000000000E+00  0.00000000000E+00 -0.14568926334E+03  0.16135946777E+04  0.16070041763E+04 0.  0.
        5    1    3    3  502    0  0.75260806662E+03  0.27997067018E+03 -0.44603896792E+02  0.80424752142E+03  0.46999998093E+01 0.  1.
       -5    1    3    3    0  502 -0.75260806662E+03 -0.27997067018E+03 -0.10108536655E+03  0.80934715631E+03  0.46999998093E+01 0. -1.
</event>
<event>
 5   0  0.5131239E-04  0.1598494E+04  0.7818609E-02  0.8821474E-01
        2   -1    0    0  501    0  0.00000000000E+00  0.00000000000E+00  0.84610431825E+03  0.84610431826E+03  0.25500000920E-02 0. -1.
       -2   -1    0    0    0  501  0.00000000000E+00  0.00000000000E+00 -0.75498459128E+03  0.75498459128E+03  0.25500000920E-02 0.  1.
    10030    2    1    2    0    0  0.00000000000E+00  0.00000000000E+00  0.91119726972E+02  0.16010889095E+04  0.15984939448E+04 0.  0.
        1    1    3    3  502    0  0.78306235263E+02  0.45784931961E+03  0.69702933709E+03  0.83762029747E+03  0.50400001928E-02 0. -1.
       -1    1    3    3    0  502 -0.78306235263E+02 -0.45784931961E+03 -0.60590961012E+03  0.76346861207E+03  0.50400001928E-02 0.  1.
</event>
<event>
 5   0  0.2763895E-04  0.1602877E+04  0.7818609E-02  0.8818783E-01
        1   -1    0    0  501    0  0.00000000000E+00  0.00000000000E+00  0.14612056616E+04  0.14612056616E+04  0.50400001928E-02 0.  1.
       -1   -1    0    0    0  501  0.00000000000E+00  0.00000000000E+00 -0.43957082598E+03  0.43957082601E+03  0.50400001928E-02 0. -1.
    10030    2    1    2    0    0  0.00000000000E+00  0.00000000000E+00  0.10216348356E+04  0.19007764876E+04  0.16028766386E+04 0.  0.
        4    1    3    3  502    0  0.15573034726E+03  0.65822038893E+03  0.10442929274E+01  0.67639391253E+03  0.12699999809E+01 0. -1.
       -4    1    3    3    0  502 -0.15573034726E+03 -0.65822038893E+03  0.10205905427E+04  0.12243825751E+04  0.12699999809E+01 0.  1.
</event>
<event>
 5   0  0.2796994E-04  0.1603155E+04  0.7818609E-02  0.8818612E-01
       -1   -1    0    0    0  501  0.00000000000E+00  0.00000000000E+00  0.67552544928E+03  0.67552544930E+03  0.50400001928E-02 0. -1.
        1   -1    0    0  501    0  0.00000000000E+00  0.00000000000E+00 -0.95115126712E+03  0.95115126713E+03  0.50400001928E-02 0.  1.
    10030    2    1    2    0    0  0.00000000000E+00  0.00000000000E+00 -0.27562581784E+03  0.16266767164E+04  0.16031554972E+04 0.  0.
        3    1    3    3  502    0  0.43170696431E+03  0.61919138221E+03  0.13588154442E+03  0.76696328149E+03  0.10100000352E+00 0. -1.
       -3    1    3    3    0  502 -0.43170696431E+03 -0.61919138221E+03 -0.41150736225E+03  0.85971343494E+03  0.10100000352E+00 0.  1.
</event>
<event>
 5   0  0.5381164E-04  0.1767456E+04  0.7818609E-02  0.8723800E-01
       -2   -1    0    0    0  501  0.00000000000E+00  0.00000000000E+00  0.47409748630E+03  0.47409748630E+03  0.25500000920E-02 0. -1.
        2   -1    0    0  501    0  0.00000000000E+00  0.00000000000E+00 -0.16472873728E+04  0.16472873728E+04  0.25500000920E-02 0.  1.
    10030    2    1    2    0    0  0.00000000000E+00  0.00000000000E+00 -0.11731898865E+04  0.21213848591E+04  0.17674555753E+04 0.  0.
        5    1    3    3  502    0  0.65152063528E+03 -0.57123775388E+03 -0.37814880766E+03  0.94541542212E+03  0.46999998093E+01 0.  1.
       -5    1    3    3    0  502 -0.65152063528E+03  0.57123775388E+03 -0.79504107883E+03  0.11759694370E+04  0.46999998093E+01 0. -1.
</event>
<event>
 5   0  0.2796994E-04  0.1610419E+04  0.7818609E-02  0.8814173E-01
        1   -1    0    0  501    0  0.00000000000E+00  0.00000000000E+00  0.35633392724E+03  0.35633392728E+03  0.50400001928E-02 0.  1.
       -1   -1    0    0    0  501  0.00000000000E+00  0.00000000000E+00 -0.18195358460E+04  0.18195358460E+04  0.50400001928E-02 0. -1.
    10030    2    1    2    0    0  0.00000000000E+00  0.00000000000E+00 -0.14632019188E+04  0.21758697733E+04  0.16104190185E+04 0.  0.
        3    1    3    3  502    0  0.22486075085E+03  0.64671125907E+03 -0.13041389235E+04  0.14729481158E+04  0.10100000352E+00 0. -1.
       -3    1    3    3    0  502 -0.22486075085E+03 -0.64671125907E+03 -0.15906299525E+03  0.70292165747E+03  0.10100000352E+00 0.  1.
</event>
<event>
 5   0  0.2796994E-04  0.1590969E+04  0.7818609E-02  0.8826115E-01
       -1   -1    0    0    0  501  0.00000000000E+00  0.00000000000E+00  0.71446007842E+03  0.71446007843E+03  0.50400001928E-02 0.  1.
        1   -1    0    0  501    0  0.00000000000E+00  0.00000000000E+00 -0.88569744691E+03  0.88569744692E+03  0.50400001928E-02 0. -1.
    10030    2    1    2    0    0  0.00000000000E+00  0.00000000000E+00 -0.17123736849E+03  0.16001575254E+04  0.15909688462E+04 0.  0.
        3    1    3    3  502    0 -0.19084086504E+03 -0.26680789689E+03  0.64326592052E+03  0.72207876601E+03  0.10100000352E+00 0.  1.
       -3    1    3    3    0  502  0.19084086504E+03  0.26680789689E+03 -0.81450328901E+03  0.87807875935E+03  0.10100000352E+00 0. -1.
</event>
<event>
 5   0  0.5083831E-04  0.1601840E+04  0.7818609E-02  0.8819418E-01
        2   -1    0    0  501    0  0.00000000000E+00  0.00000000000E+00  0.94380647018E+03  0.94380647018E+03  0.25500000920E-02 0.  1.
       -2   -1    0    0    0  501  0.00000000000E+00  0.00000000000E+00 -0.67966605169E+03  0.67966605169E+03  0.25500000920E-02 0. -1.
    10030    2    1    2    0    0  0.00000000000E+00  0.00000000000E+00  0.26414041850E+03  0.16234725219E+04  0.16018404629E+04 0.  0.
        4    1    3    3  502    0 -0.19839517983E+03 -0.36011280405E+03 -0.56454714630E+03  0.69839599965E+03  0.12699999809E+01 0. -1.
       -4    1    3    3    0  502  0.19839517983E+03  0.36011280405E+03  0.82868756480E+03  0.92507652223E+03  0.12699999809E+01 0.  1.
</event>
<event>
 5   0  0.5315984E-04  0.1591032E+04  0.7818609E-02  0.8826077E-01
        2   -1    0    0  501    0  0.00000000000E+00  0.00000000000E+00  0.24612090552E+04  0.24612090552E+04  0.25500000920E-02 0. -1.
       -2   -1    0    0    0  501  0.00000000000E+00  0.00000000000E+00 -0.25712789572E+03  0.25712789573E+03  0.25500000920E-02 0.  1.
    10030    2    1    2    0    0  0.00000000000E+00  0.00000000000E+00  0.22040811595E+04  0.27183369509E+04  0.15910317474E+04 0.  0.
        2    1    3    3  502    0 -0.56326853699E+03 -0.44585201343E+03  0.16859256243E+04  0.18325939739E+04  0.25500000920E-02 0. -1.
       -2    1    3    3    0  502  0.56326853699E+03  0.44585201343E+03  0.51815553517E+03  0.88574297699E+03  0.25500000920E-02 0.  1.
</event>
<event>
 5   0  0.2649086E-04  0.1525509E+04  0.7818609E-02  0.8867665E-01
        1   -1    0    0  501    0  0.00000000000E+00  0.00000000000E+00  0.52697963123E+03  0.52697963125E+03  0.50400001928E-02 0. -1.
       -1   -1    0    0    0  501  0.00000000000E+00  0.00000000000E+00 -0.11040166014E+04  0.11040166014E+04  0.50400001928E-02 0.  1.
    10030    2    1    2    0    0  0.00000000000E+00  0.00000000000E+00 -0.57703697016E+03  0.16309962326E+04  0.15255087827E+04 0.  0.
        2    1    3    3  502    0  0.69117701736E+03  0.16651239822E+03 -0.58392537425E+03  0.92001135362E+03  0.25500000920E-02 0. -1.
       -2    1    3    3    0  502 -0.69117701736E+03 -0.16651239822E+03  0.68884040951E+01  0.71098487903E+03  0.25500000920E-02 0.  1.
</event>
<event>
 5   0  0.5315984E-04  0.1645047E+04  0.7818609E-02  0.8793342E-01
       -2   -1    0    0    0  501  0.00000000000E+00  0.00000000000E+00  0.11480858785E+04  0.11480858785E+04  0.25500000920E-02 0.  1.
        2   -1    0    0  501    0  0.00000000000E+00  0.00000000000E+00 -0.58928046178E+03  0.58928046179E+03  0.25500000920E-02 0. -1.
    10030    2    1    2    0    0  0.00000000000E+00  0.00000000000E+00  0.55880541674E+03  0.17373663403E+04  0.16450465971E+04 0.  0.
        2    1    3    3  502    0 -0.28805267649E+03  0.36882630166E+03 -0.43497269833E+03  0.63891191375E+03  0.25500000920E-02 0. -1.
       -2    1    3    3    0  502  0.28805267649E+03 -0.36882630166E+03  0.99377811508E+03  0.10984544266E+04  0.25500000920E-02 0.  1.
</event>
<event>
 5   0  0.2649086E-04  0.1585416E+04  0.7818609E-02  0.8829558E-01
       -1   -1    0    0    0  501  0.00000000000E+00  0.00000000000E+00  0.75339268732E+03  0.75339268734E+03  0.50400001928E-02 0. -1.
        1   -1    0    0  501    0  0.00000000000E+00  0.00000000000E+00 -0.83407466327E+03  0.83407466328E+03  0.50400001928E-02 0.  1.
    10030    2    1    2    0    0  0.00000000000E+00  0.00000000000E+00 -0.80681975947E+02  0.15874673506E+04  0.15854157209E+04 0.  0.
        2    1    3    3  502    0 -0.88220228761E+02 -0.30932347458E+03 -0.76579351965E+03  0.83060431942E+03  0.25500000920E-02 0.  1.
       -2    1    3    3    0  502  0.88220228761E+02  0.30932347458E+03  0.68511154370E+03  0.75686303121E+03  0.25500000920E-02 0. -1.
</event>
<event>
 5   0  0.1908125E-04  0.1577822E+04  0.7818609E-02  0.8834290E-01
        3   -1    0    0  501    0  0.00000000000E+00  0.00000000000E+00  0.57378945761E+03  0.57378946650E+03  0.10100000352E+00 0. -1.
       -3   -1    0    0    0  501  0.00000000000E+00  0.00000000000E+00 -0.10846841266E+04  0.10846841313E+04  0.10100000352E+00 0.  1.
    10030    2    1    2    0    0  0.00000000000E+00  0.00000000000E+00 -0.51089466901E+03  0.16584735978E+04  0.15778216984E+04 0.  0.
        3    1    3    3  502    0  0.20209183308E+03 -0.74013812216E+02 -0.10532306269E+04  0.10749948451E+04  0.10100000352E+00 0.  1.
       -3    1    3    3    0  502 -0.20209183308E+03  0.74013812216E+02  0.54233595790E+03  0.58347875268E+03  0.10100000352E+00 0. -1.
</event>
<event>
 5   0  0.2689675E-04  0.1579942E+04  0.7818609E-02  0.8832966E-01
       -1   -1    0    0    0  501  0.00000000000E+00  0.00000000000E+00  0.98696812367E+03  0.98696812368E+03  0.50400001928E-02 0. -1.
        1   -1    0    0  501    0  0.00000000000E+00  0.00000000000E+00 -0.63229436138E+03  0.63229436140E+03  0.50400001928E-02 0.  1.
    10030    2    1    2    0    0  0.00000000000E+00  0.00000000000E+00  0.35467376229E+03  0.16192624851E+04  0.15799422515E+04 0.  0.
        1    1    3    3  502    0 -0.12418013564E+03  0.60722148786E+03 -0.32466507552E+03  0.69967567679E+03  0.50400001928E-02 0.  1.
       -1    1    3    3    0  502  0.12418013564E+03 -0.60722148786E+03  0.67933883781E+03  0.91958680829E+03  0.50400001928E-02 0. -1.
</event>
<event>
 5   0  0.5315984E-04  0.1608341E+04  0.7818609E-02  0.8815440E-01
       -2   -1    0    0    0  501  0.00000000000E+00  0.00000000000E+00  0.10751512670E+04  0.10751512670E+04  0.25500000920E-02 0. -1.
        2   -1    0    0  501    0  0.00000000000E+00  0.00000000000E+00 -0.60148793350E+03  0.60148793350E+03  0.25500000920E-02 0.  1.
    10030    2    1    2    0    0  0.00000000000E+00  0.00000000000E+00  0.47366333347E+03  0.16766392005E+04  0.16083413988E+04 0.  0.
        2    1    3    3  502    0  0.42668449787E+03  0.57687890292E+03 -0.14168724414E+03  0.73138512736E+03  0.25500000920E-02 0.  1.
       -2    1    3    3    0  502 -0.42668449787E+03 -0.57687890292E+03  0.61535057761E+03  0.94525407311E+03  0.25500000920E-02 0. -1.
</event>
<event>
 5   0  0.5083831E-04  0.1595752E+04  0.7818609E-02  0.8823162E-01
       -2   -1    0    0    0  501  0.00000000000E+00  0.00000000000E+00  0.10822809788E+04  0.10822809788E+04  0.25500000920E-02 0.  1.
        2   -1    0    0  501    0  0.00000000000E+00  0.00000000000E+00 -0.58820801501E+03  0.58820801501E+03  0.25500000920E-02 0. -1.
    10030    2    1    2    0    0  0.00000000000E+00  0.00000000000E+00  0.49407296383E+03  0.16704889939E+04  0.15957522944E+04 0.  0.
        4    1    3    3  502    0 -0.72360133876E+02 -0.34455384208E+03  0.99656681382E+03  0.10569296885E+04  0.12699999809E+01 0.  1.
       -4    1    3    3    0  502  0.72360133876E+02  0.34455384208E+03 -0.50249384998E+03  0.61355930539E+03  0.12699999809E+01 0. -1.
</event>
<event>
 5   0  0.5131239E-04  0.1606414E+04  0.7818609E-02  0.8816618E-01
        2   -1    0    0  501    0  0.00000000000E+00  0.00000000000E+00  0.41456518966E+03  0.41456518966E+03  0.25500000920E-02 0.  1.
       -2   -1    0    0    0  501  0.00000000000E+00  0.00000000000E+00 -0.15561875520E+04  0.15561875520E+04  0.25500000920E-02 0. -1.
    10030    2    1    2    0    0  0.00000000000E+00  0.00000000000E+00 -0.11416223624E+04  0.19707527417E+04  0.16064136300E+04 0.  0.
        1    1    3    3  502    0  0.34710807994E+03 -0.19602049146E+03 -0.14262659168E+04  0.14809262364E+04  0.50400001928E-02 0. -1.
       -1    1    3    3    0  502 -0.34710807994E+03  0.19602049146E+03  0.28464355439E+03  0.48982650532E+03  0.50400001928E-02 0.  1.
</event>
<event>
 5   0  0.5131239E-04  0.1553245E+04  0.7818609E-02  0.8849798E-01
       -2   -1    0    0    0  501  0.00000000000E+00  0.00000000000E+00  0.61139847324E+03  0.61139847325E+03  0.25500000920E-02 0. -1.
        2   -1    0    0  501    0  0.00000000000E+00  0.00000000000E+00 -0.98649638203E+03  0.98649638203E+03  0.25500000920E-02 0.  1.
    10030    2    1    2    0    0  0.00000000000E+00  0.00000000000E+00 -0.37509790879E+03  0.15978948553E+04  0.15532448382E+04 0.  0.
        1    1    3    3  502    0  0.32487098693E+03 -0.54043722520E+03  0.27883613107E+03  0.68946583711E+03  0.50400001928E-02 0. -1.
       -1    1    3    3    0  502 -0.32487098693E+03  0.54043722520E+03 -0.65393403986E+03  0.90842901816E+03  0.50400001928E-02 0.  1.
</event>
<event>
 5   0  0.2649086E-04  0.1600622E+04  0.7818609E-02  0.8820166E-01
        1   -1    0    0  501    0  0.00000000000E+00  0.00000000000E+00  0.11334442698E+04  0.11334442698E+04  0.50400001928E-02 0.  1.
       -1   -1    0    0    0  501  0.00000000000E+00  0.00000000000E+00 -0.56508942457E+03  0.56508942459E+03  0.50400001928E-02 0. -1.
    10030    2    1    2    0    0  0.00000000000E+00  0.00000000000E+00  0.56835484522E+03  0.16985336944E+04  0.16006215920E+04 0.  0.
        2    1    3    3  502    0  0.47890042733E+03  0.57880418703E+03 -0.86317645389E+01  0.75128850224E+03  0.25500000920E-02 0. -1.
       -2    1    3    3    0  502 -0.47890042733E+03 -0.57880418703E+03  0.57698660976E+03  0.94724519216E+03  0.25500000920E-02 0.  1.
</event>
<event>
 5   0  0.1908125E-04  0.1602893E+04  0.7818609E-02  0.8818773E-01
        4   -1    0    0  501    0  0.00000000000E+00  0.00000000000E+00  0.93148700808E+03  0.93148787385E+03  0.12699999809E+01 0. -1.
       -4   -1    0    0    0  501  0.00000000000E+00  0.00000000000E+00 -0.68955853512E+03  0.68955970463E+03  0.12699999809E+01 0.  1.
    10030    2    1    2    0    0  0.00000000000E+00  0.00000000000E+00  0.24192847296E+03  0.16210475785E+04  0.16028929676E+04 0.  0.
        5    1    3    3  502    0 -0.14529212552E+03  0.48389833243E+03 -0.50819685619E+03  0.71662649442E+03  0.46999998093E+01 0.  1.
       -5    1    3    3    0  502  0.14529212552E+03 -0.48389833243E+03  0.75012532915E+03  0.90442108406E+03  0.46999998093E+01 0. -1.
</event>
<event>
 5   0  0.5131239E-04  0.1681778E+04  0.7818609E-02  0.8771826E-01
        2   -1    0    0  501    0  0.00000000000E+00  0.00000000000E+00  0.77475426680E+03  0.77475426680E+03  0.25500000920E-02 0. -1.
       -2   -1    0    0    0  501  0.00000000000E+00  0.00000000000E+00 -0.91266943322E+03  0.91266943322E+03  0.25500000920E-02 0.  1.
    10030    2    1    2    0    0  0.00000000000E+00  0.00000000000E+00 -0.13791516642E+03  0.16874237000E+04  0.16817782702E+04 0.  0.
        1    1    3    3  502    0  0.43624191803E+03 -0.91852077534E+02  0.64642297009E+03  0.78524293787E+03  0.50400001928E-02 0. -1.
       -1    1    3    3    0  502 -0.43624191803E+03  0.91852077534E+02 -0.78433813651E+03  0.90218076215E+03  0.50400001928E-02 0.  1.
</event>
<event>
 5   0  0.5381164E-04  0.1601579E+04  0.7818609E-02  0.8819579E-01
       -2   -1    0    0    0  501  0.00000000000E+00  0.00000000000E+00  0.40939991774E+03  0.40939991774E+03  0.25500000920E-02 0.  1.
        2   -1    0    0  501    0  0.00000000000E+00  0.00000000000E+00 -0.15663506583E+04  0.15663506583E+04  0.25500000920E-02 0. -1.
    10030    2    1    2    0    0  0.00000000000E+00  0.00000000000E+00 -0.11569507406E+04  0.19757505761E+04  0.16015790092E+04 0.  0.
        5    1    3    3  502    0  0.61910682155E+03  0.13803178656E+03  0.24483827703E+02  0.63479727348E+03  0.46999998093E+01 0.  1.
       -5    1    3    3    0  502 -0.61910682155E+03 -0.13803178656E+03 -0.11814345683E+04  0.13409533026E+04  0.46999998093E+01 0. -1.
</event>
<event>
 5   0  0.5083831E-04  0.1551795E+04  0.7818609E-02  0.8850722E-01
       -2   -1    0    0    0  501  0.00000000000E+00  0.00000000000E+00  0.57065261744E+03  0.57065261744E+03  0.25500000920E-02 0.  1.
        2   -1    0    0  501    0  0.00000000000E+00  0.00000000000E+00 -0.10549624065E+04  0.10549624065E+04  0.25500000920E-02 0. -1.
    10030    2    1    2    0    0  0.00000000000E+00  0.00000000000E+00 -0.48430978908E+03  0.16256150240E+04  0.15517951651E+04 0.  0.
        4    1    3    3  502    0  0.15909748569E+03  0.74126101856E+03 -0.41503749641E+03  0.86431339450E+03  0.12699999809E+01 0. -1.
       -4    1    3    3    0  502 -0.15909748569E+03 -0.74126101856E+03 -0.69272292675E+02  0.76130162946E+03  0.12699999809E+01 0.  1.
</event>
<event>
 5   0  0.2689675E-04  0.1640102E+04  0.7818609E-02  0.8796283E-01
       -1   -1    0    0    0  501  0.00000000000E+00  0.00000000000E+00  0.10972510788E+04  0.10972510788E+04  0.50400001928E-02 0.  1.
        1   -1    0    0  501    0  0.00000000000E+00  0.00000000000E+00 -0.61288054252E+03  0.61288054254E+03  0.50400001928E-02 0. -1.
    10030    2    1    2    0    0  0.00000000000E+00  0.00000000000E+00  0.48437053631E+03  0.17101316214E+04  0.16401022364E+04 0.  0.
        1    1    3    3  502    0  0.50130794372E+03  0.63841144284E+03  0.36380612984E+03  0.88951319548E+03  0.50400001928E-02 0.  1.
       -1    1    3    3    0  502 -0.50130794372E+03 -0.63841144284E+03  0.12056440646E+03  0.82061842590E+03  0.50400001928E-02 0. -1.
</event>
<event>
 5   0  0.5264308E-04  0.1667266E+04  0.7818609E-02  0.8780257E-01
       -2   -1    0    0    0  501  0.00000000000E+00  0.00000000000E+00  0.27979870650E+03  0.27979870651E+03  0.25500000920E-02 0.  1.
        2   -1    0    0  501    0  0.00000000000E+00  0.00000000000E+00 -0.24837295749E+04  0.24837295750E+04  0.25500000920E-02 0. -1.
    10030    2    1    2    0    0  0.00000000000E+00  0.00000000000E+00 -0.22039308684E+04  0.27635282815E+04  0.16672664123E+04 0.  0.
        3    1    3    3  502    0  0.14985743692E+03  0.12523475023E+03 -0.24452764657E+04  0.24530629829E+04  0.10100000352E+00 0. -1.
       -3    1    3    3    0  502 -0.14985743692E+03 -0.12523475023E+03  0.24134559729E+03  0.31046529854E+03  0.10100000352E+00 0.  1.
</event>
<event>
 5   0  0.5131239E-04  0.1607065E+04  0.7818609E-02  0.8816219E-01
       -2   -1    0    0    0  501  0.00000000000E+00  0.00000000000E+00  0.42017967556E+03  0.42017967556E+03  0.25500000920E-02 0. -1.
        2   -1    0    0  501    0  0.00000000000E+00  0.00000000000E+00 -0.15366388391E+04  0.15366388391E+04  0.25500000920E-02 0.  1.
    10030    2    1    2    0    0  0.00000000000E+00  0.00000000000E+00 -0.11164591635E+04  0.19568185147E+04  0.16070649133E+04 0.  0.
        1    1    3    3  502    0  0.10838896276E+03  0.65899688025E+03 -0.14177837759E+02  0.66800154681E+03  0.50400001928E-02 0.  1.
       -1    1    3    3    0  502 -0.10838896276E+03 -0.65899688025E+03 -0.11022813258E+04  0.12888169679E+04  0.50400001928E-02 0. -1.
</event>
<event>
 5   0  0.2763895E-04  0.1627251E+04  0.7818609E-02  0.8803980E-01
        1   -1    0    0  501    0  0.00000000000E+00  0.00000000000E+00  0.99021422710E+03  0.99021422711E+03  0.50400001928E-02 0.  1.
       -1   -1    0    0    0  501  0.00000000000E+00  0.00000000000E+00 -0.66852822555E+03  0.66852822557E+03  0.50400001928E-02 0. -1.
    10030    2    1    2    0    0  0.00000000000E+00  0.00000000000E+00  0.32168600155E+03  0.16587424527E+04  0.16272506386E+04 0.  0.
        4    1    3    3  502    0  0.44764144240E+03 -0.54593876965E+03 -0.25139987960E+03  0.74942345408E+03  0.12699999809E+01 0. -1.
       -4    1    3    3    0  502 -0.44764144240E+03  0.54593876965E+03  0.57308588115E+03  0.90931899861E+03  0.12699999809E+01 0.  1.
</event>
<event>
 5   0  0.5264308E-04  0.1617124E+04  0.7818609E-02  0.8810097E-01
       -2   -1    0    0    0  501  0.00000000000E+00  0.00000000000E+00  0.91860645364E+03  0.91860645364E+03  0.25500000920E-02 0. -1.
        2   -1    0    0  501    0  0.00000000000E+00  0.00000000000E+00 -0.71169999544E+03  0.71169999545E+03  0.25500000920E-02 0.  1.
    10030    2    1    2    0    0  0.00000000000E+00  0.00000000000E+00  0.20690645819E+03  0.16303064491E+04  0.16171236302E+04 0.  0.
        3    1    3    3  502    0  0.72680947603E+03 -0.12554959019E+03 -0.23054417852E+03  0.77276473943E+03  0.10100000352E+00 0.  1.
       -3    1    3    3    0  502 -0.72680947603E+03  0.12554959019E+03  0.43745063671E+03  0.85754170966E+03  0.10100000352E+00 0. -1.
</event>
<event>
 5   0  0.5131239E-04  0.1570838E+04  0.7818609E-02  0.8838666E-01
        2   -1    0    0  501    0  0.00000000000E+00  0.00000000000E+00  0.10002216019E+04  0.10002216019E+04  0.25500000920E-02 0. -1.
       -2   -1    0    0    0  501  0.00000000000E+00  0.00000000000E+00 -0.61674642621E+03  0.61674642622E+03  0.25500000920E-02 0.  1.
    10030    2    1    2    0    0  0.00000000000E+00  0.00000000000E+00  0.38347517564E+03  0.16169680281E+04  0.15708381182E+04 0.  0.
        1    1    3    3  502    0 -0.45519392768E+03  0.45753111528E+03  0.65248327326E+03  0.91775304693E+03  0.50400001928E-02 0. -1.
       -1    1    3    3    0  502  0.45519392768E+03 -0.45753111528E+03 -0.26900809762E+03  0.69921498114E+03  0.50400001928E-02 0.  1.
</event>
<event>
 5   0  0.2649086E-04  0.1621351E+04  0.7818609E-02  0.8807537E-01
        1   -1    0    0  501    0  0.00000000000E+00  0.00000000000E+00  0.14835836945E+04  0.14835836945E+04  0.50400001928E-02 0. -1.
       -1   -1    0    0    0  501  0.00000000000E+00  0.00000000000E+00 -0.44297812719E+03  0.44297812722E+03  0.50400001928E-02 0.  1.
    10030    2    1    2    0    0  0.00000000000E+00  0.00000000000E+00  0.10406055673E+04  0.19265618218E+04  0.16213514444E+04 0.  0.
        2    1    3    3  502    0  0.91628177077E+02  0.58150072547E+03 -0.14198367683E+03  0.60555609241E+03  0.25500000920E-02 0.  1.
       -2    1    3    3    0  502 -0.91628177077E+02 -0.58150072547E+03  0.11825892442E+04  0.13210057294E+04  0.25500000920E-02 0. -1.
</event>
<event>
 5   0  0.5381164E-04  0.1581369E+04  0.7818609E-02  0.8832076E-01
        2   -1    0    0  501    0  0.00000000000E+00  0.00000000000E+00  0.66330811594E+03  0.66330811595E+03  0.25500000920E-02 0.  1.
       -2   -1    0    0    0  501  0.00000000000E+00  0.00000000000E+00 -0.94252096019E+03  0.94252096019E+03  0.25500000920E-02 0. -1.
    10030    2    1    2    0    0  0.00000000000E+00  0.00000000000E+00 -0.27921284425E+03  0.16058290761E+04  0.15813687772E+04 0.  0.
        5    1    3    3  502    0  0.36437593443E+03 -0.70096254591E+03 -0.17237630886E+03  0.80861238812E+03  0.46999998093E+01 0. -1.
       -5    1    3    3    0  502 -0.36437593443E+03  0.70096254591E+03 -0.10683653539E+03  0.79721668802E+03  0.46999998093E+01 0.  1.
</event>
<event>
 5   0  0.2689675E-04  0.1608937E+04  0.7818609E-02  0.8815077E-01
       -1   -1    0    0    0  501  0.00000000000E+00  0.00000000000E+00  0.55495782764E+03  0.55495782766E+03  0.50400001928E-02 0. -1.
        1   -1    0    0  501    0  0.00000000000E+00  0.00000000000E+00 -0.11661592786E+04  0.11661592786E+04  0.50400001928E-02 0.  1.
    10030    2    1    2    0    0  0.00000000000E+00  0.00000000000E+00 -0.61120145094E+03  0.17211171062E+04  0.16089365680E+04 0.  0.
        1    1    3    3  502    0  0.65844541734E+03 -0.34816723579E+02  0.18740907358E+03  0.68548138759E+03  0.50400001928E-02 0.  1.
       -1    1    3    3    0  502 -0.65844541734E+03  0.34816723579E+02 -0.79861052452E+03  0.10356357187E+04  0.50400001928E-02 0. -1.
</event>
<event>
 5   0  0.5131239E-04  0.1607838E+04  0.7818609E-02  0.8815747E-01
       -2   -1    0    0    0  501  0.00000000000E+00  0.00000000000E+00  0.42682708704E+03  0.42682708705E+03  0.25500000920E-02 0. -1.
        2   -1    0    0  501    0  0.00000000000E+00  0.00000000000E+00 -0.15141631681E+04  0.15141631681E+04  0.25500000920E-02 0.  1.
    10030    2    1    2    0    0  0.00000000000E+00  0.00000000000E+00 -0.10873360811E+04  0.19409902552E+04  0.16078381192E+04 0.  0.
        1    1    3    3  502    0  0.38095796894E+03  0.66248872959E+03 -0.84490273865E+03  0.11392457719E+04  0.50400001928E-02 0.  1.
       -1    1    3    3    0  502 -0.38095796894E+03 -0.66248872959E+03 -0.24243334242E+03  0.80174448329E+03  0.50400001928E-02 0. -1.
</event>
<event>
 5   0  0.5315984E-04  0.1618257E+04  0.7818609E-02  0.8809410E-01
        2   -1    0    0  501    0  0.00000000000E+00  0.00000000000E+00  0.11830119574E+04  0.11830119574E+04  0.25500000920E-02 0.  1.
       -2   -1    0    0    0  501  0.00000000000E+00  0.00000000000E+00 -0.55340864470E+03  0.55340864471E+03  0.25500000920E-02 0. -1.
    10030    2    1    2    0    0  0.00000000000E+00  0.00000000000E+00  0.62960331266E+03  0.17364206021E+04  0.16182571415E+04 0.  0.
        2    1    3    3  502    0 -0.18847155848E+03  0.18817691936E+03  0.11346309543E+04  0.11654696408E+04  0.25500000920E-02 0.  1.
       -2    1    3    3    0  502  0.18847155848E+03 -0.18817691936E+03 -0.50502764160E+03  0.57095096123E+03  0.25500000920E-02 0. -1.
</event>
<event>
 5   0  0.2730707E-04  0.1606464E+04  0.7818609E-02  0.8816587E-01
       -1   -1    0    0    0  501  0.00000000000E+00  0.00000000000E+00  0.71342691587E+03  0.71342691589E+03  0.50400001928E-02 0. -1.
        1   -1    0    0  501    0  0.00000000000E+00  0.00000000000E+00 -0.90434158045E+03  0.90434158047E+03  0.50400001928E-02 0.  1.
    10030    2    1    2    0    0  0.00000000000E+00  0.00000000000E+00 -0.19091466458E+03  0.16177684964E+04  0.16064639736E+04 0.  0.
        5    1    3    3  502    0  0.27492665104E+03  0.47158676762E+03  0.49790944716E+03  0.73886037274E+03  0.46999998093E+01 0. -1.
       -5    1    3    3    0  502 -0.27492665104E+03 -0.47158676762E+03 -0.68882411174E+03  0.87890812361E+03  0.46999998093E+01 0.  1.
</event>
<event>
 5   0  0.2796994E-04  0.1598831E+04  0.7818609E-02  0.8821266E-01
        1   -1    0    0  501    0  0.00000000000E+00  0.00000000000E+00  0.19653559714E+04  0.19653559714E+04  0.50400001928E-02 0.  1.
       -1   -1    0    0    0  501  0.00000000000E+00  0.00000000000E+00 -0.32516511923E+03  0.32516511927E+03  0.50400001928E-02 0. -1.
    10030    2    1    2    0    0  0.00000000000E+00  0.00000000000E+00  0.16401908521E+04  0.22905210906E+04  0.15988310840E+04 0.  0.
        3    1    3    3  502    0 -0.13439582933E+03 -0.39347979042E+03  0.17982487917E+04  0.18456942627E+04  0.10100000352E+00 0.  1.
       -3    1    3    3    0  502  0.13439582933E+03  0.39347979042E+03 -0.15805793954E+03  0.44482682795E+03  0.10100000352E+00 0. -1.
</event>
<event>
 5   0  0.5264308E-04  0.1604946E+04  0.7818609E-02  0.8817515E-01
        2   -1    0    0  501    0  0.00000000000E+00  0.00000000000E+00  0.11178529871E+04  0.11178529871E+04  0.25500000920E-02 0.  1.
       -2   -1    0    0    0  501  0.00000000000E+00  0.00000000000E+00 -0.57607097780E+03  0.57607097781E+03  0.25500000920E-02 0. -1.
    10030    2    1    2    0    0  0.00000000000E+00  0.00000000000E+00  0.54178200932E+03  0.16939239649E+04  0.16049456855E+04 0.  0.
        3    1    3    3  502    0  0.25625853447E+03  0.36754673304E+02 -0.53078732421E+03  0.59055443122E+03  0.10100000352E+00 0. -1.
       -3    1    3    3    0  502 -0.25625853447E+03 -0.36754673304E+02  0.10725693335E+04  0.11033695337E+04  0.10100000352E+00 0.  1.
</event>
<event>
 5   0  0.5381164E-04  0.1597904E+04  0.7818609E-02  0.8821837E-01
        2   -1    0    0  501    0  0.00000000000E+00  0.00000000000E+00  0.38475817695E+03  0.38475817696E+03  0.25500000920E-02 0.  1.
       -2   -1    0    0    0  501  0.00000000000E+00  0.00000000000E+00 -0.16590266892E+04  0.16590266892E+04  0.25500000920E-02 0. -1.
    10030    2    1    2    0    0  0.00000000000E+00  0.00000000000E+00 -0.12742685123E+04  0.20437848662E+04  0.15979037323E+04 0.  0.
        5    1    3    3  502    0  0.65017221908E+03  0.13565715940E+03 -0.12050850742E+04  0.13760010557E+04  0.46999998093E+01 0. -1.
       -5    1    3    3    0  502 -0.65017221908E+03 -0.13565715940E+03 -0.69183438053E+02  0.66778381042E+03  0.46999998093E+01 0.  1.
</event>
<event>
 5   0  0.2730707E-04  0.1649751E+04  0.7818609E-02  0.8790554E-01
       -1   -1    0    0    0  501  0.00000000000E+00  0.00000000000E+00  0.37191549605E+03  0.37191549608E+03  0.50400001928E-02 0. -1.
        1   -1    0    0  501    0  0.00000000000E+00  0.00000000000E+00 -0.18294999471E+04  0.18294999472E+04  0.50400001928E-02 0.  1.
    10030    2    1    2    0    0  0.00000000000E+00  0.00000000000E+00 -0.14575844511E+04  0.22014154432E+04  0.16497507453E+04 0.  0.
        5    1    3    3  502    0 -0.82477684651E+03  0.46626410468E+00 -0.71299071278E+03  0.10902453442E+04  0.46999998093E+01 0. -1.
       -5    1    3    3    0  502  0.82477684651E+03 -0.46626410468E+00 -0.74459373832E+03  0.11111700991E+04  0.46999998093E+01 0.  1.
</event>
<event>
 5   0  0.5131239E-04  0.1583043E+04  0.7818609E-02  0.8831033E-01
       -2   -1    0    0    0  501  0.00000000000E+00  0.00000000000E+00  0.55363340502E+03  0.55363340502E+03  0.25500000920E-02 0.  1.
        2   -1    0    0  501    0  0.00000000000E+00  0.00000000000E+00 -0.11316268860E+04  0.11316268860E+04  0.25500000920E-02 0. -1.
    10030    2    1    2    0    0  0.00000000000E+00  0.00000000000E+00 -0.57799348103E+03  0.16852602911E+04  0.15830432036E+04 0.  0.
        1    1    3    3  502    0 -0.43906315755E+03 -0.65719470156E+03 -0.24351686977E+03  0.82703192077E+03  0.50400001928E-02 0.  1.
       -1    1    3    3    0  502  0.43906315755E+03  0.65719470156E+03 -0.33447661125E+03  0.85822837030E+03  0.50400001928E-02 0. -1.
</event>
<event>
 5   0  0.2689675E-04  0.1588181E+04  0.7818609E-02  0.8827842E-01
        1   -1    0    0  501    0  0.00000000000E+00  0.00000000000E+00  0.16226481583E+04  0.16226481583E+04  0.50400001928E-02 0. -1.
       -1   -1    0    0    0  501  0.00000000000E+00  0.00000000000E+00 -0.38861172679E+03  0.38861172682E+03  0.50400001928E-02 0.  1.
    10030    2    1    2    0    0  0.00000000000E+00  0.00000000000E+00  0.12340364315E+04  0.20112598851E+04  0.15881814793E+04 0.  0.
        1    1    3    3  502    0 -0.73185116146E+03  0.19981736985E+03  0.31989616220E+03  0.82332658067E+03  0.50400001928E-02 0. -1.
       -1    1    3    3    0  502  0.73185116146E+03 -0.19981736985E+03  0.91414026929E+03  0.11879333044E+04  0.50400001928E-02 0.  1.
</event>
<event>
 5   0  0.5264308E-04  0.1585869E+04  0.7818609E-02  0.8829276E-01
        2   -1    0    0  501    0  0.00000000000E+00  0.00000000000E+00  0.12217273012E+04  0.12217273012E+04  0.25500000920E-02 0.  1.
       -2   -1    0    0    0  501  0.00000000000E+00  0.00000000000E+00 -0.51463650066E+03  0.51463650067E+03  0.25500000920E-02 0. -1.
    10030    2    1    2    0    0  0.00000000000E+00  0.00000000000E+00  0.70709080054E+03  0.17363638019E+04  0.15858694310E+04 0.  0.
        3    1    3    3  502    0 -0.46664049600E+03  0.63117456019E+03  0.23059096965E+03  0.81811177930E+03  0.10100000352E+00 0. -1.
       -3    1    3    3    0  502  0.46664049600E+03 -0.63117456019E+03  0.47649983089E+03  0.91825202258E+03  0.10100000352E+00 0.  1.
</event>
<event>
 5   0  0.5083831E-04  0.1601872E+04  0.7818609E-02  0.8819399E-01
        2   -1    0    0  501    0  0.00000000000E+00  0.00000000000E+00  0.30254927776E+04  0.30254927776E+04  0.25500000920E-02 0. -1.
       -2   -1    0    0    0  501  0.00000000000E+00  0.00000000000E+00 -0.21203108240E+03  0.21203108241E+03  0.25500000920E-02 0.  1.
    10030    2    1    2    0    0  0.00000000000E+00  0.00000000000E+00  0.28134616952E+04  0.32375238600E+04  0.16018720404E+04 0.  0.
        4    1    3    3  502    0 -0.54393351116E+03  0.55193044798E+03  0.18159999148E+04  0.19744235076E+04  0.12699999809E+01 0.  1.
       -4    1    3    3    0  502  0.54393351116E+03 -0.55193044798E+03  0.99746178041E+03  0.12631003524E+04  0.12699999809E+01 0. -1.
</event>
<event>
 5   0  0.5315984E-04  0.1581193E+04  0.7818609E-02  0.8832186E-01
       -2   -1    0    0    0  501  0.00000000000E+00  0.00000000000E+00  0.98089598432E+03  0.98089598432E+03  0.25500000920E-02 0.  1.
        2   -1    0    0  501    0  0.00000000000E+00  0.00000000000E+00 -0.63721597487E+03  0.63721597488E+03  0.25500000920E-02 0. -1.
    10030    2    1    2    0    0  0.00000000000E+00  0.00000000000E+00  0.34368000944E+03  0.16181119592E+04  0.15811927029E+04 0.  0.
        2    1    3    3  502    0  0.77551135626E+03  0.12971184215E+03  0.87455182802E+02  0.79113300695E+03  0.25500000920E-02 0. -1.
       -2    1    3    3    0  502 -0.77551135626E+03 -0.12971184215E+03  0.25622482664E+03  0.82697895225E+03  0.25500000920E-02 0.  1.
</event>
<event>
 5   0  0.5083831E-04  0.1602760E+04  0.7818609E-02  0.8818854E-01
        2   -1    0    0  501    0  0.00000000000E+00  0.00000000000E+00  0.53721919629E+03  0.53721919629E+03  0.25500000920E-02 0. -1.
       -2   -1    0    0    0  501  0.00000000000E+00  0.00000000000E+00 -0.11954335533E+04  0.11954335533E+04  0.25500000920E-02 0.  1.
    10030    2    1    2    0    0  0.00000000000E+00  0.00000000000E+00 -0.65821435701E+03  0.17326527496E+04  0.16027599355E+04 0.  0.
        4    1    3    3  502    0  0.64516575022E+03  0.35163645899E+03 -0.67490786947E+03  0.99769198138E+03  0.12699999809E+01 0.  1.
       -4    1    3    3    0  502 -0.64516575022E+03 -0.35163645899E+03  0.16693512463E+02  0.73496076821E+03  0.12699999809E+01 0. -1.
</event>
<event>
 5   0  0.5131239E-04  0.1594064E+04  0.7818609E-02  0.8824203E-01
       -2   -1    0    0    0  501  0.00000000000E+00  0.00000000000E+00  0.53656103011E+03  0.53656103012E+03  0.25500000920E-02 0.  1.
        2   -1    0    0  501    0  0.00000000000E+00  0.00000000000E+00 -0.11839477986E+04  0.11839477986E+04  0.25500000920E-02 0. -1.
    10030    2    1    2    0    0  0.00000000000E+00  0.00000000000E+00 -0.64738676849E+03  0.17205088287E+04  0.15940643029E+04 0.  0.
        1    1    3    3  502    0 -0.13086049335E+01 -0.11467342021E+03 -0.11749963617E+04  0.11805795847E+04  0.50400001928E-02 0. -1.
       -1    1    3    3    0  502  0.13086049335E+01  0.11467342021E+03  0.52760959319E+03  0.53992924406E+03  0.50400001928E-02 0.  1.
</event>
<event>
 5   0  0.2730707E-04  0.1710729E+04  0.7818609E-02  0.8755269E-01
       -1   -1    0    0    0  501  0.00000000000E+00  0.00000000000E+00  0.10820260648E+04  0.10820260648E+04  0.50400001928E-02 0.  1.
        1   -1    0    0  501    0  0.00000000000E+00  0.00000000000E+00 -0.67618376933E+03  0.67618376934E+03  0.50400001928E-02 0. -1.
    10030    2    1    2    0    0  0.00000000000E+00  0.00000000000E+00  0.40584229549E+03  0.17582098342E+04  0.17107290411E+04 0.  0.
        5    1    3    3  502    0 -0.26578226629E+03  0.76022961235E+03 -0.93238274633E+02  0.81074332709E+03  0.46999998093E+01 0. -1.
       -5    1    3    3    0  502  0.26578226629E+03 -0.76022961235E+03  0.49908057012E+03  0.94746650708E+03  0.46999998093E+01 0.  1.
</event>
<event>
 5   0  0.2689675E-04  0.1598186E+04  0.7818609E-02  0.8821663E-01
       -1   -1    0    0    0  501  0.00000000000E+00  0.00000000000E+00  0.81122020598E+03  0.81122020600E+03  0.50400001928E-02 0.  1.
        1   -1    0    0  501    0  0.00000000000E+00  0.00000000000E+00 -0.78714664844E+03  0.78714664845E+03  0.50400001928E-02 0. -1.
    10030    2    1    2    0    0  0.00000000000E+00  0.00000000000E+00  0.24073557543E+02  0.15983668545E+04  0.15981855541E+04 0.  0.
        1    1    3    3  502    0  0.12682020589E+03  0.65727557907E+03  0.44849746219E+03  0.80575711295E+03  0.50400001928E-02 0.  1.
       -1    1    3    3    0  502 -0.12682020589E+03 -0.65727557907E+03 -0.42442390465E+03  0.79260974150E+03  0.50400001928E-02 0. -1.
</event>
<event>
 5   0  0.5131239E-04  0.1512882E+04  0.7818609E-02  0.8875932E-01
       -2   -1    0    0    0  501  0.00000000000E+00  0.00000000000E+00  0.74151264797E+03  0.74151264798E+03  0.25500000920E-02 0. -1.
        2   -1    0    0  501    0  0.00000000000E+00  0.00000000000E+00 -0.77166978008E+03  0.77166978008E+03  0.25500000920E-02 0.  1.
    10030    2    1    2    0    0  0.00000000000E+00  0.00000000000E+00 -0.30157132106E+02  0.15131824281E+04  0.15128818883E+04 0.  0.
        1    1    3    3  502    0  0.63744325563E+02 -0.34175870600E+03  0.65687373036E+03  0.74319946840E+03  0.50400001928E-02 0. -1.
       -1    1    3    3    0  502 -0.63744325563E+02  0.34175870600E+03 -0.68703086247E+03  0.76998295966E+03  0.50400001928E-02 0.  1.
</event>
<event>
 5   0  0.2649086E-04  0.1593384E+04  0.7818609E-02  0.8824623E-01
        1   -1    0    0  501    0  0.00000000000E+00  0.00000000000E+00  0.12635633609E+04  0.12635633609E+04  0.50400001928E-02 0.  1.
       -1   -1    0    0    0  501  0.00000000000E+00  0.00000000000E+00 -0.50232385649E+03  0.50232385651E+03  0.50400001928E-02 0. -1.
    10030    2    1    2    0    0  0.00000000000E+00  0.00000000000E+00  0.76123950444E+03  0.17658872175E+04  0.15933838463E+04 0.  0.
        2    1    3    3  502    0 -0.77892810445E+02  0.74298085155E+03  0.68741066327E+03  0.10151951811E+04  0.25500000920E-02 0.  1.
       -2    1    3    3    0  502  0.77892810445E+02 -0.74298085155E+03  0.73828841170E+02  0.75069203638E+03  0.25500000920E-02 0. -1.
</event>
<event>
 5   0  0.2796994E-04  0.1591772E+04  0.7818609E-02  0.8825619E-01
       -1   -1    0    0    0  501  0.00000000000E+00  0.00000000000E+00  0.57603718281E+03  0.57603718283E+03  0.50400001928E-02 0.  1.
        1   -1    0    0  501    0  0.00000000000E+00  0.00000000000E+00 -0.10996414088E+04  0.10996414088E+04  0.50400001928E-02 0. -1.
    10030    2    1    2    0    0  0.00000000000E+00  0.00000000000E+00 -0.52360422599E+03  0.16756785916E+04  0.15917717666E+04 0.  0.
        3    1    3    3  502    0  0.37130910732E+03 -0.60427947250E+03 -0.64196148015E+03  0.95662881320E+03  0.10100000352E+00 0. -1.
       -3    1    3    3    0  502 -0.37130910732E+03  0.60427947250E+03  0.11835725416E+03  0.71904977844E+03  0.10100000352E+00 0.  1.
</event>
<event>
 5   0  0.2763895E-04  0.1500238E+04  0.7818609E-02  0.8884295E-01
       -1   -1    0    0    0  501  0.00000000000E+00  0.00000000000E+00  0.38991568784E+03  0.38991568787E+03  0.50400001928E-02 0.  1.
        1   -1    0    0  501    0  0.00000000000E+00  0.00000000000E+00 -0.14430773141E+04  0.14430773142E+04  0.50400001928E-02 0. -1.
    10030    2    1    2    0    0  0.00000000000E+00  0.00000000000E+00 -0.10531616263E+04  0.18329930020E+04  0.15002379592E+04 0.  0.
        4    1    3    3  502    0 -0.13347162690E+03 -0.70457067395E+03 -0.25766687828E+03  0.76198972621E+03  0.12699999809E+01 0.  1.
       -4    1    3    3    0  502  0.13347162690E+03  0.70457067395E+03 -0.79549474803E+03  0.10710032758E+04  0.12699999809E+01 0. -1.
</event>
<event>
 5   0  0.5131239E-04  0.1584423E+04  0.7818609E-02  0.8830175E-01
       -2   -1    0    0    0  501  0.00000000000E+00  0.00000000000E+00  0.33695829609E+03  0.33695829610E+03  0.25500000920E-02 0.  1.
        2   -1    0    0  501    0  0.00000000000E+00  0.00000000000E+00 -0.18625425526E+04  0.18625425526E+04  0.25500000920E-02 0. -1.
    10030    2    1    2    0    0  0.00000000000E+00  0.00000000000E+00 -0.15255842565E+04  0.21995008487E+04  0.15844231315E+04 0.  0.
        1    1    3    3  502    0  0.32853785708E+02  0.24046034956E+03 -0.18096652381E+04  0.18258665956E+04  0.50400001928E-02 0. -1.
       -1    1    3    3    0  502 -0.32853785708E+02 -0.24046034956E+03  0.28408098160E+03  0.37363425308E+03  0.50400001928E-02 0.  1.
</event>
<event>
 5   0  0.2649086E-04  0.1597037E+04  0.7818609E-02  0.8822370E-01
       -1   -1    0    0    0  501  0.00000000000E+00  0.00000000000E+00  0.10816477759E+04  0.10816477760E+04  0.50400001928E-02 0.  1.
        1   -1    0    0  501    0  0.00000000000E+00  0.00000000000E+00 -0.58950032108E+03  0.58950032110E+03  0.50400001928E-02 0. -1.
    10030    2    1    2    0    0  0.00000000000E+00  0.00000000000E+00  0.49214745487E+03  0.16711480971E+04  0.15970368953E+04 0.  0.
        2    1    3    3  502    0  0.38573859852E+03 -0.54983755618E+02 -0.48327479207E+03  0.62078337964E+03  0.25500000920E-02 0. -1.
       -2    1    3    3    0  502 -0.38573859852E+03  0.54983755618E+02  0.97542224694E+03  0.10503647174E+04  0.25500000920E-02 0.  1.
</event>
<event>
 5   0  0.2730707E-04  0.1607907E+04  0.7818609E-02  0.8815705E-01
       -1   -1    0    0    0  501  0.00000000000E+00  0.00000000000E+00  0.10139601287E+04  0.10139601287E+04  0.50400001928E-02 0. -1.
        1   -1    0    0  501    0  0.00000000000E+00  0.00000000000E+00 -0.63744206101E+03  0.63744206103E+03  0.50400001928E-02 0.  1.
    10030    2    1    2    0    0  0.00000000000E+00  0.00000000000E+00  0.37651806764E+03  0.16514021897E+04  0.16079065075E+04 0.  0.
        5    1    3    3  502    0 -0.47047605734E+03  0.63507523900E+03  0.37137736747E+02  0.79124558843E+03  0.46999998093E+01 0.  1.
       -5    1    3    3    0  502  0.47047605734E+03 -0.63507523900E+03  0.33938033090E+03  0.86015660128E+03  0.46999998093E+01 0. -1.
</event>
<event>
 5   0  0.2730707E-04  0.1603135E+04  0.7818609E-02  0.8818624E-01
       -1   -1    0    0    0  501  0.00000000000E+00  0.00000000000E+00  0.90456266824E+03  0.90456266826E+03  0.50400001928E-02 0.  1.
        1   -1    0    0  501    0  0.00000000000E+00  0.00000000000E+00 -0.71029981006E+03  0.71029981008E+03  0.50400001928E-02 0. -1.
    10030    2    1    2    0    0  0.00000000000E+00  0.00000000000E+00  0.19426285818E+03  0.16148624783E+04  0.16031352924E+04 0.  0.
        5    1    3    3  502    0 -0.28633110278E+03  0.14304920772E+03  0.83738130475E+03  0.89648096231E+03  0.46999998093E+01 0.  1.
       -5    1    3    3    0  502  0.28633110278E+03 -0.14304920772E+03 -0.64311844657E+03  0.71838151602E+03  0.46999998093E+01 0. -1.
</event>
<event>
 5   0  0.5131239E-04  0.1608518E+04  0.7818609E-02  0.8815332E-01
       -2   -1    0    0    0  501  0.00000000000E+00  0.00000000000E+00  0.10073865789E+04  0.10073865789E+04  0.25500000920E-02 0. -1.
        2   -1    0    0  501    0  0.00000000000E+00  0.00000000000E+00 -0.64208945420E+03  0.64208945421E+03  0.25500000920E-02 0.  1.
    10030    2    1    2    0    0  0.00000000000E+00  0.00000000000E+00  0.36529712470E+03  0.16494760331E+04  0.16085177010E+04 0.  0.
        1    1    3    3  502    0 -0.16680185399E+03  0.20805133305E+03 -0.59543701178E+03  0.65242122184E+03  0.50400001928E-02 0.  1.
       -1    1    3    3    0  502  0.16680185399E+03 -0.20805133305E+03  0.96073413648E+03  0.99705481128E+03  0.50400001928E-02 0. -1.
</event>
<event>
 5   0  0.2730707E-04  0.1608425E+04  0.7818609E-02  0.8815389E-01
       -1   -1    0    0    0  501  0.00000000000E+00  0.00000000000E+00  0.10997422903E+04  0.10997422903E+04  0.50400001928E-02 0.  1.
        1   -1    0    0  501    0  0.00000000000E+00  0.00000000000E+00 -0.58809941839E+03  0.58809941842E+03  0.50400001928E-02 0. -1.
    10030    2    1    2    0    0  0.00000000000E+00  0.00000000000E+00  0.51164287188E+03  0.16878417087E+04  0.16084250698E+04 0.  0.
        5    1    3    3  502    0 -0.27279846139E+03  0.47193210653E+03  0.87628260081E+03  0.10320039730E+04  0.46999998093E+01 0.  1.
       -5    1    3    3    0  502  0.27279846139E+03 -0.47193210653E+03 -0.36463972893E+03  0.65583773575E+03  0.46999998093E+01 0. -1.
</event>
<event>
 5   0  0.5315984E-04  0.1594766E+04  0.7818609E-02  0.8823770E-01
       -2   -1    0    0    0  501  0.00000000000E+00  0.00000000000E+00  0.55165993042E+03  0.55165993043E+03  0.25500000920E-02 0.  1.
        2   -1    0    0  501    0  0.00000000000E+00  0.00000000000E+00 -0.11525574264E+04  0.11525574264E+04  0.25500000920E-02 0. -1.
    10030    2    1    2    0    0  0.00000000000E+00  0.00000000000E+00 -0.60089749602E+03  0.17042173569E+04  0.15947661267E+04 0.  0.
        2    1    3    3  502    0 -0.43733043987E+03  0.61974121688E+03 -0.56325967834E+03  0.94477434067E+03  0.25500000920E-02 0.  1.
       -2    1    3    3    0  502  0.43733043987E+03 -0.61974121688E+03 -0.37637817681E+02  0.75944301620E+03  0.25500000920E-02 0. -1.
</event>
<event>
 5   0  0.2649086E-04  0.1607712E+04  0.7818609E-02  0.8815825E-01
        1   -1    0    0  501    0  0.00000000000E+00  0.00000000000E+00  0.54876525734E+03  0.54876525736E+03  0.50400001928E-02 0.  1.
       -1   -1    0    0    0  501  0.00000000000E+00  0.00000000000E+00 -0.11775236500E+04  0.11775236500E+04  0.50400001928E-02 0. -1.
    10030    2    1    2    0    0  0.00000000000E+00  0.00000000000E+00 -0.62875839263E+03  0.17262889073E+04  0.16077115025E+04 0.  0.
        2    1    3    3  502    0  0.63639808223E+03 -0.38514565521E+03 -0.64155649106E+03  0.98231075838E+03  0.25500000920E-02 0. -1.
       -2    1    3    3    0  502 -0.63639808223E+03  0.38514565521E+03  0.12798098428E+02  0.74397814896E+03  0.25500000920E-02 0.  1.
</event>
<event>
 5   0  0.5381164E-04  0.1549614E+04  0.7818609E-02  0.8852114E-01
       -2   -1    0    0    0  501  0.00000000000E+00  0.00000000000E+00  0.41489619215E+03  0.41489619216E+03  0.25500000920E-02 0. -1.
        2   -1    0    0  501    0  0.00000000000E+00  0.00000000000E+00 -0.14469306846E+04  0.14469306846E+04  0.25500000920E-02 0.  1.
    10030    2    1    2    0    0  0.00000000000E+00  0.00000000000E+00 -0.10320344924E+04  0.18618268767E+04  0.15496141860E+04 0.  0.
        5    1    3    3  502    0 -0.48353767365E+03 -0.47913857931E+03 -0.96059886859E+03  0.11773507278E+04  0.46999998093E+01 0. -1.
       -5    1    3    3    0  502  0.48353767365E+03  0.47913857931E+03 -0.71435623818E+02  0.68447614887E+03  0.46999998093E+01 0.  1.
</event>
<event>
 5   0  0.5083831E-04  0.1594468E+04  0.7818609E-02  0.8823954E-01
       -2   -1    0    0    0  501  0.00000000000E+00  0.00000000000E+00  0.64491733009E+03  0.64491733010E+03  0.25500000920E-02 0.  1.
        2   -1    0    0  501    0  0.00000000000E+00  0.00000000000E+00 -0.98552519398E+03  0.98552519399E+03  0.25500000920E-02 0. -1.
    10030    2    1    2    0    0  0.00000000000E+00  0.00000000000E+00 -0.34060786389E+03  0.16304425241E+04  0.15944682836E+04 0.  0.
        4    1    3    3  502    0 -0.43269321111E+03 -0.62705431196E+03 -0.41046482193E+03  0.86539211230E+03  0.12699999809E+01 0. -1.
       -4    1    3    3    0  502  0.43269321111E+03  0.62705431196E+03  0.69856958040E+02  0.76505041178E+03  0.12699999809E+01 0.  1.
</event>
<event>
 5   0  0.5083831E-04  0.1604710E+04  0.7818609E-02  0.8817660E-01
       -2   -1    0    0    0  501  0.00000000000E+00  0.00000000000E+00  0.36669005836E+03  0.36669005836E+03  0.25500000920E-02 0.  1.
        2   -1    0    0  501    0  0.00000000000E+00  0.00000000000E+00 -0.17556342020E+04  0.17556342020E+04  0.25500000920E-02 0. -1.
    10030    2    1    2    0    0  0.00000000000E+00  0.00000000000E+00 -0.13889441436E+04  0.21223242603E+04  0.16047100772E+04 0.  0.
        4    1    3    3  502    0 -0.56016906744E+02 -0.24058626870E+01 -0.17530387596E+04  0.17539356281E+04  0.12699999809E+01 0. -1.
       -4    1    3    3    0  502  0.56016906744E+02  0.24058626870E+01  0.36409461601E+03  0.36838863219E+03  0.12699999809E+01 0.  1.
</event>
<event>
 5   0  0.1908125E-04  0.1578142E+04  0.7818609E-02  0.8834090E-01
        3   -1    0    0  501    0  0.00000000000E+00  0.00000000000E+00  0.47841265718E+03  0.47841266784E+03  0.10100000352E+00 0.  1.
       -3   -1    0    0    0  501  0.00000000000E+00  0.00000000000E+00 -0.13014564173E+04  0.13014564212E+04  0.10100000352E+00 0. -1.
    10030    2    1    2    0    0  0.00000000000E+00  0.00000000000E+00 -0.82304376010E+03  0.17798690890E+04  0.15781422443E+04 0.  0.
        2    1    3    3  502    0 -0.26738463409E+03  0.48378811136E+03  0.22356282270E+03  0.59625985522E+03  0.25500000920E-02 0.  1.
       -2    1    3    3    0  502  0.26738463409E+03 -0.48378811136E+03 -0.10466065828E+04  0.11836092338E+04  0.25500000920E-02 0. -1.
</event>
<event>
 5   0  0.1908125E-04  0.1590348E+04  0.7818609E-02  0.8826500E-01
        3   -1    0    0  501    0  0.00000000000E+00  0.00000000000E+00  0.59278268281E+03  0.59278269141E+03  0.10100000352E+00 0. -1.
       -3   -1    0    0    0  501  0.00000000000E+00  0.00000000000E+00 -0.10666662742E+04  0.10666662790E+04  0.10100000352E+00 0.  1.
    10030    2    1    2    0    0  0.00000000000E+00  0.00000000000E+00 -0.47388359140E+03  0.16594489704E+04  0.15903475177E+04 0.  0.
        4    1    3    3  502    0  0.66158143127E+03  0.32545066596E+03 -0.54769315170E+03  0.91846476661E+03  0.12699999809E+01 0.  1.
       -4    1    3    3    0  502 -0.66158143127E+03 -0.32545066596E+03  0.73809560308E+02  0.74098420379E+03  0.12699999809E+01 0. -1.
</event>
<event>
 5   0  0.2730707E-04  0.1642310E+04  0.7818609E-02  0.8794969E-01
        1   -1    0    0  501    0  0.00000000000E+00  0.00000000000E+00  0.97473298421E+03  0.97473298422E+03  0.50400001928E-02 0.  1.
       -1   -1    0    0    0  501  0.00000000000E+00  0.00000000000E+00 -0.69177490269E+03  0.69177490271E+03  0.50400001928E-02 0. -1.
    10030    2    1    2    0    0  0.00000000000E+00  0.00000000000E+00  0.28295808151E+03  0.16665078869E+04  0.16423103426E+04 0.  0.
        5    1    3    3  502    0  0.56672615970E+02 -0.15283200446E+03 -0.67517956278E+03  0.69459264248E+03  0.46999998093E+01 0. -1.
       -5    1    3    3    0  502 -0.56672615970E+02  0.15283200446E+03  0.95813764429E+03  0.97191524445E+03  0.46999998093E+01 0.  1.
</event>
<event>
 5   0  0.5131239E-04  0.1590645E+04  0.7818609E-02  0.8826316E-01
       -2   -1    0    0    0  501  0.00000000000E+00  0.00000000000E+00  0.70473973118E+03  0.70473973118E+03  0.25500000920E-02 0.  1.
        2   -1    0    0  501    0  0.00000000000E+00  0.00000000000E+00 -0.89754819547E+03  0.89754819548E+03  0.25500000920E-02 0. -1.
    10030    2    1    2    0    0  0.00000000000E+00  0.00000000000E+00 -0.19280846429E+03  0.16022879267E+04  0.15906449937E+04 0.  0.
        1    1    3    3  502    0  0.54466547629E+03 -0.45811169824E+03 -0.45398292965E+03  0.84417255912E+03  0.50400001928E-02 0. -1.
       -1    1    3    3    0  502 -0.54466547629E+03  0.45811169824E+03  0.26117446536E+03  0.75811536754E+03  0.50400001928E-02 0.  1.
</event>
<event>
 5   0  0.5381164E-04  0.1607785E+04  0.7818609E-02  0.8815779E-01
       -2   -1    0    0    0  501  0.00000000000E+00  0.00000000000E+00  0.91937276605E+03  0.91937276606E+03  0.25500000920E-02 0. -1.
        2   -1    0    0  501    0  0.00000000000E+00  0.00000000000E+00 -0.70291760877E+03  0.70291760877E+03  0.25500000920E-02 0.  1.
    10030    2    1    2    0    0  0.00000000000E+00  0.00000000000E+00  0.21645515729E+03  0.16222903748E+04  0.16077851925E+04 0.  0.
        5    1    3    3  502    0  0.58509376626E+03  0.37806668970E+03  0.51303536971E+03  0.86515693244E+03  0.46999998093E+01 0. -1.
       -5    1    3    3    0  502 -0.58509376626E+03 -0.37806668970E+03 -0.29658021242E+03  0.75713344239E+03  0.46999998093E+01 0.  1.
</event>
<event>
 5   0  0.2796994E-04  0.1592870E+04  0.7818609E-02  0.8824940E-01
        1   -1    0    0  501    0  0.00000000000E+00  0.00000000000E+00  0.97156314201E+03  0.97156314202E+03  0.50400001928E-02 0. -1.
       -1   -1    0    0    0  501  0.00000000000E+00  0.00000000000E+00 -0.65287463830E+03  0.65287463832E+03  0.50400001928E-02 0.  1.
    10030    2    1    2    0    0  0.00000000000E+00  0.00000000000E+00  0.31868850371E+03  0.16244377803E+04  0.15928702834E+04 0.  0.
        3    1    3    3  502    0  0.25106391451E+02  0.76951880539E+03  0.36714553088E+03  0.85298615099E+03  0.10100000352E+00 0. -1.
       -3    1    3    3    0  502 -0.25106391451E+02 -0.76951880539E+03 -0.48457027172E+02  0.77145162935E+03  0.10100000352E+00 0.  1.
</event>
<event>
 5   0  0.5083831E-04  0.1624260E+04  0.7818609E-02  0.8805781E-01
       -2   -1    0    0    0  501  0.00000000000E+00  0.00000000000E+00  0.54917106974E+03  0.54917106974E+03  0.25500000920E-02 0. -1.
        2   -1    0    0  501    0  0.00000000000E+00  0.00000000000E+00 -0.12010015908E+04  0.12010015908E+04  0.25500000920E-02 0.  1.
    10030    2    1    2    0    0  0.00000000000E+00  0.00000000000E+00 -0.65183052109E+03  0.17501726606E+04  0.16242602358E+04 0.  0.
        4    1    3    3  502    0  0.86398003978E+02  0.71064551421E+03  0.87313329465E+02  0.72118436780E+03  0.12699999809E+01 0.  1.
       -4    1    3    3    0  502 -0.86398003978E+02 -0.71064551421E+03 -0.73914385055E+03  0.10289882928E+04  0.12699999809E+01 0. -1.
</event>
<event>
 5   0  0.5131239E-04  0.1586333E+04  0.7818609E-02  0.8828989E-01
       -2   -1    0    0    0  501  0.00000000000E+00  0.00000000000E+00  0.38215409327E+03  0.38215409328E+03  0.25500000920E-02 0. -1.
        2   -1    0    0  501    0  0.00000000000E+00  0.00000000000E+00 -0.16462284099E+04  0.16462284099E+04  0.25500000920E-02 0.  1.
    10030    2    1    2    0    0  0.00000000000E+00  0.00000000000E+00 -0.12640743166E+04  0.20283825031E+04  0.15863327839E+04 0.  0.
        1    1    3    3  502    0 -0.60509484262E+03  0.50635094889E+02 -0.12845420236E+04  0.14208278896E+04  0.50400001928E-02 0.  1.
       -1    1    3    3    0  502  0.60509484262E+03 -0.50635094889E+02  0.20467707008E+02  0.60755461356E+03  0.50400001928E-02 0. -1.
</event>
<event>
 5   0  0.2796994E-04  0.1598339E+04  0.7818609E-02  0.8821569E-01
       -1   -1    0    0    0  501  0.00000000000E+00  0.00000000000E+00  0.47367761755E+03  0.47367761758E+03  0.50400001928E-02 0.  1.
        1   -1    0    0  501    0  0.00000000000E+00  0.00000000000E+00 -0.13483263867E+04  0.13483263867E+04  0.50400001928E-02 0. -1.
    10030    2    1    2    0    0  0.00000000000E+00  0.00000000000E+00 -0.87464876918E+03  0.18220040043E+04  0.15983391762E+04 0.  0.
        3    1    3    3  502    0  0.74807555040E+03 -0.98639293159E+02 -0.73746599084E+03  0.10550842796E+04  0.10100000352E+00 0. -1.
       -3    1    3    3    0  502 -0.74807555040E+03  0.98639293159E+02 -0.13718277834E+03  0.76691972470E+03  0.10100000352E+00 0.  1.
</event>
<event>
 5   0  0.5264308E-04  0.1580473E+04  0.7818609E-02  0.8832635E-01
        2   -1    0    0  501    0  0.00000000000E+00  0.00000000000E+00  0.20675278688E+04  0.20675278688E+04  0.25500000920E-02 0.  1.
       -2   -1    0    0    0  501  0.00000000000E+00  0.00000000000E+00 -0.30203886550E+03  0.30203886551E+03  0.25500000920E-02 0. -1.
    10030    2    1    2    0    0  0.00000000000E+00  0.00000000000E+00  0.17654890033E+04  0.23695667343E+04  0.15804730582E+04 0.  0.
        3    1    3    3  502    0 -0.22547604174E+03  0.18325786575E+03 -0.21904640249E+03  0.36387391691E+03  0.10100000352E+00 0. -1.
       -3    1    3    3    0  502  0.22547604174E+03 -0.18325786575E+03  0.19845354058E+04  0.20056928174E+04  0.10100000352E+00 0.  1.
</event>
<event>
 5   0  0.2796994E-04  0.1599320E+04  0.7818609E-02  0.8820966E-01
        1   -1    0    0  501    0  0.00000000000E+00  0.00000000000E+00  0.50309652406E+03  0.50309652408E+03  0.50400001928E-02 0.  1.
       -1   -1    0    0    0  501  0.00000000000E+00  0.00000000000E+00 -0.12710399829E+04  0.12710399829E+04  0.50400001928E-02 0. -1.
    10030    2    1    2    0    0  0.00000000000E+00  0.00000000000E+00 -0.76794345887E+03  0.17741365070E+04  0.15993196021E+04 0.  0.
        3    1    3    3  502    0  0.23772960540E+03  0.24111974447E+03  0.41964576974E+03  0.53921858158E+03  0.10100000352E+00 0.  1.
       -3    1    3    3    0  502 -0.23772960540E+03 -0.24111974447E+03 -0.11875892286E+04  0.12349179254E+04  0.10100000352E+00 0. -1.
</event>
<event>
 5   0  0.2730707E-04  0.1609276E+04  0.7818609E-02  0.8814870E-01
       -1   -1    0    0    0  501  0.00000000000E+00  0.00000000000E+00  0.15479658074E+04  0.15479658074E+04  0.50400001928E-02 0.  1.
        1   -1    0    0  501    0  0.00000000000E+00  0.00000000000E+00 -0.41825358208E+03  0.41825358211E+03  0.50400001928E-02 0. -1.
    10030    2    1    2    0    0  0.00000000000E+00  0.00000000000E+00  0.11297122253E+04  0.19662193895E+04  0.16092759166E+04 0.  0.
        5    1    3    3  502    0  0.58524140294E+03  0.26239301798E+03 -0.28772762015E+02  0.64203392234E+03  0.46999998093E+01 0. -1.
       -5    1    3    3    0  502 -0.58524140294E+03 -0.26239301798E+03  0.11584849873E+04  0.13241854671E+04  0.46999998093E+01 0.  1.
</event>
<event>
 5   0  0.2689675E-04  0.1598743E+04  0.7818609E-02  0.8821321E-01
        1   -1    0    0  501    0  0.00000000000E+00  0.00000000000E+00  0.10774229017E+04  0.10774229018E+04  0.50400001928E-02 0.  1.
       -1   -1    0    0    0  501  0.00000000000E+00  0.00000000000E+00 -0.59307698448E+03  0.59307698450E+03  0.50400001928E-02 0. -1.
    10030    2    1    2    0    0  0.00000000000E+00  0.00000000000E+00  0.48434591727E+03  0.16704998863E+04  0.15987429132E+04 0.  0.
        1    1    3    3  502    0 -0.45688143790E+03  0.64887957492E+03  0.34244569938E+03  0.86432309242E+03  0.50400001928E-02 0. -1.
       -1    1    3    3    0  502  0.45688143790E+03 -0.64887957492E+03  0.14190021789E+03  0.80617679383E+03  0.50400001928E-02 0.  1.
</event>
<event>
 5   0  0.2689675E-04  0.1600046E+04  0.7818609E-02  0.8820520E-01
        1   -1    0    0  501    0  0.00000000000E+00  0.00000000000E+00  0.10284722494E+04  0.10284722494E+04  0.50400001928E-02 0.  1.
       -1   -1    0    0    0  501  0.00000000000E+00  0.00000000000E+00 -0.62231767445E+03  0.62231767447E+03  0.50400001928E-02 0. -1.
    10030    2    1    2    0    0  0.00000000000E+00  0.00000000000E+00  0.40615457493E+03  0.16507899239E+04  0.16000455725E+04 0.  0.
        1    1    3    3  502    0 -0.57969019603E+03 -0.40894197103E+03 -0.17846483846E+03  0.73152167270E+03  0.50400001928E-02 0. -1.
       -1    1    3    3    0  502  0.57969019603E+03  0.40894197103E+03  0.58461941339E+03  0.91926825116E+03  0.50400001928E-02 0.  1.
</event>
<event>
 5   0  0.5264308E-04  0.1605389E+04  0.7818609E-02  0.8817244E-01
        2   -1    0    0  501    0  0.00000000000E+00  0.00000000000E+00  0.20795075340E+04  0.20795075340E+04  0.25500000920E-02 0.  1.
       -2   -1    0    0    0  501  0.00000000000E+00  0.00000000000E+00 -0.30984176611E+03  0.30984176612E+03  0.25500000920E-02 0. -1.
    10030    2    1    2    0    0  0.00000000000E+00  0.00000000000E+00  0.17696657679E+04  0.23893493001E+04  0.16053887840E+04 0.  0.
        3    1    3    3  502    0 -0.62755540608E+03  0.21763764978E+03  0.15556166506E+04  0.16914890210E+04  0.10100000352E+00 0.  1.
       -3    1    3    3    0  502  0.62755540608E+03 -0.21763764978E+03  0.21404911722E+03  0.69786027906E+03  0.10100000352E+00 0. -1.
</event>
<event>
 5   0  0.2689675E-04  0.1593626E+04  0.7818609E-02  0.8824473E-01
        1   -1    0    0  501    0  0.00000000000E+00  0.00000000000E+00  0.69746853218E+03  0.69746853220E+03  0.50400001928E-02 0.  1.
       -1   -1    0    0    0  501  0.00000000000E+00  0.00000000000E+00 -0.91030796041E+03  0.91030796042E+03  0.50400001928E-02 0. -1.
    10030    2    1    2    0    0  0.00000000000E+00  0.00000000000E+00 -0.21283942822E+03  0.16077764926E+04  0.15936262510E+04 0.  0.
        1    1    3    3  502    0 -0.76402188804E+03  0.90887380304E+02 -0.31543358355E+03  0.83155775925E+03  0.50400001928E-02 0. -1.
       -1    1    3    3    0  502  0.76402188804E+03 -0.90887380304E+02  0.10259415533E+03  0.77621873338E+03  0.50400001928E-02 0.  1.
</event>
<event>
 5   0  0.2649086E-04  0.1585327E+04  0.7818609E-02  0.8829613E-01
       -1   -1    0    0    0  501  0.00000000000E+00  0.00000000000E+00  0.11324750790E+04  0.11324750790E+04  0.50400001928E-02 0. -1.
        1   -1    0    0  501    0  0.00000000000E+00  0.00000000000E+00 -0.55481582606E+03  0.55481582608E+03  0.50400001928E-02 0.  1.
    10030    2    1    2    0    0  0.00000000000E+00  0.00000000000E+00  0.57765925296E+03  0.16872909051E+04  0.15853265865E+04 0.  0.
        2    1    3    3  502    0  0.50112821346E+03  0.11218144832E+03 -0.35382865791E+03  0.62362559507E+03  0.25500000920E-02 0.  1.
       -2    1    3    3    0  502 -0.50112821346E+03 -0.11218144832E+03  0.93148791087E+03  0.10636653100E+04  0.25500000920E-02 0. -1.
</event>
<event>
 5   0  0.2730707E-04  0.1519279E+04  0.7818609E-02  0.8871733E-01
       -1   -1    0    0    0  501  0.00000000000E+00  0.00000000000E+00  0.78122370140E+03  0.78122370142E+03  0.50400001928E-02 0.  1.
        1   -1    0    0  501    0  0.00000000000E+00  0.00000000000E+00 -0.73865131978E+03  0.73865131980E+03  0.50400001928E-02 0. -1.
    10030    2    1    2    0    0  0.00000000000E+00  0.00000000000E+00  0.42572381622E+02  0.15198750212E+04  0.15192786685E+04 0.  0.
        5    1    3    3  502    0  0.71106158204E+03  0.24606388160E+03  0.12560473645E+03  0.76285951990E+03  0.46999998093E+01 0.  1.
       -5    1    3    3    0  502 -0.71106158204E+03 -0.24606388160E+03 -0.83032354830E+02  0.75701550132E+03  0.46999998093E+01 0. -1.
</event>
<event>
 5   0  0.5131239E-04  0.1609285E+04  0.7818609E-02  0.8814864E-01
       -2   -1    0    0    0  501  0.00000000000E+00  0.00000000000E+00  0.47037687439E+03  0.47037687440E+03  0.25500000920E-02 0.  1.
        2   -1    0    0  501    0  0.00000000000E+00  0.00000000000E+00 -0.13764486819E+04  0.13764486819E+04  0.25500000920E-02 0. -1.
    10030    2    1    2    0    0  0.00000000000E+00  0.00000000000E+00 -0.90607180748E+03  0.18468255563E+04  0.16092850944E+04 0.  0.
        1    1    3    3  502    0 -0.56250259820E+03  0.54386684934E+03 -0.66849665604E+03  0.10291200620E+04  0.50400001928E-02 0.  1.
       -1    1    3    3    0  502  0.56250259820E+03 -0.54386684934E+03 -0.23757515144E+03  0.81770549429E+03  0.50400001928E-02 0. -1.
</event>
<event>
 5   0  0.5264308E-04  0.1575299E+04  0.7818609E-02  0.8835868E-01
       -2   -1    0    0    0  501  0.00000000000E+00  0.00000000000E+00  0.53530335749E+03  0.53530335750E+03  0.25500000920E-02 0.  1.
        2   -1    0    0  501    0  0.00000000000E+00  0.00000000000E+00 -0.11589542907E+04  0.11589542907E+04  0.25500000920E-02 0. -1.
    10030    2    1    2    0    0  0.00000000000E+00  0.00000000000E+00 -0.62365093317E+03  0.16942576482E+04  0.15752994928E+04 0.  0.
        3    1    3    3  502    0 -0.72216472879E+03 -0.29031326960E+03 -0.44172885869E+03  0.89494585580E+03  0.10100000352E+00 0.  1.
       -3    1    3    3    0  502  0.72216472879E+03  0.29031326960E+03 -0.18192207448E+03  0.79931179236E+03  0.10100000352E+00 0. -1.
</event>
<event>
 5   0  0.2763895E-04  0.1522323E+04  0.7818609E-02  0.8869743E-01
       -1   -1    0    0    0  501  0.00000000000E+00  0.00000000000E+00  0.70875562707E+03  0.70875562709E+03  0.50400001928E-02 0. -1.
        1   -1    0    0  501    0  0.00000000000E+00  0.00000000000E+00 -0.81744227154E+03  0.81744227156E+03  0.50400001928E-02 0.  1.
    10030    2    1    2    0    0  0.00000000000E+00  0.00000000000E+00 -0.10868664447E+03  0.15261978986E+04  0.15223229746E+04 0.  0.
        4    1    3    3  502    0 -0.51444754015E+03  0.94741574902E+02 -0.60868199738E+03  0.80257561913E+03  0.12699999809E+01 0.  1.
       -4    1    3    3    0  502  0.51444754015E+03 -0.94741574902E+02  0.49999535291E+03  0.72362227952E+03  0.12699999809E+01 0. -1.
</event>
<event>
 5   0  0.2649086E-04  0.1591333E+04  0.7818609E-02  0.8825890E-01
       -1   -1    0    0    0  501  0.00000000000E+00  0.00000000000E+00  0.10359581885E+04  0.10359581885E+04  0.50400001928E-02 0. -1.
        1   -1    0    0  501    0  0.00000000000E+00  0.00000000000E+00 -0.61111065483E+03  0.61111065485E+03  0.50400001928E-02 0.  1.
    10030    2    1    2    0    0  0.00000000000E+00  0.00000000000E+00  0.42484753363E+03  0.16470688433E+04  0.15913328840E+04 0.  0.
        2    1    3    3  502    0 -0.39969902317E+03  0.51915237291E+03 -0.25483754894E+03  0.70300830135E+03  0.25500000920E-02 0.  1.
       -2    1    3    3    0  502  0.39969902317E+03 -0.51915237291E+03  0.67968508257E+03  0.94406054196E+03  0.25500000920E-02 0. -1.
</event>
<event>
 5   0  0.2763895E-04  0.1585737E+04  0.7818609E-02  0.8829358E-01
       -1   -1    0    0    0  501  0.00000000000E+00  0.00000000000E+00  0.31262046772E+03  0.31262046776E+03  0.50400001928E-02 0.  1.
        1   -1    0    0  501    0  0.00000000000E+00  0.00000000000E+00 -0.20108743914E+04  0.20108743914E+04  0.50400001928E-02 0. -1.
    10030    2    1    2    0    0  0.00000000000E+00  0.00000000000E+00 -0.16982539236E+04  0.23234948591E+04  0.15857370435E+04 0.  0.
        4    1    3    3  502    0 -0.22079228157E+03  0.24988703061E+03  0.20487910771E+03  0.39136916248E+03  0.12699999809E+01 0.  1.
       -4    1    3    3    0  502  0.22079228157E+03 -0.24988703061E+03 -0.19031330313E+04  0.19321256966E+04  0.12699999809E+01 0. -1.
</event>
<event>
 5   0  0.2689675E-04  0.1642415E+04  0.7818609E-02  0.8794906E-01
        1   -1    0    0  501    0  0.00000000000E+00  0.00000000000E+00  0.86818794226E+03  0.86818794227E+03  0.50400001928E-02 0.  1.
       -1   -1    0    0    0  501  0.00000000000E+00  0.00000000000E+00 -0.77676947586E+03  0.77676947587E+03  0.50400001928E-02 0. -1.
    10030    2    1    2    0    0  0.00000000000E+00  0.00000000000E+00  0.91418466400E+02  0.16449574181E+04  0.16424151642E+04 0.  0.
        1    1    3    3  502    0  0.37093161439E+03 -0.67373890988E+03  0.33402199273E+03  0.83850168330E+03  0.50400001928E-02 0.  1.
       -1    1    3    3    0  502 -0.37093161439E+03  0.67373890988E+03 -0.24260352633E+03  0.80645573484E+03  0.50400001928E-02 0. -1.
</event>
<event>
 5   0  0.1908125E-04  0.1573388E+04  0.7818609E-02  0.8837066E-01
        3   -1    0    0  501    0  0.00000000000E+00  0.00000000000E+00  0.49578403656E+03  0.49578404685E+03  0.10100000352E+00 0. -1.
       -3   -1    0    0    0  501  0.00000000000E+00  0.00000000000E+00 -0.12483005577E+04  0.12483005618E+04  0.10100000352E+00 0.  1.
    10030    2    1    2    0    0  0.00000000000E+00  0.00000000000E+00 -0.75251652111E+03  0.17440846086E+04  0.15733880664E+04 0.  0.
        5    1    3    3  502    0  0.41316541122E+03 -0.26289038699E+03  0.30620461402E+03  0.57758148191E+03  0.46999998093E+01 0. -1.
       -5    1    3    3    0  502 -0.41316541122E+03  0.26289038699E+03 -0.10587211351E+04  0.11665031267E+04  0.46999998093E+01 0.  1.
</event>
<event>
 5   0  0.2689675E-04  0.1582142E+04  0.7818609E-02  0.8831595E-01
       -1   -1    0    0    0  501  0.00000000000E+00  0.00000000000E+00  0.37541839332E+03  0.37541839335E+03  0.50400001928E-02 0. -1.
        1   -1    0    0  501    0  0.00000000000E+00  0.00000000000E+00 -0.16669215820E+04  0.16669215820E+04  0.50400001928E-02 0.  1.
    10030    2    1    2    0    0  0.00000000000E+00  0.00000000000E+00 -0.12915031887E+04  0.20423399754E+04  0.15821416146E+04 0.  0.
        1    1    3    3  502    0  0.71570446797E+03  0.54930409837E+02 -0.10749399085E+04  0.12925734185E+04  0.50400001928E-02 0.  1.
       -1    1    3    3    0  502 -0.71570446797E+03 -0.54930409837E+02 -0.21656328019E+03  0.74976655683E+03  0.50400001928E-02 0. -1.
</event>
<event>
 5   0  0.5083831E-04  0.1577505E+04  0.7818609E-02  0.8834488E-01
        2   -1    0    0  501    0  0.00000000000E+00  0.00000000000E+00  0.17360741004E+04  0.17360741004E+04  0.25500000920E-02 0.  1.
       -2   -1    0    0    0  501  0.00000000000E+00  0.00000000000E+00 -0.35835471870E+03  0.35835471871E+03  0.25500000920E-02 0. -1.
    10030    2    1    2    0    0  0.00000000000E+00  0.00000000000E+00  0.13777193817E+04  0.20944288191E+04  0.15775047967E+04 0.  0.
        4    1    3    3  502    0 -0.14211443066E+03 -0.61336731289E+03  0.58086867921E+02  0.63229081050E+03  0.12699999809E+01 0. -1.
       -4    1    3    3    0  502  0.14211443066E+03  0.61336731289E+03  0.13196325137E+04  0.14621380086E+04  0.12699999809E+01 0.  1.
</event>
<event>
 5   0  0.5083831E-04  0.1604918E+04  0.7818609E-02  0.8817532E-01
       -2   -1    0    0    0  501  0.00000000000E+00  0.00000000000E+00  0.95026671494E+03  0.95026671494E+03  0.25500000920E-02 0. -1.
        2   -1    0    0  501    0  0.00000000000E+00  0.00000000000E+00 -0.67764213905E+03  0.67764213905E+03  0.25500000920E-02 0.  1.
    10030    2    1    2    0    0  0.00000000000E+00  0.00000000000E+00  0.27262457590E+03  0.16279088540E+04  0.16049184021E+04 0.  0.
        4    1    3    3  502    0  0.14587431032E+03  0.28365844727E+03 -0.61057656011E+03  0.68887355718E+03  0.12699999809E+01 0.  1.
       -4    1    3    3    0  502 -0.14587431032E+03 -0.28365844727E+03  0.88320113601E+03  0.93903529682E+03  0.12699999809E+01 0. -1.
</event>
<event>
 5   0  0.2689675E-04  0.1602250E+04  0.7818609E-02  0.8819167E-01
       -1   -1    0    0    0  501  0.00000000000E+00  0.00000000000E+00  0.72984112389E+03  0.72984112391E+03  0.50400001928E-02 0. -1.
        1   -1    0    0  501    0  0.00000000000E+00  0.00000000000E+00 -0.87937126793E+03  0.87937126794E+03  0.50400001928E-02 0.  1.
    10030    2    1    2    0    0  0.00000000000E+00  0.00000000000E+00 -0.14953014404E+03  0.16092123919E+04  0.16022500610E+04 0.  0.
        1    1    3    3  502    0 -0.54642426663E+03  0.57543336828E+03  0.35705036257E+02  0.79434116734E+03  0.50400001928E-02 0. -1.
       -1    1    3    3    0  502  0.54642426663E+03 -0.57543336828E+03 -0.18523518029E+03  0.81487122451E+03  0.50400001928E-02 0.  1.
</event>
<event>
 5   0  0.2763895E-04  0.1610649E+04  0.7818609E-02  0.8814033E-01
       -1   -1    0    0    0  501  0.00000000000E+00  0.00000000000E+00  0.82475792327E+03  0.82475792329E+03  0.50400001928E-02 0.  1.
        1   -1    0    0  501    0  0.00000000000E+00  0.00000000000E+00 -0.78634890994E+03  0.78634890995E+03  0.50400001928E-02 0. -1.
    10030    2    1    2    0    0  0.00000000000E+00  0.00000000000E+00  0.38409013336E+02  0.16111068332E+04  0.16106489300E+04 0.  0.
        4    1    3    3  502    0 -0.67433491765E+03 -0.37980953345E+03  0.24189533151E+03  0.81086239718E+03  0.12699999809E+01 0.  1.
       -4    1    3    3    0  502  0.67433491765E+03  0.37980953345E+03 -0.20348631818E+03  0.80024443606E+03  0.12699999809E+01 0. -1.
</event>
<event>
 5   0  0.5083831E-04  0.1587271E+04  0.7818609E-02  0.8828406E-01
       -2   -1    0    0    0  501  0.00000000000E+00  0.00000000000E+00  0.44274386051E+03  0.44274386052E+03  0.25500000920E-02 0. -1.
        2   -1    0    0  501    0  0.00000000000E+00  0.00000000000E+00 -0.14226226295E+04  0.14226226295E+04  0.25500000920E-02 0.  1.
    10030    2    1    2    0    0  0.00000000000E+00  0.00000000000E+00 -0.97987876896E+03  0.18653664900E+04  0.15872711615E+04 0.  0.
        4    1    3    3  502    0  0.15015508356E+03  0.41932415277E+03 -0.12618937589E+04  0.13381916028E+04  0.12699999809E+01 0.  1.
       -4    1    3    3    0  502 -0.15015508356E+03 -0.41932415277E+03  0.28201498994E+03  0.52717488717E+03  0.12699999809E+01 0. -1.
</event>
<event>
 5   0  0.5083831E-04  0.1596330E+04  0.7818609E-02  0.8822806E-01
       -2   -1    0    0    0  501  0.00000000000E+00  0.00000000000E+00  0.40833234789E+03  0.40833234790E+03  0.25500000920E-02 0. -1.
        2   -1    0    0  501    0  0.00000000000E+00  0.00000000000E+00 -0.15601687338E+04  0.15601687338E+04  0.25500000920E-02 0.  1.
    10030    2    1    2    0    0  0.00000000000E+00  0.00000000000E+00 -0.11518363859E+04  0.19685010817E+04  0.15963299937E+04 0.  0.
        4    1    3    3  502    0 -0.27518782790E+02 -0.78616017284E+03 -0.74255505641E+03  0.10817553908E+04  0.12699999809E+01 0. -1.
       -4    1    3    3    0  502  0.27518782790E+02  0.78616017284E+03 -0.40928132946E+03  0.88674569089E+03  0.12699999809E+01 0.  1.
</event>
<event>
 5   0  0.5381164E-04  0.1594897E+04  0.7818609E-02  0.8823689E-01
        2   -1    0    0  501    0  0.00000000000E+00  0.00000000000E+00  0.97023613912E+03  0.97023613912E+03  0.25500000920E-02 0.  1.
       -2   -1    0    0    0  501  0.00000000000E+00  0.00000000000E+00 -0.65543253122E+03  0.65543253122E+03  0.25500000920E-02 0. -1.
    10030    2    1    2    0    0  0.00000000000E+00  0.00000000000E+00  0.31480360790E+03  0.16256686703E+04  0.15948972739E+04 0.  0.
        5    1    3    3  502    0  0.32245587294E+03  0.66837256366E+02  0.89767656906E+03  0.95618529662E+03  0.46999998093E+01 0.  1.
       -5    1    3    3    0  502 -0.32245587294E+03 -0.66837256366E+02 -0.58287296116E+03  0.66948337372E+03  0.46999998093E+01 0. -1.
</event>
<event>
 5   0  0.5131239E-04  0.1552574E+04  0.7818609E-02  0.8850225E-01
       -2   -1    0    0    0  501  0.00000000000E+00  0.00000000000E+00  0.25556609429E+03  0.25556609430E+03  0.25500000920E-02 0.  1.
        2   -1    0    0  501    0  0.00000000000E+00  0.00000000000E+00 -0.23579860505E+04  0.23579860505E+04  0.25500000920E-02 0. -1.
    10030    2    1    2    0    0  0.00000000000E+00  0.00000000000E+00 -0.21024199562E+04  0.26135521448E+04  0.15525737153E+04 0.  0.
        1    1    3    3  502    0  0.94487113891E+02 -0.73595198344E+03 -0.66709166921E+03  0.99777975114E+03  0.50400001928E-02 0.  1.
       -1    1    3    3    0  502 -0.94487113891E+02  0.73595198344E+03 -0.14353282870E+04  0.16157723937E+04  0.50400001928E-02 0. -1.
</event>
<event>
 5   0  0.2730707E-04  0.1581424E+04  0.7818609E-02  0.8832042E-01
        1   -1    0    0  501    0  0.00000000000E+00  0.00000000000E+00  0.72610846455E+03  0.72610846457E+03  0.50400001928E-02 0.  1.
       -1   -1    0    0    0  501  0.00000000000E+00  0.00000000000E+00 -0.86106396036E+03  0.86106396037E+03  0.50400001928E-02 0. -1.
    10030    2    1    2    0    0  0.00000000000E+00  0.00000000000E+00 -0.13495549581E+03  0.15871724249E+04  0.15814244594E+04 0.  0.
        5    1    3    3  502    0 -0.21389364393E+03  0.32643917999E+03  0.62269220753E+03  0.73490183322E+03  0.46999998093E+01 0.  1.
       -5    1    3    3    0  502  0.21389364393E+03 -0.32643917999E+03 -0.75764770333E+03  0.85227059172E+03  0.46999998093E+01 0. -1.
</event>
<event>
 5   0  0.5381164E-04  0.1581674E+04  0.7818609E-02  0.8831886E-01
       -2   -1    0    0    0  501  0.00000000000E+00  0.00000000000E+00  0.41546911420E+03  0.41546911421E+03  0.25500000920E-02 0.  1.
        2   -1    0    0  501    0  0.00000000000E+00  0.00000000000E+00 -0.15053412603E+04  0.15053412603E+04  0.25500000920E-02 0. -1.
    10030    2    1    2    0    0  0.00000000000E+00  0.00000000000E+00 -0.10898721461E+04  0.19208103745E+04  0.15816735440E+04 0.  0.
        5    1    3    3  502    0  0.78983901123E+03  0.12937287621E+02 -0.49969726043E+03  0.93473658276E+03  0.46999998093E+01 0.  1.
       -5    1    3    3    0  502 -0.78983901123E+03 -0.12937287621E+02 -0.59017488565E+03  0.98607379173E+03  0.46999998093E+01 0. -1.
</event>
<event>
 5   0  0.2649086E-04  0.1573805E+04  0.7818609E-02  0.8836804E-01
        1   -1    0    0  501    0  0.00000000000E+00  0.00000000000E+00  0.11295081552E+04  0.11295081552E+04  0.50400001928E-02 0. -1.
       -1   -1    0    0    0  501  0.00000000000E+00  0.00000000000E+00 -0.54821683524E+03  0.54821683526E+03  0.50400001928E-02 0.  1.
    10030    2    1    2    0    0  0.00000000000E+00  0.00000000000E+00  0.58129131991E+03  0.16777249904E+04  0.15738047988E+04 0.  0.
        2    1    3    3  502    0 -0.30229916111E+03 -0.38473637049E+03  0.94762583519E+03  0.10664903099E+04  0.25500000920E-02 0. -1.
       -2    1    3    3    0  502  0.30229916111E+03  0.38473637049E+03 -0.36633451527E+03  0.61123468052E+03  0.25500000920E-02 0.  1.
</event>
<event>
 5   0  0.5381164E-04  0.1581115E+04  0.7818609E-02  0.8832235E-01
       -2   -1    0    0    0  501  0.00000000000E+00  0.00000000000E+00  0.38296933154E+03  0.38296933154E+03  0.25500000920E-02 0.  1.
        2   -1    0    0  501    0  0.00000000000E+00  0.00000000000E+00 -0.16319346537E+04  0.16319346537E+04  0.25500000920E-02 0. -1.
    10030    2    1    2    0    0  0.00000000000E+00  0.00000000000E+00 -0.12489653221E+04  0.20149039852E+04  0.15811146997E+04 0.  0.
        5    1    3    3  502    0 -0.67314207512E+03  0.39762769549E+03 -0.77380983136E+03  0.11000144466E+04  0.46999998093E+01 0. -1.
       -5    1    3    3    0  502  0.67314207512E+03 -0.39762769549E+03 -0.47515549076E+03  0.91488953864E+03  0.46999998093E+01 0.  1.
</event>
<event>
 5   0  0.2796994E-04  0.1575140E+04  0.7818609E-02  0.8835967E-01
        1   -1    0    0  501    0  0.00000000000E+00  0.00000000000E+00  0.11189458781E+04  0.11189458781E+04  0.50400001928E-02 0.  1.
       -1   -1    0    0    0  501  0.00000000000E+00  0.00000000000E+00 -0.55433134172E+03  0.55433134174E+03  0.50400001928E-02 0. -1.
    10030    2    1    2    0    0  0.00000000000E+00  0.00000000000E+00  0.56461453641E+03  0.16732772199E+04  0.15751403366E+04 0.  0.
        3    1    3    3  502    0  0.34557622226E+03 -0.45067754393E+03 -0.29733835291E+03  0.64104857874E+03  0.10100000352E+00 0. -1.
       -3    1    3    3    0  502 -0.34557622226E+03  0.45067754393E+03  0.86195288932E+03  0.10322286411E+04  0.10100000352E+00 0.  1.
</event>
<event>
 5   0  0.2763895E-04  0.1615518E+04  0.7818609E-02  0.8811071E-01
        1   -1    0    0  501    0  0.00000000000E+00  0.00000000000E+00  0.16844235884E+04  0.16844235884E+04  0.50400001928E-02 0.  1.
       -1   -1    0    0    0  501  0.00000000000E+00  0.00000000000E+00 -0.38735767843E+03  0.38735767847E+03  0.50400001928E-02 0. -1.
    10030    2    1    2    0    0  0.00000000000E+00  0.00000000000E+00  0.12970659099E+04  0.20717812668E+04  0.16155177631E+04 0.  0.
        4    1    3    3  502    0 -0.24675489933E+03  0.50194719055E+03 -0.98840449047E+02  0.56798768447E+03  0.12699999809E+01 0. -1.
       -4    1    3    3    0  502  0.24675489933E+03 -0.50194719055E+03  0.13959063590E+04  0.15037935824E+04  0.12699999809E+01 0.  1.
</event>
<event>
 5   0  0.2796994E-04  0.1592305E+04  0.7818609E-02  0.8825289E-01
       -1   -1    0    0    0  501  0.00000000000E+00  0.00000000000E+00  0.81072585564E+03  0.81072585565E+03  0.50400001928E-02 0.  1.
        1   -1    0    0  501    0  0.00000000000E+00  0.00000000000E+00 -0.78184128266E+03  0.78184128268E+03  0.50400001928E-02 0. -1.
    10030    2    1    2    0    0  0.00000000000E+00  0.00000000000E+00  0.28884572976E+02  0.15925671383E+04  0.15923051754E+04 0.  0.
        3    1    3    3  502    0  0.17000747935E+03  0.37900654006E+03 -0.66486782865E+03  0.78396284364E+03  0.10100000352E+00 0. -1.
       -3    1    3    3    0  502 -0.17000747935E+03 -0.37900654006E+03  0.69375240162E+03  0.80860429469E+03  0.10100000352E+00 0.  1.
</event>
<event>
 5   0  0.2796994E-04  0.1601132E+04  0.7818609E-02  0.8819853E-01
        1   -1    0    0  501    0  0.00000000000E+00  0.00000000000E+00  0.16035529892E+04  0.16035529892E+04  0.50400001928E-02 0. -1.
       -1   -1    0    0    0  501  0.00000000000E+00  0.00000000000E+00 -0.39967883810E+03  0.39967883813E+03  0.50400001928E-02 0.  1.
    10030    2    1    2    0    0  0.00000000000E+00  0.00000000000E+00  0.12038741511E+04  0.20032318273E+04  0.16011323438E+04 0.  0.
        3    1    3    3  502    0 -0.19891539860E+03  0.64911239145E+03  0.71137550600E+02  0.68262346418E+03  0.10100000352E+00 0.  1.
       -3    1    3    3    0  502  0.19891539860E+03 -0.64911239145E+03  0.11327366005E+04  0.13206083632E+04  0.10100000352E+00 0. -1.
</event>
<event>
 5   0  0.5315984E-04  0.1603437E+04  0.7818609E-02  0.8818439E-01
        2   -1    0    0  501    0  0.00000000000E+00  0.00000000000E+00  0.70647451925E+03  0.70647451926E+03  0.25500000920E-02 0.  1.
       -2   -1    0    0    0  501  0.00000000000E+00  0.00000000000E+00 -0.90980269975E+03  0.90980269975E+03  0.25500000920E-02 0. -1.
    10030    2    1    2    0    0  0.00000000000E+00  0.00000000000E+00 -0.20332818049E+03  0.16162772190E+04  0.16034368399E+04 0.  0.
        2    1    3    3  502    0 -0.67934649037E+03 -0.37328841995E+03  0.10466145588E+03  0.78218279116E+03  0.25500000920E-02 0. -1.
       -2    1    3    3    0  502  0.67934649037E+03  0.37328841995E+03 -0.30798963637E+03  0.83409442784E+03  0.25500000920E-02 0.  1.
</event>
<event>
 5   0  0.2730707E-04  0.1655349E+04  0.7818609E-02  0.8787249E-01
        1   -1    0    0  501    0  0.00000000000E+00  0.00000000000E+00  0.13799793204E+04  0.13799793204E+04  0.50400001928E-02 0. -1.
       -1   -1    0    0    0  501  0.00000000000E+00  0.00000000000E+00 -0.49641672048E+03  0.49641672050E+03  0.50400001928E-02 0.  1.
    10030    2    1    2    0    0  0.00000000000E+00  0.00000000000E+00  0.88356259988E+03  0.18763960409E+04  0.16553486745E+04 0.  0.
        5    1    3    3  502    0  0.82595109079E+03  0.53018046536E+02  0.43716279552E+03  0.93602324620E+03  0.46999998093E+01 0. -1.
       -5    1    3    3    0  502 -0.82595109079E+03 -0.53018046536E+02  0.44639980437E+03  0.94037279468E+03  0.46999998093E+01 0.  1.
</event>
<event>
 5   0  0.2649086E-04  0.1588448E+04  0.7818609E-02  0.8827676E-01
        1   -1    0    0  501    0  0.00000000000E+00  0.00000000000E+00  0.77275948584E+03  0.77275948585E+03  0.50400001928E-02 0. -1.
       -1   -1    0    0    0  501  0.00000000000E+00  0.00000000000E+00 -0.81628498758E+03  0.81628498759E+03  0.50400001928E-02 0.  1.
    10030    2    1    2    0    0  0.00000000000E+00  0.00000000000E+00 -0.43525501737E+02  0.15890444734E+04  0.15884482583E+04 0.  0.
        2    1    3    3  502    0 -0.23900446218E+03 -0.21629869205E+03  0.70437725637E+03  0.77463254284E+03  0.25500000920E-02 0. -1.
       -2    1    3    3    0  502  0.23900446218E+03  0.21629869205E+03 -0.74790275811E+03  0.81441193061E+03  0.25500000920E-02 0.  1.
</event>
<event>
 5   0  0.2796994E-04  0.1589340E+04  0.7818609E-02  0.8827124E-01
       -1   -1    0    0    0  501  0.00000000000E+00  0.00000000000E+00  0.96716867084E+03  0.96716867085E+03  0.50400001928E-02 0.  1.
        1   -1    0    0  501    0  0.00000000000E+00  0.00000000000E+00 -0.65293727194E+03  0.65293727196E+03  0.50400001928E-02 0. -1.
    10030    2    1    2    0    0  0.00000000000E+00  0.00000000000E+00  0.31423139890E+03  0.16201059428E+04  0.15893400812E+04 0.  0.
        3    1    3    3  502    0 -0.25901755867E+03  0.39239624129E+03 -0.49593826195E+03  0.68338837841E+03  0.10100000352E+00 0. -1.
       -3    1    3    3    0  502  0.25901755867E+03 -0.39239624129E+03  0.81016966086E+03  0.93671756440E+03  0.10100000352E+00 0.  1.
</event>
<event>
 5   0  0.5131239E-04  0.1603221E+04  0.7818609E-02  0.8818572E-01
       -2   -1    0    0    0  501  0.00000000000E+00  0.00000000000E+00  0.30975979702E+03  0.30975979703E+03  0.25500000920E-02 0. -1.
        2   -1    0    0  501    0  0.00000000000E+00  0.00000000000E+00 -0.20744440089E+04  0.20744440089E+04  0.25500000920E-02 0.  1.
    10030    2    1    2    0    0  0.00000000000E+00  0.00000000000E+00 -0.17646842118E+04  0.23842038059E+04  0.16032209519E+04 0.  0.
        1    1    3    3  502    0 -0.71892182154E+03 -0.65621222121E+02 -0.36413497825E+03  0.80854747090E+03  0.50400001928E-02 0. -1.
       -1    1    3    3    0  502  0.71892182154E+03  0.65621222121E+02 -0.14005492336E+04  0.15756563350E+04  0.50400001928E-02 0.  1.
</event>
<event>
 5   0  0.5315984E-04  0.1613343E+04  0.7818609E-02  0.8812393E-01
       -2   -1    0    0    0  501  0.00000000000E+00  0.00000000000E+00  0.70164113384E+03  0.70164113384E+03  0.25500000920E-02 0. -1.
        2   -1    0    0  501    0  0.00000000000E+00  0.00000000000E+00 -0.92742396193E+03  0.92742396194E+03  0.25500000920E-02 0.  1.
    10030    2    1    2    0    0  0.00000000000E+00  0.00000000000E+00 -0.22578282810E+03  0.16290650958E+04  0.16133428652E+04 0.  0.
        2    1    3    3  502    0  0.56236566737E+03  0.47783572419E+03 -0.44185248669E+03  0.86012542291E+03  0.25500000920E-02 0. -1.
       -2    1    3    3    0  502 -0.56236566737E+03 -0.47783572419E+03  0.21606965859E+03  0.76893967287E+03  0.25500000920E-02 0.  1.
</event>
<event>
 5   0  0.2796994E-04  0.1531971E+04  0.7818609E-02  0.8863467E-01
        1   -1    0    0  501    0  0.00000000000E+00  0.00000000000E+00  0.42938329182E+03  0.42938329185E+03  0.50400001928E-02 0.  1.
       -1   -1    0    0    0  501  0.00000000000E+00  0.00000000000E+00 -0.13664570620E+04  0.13664570620E+04  0.50400001928E-02 0. -1.
    10030    2    1    2    0    0  0.00000000000E+00  0.00000000000E+00 -0.93707377021E+03  0.17958403539E+04  0.15319710591E+04 0.  0.
        3    1    3    3  502    0 -0.47293319509E+02  0.75412157170E+03 -0.61587520806E+03  0.97480166448E+03  0.10100000352E+00 0. -1.
       -3    1    3    3    0  502  0.47293319509E+02 -0.75412157170E+03 -0.32119856215E+03  0.82103868940E+03  0.10100000352E+00 0.  1.
</event>
<event>
 5   0  0.5131239E-04  0.1572328E+04  0.7818609E-02  0.8837731E-01
        2   -1    0    0  501    0  0.00000000000E+00  0.00000000000E+00  0.61810251063E+03  0.61810251064E+03  0.25500000920E-02 0. -1.
       -2   -1    0    0    0  501  0.00000000000E+00  0.00000000000E+00 -0.99992069025E+03  0.99992069025E+03  0.25500000920E-02 0.  1.
    10030    2    1    2    0    0  0.00000000000E+00  0.00000000000E+00 -0.38181817961E+03  0.16180232009E+04  0.15723275601E+04 0.  0.
        1    1    3    3  502    0 -0.25694702081E+03 -0.45076282716E+03  0.41688673809E+03  0.66558504361E+03  0.50400001928E-02 0. -1.
       -1    1    3    3    0  502  0.25694702081E+03  0.45076282716E+03 -0.79870491771E+03  0.95243815728E+03  0.50400001928E-02 0.  1.
</event>
<event>
 5   0  0.2689675E-04  0.1601034E+04  0.7818609E-02  0.8819913E-01
       -1   -1    0    0    0  501  0.00000000000E+00  0.00000000000E+00  0.54932721820E+03  0.54932721823E+03  0.50400001928E-02 0.  1.
        1   -1    0    0  501    0  0.00000000000E+00  0.00000000000E+00 -0.11665671608E+04  0.11665671608E+04  0.50400001928E-02 0. -1.
    10030    2    1    2    0    0  0.00000000000E+00  0.00000000000E+00 -0.61723994263E+03  0.17158943791E+04  0.16010335329E+04 0.  0.
        1    1    3    3  502    0 -0.41613355893E+03 -0.15962824444E+03 -0.10212909454E+04  0.11143085347E+04  0.50400001928E-02 0. -1.
       -1    1    3    3    0  502  0.41613355893E+03  0.15962824444E+03  0.40405100277E+03  0.60158584438E+03  0.50400001928E-02 0.  1.
</event>
<event>
 5   0  0.2796994E-04  0.1593095E+04  0.7818609E-02  0.8824801E-01
        1   -1    0    0  501    0  0.00000000000E+00  0.00000000000E+00  0.12488386475E+04  0.12488386475E+04  0.50400001928E-02 0. -1.
       -1   -1    0    0    0  501  0.00000000000E+00  0.00000000000E+00 -0.50806242411E+03  0.50806242413E+03  0.50400001928E-02 0.  1.
    10030    2    1    2    0    0  0.00000000000E+00  0.00000000000E+00  0.74077622337E+03  0.17569010716E+04  0.15930950889E+04 0.  0.
        3    1    3    3  502    0  0.27537874411E+03 -0.55372532439E+03  0.92404760449E+03  0.11118944074E+04  0.10100000352E+00 0. -1.
       -3    1    3    3    0  502 -0.27537874411E+03  0.55372532439E+03 -0.18327138112E+03  0.64500666425E+03  0.10100000352E+00 0.  1.
</event>
<event>
 5   0  0.5083831E-04  0.1654618E+04  0.7818609E-02  0.8787679E-01
        2   -1    0    0  501    0  0.00000000000E+00  0.00000000000E+00  0.20537086452E+04  0.20537086452E+04  0.25500000920E-02 0.  1.
       -2   -1    0    0    0  501  0.00000000000E+00  0.00000000000E+00 -0.33327029601E+03  0.33327029602E+03  0.25500000920E-02 0. -1.
    10030    2    1    2    0    0  0.00000000000E+00  0.00000000000E+00  0.17204383492E+04  0.23869789413E+04  0.16546178872E+04 0.  0.
        4    1    3    3  502    0  0.64998620862E+03 -0.33382617628E+03  0.30053515023E+03  0.79009175213E+03  0.12699999809E+01 0. -1.
       -4    1    3    3    0  502 -0.64998620862E+03  0.33382617628E+03  0.14199031990E+04  0.15968871891E+04  0.12699999809E+01 0.  1.
</event>
<event>
 5   0  0.1908125E-04  0.1698695E+04  0.7818609E-02  0.8762109E-01
        4   -1    0    0  501    0  0.00000000000E+00  0.00000000000E+00  0.86134419935E+03  0.86134513562E+03  0.12699999809E+01 0.  1.
       -4   -1    0    0    0  501  0.00000000000E+00  0.00000000000E+00 -0.83751645323E+03  0.83751741614E+03  0.12699999809E+01 0. -1.
    10030    2    1    2    0    0  0.00000000000E+00  0.00000000000E+00  0.23827746120E+02  0.16988625518E+04  0.16986954431E+04 0.  0.
        1    1    3    3  502    0 -0.30104704406E+03  0.41910188928E+03  0.68660297472E+03  0.85889426664E+03  0.50400001928E-02 0.  1.
       -1    1    3    3    0  502  0.30104704406E+03 -0.41910188928E+03 -0.66277522860E+03  0.83996828512E+03  0.50400001928E-02 0. -1.
</event>
<event>
 5   0  0.5131239E-04  0.1718313E+04  0.7818609E-02  0.8750988E-01
       -2   -1    0    0    0  501  0.00000000000E+00  0.00000000000E+00  0.12215294966E+04  0.12215294966E+04  0.25500000920E-02 0. -1.
        2   -1    0    0  501    0  0.00000000000E+00  0.00000000000E+00 -0.60428363868E+03  0.60428363869E+03  0.25500000920E-02 0.  1.
    10030    2    1    2    0    0  0.00000000000E+00  0.00000000000E+00  0.61724585789E+03  0.18258131353E+04  0.17183134626E+04 0.  0.
        1    1    3    3  502    0  0.22925692488E+03 -0.98788965416E+02  0.11821440369E+04  0.12082146007E+04  0.50400001928E-02 0. -1.
       -1    1    3    3    0  502 -0.22925692488E+03  0.98788965416E+02 -0.56489817899E+03  0.61759853460E+03  0.50400001928E-02 0.  1.
</event>
<event>
 5   0  0.5381164E-04  0.1564656E+04  0.7818609E-02  0.8842560E-01
        2   -1    0    0  501    0  0.00000000000E+00  0.00000000000E+00  0.11867234121E+04  0.11867234121E+04  0.25500000920E-02 0. -1.
       -2   -1    0    0    0  501  0.00000000000E+00  0.00000000000E+00 -0.51573716442E+03  0.51573716443E+03  0.25500000920E-02 0.  1.
    10030    2    1    2    0    0  0.00000000000E+00  0.00000000000E+00  0.67098624764E+03  0.17024605765E+04  0.15646563425E+04 0.  0.
        5    1    3    3  502    0  0.55290518639E+03 -0.32316914610E+03 -0.15338098847E+03  0.65855163788E+03  0.46999998093E+01 0.  1.
       -5    1    3    3    0  502 -0.55290518639E+03  0.32316914610E+03  0.82436723611E+03  0.10439089386E+04  0.46999998093E+01 0. -1.
</event>
<event>
 5   0  0.5083831E-04  0.1608166E+04  0.7818609E-02  0.8815547E-01
       -2   -1    0    0    0  501  0.00000000000E+00  0.00000000000E+00  0.74561820249E+03  0.74561820249E+03  0.25500000920E-02 0. -1.
        2   -1    0    0  501    0  0.00000000000E+00  0.00000000000E+00 -0.86713174406E+03  0.86713174407E+03  0.25500000920E-02 0.  1.
    10030    2    1    2    0    0  0.00000000000E+00  0.00000000000E+00 -0.12151354158E+03  0.16127499466E+04  0.16081656784E+04 0.  0.
        4    1    3    3  502    0  0.36562769753E+01 -0.22579370051E+03 -0.83467644115E+03  0.86468638122E+03  0.12699999809E+01 0.  1.
       -4    1    3    3    0  502 -0.36562769753E+01  0.22579370051E+03  0.71316289958E+03  0.74806356534E+03  0.12699999809E+01 0. -1.
</event>
<event>
 5   0  0.2796994E-04  0.1610152E+04  0.7818609E-02  0.8814335E-01
        1   -1    0    0  501    0  0.00000000000E+00  0.00000000000E+00  0.52714409382E+03  0.52714409385E+03  0.50400001928E-02 0.  1.
       -1   -1    0    0    0  501  0.00000000000E+00  0.00000000000E+00 -0.12295454882E+04  0.12295454882E+04  0.50400001928E-02 0. -1.
    10030    2    1    2    0    0  0.00000000000E+00  0.00000000000E+00 -0.70240139435E+03  0.17566895820E+04  0.16101523434E+04 0.  0.
        3    1    3    3  502    0  0.35047630766E+03 -0.14276845394E+03 -0.11264549241E+04  0.11883253679E+04  0.10100000352E+00 0. -1.
       -3    1    3    3    0  502 -0.35047630766E+03  0.14276845394E+03  0.42405352974E+03  0.56836421418E+03  0.10100000352E+00 0.  1.
</event>
<event>
 5   0  0.2796994E-04  0.1472392E+04  0.7818609E-02  0.8903022E-01
        1   -1    0    0  501    0  0.00000000000E+00  0.00000000000E+00  0.10452365085E+04  0.10452365085E+04  0.50400001928E-02 0.  1.
       -1   -1    0    0    0  501  0.00000000000E+00  0.00000000000E+00 -0.51852831376E+03  0.51852831379E+03  0.50400001928E-02 0. -1.
    10030    2    1    2    0    0  0.00000000000E+00  0.00000000000E+00  0.52670819470E+03  0.15637648223E+04  0.14723922361E+04 0.  0.
        3    1    3    3  502    0 -0.16217144693E+03 -0.70359362993E+03  0.11076807293E+03  0.73048829591E+03  0.10100000352E+00 0.  1.
       -3    1    3    3    0  502  0.16217144693E+03  0.70359362993E+03  0.41594012177E+03  0.83327652635E+03  0.10100000352E+00 0. -1.
</event>
<event>
 5   0  0.5264308E-04  0.1606521E+04  0.7818609E-02  0.8816552E-01
       -2   -1    0    0    0  501  0.00000000000E+00  0.00000000000E+00  0.32098926221E+03  0.32098926222E+03  0.25500000920E-02 0.  1.
        2   -1    0    0  501    0  0.00000000000E+00  0.00000000000E+00 -0.20101227710E+04  0.20101227710E+04  0.25500000920E-02 0. -1.
    10030    2    1    2    0    0  0.00000000000E+00  0.00000000000E+00 -0.16891335088E+04  0.23311120332E+04  0.16065214910E+04 0.  0.
        3    1    3    3  502    0 -0.33144306465E+03 -0.72836274822E+03 -0.94573405749E+03  0.12388622667E+04  0.10100000352E+00 0. -1.
       -3    1    3    3    0  502  0.33144306465E+03  0.72836274822E+03 -0.74339945128E+03  0.10922497665E+04  0.10100000352E+00 0.  1.
</event>
<event>
 5   0  0.5083831E-04  0.1615486E+04  0.7818609E-02  0.8811090E-01
        2   -1    0    0  501    0  0.00000000000E+00  0.00000000000E+00  0.12730369584E+04  0.12730369584E+04  0.25500000920E-02 0.  1.
       -2   -1    0    0    0  501  0.00000000000E+00  0.00000000000E+00 -0.51251382665E+03  0.51251382666E+03  0.25500000920E-02 0. -1.
    10030    2    1    2    0    0  0.00000000000E+00  0.00000000000E+00  0.76052313179E+03  0.17855507851E+04  0.16154863578E+04 0.  0.
        4    1    3    3  502    0 -0.76865207317E+02  0.45138131572E+03  0.11157397820E+04  0.12060390650E+04  0.12699999809E+01 0.  1.
       -4    1    3    3    0  502  0.76865207317E+02 -0.45138131572E+03 -0.35521665019E+03  0.57951172012E+03  0.12699999809E+01 0. -1.
</event>
<event>
 5   0  0.2649086E-04  0.1616860E+04  0.7818609E-02  0.8810257E-01
        1   -1    0    0  501    0  0.00000000000E+00  0.00000000000E+00  0.17108573295E+04  0.17108573295E+04  0.50400001928E-02 0. -1.
       -1   -1    0    0    0  501  0.00000000000E+00  0.00000000000E+00 -0.38200688503E+03  0.38200688506E+03  0.50400001928E-02 0.  1.
    10030    2    1    2    0    0  0.00000000000E+00  0.00000000000E+00  0.13288504445E+04  0.20928642146E+04  0.16168602651E+04 0.  0.
        2    1    3    3  502    0 -0.15761609890E+03  0.13362338298E+03  0.16760974948E+04  0.16887867999E+04  0.25500000920E-02 0. -1.
       -2    1    3    3    0  502  0.15761609890E+03 -0.13362338298E+03 -0.34724705036E+03  0.40407741474E+03  0.25500000920E-02 0.  1.
</event>
<event>
 5   0  0.2689675E-04  0.1617826E+04  0.7818609E-02  0.8809671E-01
        1   -1    0    0  501    0  0.00000000000E+00  0.00000000000E+00  0.90492729663E+03  0.90492729665E+03  0.50400001928E-02 0. -1.
       -1   -1    0    0    0  501  0.00000000000E+00  0.00000000000E+00 -0.72308565599E+03  0.72308565600E+03  0.50400001928E-02 0.  1.
    10030    2    1    2    0    0  0.00000000000E+00  0.00000000000E+00  0.18184164065E+03  0.16280129527E+04  0.16178256370E+04 0.  0.
        1    1    3    3  502    0  0.68650643936E+02 -0.60547973240E+03  0.62626825620E+03  0.87380234951E+03  0.50400001928E-02 0. -1.
       -1    1    3    3    0  502 -0.68650643936E+02  0.60547973240E+03 -0.44442661556E+03  0.75421060314E+03  0.50400001928E-02 0.  1.
</event>
<event>
 5   0  0.2649086E-04  0.1626115E+04  0.7818609E-02  0.8804663E-01
       -1   -1    0    0    0  501  0.00000000000E+00  0.00000000000E+00  0.33187552606E+03  0.33187552610E+03  0.50400001928E-02 0.  1.
        1   -1    0    0  501    0  0.00000000000E+00  0.00000000000E+00 -0.19918991587E+04  0.19918991587E+04  0.50400001928E-02 0. -1.
    10030    2    1    2    0    0  0.00000000000E+00  0.00000000000E+00 -0.16600236326E+04  0.23237746848E+04  0.16261151019E+04 0.  0.
        2    1    3    3  502    0 -0.71905626544E+03 -0.34513990399E+03 -0.10555056595E+04  0.13229722837E+04  0.25500000920E-02 0. -1.
       -2    1    3    3    0  502  0.71905626544E+03  0.34513990399E+03 -0.60451797315E+03  0.10008024011E+04  0.25500000920E-02 0.  1.
</event>
<event>
 5   0  0.5083831E-04  0.1607420E+04  0.7818609E-02  0.8816003E-01
       -2   -1    0    0    0  501  0.00000000000E+00  0.00000000000E+00  0.32377231593E+03  0.32377231594E+03  0.25500000920E-02 0. -1.
        2   -1    0    0  501    0  0.00000000000E+00  0.00000000000E+00 -0.19950742730E+04  0.19950742730E+04  0.25500000920E-02 0.  1.
    10030    2    1    2    0    0  0.00000000000E+00  0.00000000000E+00 -0.16713019570E+04  0.23188465889E+04  0.16074200669E+04 0.  0.
        4    1    3    3  502    0  0.27786016360E+03  0.56809223591E+03 -0.12013095968E+03  0.64371431504E+03  0.12699999809E+01 0. -1.
       -4    1    3    3    0  502 -0.27786016360E+03 -0.56809223591E+03 -0.15511709974E+04  0.16751322739E+04  0.12699999809E+01 0.  1.
</event>
<event>
 5   0  0.5083831E-04  0.1592186E+04  0.7818609E-02  0.8825363E-01
        2   -1    0    0  501    0  0.00000000000E+00  0.00000000000E+00  0.14347327377E+04  0.14347327377E+04  0.25500000920E-02 0. -1.
       -2   -1    0    0    0  501  0.00000000000E+00  0.00000000000E+00 -0.44172961195E+03  0.44172961196E+03  0.25500000920E-02 0.  1.
    10030    2    1    2    0    0  0.00000000000E+00  0.00000000000E+00  0.99300312577E+03  0.18764623497E+04  0.15921858378E+04 0.  0.
        4    1    3    3  502    0  0.29767941789E+02 -0.76830070904E+03  0.25328060032E+03  0.80952133096E+03  0.12699999809E+01 0.  1.
       -4    1    3    3    0  502 -0.29767941789E+02  0.76830070904E+03  0.73972252545E+03  0.10669410187E+04  0.12699999809E+01 0. -1.
</event>
<event>
 5   0  0.5381164E-04  0.1599958E+04  0.7818609E-02  0.8820574E-01
       -2   -1    0    0    0  501  0.00000000000E+00  0.00000000000E+00  0.75927135672E+03  0.75927135672E+03  0.25500000920E-02 0. -1.
        2   -1    0    0  501    0  0.00000000000E+00  0.00000000000E+00 -0.84286926134E+03  0.84286926134E+03  0.25500000920E-02 0.  1.
    10030    2    1    2    0    0  0.00000000000E+00  0.00000000000E+00 -0.83597904619E+02  0.16021406181E+04  0.15999581090E+04 0.  0.
        5    1    3    3  502    0 -0.59588613332E+03 -0.32793566005E+03  0.37987203161E+03  0.77906798895E+03  0.46999998093E+01 0. -1.
       -5    1    3    3    0  502  0.59588613332E+03  0.32793566005E+03 -0.46346993623E+03  0.82307262912E+03  0.46999998093E+01 0.  1.
</event>
<event>
 5   0  0.2796994E-04  0.1595826E+04  0.7818609E-02  0.8823116E-01
       -1   -1    0    0    0  501  0.00000000000E+00  0.00000000000E+00  0.33068217514E+03  0.33068217518E+03  0.50400001928E-02 0.  1.
        1   -1    0    0  501    0  0.00000000000E+00  0.00000000000E+00 -0.19253082787E+04  0.19253082788E+04  0.50400001928E-02 0. -1.
    10030    2    1    2    0    0  0.00000000000E+00  0.00000000000E+00 -0.15946261036E+04  0.22559904539E+04  0.15958259673E+04 0.  0.
        3    1    3    3  502    0 -0.27506297626E+03 -0.12948281702E+03 -0.18402230493E+04  0.18651665668E+04  0.10100000352E+00 0. -1.
       -3    1    3    3    0  502  0.27506297626E+03  0.12948281702E+03  0.24559694565E+03  0.39082388710E+03  0.10100000352E+00 0.  1.
</event>
<event>
 5   0  0.2649086E-04  0.1606948E+04  0.7818609E-02  0.8816291E-01
        1   -1    0    0  501    0  0.00000000000E+00  0.00000000000E+00  0.21078503961E+04  0.21078503962E+04  0.50400001928E-02 0.  1.
       -1   -1    0    0    0  501  0.00000000000E+00  0.00000000000E+00 -0.30626942442E+03  0.30626942446E+03  0.50400001928E-02 0. -1.
    10030    2    1    2    0    0  0.00000000000E+00  0.00000000000E+00  0.18015809717E+04  0.24141198206E+04  0.16069475756E+04 0.  0.
        2    1    3    3  502    0  0.60323207944E+03  0.35216659375E+02  0.16963594738E+04  0.18007677860E+04  0.25500000920E-02 0.  1.
       -2    1    3    3    0  502 -0.60323207944E+03 -0.35216659375E+02  0.10522149796E+03  0.61335203464E+03  0.25500000920E-02 0. -1.
</event>
<event>
 5   0  0.5131239E-04  0.1592975E+04  0.7818609E-02  0.8824875E-01
        2   -1    0    0  501    0  0.00000000000E+00  0.00000000000E+00  0.60988096161E+03  0.60988096161E+03  0.25500000920E-02 0. -1.
       -2   -1    0    0    0  501  0.00000000000E+00  0.00000000000E+00 -0.10401903504E+04  0.10401903504E+04  0.25500000920E-02 0.  1.
    10030    2    1    2    0    0  0.00000000000E+00  0.00000000000E+00 -0.43030938882E+03  0.16500713120E+04  0.15929749417E+04 0.  0.
        1    1    3    3  502    0 -0.20964643055E+03 -0.69161281459E+03 -0.56198780883E+03  0.91548359267E+03  0.50400001928E-02 0.  1.
       -1    1    3    3    0  502  0.20964643055E+03  0.69161281459E+03  0.13167842001E+03  0.73458771938E+03  0.50400001928E-02 0. -1.
</event>
<event>
 5   0  0.2763895E-04  0.1614230E+04  0.7818609E-02  0.8811853E-01
        1   -1    0    0  501    0  0.00000000000E+00  0.00000000000E+00  0.12957624801E+04  0.12957624801E+04  0.50400001928E-02 0.  1.
       -1   -1    0    0    0  501  0.00000000000E+00  0.00000000000E+00 -0.50274250044E+03  0.50274250047E+03  0.50400001928E-02 0. -1.
    10030    2    1    2    0    0  0.00000000000E+00  0.00000000000E+00  0.79301997969E+03  0.17985049806E+04  0.16142303049E+04 0.  0.
        4    1    3    3  502    0  0.66338217360E+03 -0.30570615506E+03  0.77907484251E+03  0.10679379123E+04  0.12699999809E+01 0.  1.
       -4    1    3    3    0  502 -0.66338217360E+03  0.30570615506E+03  0.13945137180E+02  0.73056706827E+03  0.12699999809E+01 0. -1.
</event>
<event>
 5   0  0.5131239E-04  0.1594950E+04  0.7818609E-02  0.8823657E-01
        2   -1    0    0  501    0  0.00000000000E+00  0.00000000000E+00  0.11293318735E+04  0.11293318735E+04  0.25500000920E-02 0.  1.
       -2   -1    0    0    0  501  0.00000000000E+00  0.00000000000E+00 -0.56313473816E+03  0.56313473816E+03  0.25500000920E-02 0. -1.
    10030    2    1    2    0    0  0.00000000000E+00  0.00000000000E+00  0.56619713538E+03  0.16924666117E+04  0.15949495401E+04 0.  0.
        1    1    3    3  502    0 -0.41012669280E+03  0.20470600514E+03 -0.40937841259E+03  0.61457232073E+03  0.50400001928E-02 0. -1.
       -1    1    3    3    0  502  0.41012669280E+03 -0.20470600514E+03  0.97557554797E+03  0.10778942910E+04  0.50400001928E-02 0.  1.
</event>
<event>
 5   0  0.1908125E-04  0.1609310E+04  0.7818609E-02  0.8814849E-01
       -3   -1    0    0    0  501  0.00000000000E+00  0.00000000000E+00  0.43373886271E+03  0.43373887447E+03  0.10100000352E+00 0. -1.
        3   -1    0    0  501    0  0.00000000000E+00  0.00000000000E+00 -0.14927637416E+04  0.14927637450E+04  0.10100000352E+00 0.  1.
    10030    2    1    2    0    0  0.00000000000E+00  0.00000000000E+00 -0.10590248789E+04  0.19265026195E+04  0.16093099915E+04 0.  0.
        5    1    3    3  502    0  0.44968236481E+03  0.66343244720E+03 -0.44410022734E+03  0.91629904678E+03  0.46999998093E+01 0. -1.
       -5    1    3    3    0  502 -0.44968236481E+03 -0.66343244720E+03 -0.61492465156E+03  0.10102035727E+04  0.46999998093E+01 0.  1.
</event>
<event>
 5   0  0.5315984E-04  0.1462943E+04  0.7818609E-02  0.8909476E-01
        2   -1    0    0  501    0  0.00000000000E+00  0.00000000000E+00  0.98236543782E+03  0.98236543782E+03  0.25500000920E-02 0.  1.
       -2   -1    0    0    0  501  0.00000000000E+00  0.00000000000E+00 -0.54465516822E+03  0.54465516823E+03  0.25500000920E-02 0. -1.
    10030    2    1    2    0    0  0.00000000000E+00  0.00000000000E+00  0.43771026960E+03  0.15270206061E+04  0.14629428052E+04 0.  0.
        2    1    3    3  502    0  0.51718296699E+03  0.37621618404E+03  0.58941695990E+03  0.86972937808E+03  0.25500000920E-02 0.  1.
       -2    1    3    3    0  502 -0.51718296699E+03 -0.37621618404E+03 -0.15170669030E+03  0.65729122797E+03  0.25500000920E-02 0. -1.
</event>
<event>
 5   0  0.2763895E-04  0.1590017E+04  0.7818609E-02  0.8826705E-01
       -1   -1    0    0    0  501  0.00000000000E+00  0.00000000000E+00  0.51029358752E+03  0.51029358755E+03  0.50400001928E-02 0.  1.
        1   -1    0    0  501    0  0.00000000000E+00  0.00000000000E+00 -0.12385775667E+04  0.12385775668E+04  0.50400001928E-02 0. -1.
    10030    2    1    2    0    0  0.00000000000E+00  0.00000000000E+00 -0.72828397922E+03  0.17488711543E+04  0.15900165911E+04 0.  0.
        4    1    3    3  502    0 -0.48373548313E+03  0.41396558615E+03  0.15952147365E+03  0.65636593271E+03  0.12699999809E+01 0.  1.
       -4    1    3    3    0  502  0.48373548313E+03 -0.41396558615E+03 -0.88780545288E+03  0.10925052216E+04  0.12699999809E+01 0. -1.
</event>
<event>
 5   0  0.5083831E-04  0.1596271E+04  0.7818609E-02  0.8822842E-01
        2   -1    0    0  501    0  0.00000000000E+00  0.00000000000E+00  0.86768799377E+03  0.86768799377E+03  0.25500000920E-02 0. -1.
       -2   -1    0    0    0  501  0.00000000000E+00  0.00000000000E+00 -0.73415792691E+03  0.73415792691E+03  0.25500000920E-02 0.  1.
    10030    2    1    2    0    0  0.00000000000E+00  0.00000000000E+00  0.13353006686E+03  0.16018459207E+04  0.15962706772E+04 0.  0.
        4    1    3    3  502    0 -0.20156718454E+03  0.35904659649E+03 -0.61934413233E+03  0.74372881851E+03  0.12699999809E+01 0.  1.
       -4    1    3    3    0  502  0.20156718454E+03 -0.35904659649E+03  0.75287419919E+03  0.85811710217E+03  0.12699999809E+01 0. -1.
</event>
<event>
 5   0  0.2796994E-04  0.1580610E+04  0.7818609E-02  0.8832549E-01
       -1   -1    0    0    0  501  0.00000000000E+00  0.00000000000E+00  0.40802249248E+03  0.40802249251E+03  0.50400001928E-02 0. -1.
        1   -1    0    0  501    0  0.00000000000E+00  0.00000000000E+00 -0.15307539994E+04  0.15307539994E+04  0.50400001928E-02 0.  1.
    10030    2    1    2    0    0  0.00000000000E+00  0.00000000000E+00 -0.11227315070E+04  0.19387764920E+04  0.15806100876E+04 0.  0.
        3    1    3    3  502    0  0.15643860955E+03  0.72765063372E+03 -0.23537253132E+03  0.78060791823E+03  0.10100000352E+00 0. -1.
       -3    1    3    3    0  502 -0.15643860955E+03 -0.72765063372E+03 -0.88735897565E+03  0.11581685737E+04  0.10100000352E+00 0.  1.
</event>
<event>
 5   0  0.5381164E-04  0.1624824E+04  0.7818609E-02  0.8805441E-01
        2   -1    0    0  501    0  0.00000000000E+00  0.00000000000E+00  0.12958315867E+04  0.12958315867E+04  0.25500000920E-02 0.  1.
       -2   -1    0    0    0  501  0.00000000000E+00  0.00000000000E+00 -0.50933597701E+03  0.50933597702E+03  0.25500000920E-02 0. -1.
    10030    2    1    2    0    0  0.00000000000E+00  0.00000000000E+00  0.78649560968E+03  0.18051675637E+04  0.16248244795E+04 0.  0.
        5    1    3    3  502    0  0.31555241403E+02  0.12836296007E+03 -0.49729331822E+03  0.51458285740E+03  0.46999998093E+01 0. -1.
       -5    1    3    3    0  502 -0.31555241403E+02 -0.12836296007E+03  0.12837889279E+04  0.12905847063E+04  0.46999998093E+01 0.  1.
</event>
<event>
 5   0  0.5381164E-04  0.1602523E+04  0.7818609E-02  0.8818999E-01
        2   -1    0    0  501    0  0.00000000000E+00  0.00000000000E+00  0.19480872182E+04  0.19480872182E+04  0.25500000920E-02 0. -1.
       -2   -1    0    0    0  501  0.00000000000E+00  0.00000000000E+00 -0.32956445744E+03  0.32956445745E+03  0.25500000920E-02 0.  1.
    10030    2    1    2    0    0  0.00000000000E+00  0.00000000000E+00  0.16185227607E+04  0.22776516756E+04  0.16025233940E+04 0.  0.
        5    1    3    3  502    0  0.37982529929E+03 -0.53770254371E+03  0.14584147250E+04  0.16001208965E+04  0.46999998093E+01 0. -1.
       -5    1    3    3    0  502 -0.37982529929E+03  0.53770254371E+03  0.16010803576E+03  0.67753077908E+03  0.46999998093E+01 0.  1.
</event>
<event>
 5   0  0.5131239E-04  0.1588528E+04  0.7818609E-02  0.8827627E-01
       -2   -1    0    0    0  501  0.00000000000E+00  0.00000000000E+00  0.37153530736E+03  0.37153530737E+03  0.25500000920E-02 0. -1.
        2   -1    0    0  501    0  0.00000000000E+00  0.00000000000E+00 -0.16979676224E+04  0.16979676224E+04  0.25500000920E-02 0.  1.
    10030    2    1    2    0    0  0.00000000000E+00  0.00000000000E+00 -0.13264323150E+04  0.20695029297E+04  0.15885275226E+04 0.  0.
        1    1    3    3  502    0  0.73116180806E+03  0.30457170119E+03 -0.58621518883E+03  0.98539827398E+03  0.50400001928E-02 0. -1.
       -1    1    3    3    0  502 -0.73116180806E+03 -0.30457170119E+03 -0.74021712617E+03  0.10841046558E+04  0.50400001928E-02 0.  1.
</event>
<event>
 5   0  0.2763895E-04  0.1584595E+04  0.7818609E-02  0.8830068E-01
       -1   -1    0    0    0  501  0.00000000000E+00  0.00000000000E+00  0.57140233990E+03  0.57140233992E+03  0.50400001928E-02 0. -1.
        1   -1    0    0  501    0  0.00000000000E+00  0.00000000000E+00 -0.10985867605E+04  0.10985867605E+04  0.50400001928E-02 0.  1.
    10030    2    1    2    0    0  0.00000000000E+00  0.00000000000E+00 -0.52718442064E+03  0.16699891005E+04  0.15845946429E+04 0.  0.
        4    1    3    3  502    0 -0.26721573362E+03 -0.51650439832E+02 -0.10477754990E+04  0.10825465927E+04  0.12699999809E+01 0.  1.
       -4    1    3    3    0  502  0.26721573362E+03  0.51650439832E+02  0.52059107831E+03  0.58744250778E+03  0.12699999809E+01 0. -1.
</event>
<event>
 5   0  0.2796994E-04  0.1607473E+04  0.7818609E-02  0.8815970E-01
        1   -1    0    0  501    0  0.00000000000E+00  0.00000000000E+00  0.11426202087E+04  0.11426202087E+04  0.50400001928E-02 0. -1.
       -1   -1    0    0    0  501  0.00000000000E+00  0.00000000000E+00 -0.56536033253E+03  0.56536033255E+03  0.50400001928E-02 0.  1.
    10030    2    1    2    0    0  0.00000000000E+00  0.00000000000E+00  0.57725987616E+03  0.17079805413E+04  0.16074727259E+04 0.  0.
        3    1    3    3  502    0 -0.15203904803E+03 -0.13028026935E+03  0.11156974625E+04  0.11335209123E+04  0.10100000352E+00 0. -1.
       -3    1    3    3    0  502  0.15203904803E+03  0.13028026935E+03 -0.53843758632E+03  0.57445962893E+03  0.10100000352E+00 0.  1.
</event>
<event>
 5   0  0.2796994E-04  0.1595493E+04  0.7818609E-02  0.8823322E-01
       -1   -1    0    0    0  501  0.00000000000E+00  0.00000000000E+00  0.33035384608E+03  0.33035384611E+03  0.50400001928E-02 0. -1.
        1   -1    0    0  501    0  0.00000000000E+00  0.00000000000E+00 -0.19264179324E+04  0.19264179324E+04  0.50400001928E-02 0.  1.
    10030    2    1    2    0    0  0.00000000000E+00  0.00000000000E+00 -0.15960640863E+04  0.22567717785E+04  0.15954931189E+04 0.  0.
        3    1    3    3  502    0  0.50245023691E+03 -0.61813206273E+03 -0.73709371784E+03  0.10852882781E+04  0.10100000352E+00 0. -1.
       -3    1    3    3    0  502 -0.50245023691E+03  0.61813206273E+03 -0.85897036844E+03  0.11714835004E+04  0.10100000352E+00 0.  1.
</event>
<event>
 5   0  0.5083831E-04  0.1572692E+04  0.7818609E-02  0.8837502E-01
        2   -1    0    0  501    0  0.00000000000E+00  0.00000000000E+00  0.13787942256E+04  0.13787942256E+04  0.25500000920E-02 0. -1.
       -2   -1    0    0    0  501  0.00000000000E+00  0.00000000000E+00 -0.44846408402E+03  0.44846408403E+03  0.25500000920E-02 0.  1.
    10030    2    1    2    0    0  0.00000000000E+00  0.00000000000E+00  0.93033014154E+03  0.18272583096E+04  0.15726915647E+04 0.  0.
        4    1    3    3  502    0 -0.20221483460E+03 -0.51035198346E+03  0.11193158466E+04  0.12466834256E+04  0.12699999809E+01 0. -1.
       -4    1    3    3    0  502  0.20221483460E+03  0.51035198346E+03 -0.18898570501E+03  0.58057488402E+03  0.12699999809E+01 0.  1.
</event>
<event>
 5   0  0.2730707E-04  0.1596318E+04  0.7818609E-02  0.8822813E-01
       -1   -1    0    0    0  501  0.00000000000E+00  0.00000000000E+00  0.86860915342E+03  0.86860915343E+03  0.50400001928E-02 0. -1.
        1   -1    0    0  501    0  0.00000000000E+00  0.00000000000E+00 -0.73342316012E+03  0.73342316014E+03  0.50400001928E-02 0.  1.
    10030    2    1    2    0    0  0.00000000000E+00  0.00000000000E+00  0.13518599330E+03  0.16020323136E+04  0.15963183520E+04 0.  0.
        5    1    3    3  502    0  0.70747633939E+03  0.80276207080E+02 -0.29434865652E+03  0.77047405006E+03  0.46999998093E+01 0.  1.
       -5    1    3    3    0  502 -0.70747633939E+03 -0.80276207080E+02  0.42953464982E+03  0.83155826351E+03  0.46999998093E+01 0. -1.
</event>
<event>
 5   0  0.2763895E-04  0.1547339E+04  0.7818609E-02  0.8853569E-01
       -1   -1    0    0    0  501  0.00000000000E+00  0.00000000000E+00  0.63281526656E+03  0.63281526658E+03  0.50400001928E-02 0.  1.
        1   -1    0    0  501    0  0.00000000000E+00  0.00000000000E+00 -0.94587572047E+03  0.94587572048E+03  0.50400001928E-02 0. -1.
    10030    2    1    2    0    0  0.00000000000E+00  0.00000000000E+00 -0.31306045391E+03  0.15786909871E+04  0.15473391305E+04 0.  0.
        4    1    3    3  502    0 -0.69046995245E+03 -0.25721386280E+02 -0.51165262046E+03  0.85976762086E+03  0.12699999809E+01 0. -1.
       -4    1    3    3    0  502  0.69046995245E+03  0.25721386280E+02  0.19859216655E+03  0.71892336620E+03  0.12699999809E+01 0.  1.
</event>
<event>
 5   0  0.2649086E-04  0.1584617E+04  0.7818609E-02  0.8830055E-01
       -1   -1    0    0    0  501  0.00000000000E+00  0.00000000000E+00  0.49918715204E+03  0.49918715207E+03  0.50400001928E-02 0.  1.
        1   -1    0    0  501    0  0.00000000000E+00  0.00000000000E+00 -0.12575498567E+04  0.12575498567E+04  0.50400001928E-02 0. -1.
    10030    2    1    2    0    0  0.00000000000E+00  0.00000000000E+00 -0.75836270464E+03  0.17567370088E+04  0.15846169651E+04 0.  0.
        2    1    3    3  502    0 -0.11958636746E+03  0.70050655459E+03  0.92191236012E+01  0.71070058713E+03  0.25500000920E-02 0.  1.
       -2    1    3    3    0  502  0.11958636746E+03 -0.70050655459E+03 -0.76758182824E+03  0.10460364216E+04  0.25500000920E-02 0. -1.
</event>
<event>
 5   0  0.5264308E-04  0.1671507E+04  0.7818609E-02  0.8777784E-01
        2   -1    0    0  501    0  0.00000000000E+00  0.00000000000E+00  0.20973731765E+04  0.20973731765E+04  0.25500000920E-02 0.  1.
       -2   -1    0    0    0  501  0.00000000000E+00  0.00000000000E+00 -0.33302778896E+03  0.33302778897E+03  0.25500000920E-02 0. -1.
    10030    2    1    2    0    0  0.00000000000E+00  0.00000000000E+00  0.17643453875E+04  0.24304009655E+04  0.16715065679E+04 0.  0.
        3    1    3    3  502    0  0.47075391574E+03  0.25716917267E+02 -0.12121884452E+03  0.48679012673E+03  0.10100000352E+00 0. -1.
       -3    1    3    3    0  502 -0.47075391574E+03 -0.25716917267E+02  0.18855642321E+04  0.19436108387E+04  0.10100000352E+00 0.  1.
</event>
<event>
 5   0  0.5083831E-04  0.1583065E+04  0.7818609E-02  0.8831020E-01
        2   -1    0    0  501    0  0.00000000000E+00  0.00000000000E+00  0.19843555965E+04  0.19843555965E+04  0.25500000920E-02 0.  1.
       -2   -1    0    0    0  501  0.00000000000E+00  0.00000000000E+00 -0.31573144155E+03  0.31573144156E+03  0.25500000920E-02 0. -1.
    10030    2    1    2    0    0  0.00000000000E+00  0.00000000000E+00  0.16686241550E+04  0.23000870381E+04  0.15830646898E+04 0.  0.
        4    1    3    3  502    0  0.51695165506E+03 -0.14835164098E+03  0.16781080292E+04  0.17621848353E+04  0.12699999809E+01 0.  1.
       -4    1    3    3    0  502 -0.51695165506E+03  0.14835164098E+03 -0.94838742185E+01  0.53790220284E+03  0.12699999809E+01 0. -1.
</event>
<event>
 5   0  0.5131239E-04  0.1598976E+04  0.7818609E-02  0.8821177E-01
       -2   -1    0    0    0  501  0.00000000000E+00  0.00000000000E+00  0.11358534226E+04  0.11358534226E+04  0.25500000920E-02 0. -1.
        2   -1    0    0  501    0  0.00000000000E+00  0.00000000000E+00 -0.56273232490E+03  0.56273232491E+03  0.25500000920E-02 0.  1.
    10030    2    1    2    0    0  0.00000000000E+00  0.00000000000E+00  0.57312109769E+03  0.16985857475E+04  0.15989764692E+04 0.  0.
        1    1    3    3  502    0  0.15838164971E+03 -0.47220894574E+03 -0.37779086300E+03  0.62513356301E+03  0.50400001928E-02 0.  1.
       -1    1    3    3    0  502 -0.15838164971E+03  0.47220894574E+03  0.95091196069E+03  0.10734521845E+04  0.50400001928E-02 0. -1.
</event>
<event>
 5   0  0.5264308E-04  0.1592448E+04  0.7818609E-02  0.8825201E-01
       -2   -1    0    0    0  501  0.00000000000E+00  0.00000000000E+00  0.75619837908E+03  0.75619837909E+03  0.25500000920E-02 0.  1.
        2   -1    0    0  501    0  0.00000000000E+00  0.00000000000E+00 -0.83836821680E+03  0.83836821680E+03  0.25500000920E-02 0. -1.
    10030    2    1    2    0    0  0.00000000000E+00  0.00000000000E+00 -0.82169837717E+02  0.15945665959E+04  0.15924480357E+04 0.  0.
        3    1    3    3  502    0  0.33949325518E+03  0.70683818952E+03 -0.17945986485E+03  0.80441391694E+03  0.10100000352E+00 0.  1.
       -3    1    3    3    0  502 -0.33949325518E+03 -0.70683818952E+03  0.97290027130E+02  0.79015267895E+03  0.10100000352E+00 0. -1.
</event>
<event>
 5   0  0.2730707E-04  0.1597854E+04  0.7818609E-02  0.8821868E-01
       -1   -1    0    0    0  501  0.00000000000E+00  0.00000000000E+00  0.45906518911E+03  0.45906518913E+03  0.50400001928E-02 0. -1.
        1   -1    0    0  501    0  0.00000000000E+00  0.00000000000E+00 -0.13903996594E+04  0.13903996595E+04  0.50400001928E-02 0.  1.
    10030    2    1    2    0    0  0.00000000000E+00  0.00000000000E+00 -0.93133447034E+03  0.18494648486E+04  0.15978536637E+04 0.  0.
        5    1    3    3  502    0  0.34306707625E+03 -0.55882465066E+03 -0.99391167104E+03  0.11907403196E+04  0.46999998093E+01 0.  1.
       -5    1    3    3    0  502 -0.34306707625E+03  0.55882465066E+03  0.62577200692E+02  0.65872452895E+03  0.46999998093E+01 0. -1.
</event>
<event>
 5   0  0.2763895E-04  0.1597572E+04  0.7818609E-02  0.8822041E-01
       -1   -1    0    0    0  501  0.00000000000E+00  0.00000000000E+00  0.60399539265E+03  0.60399539267E+03  0.50400001928E-02 0.  1.
        1   -1    0    0  501    0  0.00000000000E+00  0.00000000000E+00 -0.10563978721E+04  0.10563978721E+04  0.50400001928E-02 0. -1.
    10030    2    1    2    0    0  0.00000000000E+00  0.00000000000E+00 -0.45240247942E+03  0.16603932647E+04  0.15975724679E+04 0.  0.
        4    1    3    3  502    0  0.10438301660E+02 -0.45693817250E+02 -0.10549663762E+04  0.10560078366E+04  0.12699999809E+01 0. -1.
       -4    1    3    3    0  502 -0.10438301660E+02  0.45693817250E+02  0.60256389683E+03  0.60438542813E+03  0.12699999809E+01 0.  1.
</event>
<event>
 5   0  0.2730707E-04  0.1582448E+04  0.7818609E-02  0.8831404E-01
       -1   -1    0    0    0  501  0.00000000000E+00  0.00000000000E+00  0.89324857590E+03  0.89324857592E+03  0.50400001928E-02 0. -1.
        1   -1    0    0  501    0  0.00000000000E+00  0.00000000000E+00 -0.70085256762E+03  0.70085256764E+03  0.50400001928E-02 0.  1.
    10030    2    1    2    0    0  0.00000000000E+00  0.00000000000E+00  0.19239600828E+03  0.15941011436E+04  0.15824481767E+04 0.  0.
        5    1    3    3  502    0  0.45032864172E+02 -0.55869803299E+03  0.65873837153E+03  0.86494495955E+03  0.46999998093E+01 0. -1.
       -5    1    3    3    0  502 -0.45032864172E+02  0.55869803299E+03 -0.46634236325E+03  0.72915618401E+03  0.46999998093E+01 0.  1.
</event>
<event>
 5   0  0.2689675E-04  0.1564349E+04  0.7818609E-02  0.8842754E-01
       -1   -1    0    0    0  501  0.00000000000E+00  0.00000000000E+00  0.57746231178E+03  0.57746231180E+03  0.50400001928E-02 0.  1.
        1   -1    0    0  501    0  0.00000000000E+00  0.00000000000E+00 -0.10594575359E+04  0.10594575359E+04  0.50400001928E-02 0. -1.
    10030    2    1    2    0    0  0.00000000000E+00  0.00000000000E+00 -0.48199522413E+03  0.16369198477E+04  0.15643488076E+04 0.  0.
        1    1    3    3  502    0  0.45723080331E+03  0.20208975600E+02  0.42272124633E+03  0.62302621319E+03  0.50400001928E-02 0.  1.
       -1    1    3    3    0  502 -0.45723080331E+03 -0.20208975600E+02 -0.90471647046E+03  0.10138936345E+04  0.50400001928E-02 0. -1.
</event>
<event>
 5   0  0.5083831E-04  0.1585530E+04  0.7818609E-02  0.8829487E-01
       -2   -1    0    0    0  501  0.00000000000E+00  0.00000000000E+00  0.39426969715E+03  0.39426969716E+03  0.25500000920E-02 0. -1.
        2   -1    0    0  501    0  0.00000000000E+00  0.00000000000E+00 -0.15940269085E+04  0.15940269085E+04  0.25500000920E-02 0.  1.
    10030    2    1    2    0    0  0.00000000000E+00  0.00000000000E+00 -0.11997572113E+04  0.19882966056E+04  0.15855302034E+04 0.  0.
        4    1    3    3  502    0  0.34460418003E+03  0.36472291670E+03  0.16979126952E+03  0.52972212995E+03  0.12699999809E+01 0. -1.
       -4    1    3    3    0  502 -0.34460418003E+03 -0.36472291670E+03 -0.13695484808E+04  0.14585744757E+04  0.12699999809E+01 0.  1.
</event>
<event>
 5   0  0.5131239E-04  0.1584909E+04  0.7818609E-02  0.8829873E-01
        2   -1    0    0  501    0  0.00000000000E+00  0.00000000000E+00  0.21103894743E+04  0.21103894743E+04  0.25500000920E-02 0.  1.
       -2   -1    0    0    0  501  0.00000000000E+00  0.00000000000E+00 -0.29756792498E+03  0.29756792499E+03  0.25500000920E-02 0. -1.
    10030    2    1    2    0    0  0.00000000000E+00  0.00000000000E+00  0.18128215494E+04  0.24079573993E+04  0.15849091038E+04 0.  0.
        1    1    3    3  502    0 -0.61776930685E+03 -0.38481792079E+03  0.13826595300E+04  0.15625207598E+04  0.50400001928E-02 0.  1.
       -1    1    3    3    0  502  0.61776930685E+03  0.38481792079E+03  0.43016201931E+03  0.84543663957E+03  0.50400001928E-02 0. -1.
</event>
<event>
 5   0  0.5315984E-04  0.1612964E+04  0.7818609E-02  0.8812623E-01
       -2   -1    0    0    0  501  0.00000000000E+00  0.00000000000E+00  0.76119328918E+03  0.76119328918E+03  0.25500000920E-02 0.  1.
        2   -1    0    0  501    0  0.00000000000E+00  0.00000000000E+00 -0.85446533303E+03  0.85446533303E+03  0.25500000920E-02 0. -1.
    10030    2    1    2    0    0  0.00000000000E+00  0.00000000000E+00 -0.93272043850E+02  0.16156586222E+04  0.16129640757E+04 0.  0.
        2    1    3    3  502    0  0.42681139864E+03  0.41393547152E+02  0.63753641151E+03  0.76833200621E+03  0.25500000920E-02 0.  1.
       -2    1    3    3    0  502 -0.42681139864E+03 -0.41393547152E+02 -0.73080845536E+03  0.84732661601E+03  0.25500000920E-02 0. -1.
</event>
<event>
 5   0  0.2796994E-04  0.1543707E+04  0.7818609E-02  0.8855897E-01
       -1   -1    0    0    0  501  0.00000000000E+00  0.00000000000E+00  0.42303916591E+03  0.42303916594E+03  0.50400001928E-02 0.  1.
        1   -1    0    0  501    0  0.00000000000E+00  0.00000000000E+00 -0.14082811716E+04  0.14082811716E+04  0.50400001928E-02 0. -1.
    10030    2    1    2    0    0  0.00000000000E+00  0.00000000000E+00 -0.98524200569E+03  0.18313203375E+04  0.15437073456E+04 0.  0.
        3    1    3    3  502    0 -0.28888811447E+03 -0.88270293322E+02  0.35000387642E+03  0.46233181924E+03  0.10100000352E+00 0.  1.
       -3    1    3    3    0  502  0.28888811447E+03  0.88270293322E+02 -0.13352458821E+04  0.13689885183E+04  0.10100000352E+00 0. -1.
</event>
<event>
 5   0  0.5264308E-04  0.1642900E+04  0.7818609E-02  0.8794618E-01
       -2   -1    0    0    0  501  0.00000000000E+00  0.00000000000E+00  0.37228691604E+03  0.37228691605E+03  0.25500000920E-02 0. -1.
        2   -1    0    0  501    0  0.00000000000E+00  0.00000000000E+00 -0.18125270911E+04  0.18125270911E+04  0.25500000920E-02 0.  1.
    10030    2    1    2    0    0  0.00000000000E+00  0.00000000000E+00 -0.14402401750E+04  0.21848140071E+04  0.16429000225E+04 0.  0.
        3    1    3    3  502    0 -0.47996705381E+03 -0.29988700509E+02 -0.16057580559E+04  0.16762239227E+04  0.10100000352E+00 0.  1.
       -3    1    3    3    0  502  0.47996705381E+03  0.29988700509E+02  0.16551788083E+03  0.50859008442E+03  0.10100000352E+00 0. -1.
</event>
<event>
 5   0  0.5381164E-04  0.1592246E+04  0.7818609E-02  0.8825326E-01
        2   -1    0    0  501    0  0.00000000000E+00  0.00000000000E+00  0.15785396256E+04  0.15785396256E+04  0.25500000920E-02 0.  1.
       -2   -1    0    0    0  501  0.00000000000E+00  0.00000000000E+00 -0.40151783868E+03  0.40151783869E+03  0.25500000920E-02 0. -1.
    10030    2    1    2    0    0  0.00000000000E+00  0.00000000000E+00  0.11770217869E+04  0.19800574643E+04  0.15922459845E+04 0.  0.
        5    1    3    3  502    0 -0.28207830455E+03 -0.16544789625E+03 -0.31412069421E+03  0.45347003958E+03  0.46999998093E+01 0. -1.
       -5    1    3    3    0  502  0.28207830455E+03  0.16544789625E+03  0.14911424811E+04  0.15265874247E+04  0.46999998093E+01 0.  1.
</event>
<event>
 5   0  0.5131239E-04  0.1373751E+04  0.7818609E-02  0.8973041E-01
       -2   -1    0    0    0  501  0.00000000000E+00  0.00000000000E+00  0.98358351768E+03  0.98358351768E+03  0.25500000920E-02 0. -1.
        2   -1    0    0  501    0  0.00000000000E+00  0.00000000000E+00 -0.47967240436E+03  0.47967240437E+03  0.25500000920E-02 0.  1.
    10030    2    1    2    0    0  0.00000000000E+00  0.00000000000E+00  0.50391111332E+03  0.14632559221E+04  0.13737508811E+04 0.  0.
        1    1    3    3  502    0 -0.41938471491E+03  0.30011634620E+03  0.73521678256E+03  0.89805182352E+03  0.50400001928E-02 0. -1.
       -1    1    3    3    0  502  0.41938471491E+03 -0.30011634620E+03 -0.23130566924E+03  0.56520409853E+03  0.50400001928E-02 0.  1.
</event>
<event>
 5   0  0.2796994E-04  0.1590051E+04  0.7818609E-02  0.8826683E-01
       -1   -1    0    0    0  501  0.00000000000E+00  0.00000000000E+00  0.37704021405E+03  0.37704021408E+03  0.50400001928E-02 0. -1.
        1   -1    0    0  501    0  0.00000000000E+00  0.00000000000E+00 -0.16763879887E+04  0.16763879887E+04  0.50400001928E-02 0.  1.
    10030    2    1    2    0    0  0.00000000000E+00  0.00000000000E+00 -0.12993477746E+04  0.20534282028E+04  0.15900511767E+04 0.  0.
        3    1    3    3  502    0  0.42771268813E+02  0.44555799430E+03 -0.14982028517E+04  0.15636377786E+04  0.10100000352E+00 0.  1.
       -3    1    3    3    0  502 -0.42771268813E+02 -0.44555799430E+03  0.19885507706E+03  0.48979042415E+03  0.10100000352E+00 0. -1.
</event>
<event>
 5   0  0.2763895E-04  0.1530484E+04  0.7818609E-02  0.8864431E-01
        1   -1    0    0  501    0  0.00000000000E+00  0.00000000000E+00  0.20252285913E+04  0.20252285913E+04  0.50400001928E-02 0. -1.
       -1   -1    0    0    0  501  0.00000000000E+00  0.00000000000E+00 -0.28915019444E+03  0.28915019448E+03  0.50400001928E-02 0.  1.
    10030    2    1    2    0    0  0.00000000000E+00  0.00000000000E+00  0.17360783968E+04  0.23143787858E+04  0.15304838986E+04 0.  0.
        4    1    3    3  502    0  0.45368961221E+03  0.40119424769E+03  0.16069327665E+03  0.62659000205E+03  0.12699999809E+01 0.  1.
       -4    1    3    3    0  502 -0.45368961221E+03 -0.40119424769E+03  0.15753851202E+04  0.16877887837E+04  0.12699999809E+01 0. -1.
</event>
<event>
 5   0  0.2796994E-04  0.1601591E+04  0.7818609E-02  0.8819571E-01
       -1   -1    0    0    0  501  0.00000000000E+00  0.00000000000E+00  0.70200678772E+03  0.70200678774E+03  0.50400001928E-02 0.  1.
        1   -1    0    0  501    0  0.00000000000E+00  0.00000000000E+00 -0.91348656182E+03  0.91348656183E+03  0.50400001928E-02 0. -1.
    10030    2    1    2    0    0  0.00000000000E+00  0.00000000000E+00 -0.21147977410E+03  0.16154933496E+04  0.16015914172E+04 0.  0.
        3    1    3    3  502    0  0.58163859940E+03  0.20416288138E+03  0.40986024474E+03  0.74025088508E+03  0.10100000352E+00 0.  1.
       -3    1    3    3    0  502 -0.58163859940E+03 -0.20416288138E+03 -0.62134001884E+03  0.87524246449E+03  0.10100000352E+00 0. -1.
</event>
<event>
 5   0  0.5083831E-04  0.1594444E+04  0.7818609E-02  0.8823968E-01
       -2   -1    0    0    0  501  0.00000000000E+00  0.00000000000E+00  0.40678539031E+03  0.40678539032E+03  0.25500000920E-02 0. -1.
        2   -1    0    0  501    0  0.00000000000E+00  0.00000000000E+00 -0.15624043540E+04  0.15624043540E+04  0.25500000920E-02 0.  1.
    10030    2    1    2    0    0  0.00000000000E+00  0.00000000000E+00 -0.11556189637E+04  0.19691897443E+04  0.15944444361E+04 0.  0.
        4    1    3    3  502    0 -0.34177889858E+03 -0.19425636486E+03  0.27874840621E+03  0.48192389199E+03  0.12699999809E+01 0. -1.
       -4    1    3    3    0  502  0.34177889858E+03  0.19425636486E+03 -0.14343673699E+04  0.14872658524E+04  0.12699999809E+01 0.  1.
</event>
<event>
 5   0  0.5381164E-04  0.1621287E+04  0.7818609E-02  0.8807577E-01
       -2   -1    0    0    0  501  0.00000000000E+00  0.00000000000E+00  0.60916911345E+03  0.60916911346E+03  0.25500000920E-02 0. -1.
        2   -1    0    0  501    0  0.00000000000E+00  0.00000000000E+00 -0.10787521421E+04  0.10787521421E+04  0.25500000920E-02 0.  1.
    10030    2    1    2    0    0  0.00000000000E+00  0.00000000000E+00 -0.46958302868E+03  0.16879212556E+04  0.16212865090E+04 0.  0.
        5    1    3    3  502    0  0.47511426010E+03 -0.28395406195E+03 -0.85138018600E+03  0.10154968146E+04  0.46999998093E+01 0.  1.
       -5    1    3    3    0  502 -0.47511426010E+03  0.28395406195E+03  0.38179715732E+03  0.67242444095E+03  0.46999998093E+01 0. -1.
</event>
<event>
 5   0  0.5315984E-04  0.1612416E+04  0.7818609E-02  0.8812957E-01
       -2   -1    0    0    0  501  0.00000000000E+00  0.00000000000E+00  0.24339219333E+03  0.24339219334E+03  0.25500000920E-02 0.  1.
        2   -1    0    0  501    0  0.00000000000E+00  0.00000000000E+00 -0.26704688958E+04  0.26704688958E+04  0.25500000920E-02 0. -1.
    10030    2    1    2    0    0  0.00000000000E+00  0.00000000000E+00 -0.24270767024E+04  0.29138610891E+04  0.16124159287E+04 0.  0.
        2    1    3    3  502    0  0.53838893119E+03  0.31273832204E+03 -0.28800151192E+03  0.68601222305E+03  0.25500000920E-02 0.  1.
       -2    1    3    3    0  502 -0.53838893119E+03 -0.31273832204E+03 -0.21390751905E+04  0.22278488661E+04  0.25500000920E-02 0. -1.
</event>
<event>
 5   0  0.5264308E-04  0.1639677E+04  0.7818609E-02  0.8796537E-01
        2   -1    0    0  501    0  0.00000000000E+00  0.00000000000E+00  0.14077809636E+04  0.14077809636E+04  0.25500000920E-02 0.  1.
       -2   -1    0    0    0  501  0.00000000000E+00  0.00000000000E+00 -0.47744282785E+03  0.47744282785E+03  0.25500000920E-02 0. -1.
    10030    2    1    2    0    0  0.00000000000E+00  0.00000000000E+00  0.93033813578E+03  0.18852237915E+04  0.16396767051E+04 0.  0.
        3    1    3    3  502    0  0.45536824069E+03 -0.12299060405E+03  0.12361453428E+04  0.13230805879E+04  0.10100000352E+00 0.  1.
       -3    1    3    3    0  502 -0.45536824069E+03  0.12299060405E+03 -0.30580720701E+03  0.56214320361E+03  0.10100000352E+00 0. -1.
</event>
<event>
 5   0  0.5315984E-04  0.1556732E+04  0.7818609E-02  0.8847579E-01
       -2   -1    0    0    0  501  0.00000000000E+00  0.00000000000E+00  0.25569961405E+03  0.25569961406E+03  0.25500000920E-02 0.  1.
        2   -1    0    0  501    0  0.00000000000E+00  0.00000000000E+00 -0.23693955966E+04  0.23693955966E+04  0.25500000920E-02 0. -1.
    10030    2    1    2    0    0  0.00000000000E+00  0.00000000000E+00 -0.21136959825E+04  0.26250952106E+04  0.15567318839E+04 0.  0.
        2    1    3    3  502    0 -0.32260919416E+03  0.60271355413E+03 -0.16844391987E+04  0.18178767105E+04  0.25500000920E-02 0. -1.
       -2    1    3    3    0  502  0.32260919416E+03 -0.60271355413E+03 -0.42925678384E+03  0.80721850014E+03  0.25500000920E-02 0.  1.
</event>
<event>
 5   0  0.5264308E-04  0.1591397E+04  0.7818609E-02  0.8825851E-01
       -2   -1    0    0    0  501  0.00000000000E+00  0.00000000000E+00  0.65767360196E+03  0.65767360197E+03  0.25500000920E-02 0.  1.
        2   -1    0    0  501    0  0.00000000000E+00  0.00000000000E+00 -0.96269031525E+03  0.96269031526E+03  0.25500000920E-02 0. -1.
    10030    2    1    2    0    0  0.00000000000E+00  0.00000000000E+00 -0.30501671329E+03  0.16203639172E+04  0.15913968797E+04 0.  0.
        3    1    3    3  502    0 -0.36610451722E+03 -0.37744966481E+03 -0.76056800311E+03  0.92464288488E+03  0.10100000352E+00 0. -1.
       -3    1    3    3    0  502  0.36610451722E+03  0.37744966481E+03  0.45555128982E+03  0.69572103235E+03  0.10100000352E+00 0.  1.
</event>
<event>
 5   0  0.5264308E-04  0.1604092E+04  0.7818609E-02  0.8818038E-01
       -2   -1    0    0    0  501  0.00000000000E+00  0.00000000000E+00  0.70761574335E+03  0.70761574336E+03  0.25500000920E-02 0. -1.
        2   -1    0    0  501    0  0.00000000000E+00  0.00000000000E+00 -0.90907791650E+03  0.90907791650E+03  0.25500000920E-02 0.  1.
    10030    2    1    2    0    0  0.00000000000E+00  0.00000000000E+00 -0.20146217315E+03  0.16166936599E+04  0.16040920742E+04 0.  0.
        3    1    3    3  502    0 -0.12819978473E+03 -0.54736635107E+03 -0.67726758865E+03  0.88019117465E+03  0.10100000352E+00 0.  1.
       -3    1    3    3    0  502  0.12819978473E+03  0.54736635107E+03  0.47580541551E+03  0.73650248521E+03  0.10100000352E+00 0. -1.
</event>
<event>
 5   0  0.5083831E-04  0.1600016E+04  0.7818609E-02  0.8820538E-01
        2   -1    0    0  501    0  0.00000000000E+00  0.00000000000E+00  0.15426699307E+04  0.15426699307E+04  0.25500000920E-02 0. -1.
       -2   -1    0    0    0  501  0.00000000000E+00  0.00000000000E+00 -0.41487341563E+03  0.41487341563E+03  0.25500000920E-02 0.  1.
    10030    2    1    2    0    0  0.00000000000E+00  0.00000000000E+00  0.11277965151E+04  0.19575433463E+04  0.16000159291E+04 0.  0.
        4    1    3    3  502    0 -0.69832994201E+03  0.34112823117E+03  0.33183557787E+03  0.84507374923E+03  0.12699999809E+01 0.  1.
       -4    1    3    3    0  502  0.69832994201E+03 -0.34112823117E+03  0.79596093718E+03  0.11124695971E+04  0.12699999809E+01 0. -1.
</event>
<event>
 5   0  0.2730707E-04  0.1664675E+04  0.7818609E-02  0.8781772E-01
       -1   -1    0    0    0  501  0.00000000000E+00  0.00000000000E+00  0.37040013194E+03  0.37040013198E+03  0.50400001928E-02 0.  1.
        1   -1    0    0  501    0  0.00000000000E+00  0.00000000000E+00 -0.18703704176E+04  0.18703704176E+04  0.50400001928E-02 0. -1.
    10030    2    1    2    0    0  0.00000000000E+00  0.00000000000E+00 -0.14999702856E+04  0.22407705496E+04  0.16646746823E+04 0.  0.
        5    1    3    3  502    0  0.65780983499E+03  0.28432457279E+03 -0.13198187569E+04  0.15018315095E+04  0.46999998093E+01 0. -1.
       -5    1    3    3    0  502 -0.65780983499E+03 -0.28432457279E+03 -0.18015152873E+03  0.73893904011E+03  0.46999998093E+01 0.  1.
</event>
<event>
 5   0  0.2649086E-04  0.1591791E+04  0.7818609E-02  0.8825607E-01
       -1   -1    0    0    0  501  0.00000000000E+00  0.00000000000E+00  0.47768022208E+03  0.47768022211E+03  0.50400001928E-02 0. -1.
        1   -1    0    0  501    0  0.00000000000E+00  0.00000000000E+00 -0.13260956822E+04  0.13260956823E+04  0.50400001928E-02 0.  1.
    10030    2    1    2    0    0  0.00000000000E+00  0.00000000000E+00 -0.84841546017E+03  0.18037759044E+04  0.15917910416E+04 0.  0.
        2    1    3    3  502    0 -0.23392732612E+03 -0.72360119919E+03 -0.69027199320E+03  0.10270326742E+04  0.25500000920E-02 0.  1.
       -2    1    3    3    0  502  0.23392732612E+03  0.72360119919E+03 -0.15814346697E+03  0.77674323011E+03  0.25500000920E-02 0. -1.
</event>
<event>
 5   0  0.2649086E-04  0.1607779E+04  0.7818609E-02  0.8815783E-01
       -1   -1    0    0    0  501  0.00000000000E+00  0.00000000000E+00  0.79712352004E+03  0.79712352005E+03  0.50400001928E-02 0.  1.
        1   -1    0    0  501    0  0.00000000000E+00  0.00000000000E+00 -0.81071278893E+03  0.81071278895E+03  0.50400001928E-02 0. -1.
    10030    2    1    2    0    0  0.00000000000E+00  0.00000000000E+00 -0.13589268896E+02  0.16078363090E+04  0.16077788804E+04 0.  0.
        2    1    3    3  502    0 -0.48303706434E+03  0.62909302647E+03 -0.13777790122E+03  0.80502521174E+03  0.25500000920E-02 0. -1.
       -2    1    3    3    0  502  0.48303706434E+03 -0.62909302647E+03  0.12418863232E+03  0.80281109726E+03  0.25500000920E-02 0.  1.
</event>
<event>
 5   0  0.2796994E-04  0.1580391E+04  0.7818609E-02  0.8832686E-01
        1   -1    0    0  501    0  0.00000000000E+00  0.00000000000E+00  0.13686479284E+04  0.13686479284E+04  0.50400001928E-02 0.  1.
       -1   -1    0    0    0  501  0.00000000000E+00  0.00000000000E+00 -0.45622320477E+03  0.45622320480E+03  0.50400001928E-02 0. -1.
    10030    2    1    2    0    0  0.00000000000E+00  0.00000000000E+00  0.91242472363E+03  0.18248711332E+04  0.15803910201E+04 0.  0.
        3    1    3    3  502    0  0.34801745398E+03  0.87244448782E+01  0.12753278873E+04  0.13219884624E+04  0.10100000352E+00 0.  1.
       -3    1    3    3    0  502 -0.34801745398E+03 -0.87244448782E+01 -0.36290316370E+03  0.50288267085E+03  0.10100000352E+00 0. -1.
</event>
<event>
 5   0  0.5131239E-04  0.1557034E+04  0.7818609E-02  0.8847387E-01
       -2   -1    0    0    0  501  0.00000000000E+00  0.00000000000E+00  0.45715335329E+03  0.45715335330E+03  0.25500000920E-02 0. -1.
        2   -1    0    0  501    0  0.00000000000E+00  0.00000000000E+00 -0.13257890835E+04  0.13257890835E+04  0.25500000920E-02 0.  1.
    10030    2    1    2    0    0  0.00000000000E+00  0.00000000000E+00 -0.86863573020E+03  0.17829424368E+04  0.15570342646E+04 0.  0.
        1    1    3    3  502    0  0.34209935509E+03 -0.25276659849E+03 -0.11809701825E+04  0.12552344378E+04  0.50400001928E-02 0.  1.
       -1    1    3    3    0  502 -0.34209935509E+03  0.25276659849E+03  0.31233445226E+03  0.52770799895E+03  0.50400001928E-02 0. -1.
</event>
<event>
 5   0  0.2796994E-04  0.1592874E+04  0.7818609E-02  0.8824938E-01
       -1   -1    0    0    0  501  0.00000000000E+00  0.00000000000E+00  0.69519560382E+03  0.69519560384E+03  0.50400001928E-02 0. -1.
        1   -1    0    0  501    0  0.00000000000E+00  0.00000000000E+00 -0.91242194321E+03  0.91242194322E+03  0.50400001928E-02 0.  1.
    10030    2    1    2    0    0  0.00000000000E+00  0.00000000000E+00 -0.21722633939E+03  0.16076175471E+04  0.15928737851E+04 0.  0.
        3    1    3    3  502    0 -0.27185251725E+03  0.51291624337E+03  0.44170895986E+03  0.72944751646E+03  0.10100000352E+00 0. -1.
       -3    1    3    3    0  502  0.27185251725E+03 -0.51291624337E+03 -0.65893529925E+03  0.87817003060E+03  0.10100000352E+00 0.  1.
</event>
<event>
 5   0  0.5264308E-04  0.1604096E+04  0.7818609E-02  0.8818036E-01
       -2   -1    0    0    0  501  0.00000000000E+00  0.00000000000E+00  0.10511694286E+04  0.10511694286E+04  0.25500000920E-02 0. -1.
        2   -1    0    0  501    0  0.00000000000E+00  0.00000000000E+00 -0.61196684698E+03  0.61196684698E+03  0.25500000920E-02 0.  1.
    10030    2    1    2    0    0  0.00000000000E+00  0.00000000000E+00  0.43920258159E+03  0.16631362755E+04  0.16040958087E+04 0.  0.
        3    1    3    3  502    0 -0.68698410120E+03  0.37770106043E+03  0.44029932065E+02  0.78520308932E+03  0.10100000352E+00 0.  1.
       -3    1    3    3    0  502  0.68698410120E+03 -0.37770106043E+03  0.39517264952E+03  0.87793318623E+03  0.10100000352E+00 0. -1.
</event>
<event>
 5   0  0.2689675E-04  0.1602218E+04  0.7818609E-02  0.8819187E-01
        1   -1    0    0  501    0  0.00000000000E+00  0.00000000000E+00  0.10380041657E+04  0.10380041657E+04  0.50400001928E-02 0.  1.
       -1   -1    0    0    0  501  0.00000000000E+00  0.00000000000E+00 -0.61827831285E+03  0.61827831287E+03  0.50400001928E-02 0. -1.
    10030    2    1    2    0    0  0.00000000000E+00  0.00000000000E+00  0.41972585283E+03  0.16562824786E+04  0.16022177933E+04 0.  0.
        1    1    3    3  502    0  0.49243624613E+03  0.24923444390E+03 -0.39038903041E+03  0.67602874172E+03  0.50400001928E-02 0. -1.
       -1    1    3    3    0  502 -0.49243624613E+03 -0.24923444390E+03  0.81011488325E+03  0.98025373685E+03  0.50400001928E-02 0.  1.
</event>
<event>
 5   0  0.5083831E-04  0.1601866E+04  0.7818609E-02  0.8819403E-01
       -2   -1    0    0    0  501  0.00000000000E+00  0.00000000000E+00  0.52887673069E+03  0.52887673070E+03  0.25500000920E-02 0. -1.
        2   -1    0    0  501    0  0.00000000000E+00  0.00000000000E+00 -0.12129354742E+04  0.12129354742E+04  0.25500000920E-02 0.  1.
    10030    2    1    2    0    0  0.00000000000E+00  0.00000000000E+00 -0.68405874348E+03  0.17418122049E+04  0.16018655975E+04 0.  0.
        4    1    3    3  502    0 -0.42701075398E+03  0.31671627063E+03 -0.99340021453E+03  0.11267177904E+04  0.12699999809E+01 0.  1.
       -4    1    3    3    0  502  0.42701075398E+03 -0.31671627063E+03  0.30934147105E+03  0.61509441447E+03  0.12699999809E+01 0. -1.
</event>
<event>
 5   0  0.5083831E-04  0.1540044E+04  0.7818609E-02  0.8858252E-01
        2   -1    0    0  501    0  0.00000000000E+00  0.00000000000E+00  0.76895126054E+03  0.76895126054E+03  0.25500000920E-02 0. -1.
       -2   -1    0    0    0  501  0.00000000000E+00  0.00000000000E+00 -0.77109459938E+03  0.77109459938E+03  0.25500000920E-02 0.  1.
    10030    2    1    2    0    0  0.00000000000E+00  0.00000000000E+00 -0.21433388398E+01  0.15400458599E+04  0.15400443684E+04 0.  0.
        4    1    3    3  502    0 -0.27985189927E+03 -0.45727590913E+03 -0.55380560221E+03  0.77079219024E+03  0.12699999809E+01 0.  1.
       -4    1    3    3    0  502  0.27985189927E+03  0.45727590913E+03  0.55166226337E+03  0.76925366968E+03  0.12699999809E+01 0. -1.
</event>
<event>
 5   0  0.2730707E-04  0.1600255E+04  0.7818609E-02  0.8820392E-01
       -1   -1    0    0    0  501  0.00000000000E+00  0.00000000000E+00  0.36076916288E+03  0.36076916291E+03  0.50400001928E-02 0.  1.
        1   -1    0    0  501    0  0.00000000000E+00  0.00000000000E+00 -0.17745521338E+04  0.17745521338E+04  0.50400001928E-02 0. -1.
    10030    2    1    2    0    0  0.00000000000E+00  0.00000000000E+00 -0.14137829709E+04  0.21353212967E+04  0.16002545895E+04 0.  0.
        5    1    3    3  502    0 -0.83444069088E+02 -0.10671457743E+03 -0.17591203820E+04  0.17643348667E+04  0.46999998093E+01 0. -1.
       -5    1    3    3    0  502  0.83444069088E+02  0.10671457743E+03  0.34533741109E+03  0.37098642994E+03  0.46999998093E+01 0.  1.
</event>
<event>
 5   0  0.2796994E-04  0.1590172E+04  0.7818609E-02  0.8826609E-01
        1   -1    0    0  501    0  0.00000000000E+00  0.00000000000E+00  0.18731988306E+04  0.18731988306E+04  0.50400001928E-02 0.  1.
       -1   -1    0    0    0  501  0.00000000000E+00  0.00000000000E+00 -0.33747706145E+03  0.33747706149E+03  0.50400001928E-02 0. -1.
    10030    2    1    2    0    0  0.00000000000E+00  0.00000000000E+00  0.15357217692E+04  0.22106758921E+04  0.15901718610E+04 0.  0.
        3    1    3    3  502    0  0.10637783109E+03  0.41691935842E+03  0.16973541611E+04  0.17510423047E+04  0.10100000352E+00 0.  1.
       -3    1    3    3    0  502 -0.10637783109E+03 -0.41691935842E+03 -0.16163239193E+03  0.45963358743E+03  0.10100000352E+00 0. -1.
</event>
<event>
 5   0  0.2649086E-04  0.1600882E+04  0.7818609E-02  0.8820006E-01
        1   -1    0    0  501    0  0.00000000000E+00  0.00000000000E+00  0.51469100238E+03  0.51469100240E+03  0.50400001928E-02 0. -1.
       -1   -1    0    0    0  501  0.00000000000E+00  0.00000000000E+00 -0.12448363585E+04  0.12448363585E+04  0.50400001928E-02 0.  1.
    10030    2    1    2    0    0  0.00000000000E+00  0.00000000000E+00 -0.73014535614E+03  0.17595273609E+04  0.16008823482E+04 0.  0.
        2    1    3    3  502    0  0.29351543441E+03 -0.73052929765E+03 -0.20624740152E+03  0.81385647113E+03  0.25500000920E-02 0. -1.
       -2    1    3    3    0  502 -0.29351543441E+03  0.73052929765E+03 -0.52389795462E+03  0.94567088980E+03  0.25500000920E-02 0.  1.
</event>
<event>
 5   0  0.5083831E-04  0.1593813E+04  0.7818609E-02  0.8824358E-01
       -2   -1    0    0    0  501  0.00000000000E+00  0.00000000000E+00  0.31580709497E+03  0.31580709499E+03  0.25500000920E-02 0.  1.
        2   -1    0    0  501    0  0.00000000000E+00  0.00000000000E+00 -0.20109098862E+04  0.20109098862E+04  0.25500000920E-02 0. -1.
    10030    2    1    2    0    0  0.00000000000E+00  0.00000000000E+00 -0.16951027912E+04  0.23267169812E+04  0.15938125479E+04 0.  0.
        4    1    3    3  502    0 -0.19367971436E+03 -0.64885988974E+03 -0.23419641204E+03  0.71650579941E+03  0.12699999809E+01 0.  1.
       -4    1    3    3    0  502  0.19367971436E+03  0.64885988974E+03 -0.14609063792E+04  0.16102111818E+04  0.12699999809E+01 0. -1.
</event>
<event>
 5   0  0.2796994E-04  0.1599380E+04  0.7818609E-02  0.8820929E-01
       -1   -1    0    0    0  501  0.00000000000E+00  0.00000000000E+00  0.10810060248E+04  0.10810060248E+04  0.50400001928E-02 0.  1.
        1   -1    0    0  501    0  0.00000000000E+00  0.00000000000E+00 -0.59158215235E+03  0.59158215237E+03  0.50400001928E-02 0. -1.
    10030    2    1    2    0    0  0.00000000000E+00  0.00000000000E+00  0.48942387242E+03  0.16725881771E+04  0.15993797183E+04 0.  0.
        3    1    3    3  502    0  0.17266790902E+03 -0.75256567957E+03  0.27013859277E+02  0.77259243309E+03  0.10100000352E+00 0. -1.
       -3    1    3    3    0  502 -0.17266790902E+03  0.75256567957E+03  0.46241001314E+03  0.89999574406E+03  0.10100000352E+00 0.  1.
</event>
<event>
 5   0  0.5315984E-04  0.1519138E+04  0.7818609E-02  0.8871825E-01
       -2   -1    0    0    0  501  0.00000000000E+00  0.00000000000E+00  0.69857273785E+03  0.69857273785E+03  0.25500000920E-02 0.  1.
        2   -1    0    0  501    0  0.00000000000E+00  0.00000000000E+00 -0.82589138525E+03  0.82589138526E+03  0.25500000920E-02 0. -1.
    10030    2    1    2    0    0  0.00000000000E+00  0.00000000000E+00 -0.12731864740E+03  0.15244641231E+04  0.15191381849E+04 0.  0.
        2    1    3    3  502    0  0.55183705849E+03  0.51278215714E+03 -0.16134291094E+03  0.77039030025E+03  0.25500000920E-02 0. -1.
       -2    1    3    3    0  502 -0.55183705849E+03 -0.51278215714E+03  0.34024263536E+02  0.75407382286E+03  0.25500000920E-02 0.  1.
</event>
<event>
 5   0  0.5083831E-04  0.1642933E+04  0.7818609E-02  0.8794598E-01
       -2   -1    0    0    0  501  0.00000000000E+00  0.00000000000E+00  0.43818110318E+03  0.43818110319E+03  0.25500000920E-02 0.  1.
        2   -1    0    0  501    0  0.00000000000E+00  0.00000000000E+00 -0.15400195847E+04  0.15400195847E+04  0.25500000920E-02 0. -1.
    10030    2    1    2    0    0  0.00000000000E+00  0.00000000000E+00 -0.11018384815E+04  0.19782006878E+04  0.16429333286E+04 0.  0.
        4    1    3    3  502    0  0.75723695029E+03 -0.25471468058E+03 -0.78101407861E+03  0.11172609235E+04  0.12699999809E+01 0. -1.
       -4    1    3    3    0  502 -0.75723695029E+03  0.25471468058E+03 -0.32082440286E+03  0.86093976430E+03  0.12699999809E+01 0.  1.
</event>
<event>
 5   0  0.2730707E-04  0.1599577E+04  0.7818609E-02  0.8820808E-01
        1   -1    0    0  501    0  0.00000000000E+00  0.00000000000E+00  0.68833483856E+03  0.68833483858E+03  0.50400001928E-02 0. -1.
       -1   -1    0    0    0  501  0.00000000000E+00  0.00000000000E+00 -0.92928817932E+03  0.92928817933E+03  0.50400001928E-02 0.  1.
    10030    2    1    2    0    0  0.00000000000E+00  0.00000000000E+00 -0.24095334076E+03  0.16176230179E+04  0.15995767302E+04 0.  0.
        5    1    3    3  502    0  0.37871555781E+03 -0.19967190390E+03  0.56267775628E+03  0.70705211289E+03  0.46999998093E+01 0. -1.
       -5    1    3    3    0  502 -0.37871555781E+03  0.19967190390E+03 -0.80363109704E+03  0.91057090502E+03  0.46999998093E+01 0.  1.
</event>
<event>
 5   0  0.2649086E-04  0.1597763E+04  0.7818609E-02  0.8821923E-01
       -1   -1    0    0    0  501  0.00000000000E+00  0.00000000000E+00  0.58602727242E+03  0.58602727245E+03  0.50400001928E-02 0. -1.
        1   -1    0    0  501    0  0.00000000000E+00  0.00000000000E+00 -0.10890482996E+04  0.10890482996E+04  0.50400001928E-02 0.  1.
    10030    2    1    2    0    0  0.00000000000E+00  0.00000000000E+00 -0.50302102715E+03  0.16750755720E+04  0.15977634425E+04 0.  0.
        2    1    3    3  502    0 -0.52296687340E+03 -0.25570757290E+03  0.32207474945E+03  0.66529155845E+03  0.25500000920E-02 0. -1.
       -2    1    3    3    0  502  0.52296687340E+03  0.25570757290E+03 -0.82509577659E+03  0.10097840136E+04  0.25500000920E-02 0.  1.
</event>
<event>
 5   0  0.5315984E-04  0.1590290E+04  0.7818609E-02  0.8826536E-01
        2   -1    0    0  501    0  0.00000000000E+00  0.00000000000E+00  0.72744630147E+03  0.72744630148E+03  0.25500000920E-02 0.  1.
       -2   -1    0    0    0  501  0.00000000000E+00  0.00000000000E+00 -0.86914368071E+03  0.86914368071E+03  0.25500000920E-02 0. -1.
    10030    2    1    2    0    0  0.00000000000E+00  0.00000000000E+00 -0.14169737923E+03  0.15965899822E+04  0.15902897296E+04 0.  0.
        2    1    3    3  502    0  0.60929372910E+03  0.35991519845E+03  0.29318615859E+03  0.76598689414E+03  0.25500000920E-02 0.  1.
       -2    1    3    3    0  502 -0.60929372910E+03 -0.35991519845E+03 -0.43488353783E+03  0.83060308805E+03  0.25500000920E-02 0. -1.
</event>
<event>
 5   0  0.5264308E-04  0.1590158E+04  0.7818609E-02  0.8826617E-01
       -2   -1    0    0    0  501  0.00000000000E+00  0.00000000000E+00  0.54870741222E+03  0.54870741223E+03  0.25500000920E-02 0. -1.
        2   -1    0    0  501    0  0.00000000000E+00  0.00000000000E+00 -0.11520718150E+04  0.11520718150E+04  0.25500000920E-02 0.  1.
    10030    2    1    2    0    0  0.00000000000E+00  0.00000000000E+00 -0.60336440281E+03  0.17007792273E+04  0.15901576580E+04 0.  0.
        3    1    3    3  502    0 -0.31951472645E+03  0.67129687388E+03 -0.60310488195E+03  0.95732160852E+03  0.10100000352E+00 0. -1.
       -3    1    3    3    0  502  0.31951472645E+03 -0.67129687388E+03 -0.25952085247E+00  0.74345761873E+03  0.10100000352E+00 0.  1.
</event>
<event>
 5   0  0.5381164E-04  0.1628394E+04  0.7818609E-02  0.8803292E-01
        2   -1    0    0  501    0  0.00000000000E+00  0.00000000000E+00  0.10916149323E+04  0.10916149323E+04  0.25500000920E-02 0.  1.
       -2   -1    0    0    0  501  0.00000000000E+00  0.00000000000E+00 -0.60728093415E+03  0.60728093416E+03  0.25500000920E-02 0. -1.
    10030    2    1    2    0    0  0.00000000000E+00  0.00000000000E+00  0.48433399812E+03  0.16988958664E+04  0.16283942223E+04 0.  0.
        5    1    3    3  502    0 -0.46715457440E+03 -0.53555328885E+03  0.65666402311E+03  0.96761585912E+03  0.46999998093E+01 0.  1.
       -5    1    3    3    0  502  0.46715457440E+03  0.53555328885E+03 -0.17233002499E+03  0.73128000731E+03  0.46999998093E+01 0. -1.
</event>
<event>
 5   0  0.2649086E-04  0.1551515E+04  0.7818609E-02  0.8850901E-01
       -1   -1    0    0    0  501  0.00000000000E+00  0.00000000000E+00  0.75569684956E+03  0.75569684958E+03  0.50400001928E-02 0. -1.
        1   -1    0    0  501    0  0.00000000000E+00  0.00000000000E+00 -0.79635020093E+03  0.79635020094E+03  0.50400001928E-02 0.  1.
    10030    2    1    2    0    0  0.00000000000E+00  0.00000000000E+00 -0.40653351362E+02  0.15520470505E+04  0.15515145349E+04 0.  0.
        2    1    3    3  502    0  0.11605136594E+03 -0.39622148873E+03 -0.67731685278E+03  0.79323231574E+03  0.25500000920E-02 0.  1.
       -2    1    3    3    0  502 -0.11605136594E+03  0.39622148873E+03  0.63666350142E+03  0.75881473478E+03  0.25500000920E-02 0. -1.
</event>
<event>
 5   0  0.5315984E-04  0.1543207E+04  0.7818609E-02  0.8856219E-01
       -2   -1    0    0    0  501  0.00000000000E+00  0.00000000000E+00  0.11184660922E+04  0.11184660922E+04  0.25500000920E-02 0.  1.
        2   -1    0    0  501    0  0.00000000000E+00  0.00000000000E+00 -0.53231086547E+03  0.53231086548E+03  0.25500000920E-02 0. -1.
    10030    2    1    2    0    0  0.00000000000E+00  0.00000000000E+00  0.58615522672E+03  0.16507769577E+04  0.15432066013E+04 0.  0.
        2    1    3    3  502    0  0.29002560451E+03  0.60769929499E+03 -0.10995930216E+03  0.68227877919E+03  0.25500000920E-02 0. -1.
       -2    1    3    3    0  502 -0.29002560451E+03 -0.60769929499E+03  0.69611452888E+03  0.96849817848E+03  0.25500000920E-02 0.  1.
</event>
<event>
 5   0  0.2649086E-04  0.1582060E+04  0.7818609E-02  0.8831646E-01
       -1   -1    0    0    0  501  0.00000000000E+00  0.00000000000E+00  0.25604847998E+03  0.25604848003E+03  0.50400001928E-02 0.  1.
        1   -1    0    0  501    0  0.00000000000E+00  0.00000000000E+00 -0.24437894272E+04  0.24437894272E+04  0.50400001928E-02 0. -1.
    10030    2    1    2    0    0  0.00000000000E+00  0.00000000000E+00 -0.21877409472E+04  0.26998379073E+04  0.15820601358E+04 0.  0.
        2    1    3    3  502    0 -0.10262908422E+03  0.59286004323E+03 -0.19702259709E+04  0.20600500325E+04  0.25500000920E-02 0. -1.
       -2    1    3    3    0  502  0.10262908422E+03 -0.59286004323E+03 -0.21751497631E+03  0.63978787477E+03  0.25500000920E-02 0.  1.
</event>
<event>
 5   0  0.5381164E-04  0.1569807E+04  0.7818609E-02  0.8839314E-01
        2   -1    0    0  501    0  0.00000000000E+00  0.00000000000E+00  0.20436943284E+04  0.20436943284E+04  0.25500000920E-02 0. -1.
       -2   -1    0    0    0  501  0.00000000000E+00  0.00000000000E+00 -0.30145106872E+03  0.30145106873E+03  0.25500000920E-02 0.  1.
    10030    2    1    2    0    0  0.00000000000E+00  0.00000000000E+00  0.17422432597E+04  0.23451453971E+04  0.15698074270E+04 0.  0.
        5    1    3    3  502    0  0.30991706656E+03  0.23384556895E+03 -0.14793654980E+03  0.41549927921E+03  0.46999998093E+01 0.  1.
       -5    1    3    3    0  502 -0.30991706656E+03 -0.23384556895E+03  0.18901798094E+04  0.19296461179E+04  0.46999998093E+01 0. -1.
</event>
<event>
 5   0  0.2689675E-04  0.1634486E+04  0.7818609E-02  0.8799637E-01
       -1   -1    0    0    0  501  0.00000000000E+00  0.00000000000E+00  0.27721614586E+03  0.27721614591E+03  0.50400001928E-02 0. -1.
        1   -1    0    0  501    0  0.00000000000E+00  0.00000000000E+00 -0.24092620759E+04  0.24092620759E+04  0.50400001928E-02 0.  1.
    10030    2    1    2    0    0  0.00000000000E+00  0.00000000000E+00 -0.21320459300E+04  0.26864782218E+04  0.16344862766E+04 0.  0.
        1    1    3    3  502    0 -0.71023612226E+03  0.16339586705E+03 -0.45820974634E+03  0.86086568662E+03  0.50400001928E-02 0.  1.
       -1    1    3    3    0  502  0.71023612226E+03 -0.16339586705E+03 -0.16738361837E+04  0.18256125352E+04  0.50400001928E-02 0. -1.
</event>
<event>
 5   0  0.2649086E-04  0.1601253E+04  0.7818609E-02  0.8819779E-01
       -1   -1    0    0    0  501  0.00000000000E+00  0.00000000000E+00  0.73986405560E+03  0.73986405562E+03  0.50400001928E-02 0. -1.
        1   -1    0    0  501    0  0.00000000000E+00  0.00000000000E+00 -0.86637911449E+03  0.86637911450E+03  0.50400001928E-02 0.  1.
    10030    2    1    2    0    0  0.00000000000E+00  0.00000000000E+00 -0.12651505889E+03  0.16062431701E+04  0.16012529661E+04 0.  0.
        2    1    3    3  502    0  0.63628215946E+03  0.47796847626E+03 -0.15124584988E+03  0.81005194763E+03  0.25500000920E-02 0. -1.
       -2    1    3    3    0  502 -0.63628215946E+03 -0.47796847626E+03  0.24730790995E+02  0.79619122249E+03  0.25500000920E-02 0.  1.
</event>
<event>
 5   0  0.2689675E-04  0.1743194E+04  0.7818609E-02  0.8737106E-01
        1   -1    0    0  501    0  0.00000000000E+00  0.00000000000E+00  0.11046577741E+04  0.11046577741E+04  0.50400001928E-02 0.  1.
       -1   -1    0    0    0  501  0.00000000000E+00  0.00000000000E+00 -0.68770731237E+03  0.68770731238E+03  0.50400001928E-02 0. -1.
    10030    2    1    2    0    0  0.00000000000E+00  0.00000000000E+00  0.41695046175E+03  0.17923650865E+04  0.17431938836E+04 0.  0.
        1    1    3    3  502    0  0.56439823143E+03 -0.34832200698E+02  0.89045094719E+03  0.10548277277E+04  0.50400001928E-02 0.  1.
       -1    1    3    3    0  502 -0.56439823143E+03  0.34832200698E+02 -0.47350048544E+03  0.73753735877E+03  0.50400001928E-02 0. -1.
</event>
<event>
 5   0  0.5381164E-04  0.1610848E+04  0.7818609E-02  0.8813911E-01
       -2   -1    0    0    0  501  0.00000000000E+00  0.00000000000E+00  0.78850537966E+03  0.78850537966E+03  0.25500000920E-02 0.  1.
        2   -1    0    0  501    0  0.00000000000E+00  0.00000000000E+00 -0.82270529184E+03  0.82270529184E+03  0.25500000920E-02 0. -1.
    10030    2    1    2    0    0  0.00000000000E+00  0.00000000000E+00 -0.34199912175E+02  0.16112106715E+04  0.16108476632E+04 0.  0.
        5    1    3    3  502    0 -0.48878047285E+03 -0.35168453642E+03  0.51790102946E+03  0.79424928713E+03  0.46999998093E+01 0.  1.
       -5    1    3    3    0  502  0.48878047285E+03  0.35168453642E+03 -0.55210094163E+03  0.81696138437E+03  0.46999998093E+01 0. -1.
</event>
<event>
 5   0  0.2730707E-04  0.1603491E+04  0.7818609E-02  0.8818406E-01
        1   -1    0    0  501    0  0.00000000000E+00  0.00000000000E+00  0.87048298774E+03  0.87048298776E+03  0.50400001928E-02 0. -1.
       -1   -1    0    0    0  501  0.00000000000E+00  0.00000000000E+00 -0.73843547786E+03  0.73843547787E+03  0.50400001928E-02 0.  1.
    10030    2    1    2    0    0  0.00000000000E+00  0.00000000000E+00  0.13204750989E+03  0.16089184656E+04  0.16034905937E+04 0.  0.
        5    1    3    3  502    0 -0.15227843892E+03  0.78633758085E+03  0.30436571386E+02  0.80153851366E+03  0.46999998093E+01 0.  1.
       -5    1    3    3    0  502  0.15227843892E+03 -0.78633758085E+03  0.10161093850E+03  0.80737995196E+03  0.46999998093E+01 0. -1.
</event>
<event>
 5   0  0.2796994E-04  0.1634365E+04  0.7818609E-02  0.8799710E-01
        1   -1    0    0  501    0  0.00000000000E+00  0.00000000000E+00  0.11193467960E+04  0.11193467960E+04  0.50400001928E-02 0. -1.
       -1   -1    0    0    0  501  0.00000000000E+00  0.00000000000E+00 -0.59658663809E+03  0.59658663811E+03  0.50400001928E-02 0.  1.
    10030    2    1    2    0    0  0.00000000000E+00  0.00000000000E+00  0.52276015786E+03  0.17159334341E+04  0.16343651267E+04 0.  0.
        3    1    3    3  502    0  0.69482141479E+03 -0.23008992555E+03 -0.12017044667E+03  0.74172711879E+03  0.10100000352E+00 0.  1.
       -3    1    3    3    0  502 -0.69482141479E+03  0.23008992555E+03  0.64293060453E+03  0.97420631529E+03  0.10100000352E+00 0. -1.
</event>
<event>
 5   0  0.5131239E-04  0.1599269E+04  0.7818609E-02  0.8820997E-01
       -2   -1    0    0    0  501  0.00000000000E+00  0.00000000000E+00  0.48937485062E+03  0.48937485063E+03  0.25500000920E-02 0. -1.
        2   -1    0    0  501    0  0.00000000000E+00  0.00000000000E+00 -0.13065961656E+04  0.13065961656E+04  0.25500000920E-02 0.  1.
    10030    2    1    2    0    0  0.00000000000E+00  0.00000000000E+00 -0.81722131493E+03  0.17959710162E+04  0.15992689622E+04 0.  0.
        1    1    3    3  502    0  0.14803390759E+03 -0.22979380086E+03 -0.12524994114E+04  0.12819805007E+04  0.50400001928E-02 0.  1.
       -1    1    3    3    0  502 -0.14803390759E+03  0.22979380086E+03  0.43527809645E+03  0.51399051546E+03  0.50400001928E-02 0. -1.
</event>
<event>
 5   0  0.2796994E-04  0.1611858E+04  0.7818609E-02  0.8813296E-01
       -1   -1    0    0    0  501  0.00000000000E+00  0.00000000000E+00  0.30374509414E+03  0.30374509418E+03  0.50400001928E-02 0.  1.
        1   -1    0    0  501    0  0.00000000000E+00  0.00000000000E+00 -0.21383770906E+04  0.21383770906E+04  0.50400001928E-02 0. -1.
    10030    2    1    2    0    0  0.00000000000E+00  0.00000000000E+00 -0.18346319964E+04  0.24421221847E+04  0.16118579971E+04 0.  0.
        3    1    3    3  502    0  0.15871594518E+03 -0.75993689794E+03 -0.12451752089E+04  0.14673636738E+04  0.10100000352E+00 0. -1.
       -3    1    3    3    0  502 -0.15871594518E+03  0.75993689794E+03 -0.58945678748E+03  0.97475851092E+03  0.10100000352E+00 0.  1.
</event>
<event>
 5   0  0.5264308E-04  0.1591033E+04  0.7818609E-02  0.8826076E-01
       -2   -1    0    0    0  501  0.00000000000E+00  0.00000000000E+00  0.96720192535E+03  0.96720192535E+03  0.25500000920E-02 0. -1.
        2   -1    0    0  501    0  0.00000000000E+00  0.00000000000E+00 -0.65430649035E+03  0.65430649035E+03  0.25500000920E-02 0.  1.
    10030    2    1    2    0    0  0.00000000000E+00  0.00000000000E+00  0.31289543500E+03  0.16215084157E+04  0.15910329943E+04 0.  0.
        3    1    3    3  502    0  0.77683507844E+02  0.65041707574E+03 -0.30360700250E+03  0.72197944705E+03  0.10100000352E+00 0.  1.
       -3    1    3    3    0  502 -0.77683507844E+02 -0.65041707574E+03  0.61650243750E+03  0.89952896865E+03  0.10100000352E+00 0. -1.
</event>
<event>
 5   0  0.2689675E-04  0.1573563E+04  0.7818609E-02  0.8836956E-01
        1   -1    0    0  501    0  0.00000000000E+00  0.00000000000E+00  0.66288987989E+03  0.66288987991E+03  0.50400001928E-02 0. -1.
       -1   -1    0    0    0  501  0.00000000000E+00  0.00000000000E+00 -0.93382775300E+03  0.93382775301E+03  0.50400001928E-02 0.  1.
    10030    2    1    2    0    0  0.00000000000E+00  0.00000000000E+00 -0.27093787311E+03  0.15967176329E+04  0.15735627945E+04 0.  0.
        1    1    3    3  502    0 -0.51719126253E+03  0.40827483221E+03  0.30079927176E+03  0.72433096205E+03  0.50400001928E-02 0. -1.
       -1    1    3    3    0  502  0.51719126253E+03 -0.40827483221E+03 -0.57173714487E+03  0.87238667087E+03  0.50400001928E-02 0.  1.
</event>
<event>
 5   0  0.2689675E-04  0.1604310E+04  0.7818609E-02  0.8817905E-01
        1   -1    0    0  501    0  0.00000000000E+00  0.00000000000E+00  0.92886884906E+03  0.92886884908E+03  0.50400001928E-02 0.  1.
       -1   -1    0    0    0  501  0.00000000000E+00  0.00000000000E+00 -0.69272701540E+03  0.69272701542E+03  0.50400001928E-02 0. -1.
    10030    2    1    2    0    0  0.00000000000E+00  0.00000000000E+00  0.23614183366E+03  0.16215958645E+04  0.16043098772E+04 0.  0.
        1    1    3    3  502    0 -0.19544621489E+03 -0.68434914570E+03  0.49208429175E+03  0.86526292325E+03  0.50400001928E-02 0.  1.
       -1    1    3    3    0  502  0.19544621489E+03  0.68434914570E+03 -0.25594245808E+03  0.75633294125E+03  0.50400001928E-02 0. -1.
</event>
<event>
 5   0  0.5131239E-04  0.1603591E+04  0.7818609E-02  0.8818345E-01
        2   -1    0    0  501    0  0.00000000000E+00  0.00000000000E+00  0.14414044085E+04  0.14414044085E+04  0.25500000920E-02 0.  1.
       -2   -1    0    0    0  501  0.00000000000E+00  0.00000000000E+00 -0.44600656267E+03  0.44600656268E+03  0.25500000920E-02 0. -1.
    10030    2    1    2    0    0  0.00000000000E+00  0.00000000000E+00  0.99539784583E+03  0.18874109712E+04  0.16035907529E+04 0.  0.
        1    1    3    3  502    0 -0.71122708422E+02 -0.15248645455E+03  0.14203913113E+04  0.14303223538E+04  0.50400001928E-02 0.  1.
       -1    1    3    3    0  502  0.71122708422E+02  0.15248645455E+03 -0.42499346545E+03  0.45708861742E+03  0.50400001928E-02 0. -1.
</event>
<event>
 5   0  0.2796994E-04  0.1600830E+04  0.7818609E-02  0.8820038E-01
        1   -1    0    0  501    0  0.00000000000E+00  0.00000000000E+00  0.96461034004E+03  0.96461034005E+03  0.50400001928E-02 0.  1.
       -1   -1    0    0    0  501  0.00000000000E+00  0.00000000000E+00 -0.66416878598E+03  0.66416878600E+03  0.50400001928E-02 0. -1.
    10030    2    1    2    0    0  0.00000000000E+00  0.00000000000E+00  0.30044155406E+03  0.16287791260E+04  0.16008298829E+04 0.  0.
        3    1    3    3  502    0  0.81608638379E+02  0.41645606446E+03 -0.54027988923E+03  0.68702110040E+03  0.10100000352E+00 0. -1.
       -3    1    3    3    0  502 -0.81608638379E+02 -0.41645606446E+03  0.84072144328E+03  0.94175802565E+03  0.10100000352E+00 0.  1.
</event>
<event>
 5   0  0.2689675E-04  0.1593262E+04  0.7818609E-02  0.8824698E-01
        1   -1    0    0  501    0  0.00000000000E+00  0.00000000000E+00  0.58331724767E+03  0.58331724770E+03  0.50400001928E-02 0. -1.
       -1   -1    0    0    0  501  0.00000000000E+00  0.00000000000E+00 -0.10879520876E+04  0.10879520876E+04  0.50400001928E-02 0.  1.
    10030    2    1    2    0    0  0.00000000000E+00  0.00000000000E+00 -0.50463483992E+03  0.16712693353E+04  0.15932623354E+04 0.  0.
        1    1    3    3  502    0 -0.51411643023E+03 -0.18572466166E+03 -0.86018246831E+03  0.10191777238E+04  0.50400001928E-02 0.  1.
       -1    1    3    3    0  502  0.51411643023E+03  0.18572466166E+03  0.35554762839E+03  0.65209161155E+03  0.50400001928E-02 0. -1.
</event>
<event>
 5   0  0.5264308E-04  0.1631410E+04  0.7818609E-02  0.8801481E-01
       -2   -1    0    0    0  501  0.00000000000E+00  0.00000000000E+00  0.81275307012E+03  0.81275307013E+03  0.25500000920E-02 0. -1.
        2   -1    0    0  501    0  0.00000000000E+00  0.00000000000E+00 -0.81866788796E+03  0.81866788796E+03  0.25500000920E-02 0.  1.
    10030    2    1    2    0    0  0.00000000000E+00  0.00000000000E+00 -0.59148178317E+01  0.16314209581E+04  0.16314102358E+04 0.  0.
        3    1    3    3  502    0  0.61961215013E+03  0.37182083706E+03  0.37546928162E+03  0.81433846961E+03  0.10100000352E+00 0. -1.
       -3    1    3    3    0  502 -0.61961215013E+03 -0.37182083706E+03 -0.38138409945E+03  0.81708248847E+03  0.10100000352E+00 0.  1.
</event>
<event>
 5   0  0.5381164E-04  0.1602726E+04  0.7818609E-02  0.8818875E-01
        2   -1    0    0  501    0  0.00000000000E+00  0.00000000000E+00  0.95792462951E+03  0.95792462951E+03  0.25500000920E-02 0.  1.
       -2   -1    0    0    0  501  0.00000000000E+00  0.00000000000E+00 -0.67038975979E+03  0.67038975980E+03  0.25500000920E-02 0. -1.
    10030    2    1    2    0    0  0.00000000000E+00  0.00000000000E+00  0.28753486971E+03  0.16283143893E+04  0.16027262552E+04 0.  0.
        5    1    3    3  502    0  0.14599701190E+03  0.72652855401E+03  0.45359840833E+03  0.86886850174E+03  0.46999998093E+01 0.  1.
       -5    1    3    3    0  502 -0.14599701190E+03 -0.72652855401E+03 -0.16606353861E+03  0.75944588756E+03  0.46999998093E+01 0. -1.
</event>
<event>
 5   0  0.5315984E-04  0.1591532E+04  0.7818609E-02  0.8825767E-01
        2   -1    0    0  501    0  0.00000000000E+00  0.00000000000E+00  0.19025636012E+04  0.19025636012E+04  0.25500000920E-02 0.  1.
       -2   -1    0    0    0  501  0.00000000000E+00  0.00000000000E+00 -0.33283687324E+03  0.33283687325E+03  0.25500000920E-02 0. -1.
    10030    2    1    2    0    0  0.00000000000E+00  0.00000000000E+00  0.15697267279E+04  0.22354004744E+04  0.15915317404E+04 0.  0.
        2    1    3    3  502    0  0.55536932236E+03 -0.52722332751E+03  0.10888581174E+04  0.13311692308E+04  0.25500000920E-02 0.  1.
       -2    1    3    3    0  502 -0.55536932236E+03  0.52722332751E+03  0.48086861055E+03  0.90423124360E+03  0.25500000920E-02 0. -1.
</event>
<event>
 5   0  0.5315984E-04  0.1599756E+04  0.7818609E-02  0.8820698E-01
       -2   -1    0    0    0  501  0.00000000000E+00  0.00000000000E+00  0.68775721779E+03  0.68775721779E+03  0.25500000920E-02 0. -1.
        2   -1    0    0  501    0  0.00000000000E+00  0.00000000000E+00 -0.93027678786E+03  0.93027678786E+03  0.25500000920E-02 0.  1.
    10030    2    1    2    0    0  0.00000000000E+00  0.00000000000E+00 -0.24251957007E+03  0.16180340057E+04  0.15997557006E+04 0.  0.
        2    1    3    3  502    0 -0.10268285064E+02  0.44225429510E+03 -0.79529003774E+03  0.91004425351E+03  0.25500000920E-02 0.  1.
       -2    1    3    3    0  502  0.10268285064E+02 -0.44225429510E+03  0.55277046766E+03  0.70798975215E+03  0.25500000920E-02 0. -1.
</event>
<event>
 5   0  0.5264308E-04  0.1587497E+04  0.7818609E-02  0.8828266E-01
       -2   -1    0    0    0  501  0.00000000000E+00  0.00000000000E+00  0.87792190990E+03  0.87792190990E+03  0.25500000920E-02 0. -1.
        2   -1    0    0  501    0  0.00000000000E+00  0.00000000000E+00 -0.71764586643E+03  0.71764586643E+03  0.25500000920E-02 0.  1.
    10030    2    1    2    0    0  0.00000000000E+00  0.00000000000E+00  0.16027604347E+03  0.15955677763E+04  0.15874974390E+04 0.  0.
        3    1    3    3  502    0 -0.70164447534E+03  0.31758954327E+03  0.27312699719E+03  0.81716978320E+03  0.10100000352E+00 0. -1.
       -3    1    3    3    0  502  0.70164447534E+03 -0.31758954327E+03 -0.11285095372E+03  0.77839799314E+03  0.10100000352E+00 0.  1.
</event>
<event>
 5   0  0.2649086E-04  0.1613489E+04  0.7818609E-02  0.8812304E-01
        1   -1    0    0  501    0  0.00000000000E+00  0.00000000000E+00  0.98443329055E+03  0.98443329056E+03  0.50400001928E-02 0.  1.
       -1   -1    0    0    0  501  0.00000000000E+00  0.00000000000E+00 -0.66112791179E+03  0.66112791181E+03  0.50400001928E-02 0. -1.
    10030    2    1    2    0    0  0.00000000000E+00  0.00000000000E+00  0.32330537876E+03  0.16455612024E+04  0.16134885506E+04 0.  0.
        2    1    3    3  502    0  0.77627993155E+03  0.21951488237E+03  0.16802264035E+03  0.82403211308E+03  0.25500000920E-02 0.  1.
       -2    1    3    3    0  502 -0.77627993155E+03 -0.21951488237E+03  0.15528273841E+03  0.82152908929E+03  0.25500000920E-02 0. -1.
</event>
<event>
 5   0  0.5131239E-04  0.1552776E+04  0.7818609E-02  0.8850097E-01
       -2   -1    0    0    0  501  0.00000000000E+00  0.00000000000E+00  0.11580891400E+04  0.11580891400E+04  0.25500000920E-02 0.  1.
        2   -1    0    0  501    0  0.00000000000E+00  0.00000000000E+00 -0.52049372426E+03  0.52049372426E+03  0.25500000920E-02 0. -1.
    10030    2    1    2    0    0  0.00000000000E+00  0.00000000000E+00  0.63759541577E+03  0.16785828643E+04  0.15527757462E+04 0.  0.
        1    1    3    3  502    0  0.63430124574E+03  0.22072159376E+03 -0.10227624673E+03  0.67935007395E+03  0.50400001928E-02 0. -1.
       -1    1    3    3    0  502 -0.63430124574E+03 -0.22072159376E+03  0.73987166250E+03  0.99923279034E+03  0.50400001928E-02 0.  1.
</event>
<event>
 5   0  0.2796994E-04  0.1595269E+04  0.7818609E-02  0.8823460E-01
       -1   -1    0    0    0  501  0.00000000000E+00  0.00000000000E+00  0.73196333626E+03  0.73196333628E+03  0.50400001928E-02 0.  1.
        1   -1    0    0  501    0  0.00000000000E+00  0.00000000000E+00 -0.86919767504E+03  0.86919767505E+03  0.50400001928E-02 0. -1.
    10030    2    1    2    0    0  0.00000000000E+00  0.00000000000E+00 -0.13723433878E+03  0.16011610113E+04  0.15952690433E+04 0.  0.
        3    1    3    3  502    0  0.26916465731E+03 -0.53809485202E+03 -0.59421637494E+03  0.84562922901E+03  0.10100000352E+00 0. -1.
       -3    1    3    3    0  502 -0.26916465731E+03  0.53809485202E+03  0.45698203617E+03  0.75553178232E+03  0.10100000352E+00 0.  1.
</event>
<event>
 5   0  0.2796994E-04  0.1606302E+04  0.7818609E-02  0.8816686E-01
        1   -1    0    0  501    0  0.00000000000E+00  0.00000000000E+00  0.15247043349E+04  0.15247043349E+04  0.50400001928E-02 0. -1.
       -1   -1    0    0    0  501  0.00000000000E+00  0.00000000000E+00 -0.42306654952E+03  0.42306654955E+03  0.50400001928E-02 0.  1.
    10030    2    1    2    0    0  0.00000000000E+00  0.00000000000E+00  0.11016377854E+04  0.19477708845E+04  0.16063018422E+04 0.  0.
        3    1    3    3  502    0  0.56171376797E+03  0.45885590067E+03  0.13255705926E+03  0.73732115042E+03  0.10100000352E+00 0.  1.
       -3    1    3    3    0  502 -0.56171376797E+03 -0.45885590067E+03  0.96908072612E+03  0.12104497340E+04  0.10100000352E+00 0. -1.
</event>
<event>
 5   0  0.2763895E-04  0.1582375E+04  0.7818609E-02  0.8831450E-01
        1   -1    0    0  501    0  0.00000000000E+00  0.00000000000E+00  0.53873685052E+03  0.53873685055E+03  0.50400001928E-02 0. -1.
       -1   -1    0    0    0  501  0.00000000000E+00  0.00000000000E+00 -0.11619353370E+04  0.11619353370E+04  0.50400001928E-02 0.  1.
    10030    2    1    2    0    0  0.00000000000E+00  0.00000000000E+00 -0.62319848648E+03  0.17006721876E+04  0.15823746510E+04 0.  0.
        4    1    3    3  502    0  0.46998246356E+03  0.51078468702E+03 -0.71971255299E+03  0.99988613571E+03  0.12699999809E+01 0.  1.
       -4    1    3    3    0  502 -0.46998246356E+03 -0.51078468702E+03  0.96514066513E+02  0.70078605186E+03  0.12699999809E+01 0. -1.
</event>
<event>
 5   0  0.5083831E-04  0.1600344E+04  0.7818609E-02  0.8820337E-01
        2   -1    0    0  501    0  0.00000000000E+00  0.00000000000E+00  0.12878224339E+04  0.12878224339E+04  0.25500000920E-02 0. -1.
       -2   -1    0    0    0  501  0.00000000000E+00  0.00000000000E+00 -0.49717658382E+03  0.49717658383E+03  0.25500000920E-02 0.  1.
    10030    2    1    2    0    0  0.00000000000E+00  0.00000000000E+00  0.79064585005E+03  0.17849990177E+04  0.16003439109E+04 0.  0.
        4    1    3    3  502    0 -0.13939860982E+03 -0.25089833923E+03 -0.43778174604E+03  0.52348487954E+03  0.12699999809E+01 0.  1.
       -4    1    3    3    0  502  0.13939860982E+03  0.25089833923E+03  0.12284275961E+04  0.12615141382E+04  0.12699999809E+01 0. -1.
</event>
<event>
 5   0  0.2796994E-04  0.1589381E+04  0.7818609E-02  0.8827098E-01
        1   -1    0    0  501    0  0.00000000000E+00  0.00000000000E+00  0.20381084501E+04  0.20381084501E+04  0.50400001928E-02 0.  1.
       -1   -1    0    0    0  501  0.00000000000E+00  0.00000000000E+00 -0.30986240437E+03  0.30986240441E+03  0.50400001928E-02 0. -1.
    10030    2    1    2    0    0  0.00000000000E+00  0.00000000000E+00  0.17282460457E+04  0.23479708545E+04  0.15893812441E+04 0.  0.
        3    1    3    3  502    0  0.41267879315E+02  0.71519103859E+02  0.20317540816E+04  0.20334312574E+04  0.10100000352E+00 0.  1.
       -3    1    3    3    0  502 -0.41267879315E+02 -0.71519103859E+02 -0.30350803592E+03  0.31453959711E+03  0.10100000352E+00 0. -1.
</event>
<event>
 5   0  0.5381164E-04  0.1634782E+04  0.7818609E-02  0.8799460E-01
       -2   -1    0    0    0  501  0.00000000000E+00  0.00000000000E+00  0.35683872148E+03  0.35683872149E+03  0.25500000920E-02 0.  1.
        2   -1    0    0  501    0  0.00000000000E+00  0.00000000000E+00 -0.18723530538E+04  0.18723530538E+04  0.25500000920E-02 0. -1.
    10030    2    1    2    0    0  0.00000000000E+00  0.00000000000E+00 -0.15155143323E+04  0.22291917753E+04  0.16347820282E+04 0.  0.
        5    1    3    3  502    0  0.28032310522E+03  0.52707562791E+03  0.35629010434E+01  0.59701301922E+03  0.46999998093E+01 0.  1.
       -5    1    3    3    0  502 -0.28032310522E+03 -0.52707562791E+03 -0.15190772334E+04  0.16321787561E+04  0.46999998093E+01 0. -1.
</event>
<event>
 5   0  0.2796994E-04  0.1510535E+04  0.7818609E-02  0.8877478E-01
        1   -1    0    0  501    0  0.00000000000E+00  0.00000000000E+00  0.59155757662E+03  0.59155757664E+03  0.50400001928E-02 0. -1.
       -1   -1    0    0    0  501  0.00000000000E+00  0.00000000000E+00 -0.96428254143E+03  0.96428254145E+03  0.50400001928E-02 0.  1.
    10030    2    1    2    0    0  0.00000000000E+00  0.00000000000E+00 -0.37272496482E+03  0.15558401181E+04  0.15105345324E+04 0.  0.
        3    1    3    3  502    0  0.35638669299E+03  0.46924561371E+03  0.30027596329E+03  0.66133848010E+03  0.10100000352E+00 0. -1.
       -3    1    3    3    0  502 -0.35638669299E+03 -0.46924561371E+03 -0.67300092811E+03  0.89450163799E+03  0.10100000352E+00 0.  1.
</event>
<event>
 5   0  0.5131239E-04  0.1639328E+04  0.7818609E-02  0.8796745E-01
        2   -1    0    0  501    0  0.00000000000E+00  0.00000000000E+00  0.21486406039E+04  0.21486406039E+04  0.25500000920E-02 0.  1.
       -2   -1    0    0    0  501  0.00000000000E+00  0.00000000000E+00 -0.31268553111E+03  0.31268553112E+03  0.25500000920E-02 0. -1.
    10030    2    1    2    0    0  0.00000000000E+00  0.00000000000E+00  0.18359550728E+04  0.24613261350E+04  0.16393277017E+04 0.  0.
        1    1    3    3  502    0 -0.94180718587E+02 -0.59178141915E+03  0.17576664337E+04  0.18570047248E+04  0.50400001928E-02 0.  1.
       -1    1    3    3    0  502  0.94180718587E+02  0.59178141915E+03  0.78288639104E+02  0.60432141022E+03  0.50400001928E-02 0. -1.
</event>
<event>
 5   0  0.2796994E-04  0.1646679E+04  0.7818609E-02  0.8792374E-01
        1   -1    0    0  501    0  0.00000000000E+00  0.00000000000E+00  0.12225789051E+04  0.12225789051E+04  0.50400001928E-02 0.  1.
       -1   -1    0    0    0  501  0.00000000000E+00  0.00000000000E+00 -0.55447379103E+03  0.55447379105E+03  0.50400001928E-02 0. -1.
    10030    2    1    2    0    0  0.00000000000E+00  0.00000000000E+00  0.66810511408E+03  0.17770526962E+04  0.16466790342E+04 0.  0.
        3    1    3    3  502    0 -0.52705843503E+03  0.20749471587E+03 -0.31078718239E+03  0.64609080940E+03  0.10100000352E+00 0. -1.
       -3    1    3    3    0  502  0.52705843503E+03 -0.20749471587E+03  0.97889229648E+03  0.11309618868E+04  0.10100000352E+00 0.  1.
</event>
<event>
 5   0  0.5381164E-04  0.1614433E+04  0.7818609E-02  0.8811730E-01
        2   -1    0    0  501    0  0.00000000000E+00  0.00000000000E+00  0.18154732461E+04  0.18154732461E+04  0.25500000920E-02 0.  1.
       -2   -1    0    0    0  501  0.00000000000E+00  0.00000000000E+00 -0.35891391355E+03  0.35891391356E+03  0.25500000920E-02 0. -1.
    10030    2    1    2    0    0  0.00000000000E+00  0.00000000000E+00  0.14565593326E+04  0.21743871597E+04  0.16144331609E+04 0.  0.
        5    1    3    3  502    0  0.75354120262E+03 -0.11261872621E+03  0.10873317959E+04  0.13277122602E+04  0.46999998093E+01 0.  1.
       -5    1    3    3    0  502 -0.75354120262E+03  0.11261872621E+03  0.36922753665E+03  0.84667489945E+03  0.46999998093E+01 0. -1.
</event>
<event>
 5   0  0.5264308E-04  0.1570414E+04  0.7818609E-02  0.8838933E-01
        2   -1    0    0  501    0  0.00000000000E+00  0.00000000000E+00  0.21007062057E+04  0.21007062057E+04  0.25500000920E-02 0.  1.
       -2   -1    0    0    0  501  0.00000000000E+00  0.00000000000E+00 -0.29349648588E+03  0.29349648589E+03  0.25500000920E-02 0. -1.
    10030    2    1    2    0    0  0.00000000000E+00  0.00000000000E+00  0.18072097198E+04  0.23942026916E+04  0.15704138171E+04 0.  0.
        3    1    3    3  502    0  0.28731219262E+02 -0.15535537027E+03 -0.26901404240E+03  0.31197650431E+03  0.10100000352E+00 0. -1.
       -3    1    3    3    0  502 -0.28731219262E+02  0.15535537027E+03  0.20762237622E+04  0.20822261873E+04  0.10100000352E+00 0.  1.
</event>
<event>
 5   0  0.5264308E-04  0.1600530E+04  0.7818609E-02  0.8820223E-01
       -2   -1    0    0    0  501  0.00000000000E+00  0.00000000000E+00  0.42714433981E+03  0.42714433982E+03  0.25500000920E-02 0.  1.
        2   -1    0    0  501    0  0.00000000000E+00  0.00000000000E+00 -0.14993145696E+04  0.14993145696E+04  0.25500000920E-02 0. -1.
    10030    2    1    2    0    0  0.00000000000E+00  0.00000000000E+00 -0.10721702298E+04  0.19264589094E+04  0.16005295774E+04 0.  0.
        3    1    3    3  502    0  0.57135217917E+03  0.47892846711E+03 -0.18597747538E+03  0.76837713449E+03  0.10100000352E+00 0.  1.
       -3    1    3    3    0  502 -0.57135217917E+03 -0.47892846711E+03 -0.88619275442E+03  0.11580817749E+04  0.10100000352E+00 0. -1.
</event>
<event>
 5   0  0.2689675E-04  0.1604004E+04  0.7818609E-02  0.8818092E-01
       -1   -1    0    0    0  501  0.00000000000E+00  0.00000000000E+00  0.19436100293E+04  0.19436100293E+04  0.50400001928E-02 0.  1.
        1   -1    0    0  501    0  0.00000000000E+00  0.00000000000E+00 -0.33093440311E+03  0.33093440315E+03  0.50400001928E-02 0. -1.
    10030    2    1    2    0    0  0.00000000000E+00  0.00000000000E+00  0.16126756262E+04  0.22745444325E+04  0.16040042706E+04 0.  0.
        1    1    3    3  502    0 -0.61309428040E+03 -0.47656646119E+03  0.10906798148E+04  0.13388736487E+04  0.50400001928E-02 0.  1.
       -1    1    3    3    0  502  0.61309428040E+03  0.47656646119E+03  0.52199581141E+03  0.93567078384E+03  0.50400001928E-02 0. -1.
</event>
<event>
 5   0  0.2763895E-04  0.1578943E+04  0.7818609E-02  0.8833590E-01
       -1   -1    0    0    0  501  0.00000000000E+00  0.00000000000E+00  0.11719771353E+04  0.11719771353E+04  0.50400001928E-02 0.  1.
        1   -1    0    0  501    0  0.00000000000E+00  0.00000000000E+00 -0.53180671059E+03  0.53180671062E+03  0.50400001928E-02 0. -1.
    10030    2    1    2    0    0  0.00000000000E+00  0.00000000000E+00  0.64017042474E+03  0.17037838460E+04  0.15789430709E+04 0.  0.
        4    1    3    3  502    0 -0.21152420475E+03 -0.69961011777E+03 -0.19520748218E+01  0.73089139383E+03  0.12699999809E+01 0. -1.
       -4    1    3    3    0  502  0.21152420475E+03  0.69961011777E+03  0.64212249957E+03  0.97289245214E+03  0.12699999809E+01 0.  1.
</event>
<event>
 5   0  0.2689675E-04  0.1609339E+04  0.7818609E-02  0.8814831E-01
       -1   -1    0    0    0  501  0.00000000000E+00  0.00000000000E+00  0.31586465807E+03  0.31586465811E+03  0.50400001928E-02 0.  1.
        1   -1    0    0  501    0  0.00000000000E+00  0.00000000000E+00 -0.20499067942E+04  0.20499067942E+04  0.50400001928E-02 0. -1.
    10030    2    1    2    0    0  0.00000000000E+00  0.00000000000E+00 -0.17340421361E+04  0.23657714523E+04  0.16093391298E+04 0.  0.
        1    1    3    3  502    0  0.42830824932E+03  0.62552769249E+03 -0.12635476729E+04  0.14735282733E+04  0.50400001928E-02 0.  1.
       -1    1    3    3    0  502 -0.42830824932E+03 -0.62552769249E+03 -0.47049446318E+03  0.89224317897E+03  0.50400001928E-02 0. -1.
</event>
<event>
 5   0  0.1908125E-04  0.1613739E+04  0.7818609E-02  0.8812152E-01
        3   -1    0    0  501    0  0.00000000000E+00  0.00000000000E+00  0.62661192505E+03  0.62661193319E+03  0.10100000352E+00 0. -1.
       -3   -1    0    0    0  501  0.00000000000E+00  0.00000000000E+00 -0.10389814047E+04  0.10389814096E+04  0.10100000352E+00 0.  1.
    10030    2    1    2    0    0  0.00000000000E+00  0.00000000000E+00 -0.41236947963E+03  0.16655933428E+04  0.16137387012E+04 0.  0.
        4    1    3    3  502    0 -0.61003944423E+03  0.24586767952E+03 -0.68857591831E+03  0.95222762380E+03  0.12699999809E+01 0.  1.
       -4    1    3    3    0  502  0.61003944423E+03 -0.24586767952E+03  0.27620643867E+03  0.71336571898E+03  0.12699999809E+01 0. -1.
</event>
<event>
 5   0  0.2730707E-04  0.1596475E+04  0.7818609E-02  0.8822716E-01
       -1   -1    0    0    0  501  0.00000000000E+00  0.00000000000E+00  0.10007074164E+04  0.10007074164E+04  0.50400001928E-02 0.  1.
        1   -1    0    0  501    0  0.00000000000E+00  0.00000000000E+00 -0.63673277458E+03  0.63673277460E+03  0.50400001928E-02 0. -1.
    10030    2    1    2    0    0  0.00000000000E+00  0.00000000000E+00  0.36397464180E+03  0.16374401910E+04  0.15964751295E+04 0.  0.
        5    1    3    3  502    0 -0.12934935867E+03 -0.32468231522E+03  0.91804466403E+03  0.98233291585E+03  0.46999998093E+01 0.  1.
       -5    1    3    3    0  502  0.12934935867E+03  0.32468231522E+03 -0.55407002223E+03  0.65510727514E+03  0.46999998093E+01 0. -1.
</event>
<event>
 5   0  0.2763895E-04  0.1592798E+04  0.7818609E-02  0.8824985E-01
        1   -1    0    0  501    0  0.00000000000E+00  0.00000000000E+00  0.75680381759E+03  0.75680381760E+03  0.50400001928E-02 0.  1.
       -1   -1    0    0    0  501  0.00000000000E+00  0.00000000000E+00 -0.83806604466E+03  0.83806604468E+03  0.50400001928E-02 0. -1.
    10030    2    1    2    0    0  0.00000000000E+00  0.00000000000E+00 -0.81262227077E+02  0.15948698623E+04  0.15927982697E+04 0.  0.
        4    1    3    3  502    0  0.68678685063E+03 -0.40181310854E+03 -0.74141291242E+02  0.79914235050E+03  0.12699999809E+01 0.  1.
       -4    1    3    3    0  502 -0.68678685063E+03  0.40181310854E+03 -0.71209358349E+01  0.79572751179E+03  0.12699999809E+01 0. -1.
</event>
<event>
 5   0  0.2649086E-04  0.1705749E+04  0.7818609E-02  0.8758092E-01
        1   -1    0    0  501    0  0.00000000000E+00  0.00000000000E+00  0.66058715779E+03  0.66058715781E+03  0.50400001928E-02 0.  1.
       -1   -1    0    0    0  501  0.00000000000E+00  0.00000000000E+00 -0.11011339606E+04  0.11011339606E+04  0.50400001928E-02 0. -1.
    10030    2    1    2    0    0  0.00000000000E+00  0.00000000000E+00 -0.44054680277E+03  0.17617211184E+04  0.17057490476E+04 0.  0.
        2    1    3    3  502    0  0.33280723959E+03 -0.49085512723E+03  0.41277955590E+03  0.72255544869E+03  0.25500000920E-02 0.  1.
       -2    1    3    3    0  502 -0.33280723959E+03  0.49085512723E+03 -0.85332635868E+03  0.10391656697E+04  0.25500000920E-02 0. -1.
</event>
<event>
 5   0  0.5315984E-04  0.1598894E+04  0.7818609E-02  0.8821228E-01
        2   -1    0    0  501    0  0.00000000000E+00  0.00000000000E+00  0.21159788822E+04  0.21159788822E+04  0.25500000920E-02 0. -1.
       -2   -1    0    0    0  501  0.00000000000E+00  0.00000000000E+00 -0.30204250535E+03  0.30204250536E+03  0.25500000920E-02 0.  1.
    10030    2    1    2    0    0  0.00000000000E+00  0.00000000000E+00  0.18139363769E+04  0.24180213876E+04  0.15988940714E+04 0.  0.
        2    1    3    3  502    0 -0.36768233008E+03  0.21864682758E+03  0.19283296043E+04  0.19752093038E+04  0.25500000920E-02 0. -1.
       -2    1    3    3    0  502  0.36768233008E+03 -0.21864682758E+03 -0.11439322740E+03  0.44281208378E+03  0.25500000920E-02 0.  1.
</event>
<event>
 5   0  0.2730707E-04  0.1575622E+04  0.7818609E-02  0.8835666E-01
        1   -1    0    0  501    0  0.00000000000E+00  0.00000000000E+00  0.17088044375E+04  0.17088044375E+04  0.50400001928E-02 0. -1.
       -1   -1    0    0    0  501  0.00000000000E+00  0.00000000000E+00 -0.36320490028E+03  0.36320490031E+03  0.50400001928E-02 0.  1.
    10030    2    1    2    0    0  0.00000000000E+00  0.00000000000E+00  0.13455995372E+04  0.20720093378E+04  0.15756219665E+04 0.  0.
        5    1    3    3  502    0 -0.24108612399E+03  0.40565316820E+03  0.15023684017E+04  0.15747412221E+04  0.46999998093E+01 0. -1.
       -5    1    3    3    0  502  0.24108612399E+03 -0.40565316820E+03 -0.15676886449E+03  0.49726811573E+03  0.46999998093E+01 0.  1.
</event>
<event>
 5   0  0.2796994E-04  0.1595479E+04  0.7818609E-02  0.8823330E-01
        1   -1    0    0  501    0  0.00000000000E+00  0.00000000000E+00  0.14153490500E+04  0.14153490501E+04  0.50400001928E-02 0. -1.
       -1   -1    0    0    0  501  0.00000000000E+00  0.00000000000E+00 -0.44963345749E+03  0.44963345752E+03  0.50400001928E-02 0.  1.
    10030    2    1    2    0    0  0.00000000000E+00  0.00000000000E+00  0.96571559256E+03  0.18649825076E+04  0.15954789713E+04 0.  0.
        3    1    3    3  502    0 -0.41827749528E+03  0.27394720239E+02  0.12762431500E+04  0.13433179526E+04  0.10100000352E+00 0. -1.
       -3    1    3    3    0  502  0.41827749528E+03 -0.27394720239E+02 -0.31052755744E+03  0.52166455494E+03  0.10100000352E+00 0.  1.
</event>
<event>
 5   0  0.5315984E-04  0.1600051E+04  0.7818609E-02  0.8820517E-01
       -2   -1    0    0    0  501  0.00000000000E+00  0.00000000000E+00  0.38785948155E+03  0.38785948156E+03  0.25500000920E-02 0.  1.
        2   -1    0    0  501    0  0.00000000000E+00  0.00000000000E+00 -0.16501863402E+04  0.16501863402E+04  0.25500000920E-02 0. -1.
    10030    2    1    2    0    0  0.00000000000E+00  0.00000000000E+00 -0.12623268586E+04  0.20380458217E+04  0.16000505222E+04 0.  0.
        2    1    3    3  502    0 -0.73884685466E+03 -0.30681312107E+03 -0.63547395116E+03  0.10216927662E+04  0.25500000920E-02 0.  1.
       -2    1    3    3    0  502  0.73884685466E+03  0.30681312107E+03 -0.62685290746E+03  0.10163530555E+04  0.25500000920E-02 0. -1.
</event>
<event>
 5   0  0.2649086E-04  0.1576266E+04  0.7818609E-02  0.8835263E-01
        1   -1    0    0  501    0  0.00000000000E+00  0.00000000000E+00  0.53163687850E+03  0.53163687852E+03  0.50400001928E-02 0.  1.
       -1   -1    0    0    0  501  0.00000000000E+00  0.00000000000E+00 -0.11683797307E+04  0.11683797307E+04  0.50400001928E-02 0. -1.
    10030    2    1    2    0    0  0.00000000000E+00  0.00000000000E+00 -0.63674285217E+03  0.17000166092E+04  0.15762661615E+04 0.  0.
        2    1    3    3  502    0  0.54743259906E+03 -0.36417116840E+03 -0.78705838377E+03  0.10255554543E+04  0.25500000920E-02 0. -1.
       -2    1    3    3    0  502 -0.54743259906E+03  0.36417116840E+03  0.15031553160E+03  0.67446115489E+03  0.25500000920E-02 0.  1.
</event>
<event>
 5   0  0.2730707E-04  0.1501055E+04  0.7818609E-02  0.8883751E-01
       -1   -1    0    0    0  501  0.00000000000E+00  0.00000000000E+00  0.32797888943E+03  0.32797888947E+03  0.50400001928E-02 0.  1.
        1   -1    0    0  501    0  0.00000000000E+00  0.00000000000E+00 -0.17174638868E+04  0.17174638868E+04  0.50400001928E-02 0. -1.
    10030    2    1    2    0    0  0.00000000000E+00  0.00000000000E+00 -0.13894849973E+04  0.20454427763E+04  0.15010554930E+04 0.  0.
        5    1    3    3  502    0  0.36651414828E+03  0.62660910216E+02 -0.15831057151E+04  0.16261933482E+04  0.46999998093E+01 0. -1.
       -5    1    3    3    0  502 -0.36651414828E+03 -0.62660910216E+02  0.19362071777E+03  0.41924942804E+03  0.46999998093E+01 0.  1.
</event>
<event>
 5   0  0.5131239E-04  0.1624061E+04  0.7818609E-02  0.8805901E-01
        2   -1    0    0  501    0  0.00000000000E+00  0.00000000000E+00  0.11666839819E+04  0.11666839819E+04  0.25500000920E-02 0.  1.
       -2   -1    0    0    0  501  0.00000000000E+00  0.00000000000E+00 -0.56518631184E+03  0.56518631185E+03  0.25500000920E-02 0. -1.
    10030    2    1    2    0    0  0.00000000000E+00  0.00000000000E+00  0.60149767008E+03  0.17318702938E+04  0.16240613496E+04 0.  0.
        1    1    3    3  502    0 -0.18496946619E+03 -0.78878739415E+03  0.24239364908E+03  0.84566774665E+03  0.50400001928E-02 0. -1.
       -1    1    3    3    0  502  0.18496946619E+03  0.78878739415E+03  0.35910402100E+03  0.88620254712E+03  0.50400001928E-02 0.  1.
</event>
<event>
 5   0  0.5315984E-04  0.1614870E+04  0.7818609E-02  0.8811465E-01
       -2   -1    0    0    0  501  0.00000000000E+00  0.00000000000E+00  0.56844798465E+03  0.56844798466E+03  0.25500000920E-02 0. -1.
        2   -1    0    0  501    0  0.00000000000E+00  0.00000000000E+00 -0.11468970080E+04  0.11468970080E+04  0.25500000920E-02 0.  1.
    10030    2    1    2    0    0  0.00000000000E+00  0.00000000000E+00 -0.57844902331E+03  0.17153449926E+04  0.16148700168E+04 0.  0.
        2    1    3    3  502    0 -0.44698721262E+03 -0.33283873468E+03 -0.90984758936E+03  0.10669591498E+04  0.25500000920E-02 0.  1.
       -2    1    3    3    0  502  0.44698721262E+03  0.33283873468E+03  0.33139856605E+03  0.64838584279E+03  0.25500000920E-02 0. -1.
</event>
<event>
 5   0  0.5083831E-04  0.1589661E+04  0.7818609E-02  0.8826925E-01
       -2   -1    0    0    0  501  0.00000000000E+00  0.00000000000E+00  0.54840317963E+03  0.54840317964E+03  0.25500000920E-02 0.  1.
        2   -1    0    0  501    0  0.00000000000E+00  0.00000000000E+00 -0.11519906764E+04  0.11519906764E+04  0.25500000920E-02 0. -1.
    10030    2    1    2    0    0  0.00000000000E+00  0.00000000000E+00 -0.60358749679E+03  0.17003938561E+04  0.15896607813E+04 0.  0.
        4    1    3    3  502    0  0.12142854229E+03 -0.71511403661E+03 -0.64942572105E+03  0.97359558149E+03  0.12699999809E+01 0. -1.
       -4    1    3    3    0  502 -0.12142854229E+03  0.71511403661E+03  0.45838224252E+02  0.72679827458E+03  0.12699999809E+01 0.  1.
</event>
<event>
 5   0  0.5381164E-04  0.1572191E+04  0.7818609E-02  0.8837817E-01
        2   -1    0    0  501    0  0.00000000000E+00  0.00000000000E+00  0.14926969896E+04  0.14926969896E+04  0.25500000920E-02 0. -1.
       -2   -1    0    0    0  501  0.00000000000E+00  0.00000000000E+00 -0.41397969112E+03  0.41397969113E+03  0.25500000920E-02 0.  1.
    10030    2    1    2    0    0  0.00000000000E+00  0.00000000000E+00  0.10787172984E+04  0.19066766807E+04  0.15721911318E+04 0.  0.
        5    1    3    3  502    0  0.43363155883E+03 -0.19494803015E+02 -0.25544019428E+03  0.50367465591E+03  0.46999998093E+01 0.  1.
       -5    1    3    3    0  502 -0.43363155883E+03  0.19494803015E+02  0.13341574927E+04  0.14030020248E+04  0.46999998093E+01 0. -1.
</event>
<event>
 5   0  0.5083831E-04  0.1577019E+04  0.7818609E-02  0.8834792E-01
        2   -1    0    0  501    0  0.00000000000E+00  0.00000000000E+00  0.57676917032E+03  0.57676917033E+03  0.25500000920E-02 0. -1.
       -2   -1    0    0    0  501  0.00000000000E+00  0.00000000000E+00 -0.10779831617E+04  0.10779831617E+04  0.25500000920E-02 0.  1.
    10030    2    1    2    0    0  0.00000000000E+00  0.00000000000E+00 -0.50121399140E+03  0.16547523321E+04  0.15770192818E+04 0.  0.
        4    1    3    3  502    0 -0.58281680820E+03 -0.50855266042E+03 -0.41127056740E+03  0.87604014340E+03  0.12699999809E+01 0. -1.
       -4    1    3    3    0  502  0.58281680820E+03  0.50855266042E+03 -0.89943423997E+02  0.77871218865E+03  0.12699999809E+01 0.  1.
</event>
<event>
 5   0  0.5131239E-04  0.1607461E+04  0.7818609E-02  0.8815978E-01
       -2   -1    0    0    0  501  0.00000000000E+00  0.00000000000E+00  0.78858587164E+03  0.78858587165E+03  0.25500000920E-02 0. -1.
        2   -1    0    0  501    0  0.00000000000E+00  0.00000000000E+00 -0.81916580056E+03  0.81916580056E+03  0.25500000920E-02 0.  1.
    10030    2    1    2    0    0  0.00000000000E+00  0.00000000000E+00 -0.30579928912E+02  0.16077516722E+04  0.16074608261E+04 0.  0.
        1    1    3    3  502    0 -0.10395043156E+03 -0.48475570811E+03 -0.64800918937E+03  0.81591034943E+03  0.50400001928E-02 0.  1.
       -1    1    3    3    0  502  0.10395043156E+03  0.48475570811E+03  0.61742926046E+03  0.79184132278E+03  0.50400001928E-02 0. -1.
</event>
<event>
 5   0  0.2649086E-04  0.1661508E+04  0.7818609E-02  0.8783627E-01
        1   -1    0    0  501    0  0.00000000000E+00  0.00000000000E+00  0.75622808003E+03  0.75622808004E+03  0.50400001928E-02 0. -1.
       -1   -1    0    0    0  501  0.00000000000E+00  0.00000000000E+00 -0.91262454042E+03  0.91262454043E+03  0.50400001928E-02 0.  1.
    10030    2    1    2    0    0  0.00000000000E+00  0.00000000000E+00 -0.15639646039E+03  0.16688526205E+04  0.16615081149E+04 0.  0.
        2    1    3    3  502    0  0.70705904105E+03 -0.62592885866E+02 -0.51173328077E+03  0.87505503115E+03  0.25500000920E-02 0.  1.
       -2    1    3    3    0  502 -0.70705904105E+03  0.62592885866E+02  0.35533682038E+03  0.79379758932E+03  0.25500000920E-02 0. -1.
</event>
<event>
 5   0  0.5315984E-04  0.1610176E+04  0.7818609E-02  0.8814321E-01
        2   -1    0    0  501    0  0.00000000000E+00  0.00000000000E+00  0.88925260680E+03  0.88925260680E+03  0.25500000920E-02 0. -1.
       -2   -1    0    0    0  501  0.00000000000E+00  0.00000000000E+00 -0.72888914936E+03  0.72888914937E+03  0.25500000920E-02 0.  1.
    10030    2    1    2    0    0  0.00000000000E+00  0.00000000000E+00  0.16036345743E+03  0.16181417562E+04  0.16101758614E+04 0.  0.
        2    1    3    3  502    0 -0.16098442069E+03 -0.65109485215E+03 -0.36735962766E+03  0.76471797824E+03  0.25500000920E-02 0.  1.
       -2    1    3    3    0  502  0.16098442069E+03  0.65109485215E+03  0.52772308509E+03  0.85342377793E+03  0.25500000920E-02 0. -1.
</event>
<event>
 5   0  0.5264308E-04  0.1591185E+04  0.7818609E-02  0.8825982E-01
       -2   -1    0    0    0  501  0.00000000000E+00  0.00000000000E+00  0.19677980113E+03  0.19677980114E+03  0.25500000920E-02 0.  1.
        2   -1    0    0  501    0  0.00000000000E+00  0.00000000000E+00 -0.32166263432E+04  0.32166263432E+04  0.25500000920E-02 0. -1.
    10030    2    1    2    0    0  0.00000000000E+00  0.00000000000E+00 -0.30198465421E+04  0.34134061443E+04  0.15911845803E+04 0.  0.
        3    1    3    3  502    0 -0.24485944092E+03  0.52604390740E+03 -0.26776063332E+04  0.27397543730E+04  0.10100000352E+00 0. -1.
       -3    1    3    3    0  502  0.24485944092E+03 -0.52604390740E+03 -0.34224020886E+03  0.67365177138E+03  0.10100000352E+00 0.  1.
</event>
<event>
 5   0  0.1908125E-04  0.1600069E+04  0.7818609E-02  0.8820506E-01
        4   -1    0    0  501    0  0.00000000000E+00  0.00000000000E+00  0.76301307450E+03  0.76301413143E+03  0.12699999809E+01 0.  1.
       -4   -1    0    0    0  501  0.00000000000E+00  0.00000000000E+00 -0.83885024478E+03  0.83885120615E+03  0.12699999809E+01 0. -1.
    10030    2    1    2    0    0  0.00000000000E+00  0.00000000000E+00 -0.75837170275E+02  0.16018653376E+04  0.16000691496E+04 0.  0.
        4    1    3    3  502    0  0.15871594856E+02 -0.61290358374E+02 -0.83633833900E+03  0.83873228491E+03  0.12699999809E+01 0. -1.
       -4    1    3    3    0  502 -0.15871594856E+02  0.61290358374E+02  0.76050116873E+03  0.76313305268E+03  0.12699999809E+01 0.  1.
</event>
<event>
 5   0  0.5131239E-04  0.1540123E+04  0.7818609E-02  0.8858201E-01
        2   -1    0    0  501    0  0.00000000000E+00  0.00000000000E+00  0.76975567958E+03  0.76975567959E+03  0.25500000920E-02 0. -1.
       -2   -1    0    0    0  501  0.00000000000E+00  0.00000000000E+00 -0.77036773092E+03  0.77036773092E+03  0.25500000920E-02 0.  1.
    10030    2    1    2    0    0  0.00000000000E+00  0.00000000000E+00 -0.61205133199E+00  0.15401234105E+04  0.15401232889E+04 0.  0.
        1    1    3    3  502    0  0.40903979136E+03 -0.13947629018E+03  0.63705400911E+03  0.76980841577E+03  0.50400001928E-02 0. -1.
       -1    1    3    3    0  502 -0.40903979136E+03  0.13947629018E+03 -0.63766606045E+03  0.77031499473E+03  0.50400001928E-02 0.  1.
</event>
<event>
 5   0  0.2689675E-04  0.1604626E+04  0.7818609E-02  0.8817711E-01
        1   -1    0    0  501    0  0.00000000000E+00  0.00000000000E+00  0.11766788496E+04  0.11766788496E+04  0.50400001928E-02 0.  1.
       -1   -1    0    0    0  501  0.00000000000E+00  0.00000000000E+00 -0.54705353267E+03  0.54705353269E+03  0.50400001928E-02 0. -1.
    10030    2    1    2    0    0  0.00000000000E+00  0.00000000000E+00  0.62962531693E+03  0.17237323823E+04  0.16046262138E+04 0.  0.
        1    1    3    3  502    0  0.22965235582E+03  0.69280519396E+03  0.67268832574E+03  0.99258693571E+03  0.50400001928E-02 0.  1.
       -1    1    3    3    0  502 -0.22965235582E+03 -0.69280519396E+03 -0.43063008815E+02  0.73114544659E+03  0.50400001928E-02 0. -1.
</event>
<event>
 5   0  0.5315984E-04  0.1590239E+04  0.7818609E-02  0.8826567E-01
        2   -1    0    0  501    0  0.00000000000E+00  0.00000000000E+00  0.11444942052E+04  0.11444942052E+04  0.25500000920E-02 0.  1.
       -2   -1    0    0    0  501  0.00000000000E+00  0.00000000000E+00 -0.55239664393E+03  0.55239664393E+03  0.25500000920E-02 0. -1.
    10030    2    1    2    0    0  0.00000000000E+00  0.00000000000E+00  0.59209756130E+03  0.16968908492E+04  0.15902386714E+04 0.  0.
        2    1    3    3  502    0  0.38564636275E+03  0.69528052465E+03  0.30538990682E+03  0.85170483165E+03  0.25500000920E-02 0.  1.
       -2    1    3    3    0  502 -0.38564636275E+03 -0.69528052465E+03  0.28670765448E+03  0.84518601751E+03  0.25500000920E-02 0. -1.
</event>
<event>
 5   0  0.2730707E-04  0.1616544E+04  0.7818609E-02  0.8810449E-01
        1   -1    0    0  501    0  0.00000000000E+00  0.00000000000E+00  0.19717036524E+04  0.19717036524E+04  0.50400001928E-02 0.  1.
       -1   -1    0    0    0  501  0.00000000000E+00  0.00000000000E+00 -0.33133958417E+03  0.33133958421E+03  0.50400001928E-02 0. -1.
    10030    2    1    2    0    0  0.00000000000E+00  0.00000000000E+00  0.16403640683E+04  0.23030432366E+04  0.16165438050E+04 0.  0.
        5    1    3    3  502    0  0.12791669682E+03  0.30083070589E+03  0.18733017458E+04  0.19016159748E+04  0.46999998093E+01 0.  1.
       -5    1    3    3    0  502 -0.12791669682E+03 -0.30083070589E+03 -0.23293767753E+03  0.40142726183E+03  0.46999998093E+01 0. -1.
</event>
<event>
 5   0  0.5381164E-04  0.1612894E+04  0.7818609E-02  0.8812666E-01
       -2   -1    0    0    0  501  0.00000000000E+00  0.00000000000E+00  0.36079318910E+03  0.36079318911E+03  0.25500000920E-02 0.  1.
        2   -1    0    0  501    0  0.00000000000E+00  0.00000000000E+00 -0.18025752149E+04  0.18025752149E+04  0.25500000920E-02 0. -1.
    10030    2    1    2    0    0  0.00000000000E+00  0.00000000000E+00 -0.14417820258E+04  0.21633684040E+04  0.16128941198E+04 0.  0.
        5    1    3    3  502    0 -0.45889472877E+03 -0.66308376871E+03 -0.73213823938E+03  0.10891799429E+04  0.46999998093E+01 0.  1.
       -5    1    3    3    0  502  0.45889472877E+03  0.66308376871E+03 -0.70964378643E+03  0.10741884611E+04  0.46999998093E+01 0. -1.
</event>
<event>
 5   0  0.2763895E-04  0.1598882E+04  0.7818609E-02  0.8821235E-01
       -1   -1    0    0    0  501  0.00000000000E+00  0.00000000000E+00  0.35301621228E+03  0.35301621231E+03  0.50400001928E-02 0. -1.
        1   -1    0    0  501    0  0.00000000000E+00  0.00000000000E+00 -0.18104142704E+04  0.18104142704E+04  0.50400001928E-02 0.  1.
    10030    2    1    2    0    0  0.00000000000E+00  0.00000000000E+00 -0.14573980581E+04  0.21634304827E+04  0.15988815947E+04 0.  0.
        4    1    3    3  502    0  0.74035494695E+02 -0.26537845451E+03  0.28674690882E+03  0.39765862396E+03  0.12699999809E+01 0. -1.
       -4    1    3    3    0  502 -0.74035494695E+02  0.26537845451E+03 -0.17441449669E+04  0.17657718588E+04  0.12699999809E+01 0.  1.
</event>
<event>
 5   0  0.5083831E-04  0.1616569E+04  0.7818609E-02  0.8810433E-01
        2   -1    0    0  501    0  0.00000000000E+00  0.00000000000E+00  0.64816600679E+03  0.64816600680E+03  0.25500000920E-02 0.  1.
       -2   -1    0    0    0  501  0.00000000000E+00  0.00000000000E+00 -0.10079581099E+04  0.10079581099E+04  0.25500000920E-02 0. -1.
    10030    2    1    2    0    0  0.00000000000E+00  0.00000000000E+00 -0.35979210315E+03  0.16561241167E+04  0.16165694333E+04 0.  0.
        4    1    3    3  502    0 -0.25517860018E+03 -0.26112427160E+03 -0.91866524819E+03  0.98855928216E+03  0.12699999809E+01 0. -1.
       -4    1    3    3    0  502  0.25517860018E+03  0.26112427160E+03  0.55887314505E+03  0.66756483458E+03  0.12699999809E+01 0.  1.
</event>
<event>
 5   0  0.2689675E-04  0.1628810E+04  0.7818609E-02  0.8803042E-01
        1   -1    0    0  501    0  0.00000000000E+00  0.00000000000E+00  0.12195632729E+04  0.12195632729E+04  0.50400001928E-02 0. -1.
       -1   -1    0    0    0  501  0.00000000000E+00  0.00000000000E+00 -0.54384640217E+03  0.54384640220E+03  0.50400001928E-02 0.  1.
    10030    2    1    2    0    0  0.00000000000E+00  0.00000000000E+00  0.67571687076E+03  0.17634096751E+04  0.16288095017E+04 0.  0.
        1    1    3    3  502    0  0.38226794463E+02  0.71856984943E+03  0.75075526896E+03  0.10399218193E+04  0.50400001928E-02 0.  1.
       -1    1    3    3    0  502 -0.38226794463E+02 -0.71856984943E+03 -0.75038398206E+02  0.72348785585E+03  0.50400001928E-02 0. -1.
</event>
<event>
 5   0  0.5131239E-04  0.1600358E+04  0.7818609E-02  0.8820328E-01
       -2   -1    0    0    0  501  0.00000000000E+00  0.00000000000E+00  0.37024134248E+03  0.37024134249E+03  0.25500000920E-02 0.  1.
        2   -1    0    0  501    0  0.00000000000E+00  0.00000000000E+00 -0.17293757820E+04  0.17293757820E+04  0.25500000920E-02 0. -1.
    10030    2    1    2    0    0  0.00000000000E+00  0.00000000000E+00 -0.13591344395E+04  0.20996171245E+04  0.16003579740E+04 0.  0.
        1    1    3    3  502    0  0.17709483151E+03 -0.54921799940E+03  0.47697521114E+02  0.57903198854E+03  0.50400001928E-02 0.  1.
       -1    1    3    3    0  502 -0.17709483151E+03  0.54921799940E+03 -0.14068319607E+04  0.15205851360E+04  0.50400001928E-02 0. -1.
</event>
<event>
 5   0  0.2763895E-04  0.1595713E+04  0.7818609E-02  0.8823186E-01
        1   -1    0    0  501    0  0.00000000000E+00  0.00000000000E+00  0.74059245226E+03  0.74059245227E+03  0.50400001928E-02 0. -1.
       -1   -1    0    0    0  501  0.00000000000E+00  0.00000000000E+00 -0.85954853078E+03  0.85954853079E+03  0.50400001928E-02 0.  1.
    10030    2    1    2    0    0  0.00000000000E+00  0.00000000000E+00 -0.11895607852E+03  0.16001409831E+04  0.15957132001E+04 0.  0.
        4    1    3    3  502    0 -0.26847679116E+03 -0.12323492381E+03 -0.80268700659E+03  0.85532138831E+03  0.12699999809E+01 0.  1.
       -4    1    3    3    0  502  0.26847679116E+03  0.12323492381E+03  0.68373092807E+03  0.74481959476E+03  0.12699999809E+01 0. -1.
</event>
<event>
 5   0  0.5264308E-04  0.1596329E+04  0.7818609E-02  0.8822807E-01
        2   -1    0    0  501    0  0.00000000000E+00  0.00000000000E+00  0.84089436193E+03  0.84089436193E+03  0.25500000920E-02 0. -1.
       -2   -1    0    0    0  501  0.00000000000E+00  0.00000000000E+00 -0.75760563045E+03  0.75760563046E+03  0.25500000920E-02 0.  1.
    10030    2    1    2    0    0  0.00000000000E+00  0.00000000000E+00  0.83288731475E+02  0.15984999924E+04  0.15963286669E+04 0.  0.
        3    1    3    3  502    0 -0.11464557412E+03 -0.38047118372E+03 -0.65151417925E+03  0.76313345181E+03  0.10100000352E+00 0.  1.
       -3    1    3    3    0  502  0.11464557412E+03  0.38047118372E+03  0.73480291073E+03  0.83536654058E+03  0.10100000352E+00 0. -1.
</event>
<event>
 5   0  0.2796994E-04  0.1602081E+04  0.7818609E-02  0.8819270E-01
        1   -1    0    0  501    0  0.00000000000E+00  0.00000000000E+00  0.22007568590E+04  0.22007568590E+04  0.50400001928E-02 0.  1.
       -1   -1    0    0    0  501  0.00000000000E+00  0.00000000000E+00 -0.29156614616E+03  0.29156614621E+03  0.50400001928E-02 0. -1.
    10030    2    1    2    0    0  0.00000000000E+00  0.00000000000E+00  0.19091907128E+04  0.24923230052E+04  0.16020813913E+04 0.  0.
        3    1    3    3  502    0 -0.25645389680E+02 -0.42356193213E+02 -0.28918313754E+03  0.29339159898E+03  0.10100000352E+00 0. -1.
       -3    1    3    3    0  502  0.25645389680E+02  0.42356193213E+02  0.21983738504E+04  0.21989314062E+04  0.10100000352E+00 0.  1.
</event>
<event>
 5   0  0.5131239E-04  0.1603798E+04  0.7818609E-02  0.8818218E-01
        2   -1    0    0  501    0  0.00000000000E+00  0.00000000000E+00  0.81329707771E+03  0.81329707772E+03  0.25500000920E-02 0. -1.
       -2   -1    0    0    0  501  0.00000000000E+00  0.00000000000E+00 -0.79066105315E+03  0.79066105316E+03  0.25500000920E-02 0.  1.
    10030    2    1    2    0    0  0.00000000000E+00  0.00000000000E+00  0.22636024561E+02  0.16039581309E+04  0.16037983963E+04 0.  0.
        1    1    3    3  502    0 -0.13901337740E+03  0.13363837751E+01 -0.77851745566E+03  0.79083243093E+03  0.50400001928E-02 0.  1.
       -1    1    3    3    0  502  0.13901337740E+03 -0.13363837751E+01  0.80115348022E+03  0.81312569995E+03  0.50400001928E-02 0. -1.
</event>
<event>
 5   0  0.2763895E-04  0.1595729E+04  0.7818609E-02  0.8823176E-01
        1   -1    0    0  501    0  0.00000000000E+00  0.00000000000E+00  0.15918193527E+04  0.15918193527E+04  0.50400001928E-02 0. -1.
       -1   -1    0    0    0  501  0.00000000000E+00  0.00000000000E+00 -0.39991225021E+03  0.39991225024E+03  0.50400001928E-02 0.  1.
    10030    2    1    2    0    0  0.00000000000E+00  0.00000000000E+00  0.11919071025E+04  0.19917316029E+04  0.15957293747E+04 0.  0.
        4    1    3    3  502    0 -0.14080663133E+03 -0.78456659771E+03  0.63946405954E+03  0.10219036892E+04  0.12699999809E+01 0.  1.
       -4    1    3    3    0  502  0.14080663133E+03  0.78456659771E+03  0.55244304293E+03  0.96982791373E+03  0.12699999809E+01 0. -1.
</event>
<event>
 5   0  0.5264308E-04  0.1597885E+04  0.7818609E-02  0.8821848E-01
       -2   -1    0    0    0  501  0.00000000000E+00  0.00000000000E+00  0.55884871538E+03  0.55884871539E+03  0.25500000920E-02 0.  1.
        2   -1    0    0  501    0  0.00000000000E+00  0.00000000000E+00 -0.11421863016E+04  0.11421863016E+04  0.25500000920E-02 0. -1.
    10030    2    1    2    0    0  0.00000000000E+00  0.00000000000E+00 -0.58333758625E+03  0.17010350170E+04  0.15978852867E+04 0.  0.
        3    1    3    3  502    0 -0.23920809651E+02  0.77801658240E+03 -0.48336929456E+03  0.91625754718E+03  0.10100000352E+00 0. -1.
       -3    1    3    3    0  502  0.23920809651E+02 -0.77801658240E+03 -0.99968291683E+02  0.78477746984E+03  0.10100000352E+00 0.  1.
</event>
<event>
 5   0  0.2763895E-04  0.1612573E+04  0.7818609E-02  0.8812861E-01
        1   -1    0    0  501    0  0.00000000000E+00  0.00000000000E+00  0.14089847598E+04  0.14089847598E+04  0.50400001928E-02 0.  1.
       -1   -1    0    0    0  501  0.00000000000E+00  0.00000000000E+00 -0.46139432530E+03  0.46139432533E+03  0.50400001928E-02 0. -1.
    10030    2    1    2    0    0  0.00000000000E+00  0.00000000000E+00  0.94759043447E+03  0.18703790851E+04  0.16125725691E+04 0.  0.
        4    1    3    3  502    0  0.72967649326E+03  0.34252067820E+03  0.45216553535E+03  0.92423129360E+03  0.12699999809E+01 0.  1.
       -4    1    3    3    0  502 -0.72967649326E+03 -0.34252067820E+03  0.49542489913E+03  0.94614779151E+03  0.12699999809E+01 0. -1.
</event>
<event>
 5   0  0.1908125E-04  0.1589968E+04  0.7818609E-02  0.8826735E-01
       -3   -1    0    0    0  501  0.00000000000E+00  0.00000000000E+00  0.15100110102E+04  0.15100110136E+04  0.10100000352E+00 0. -1.
        3   -1    0    0  501    0  0.00000000000E+00  0.00000000000E+00 -0.41853946173E+03  0.41853947392E+03  0.10100000352E+00 0.  1.
    10030    2    1    2    0    0  0.00000000000E+00  0.00000000000E+00  0.10914715485E+04  0.19285504875E+04  0.15899675600E+04 0.  0.
        1    1    3    3  502    0 -0.31653659596E+03 -0.22865393316E+03  0.13856726394E+04  0.14396411711E+04  0.50400001928E-02 0. -1.
       -1    1    3    3    0  502  0.31653659596E+03  0.22865393316E+03 -0.29420109097E+03  0.48890931643E+03  0.50400001928E-02 0.  1.
</event>
<event>
 5   0  0.2763895E-04  0.1633389E+04  0.7818609E-02  0.8800294E-01
        1   -1    0    0  501    0  0.00000000000E+00  0.00000000000E+00  0.14372638718E+04  0.14372638718E+04  0.50400001928E-02 0.  1.
       -1   -1    0    0    0  501  0.00000000000E+00  0.00000000000E+00 -0.46406916632E+03  0.46406916634E+03  0.50400001928E-02 0. -1.
    10030    2    1    2    0    0  0.00000000000E+00  0.00000000000E+00  0.97319470551E+03  0.19013330382E+04  0.16333889271E+04 0.  0.
        4    1    3    3  502    0  0.51474743954E+03  0.63205876871E+03  0.42810473958E+03  0.92072715533E+03  0.12699999809E+01 0. -1.
       -4    1    3    3    0  502 -0.51474743954E+03 -0.63205876871E+03  0.54508996593E+03  0.98060588285E+03  0.12699999809E+01 0.  1.
</event>
<event>
 5   0  0.2730707E-04  0.1589287E+04  0.7818609E-02  0.8827156E-01
        1   -1    0    0  501    0  0.00000000000E+00  0.00000000000E+00  0.88098068823E+03  0.88098068825E+03  0.50400001928E-02 0.  1.
       -1   -1    0    0    0  501  0.00000000000E+00  0.00000000000E+00 -0.71676764069E+03  0.71676764071E+03  0.50400001928E-02 0. -1.
    10030    2    1    2    0    0  0.00000000000E+00  0.00000000000E+00  0.16421304754E+03  0.15977483290E+04  0.15892871980E+04 0.  0.
        5    1    3    3  502    0  0.22329666639E+03 -0.21268996774E+02 -0.68426589295E+03  0.72010809862E+03  0.46999998093E+01 0. -1.
       -5    1    3    3    0  502 -0.22329666639E+03  0.21268996774E+02  0.84847894049E+03  0.87764023033E+03  0.46999998093E+01 0.  1.
</event>
<event>
 5   0  0.5315984E-04  0.1567923E+04  0.7818609E-02  0.8840500E-01
       -2   -1    0    0    0  501  0.00000000000E+00  0.00000000000E+00  0.55437208940E+03  0.55437208940E+03  0.25500000920E-02 0. -1.
        2   -1    0    0  501    0  0.00000000000E+00  0.00000000000E+00 -0.11086341271E+04  0.11086341271E+04  0.25500000920E-02 0.  1.
    10030    2    1    2    0    0  0.00000000000E+00  0.00000000000E+00 -0.55426203772E+03  0.16630062165E+04  0.15679232346E+04 0.  0.
        2    1    3    3  502    0 -0.31183698733E+03  0.30621883253E+02 -0.10393308392E+04  0.10855360886E+04  0.25500000920E-02 0.  1.
       -2    1    3    3    0  502  0.31183698733E+03 -0.30621883253E+02  0.48506880150E+03  0.57747012788E+03  0.25500000920E-02 0. -1.
</event>
<event>
 5   0  0.5083831E-04  0.1581853E+04  0.7818609E-02  0.8831774E-01
       -2   -1    0    0    0  501  0.00000000000E+00  0.00000000000E+00  0.12594132876E+04  0.12594132876E+04  0.25500000920E-02 0.  1.
        2   -1    0    0  501    0  0.00000000000E+00  0.00000000000E+00 -0.49671142165E+03  0.49671142166E+03  0.25500000920E-02 0. -1.
    10030    2    1    2    0    0  0.00000000000E+00  0.00000000000E+00  0.76270186597E+03  0.17561247093E+04  0.15818532986E+04 0.  0.
        4    1    3    3  502    0  0.50442580775E+02  0.90870872623E+02  0.12517981445E+04  0.12561059576E+04  0.12699999809E+01 0.  1.
       -4    1    3    3    0  502 -0.50442580775E+02 -0.90870872623E+02 -0.48909627849E+03  0.50001875163E+03  0.12699999809E+01 0. -1.
</event>
<event>
 5   0  0.5381164E-04  0.1595418E+04  0.7818609E-02  0.8823368E-01
        2   -1    0    0  501    0  0.00000000000E+00  0.00000000000E+00  0.12989611361E+04  0.12989611361E+04  0.25500000920E-02 0.  1.
       -2   -1    0    0    0  501  0.00000000000E+00  0.00000000000E+00 -0.48988334530E+03  0.48988334531E+03  0.25500000920E-02 0. -1.
    10030    2    1    2    0    0  0.00000000000E+00  0.00000000000E+00  0.80907779075E+03  0.17888444814E+04  0.15954177218E+04 0.  0.
        5    1    3    3  502    0  0.52140110577E+03  0.56258748287E+03  0.15900664441E+03  0.78337027768E+03  0.46999998093E+01 0. -1.
       -5    1    3    3    0  502 -0.52140110577E+03 -0.56258748287E+03  0.65007114634E+03  0.10054742037E+04  0.46999998093E+01 0.  1.
</event>
<event>
 5   0  0.1908125E-04  0.1581704E+04  0.7818609E-02  0.8831867E-01
       -4   -1    0    0    0  501  0.00000000000E+00  0.00000000000E+00  0.45872302353E+03  0.45872478156E+03  0.12699999809E+01 0.  1.
        4   -1    0    0  501    0  0.00000000000E+00  0.00000000000E+00 -0.13634478057E+04  0.13634483972E+04  0.12699999809E+01 0. -1.
    10030    2    1    2    0    0  0.00000000000E+00  0.00000000000E+00 -0.90472478218E+03  0.18221731787E+04  0.15817041954E+04 0.  0.
        4    1    3    3  502    0  0.57253326008E+03  0.32578479736E+03  0.51795057764E+02  0.66076804478E+03  0.12699999809E+01 0.  1.
       -4    1    3    3    0  502 -0.57253326008E+03 -0.32578479736E+03 -0.95651983994E+03  0.11614051340E+04  0.12699999809E+01 0. -1.
</event>
<event>
 5   0  0.2763895E-04  0.1628912E+04  0.7818609E-02  0.8802981E-01
       -1   -1    0    0    0  501  0.00000000000E+00  0.00000000000E+00  0.87702422757E+03  0.87702422759E+03  0.50400001928E-02 0.  1.
        1   -1    0    0  501    0  0.00000000000E+00  0.00000000000E+00 -0.75635135405E+03  0.75635135407E+03  0.50400001928E-02 0. -1.
    10030    2    1    2    0    0  0.00000000000E+00  0.00000000000E+00  0.12067287352E+03  0.16333755817E+04  0.16289118602E+04 0.  0.
        4    1    3    3  502    0 -0.73099189803E+03 -0.15038462598E+03 -0.26670475693E+03  0.79252617054E+03  0.12699999809E+01 0.  1.
       -4    1    3    3    0  502  0.73099189803E+03  0.15038462598E+03  0.38737763045E+03  0.84084941112E+03  0.12699999809E+01 0. -1.
</event>
<event>
 5   0  0.2689675E-04  0.1607802E+04  0.7818609E-02  0.8815769E-01
        1   -1    0    0  501    0  0.00000000000E+00  0.00000000000E+00  0.84592509987E+03  0.84592509988E+03  0.50400001928E-02 0. -1.
       -1   -1    0    0    0  501  0.00000000000E+00  0.00000000000E+00 -0.76396485824E+03  0.76396485826E+03  0.50400001928E-02 0.  1.
    10030    2    1    2    0    0  0.00000000000E+00  0.00000000000E+00  0.81960241628E+02  0.16098899581E+04  0.16078022876E+04 0.  0.
        1    1    3    3  502    0  0.65554377190E+03  0.20124841211E+03 -0.37911021736E+03  0.78355798585E+03  0.50400001928E-02 0.  1.
       -1    1    3    3    0  502 -0.65554377190E+03 -0.20124841211E+03  0.46107045899E+03  0.82633197229E+03  0.50400001928E-02 0. -1.
</event>
<event>
 5   0  0.5264308E-04  0.1547393E+04  0.7818609E-02  0.8853535E-01
       -2   -1    0    0    0  501  0.00000000000E+00  0.00000000000E+00  0.46855933717E+03  0.46855933718E+03  0.25500000920E-02 0. -1.
        2   -1    0    0  501    0  0.00000000000E+00  0.00000000000E+00 -0.12775455732E+04  0.12775455732E+04  0.25500000920E-02 0.  1.
    10030    2    1    2    0    0  0.00000000000E+00  0.00000000000E+00 -0.80898623600E+03  0.17461049103E+04  0.15473925255E+04 0.  0.
        3    1    3    3  502    0  0.76013450998E+03  0.11246413158E+03 -0.50638392966E+03  0.92025939201E+03  0.10100000352E+00 0. -1.
       -3    1    3    3    0  502 -0.76013450998E+03 -0.11246413158E+03 -0.30260230634E+03  0.82584551834E+03  0.10100000352E+00 0.  1.
</event>
<event>
 5   0  0.5131239E-04  0.1594461E+04  0.7818609E-02  0.8823958E-01
        2   -1    0    0  501    0  0.00000000000E+00  0.00000000000E+00  0.17667511284E+04  0.17667511284E+04  0.25500000920E-02 0. -1.
       -2   -1    0    0    0  501  0.00000000000E+00  0.00000000000E+00 -0.35974290672E+03  0.35974290672E+03  0.25500000920E-02 0.  1.
    10030    2    1    2    0    0  0.00000000000E+00  0.00000000000E+00  0.14070082217E+04  0.21264940351E+04  0.15944606441E+04 0.  0.
        1    1    3    3  502    0 -0.21802996096E+03  0.47688167286E+03 -0.97393634903E+02  0.53332796095E+03  0.50400001928E-02 0.  1.
       -1    1    3    3    0  502  0.21802996096E+03 -0.47688167286E+03  0.15044018566E+04  0.15931660742E+04  0.50400001928E-02 0. -1.
</event>
<event>
 5   0  0.5381164E-04  0.1549485E+04  0.7818609E-02  0.8852196E-01
       -2   -1    0    0    0  501  0.00000000000E+00  0.00000000000E+00  0.11417623277E+04  0.11417623277E+04  0.25500000920E-02 0. -1.
        2   -1    0    0  501    0  0.00000000000E+00  0.00000000000E+00 -0.52570162690E+03  0.52570162691E+03  0.25500000920E-02 0.  1.
    10030    2    1    2    0    0  0.00000000000E+00  0.00000000000E+00  0.61606070077E+03  0.16674639546E+04  0.15494854800E+04 0.  0.
        5    1    3    3  502    0  0.57351910497E+03 -0.12655622242E+03  0.85173540853E+03  0.10346090746E+04  0.46999998093E+01 0. -1.
       -5    1    3    3    0  502 -0.57351910497E+03  0.12655622242E+03 -0.23567470775E+03  0.63285487995E+03  0.46999998093E+01 0.  1.
</event>
<event>
 5   0  0.2796994E-04  0.1624039E+04  0.7818609E-02  0.8805915E-01
        1   -1    0    0  501    0  0.00000000000E+00  0.00000000000E+00  0.12406076574E+04  0.12406076574E+04  0.50400001928E-02 0. -1.
       -1   -1    0    0    0  501  0.00000000000E+00  0.00000000000E+00 -0.53149382994E+03  0.53149382996E+03  0.50400001928E-02 0.  1.
    10030    2    1    2    0    0  0.00000000000E+00  0.00000000000E+00  0.70911382749E+03  0.17721014874E+04  0.16240385652E+04 0.  0.
        3    1    3    3  502    0 -0.30625690580E+03 -0.69110887846E+03  0.30954699374E+02  0.75655996315E+03  0.10100000352E+00 0.  1.
       -3    1    3    3    0  502  0.30625690580E+03  0.69110887846E+03  0.67815912812E+03  0.10155415243E+04  0.10100000352E+00 0. -1.
</event>
<event>
 5   0  0.5315984E-04  0.1604662E+04  0.7818609E-02  0.8817689E-01
       -2   -1    0    0    0  501  0.00000000000E+00  0.00000000000E+00  0.30573763808E+03  0.30573763809E+03  0.25500000920E-02 0. -1.
        2   -1    0    0  501    0  0.00000000000E+00  0.00000000000E+00 -0.21055132800E+04  0.21055132800E+04  0.25500000920E-02 0.  1.
    10030    2    1    2    0    0  0.00000000000E+00  0.00000000000E+00 -0.17997756419E+04  0.24112509181E+04  0.16046615309E+04 0.  0.
        2    1    3    3  502    0 -0.31079981355E+03 -0.41424745955E+03  0.20954842675E+02  0.51830163736E+03  0.25500000920E-02 0. -1.
       -2    1    3    3    0  502  0.31079981355E+03  0.41424745955E+03 -0.18207304846E+04  0.18929492807E+04  0.25500000920E-02 0.  1.
</event>
<event>
 5   0  0.2689675E-04  0.1646873E+04  0.7818609E-02  0.8792258E-01
       -1   -1    0    0    0  501  0.00000000000E+00  0.00000000000E+00  0.62327542927E+03  0.62327542929E+03  0.50400001928E-02 0.  1.
        1   -1    0    0  501    0  0.00000000000E+00  0.00000000000E+00 -0.10878785258E+04  0.10878785258E+04  0.50400001928E-02 0. -1.
    10030    2    1    2    0    0  0.00000000000E+00  0.00000000000E+00 -0.46460309650E+03  0.17111539551E+04  0.16468733469E+04 0.  0.
        1    1    3    3  502    0  0.35364877698E+03  0.64020079390E+03  0.16078145839E+03  0.74884924475E+03  0.50400001928E-02 0.  1.
       -1    1    3    3    0  502 -0.35364877698E+03 -0.64020079390E+03 -0.62538455489E+03  0.96230471032E+03  0.50400001928E-02 0. -1.
</event>
<event>
 5   0  0.5264308E-04  0.1451836E+04  0.7818609E-02  0.8917128E-01
        2   -1    0    0  501    0  0.00000000000E+00  0.00000000000E+00  0.70392551939E+03  0.70392551939E+03  0.25500000920E-02 0. -1.
       -2   -1    0    0    0  501  0.00000000000E+00  0.00000000000E+00 -0.74859809264E+03  0.74859809265E+03  0.25500000920E-02 0.  1.
    10030    2    1    2    0    0  0.00000000000E+00  0.00000000000E+00 -0.44672573256E+02  0.14525236120E+04  0.14518364938E+04 0.  0.
        3    1    3    3  502    0  0.33902800902E+03 -0.28104000993E+02  0.61923740739E+03  0.70653011449E+03  0.10100000352E+00 0. -1.
       -3    1    3    3    0  502 -0.33902800902E+03  0.28104000993E+02 -0.66390998065E+03  0.74599349754E+03  0.10100000352E+00 0.  1.
</event>
<event>
 5   0  0.5315984E-04  0.1475523E+04  0.7818609E-02  0.8900895E-01
       -2   -1    0    0    0  501  0.00000000000E+00  0.00000000000E+00  0.62058104744E+03  0.62058104745E+03  0.25500000920E-02 0.  1.
        2   -1    0    0  501    0  0.00000000000E+00  0.00000000000E+00 -0.87706893078E+03  0.87706893078E+03  0.25500000920E-02 0. -1.
    10030    2    1    2    0    0  0.00000000000E+00  0.00000000000E+00 -0.25648788334E+03  0.14976499782E+04  0.14755234403E+04 0.  0.
        2    1    3    3  502    0 -0.53408337011E+03  0.49931889289E+03 -0.22835335975E+03  0.76596975132E+03  0.25500000920E-02 0. -1.
       -2    1    3    3    0  502  0.53408337011E+03 -0.49931889289E+03 -0.28134523589E+02  0.73168022691E+03  0.25500000920E-02 0.  1.
</event>
<event>
 5   0  0.2689675E-04  0.1584166E+04  0.7818609E-02  0.8830335E-01
       -1   -1    0    0    0  501  0.00000000000E+00  0.00000000000E+00  0.74259620786E+03  0.74259620788E+03  0.50400001928E-02 0. -1.
        1   -1    0    0  501    0  0.00000000000E+00  0.00000000000E+00 -0.84486793644E+03  0.84486793646E+03  0.50400001928E-02 0.  1.
    10030    2    1    2    0    0  0.00000000000E+00  0.00000000000E+00 -0.10227172858E+03  0.15874641443E+04  0.15841663117E+04 0.  0.
        1    1    3    3  502    0  0.64486387597E+03 -0.45994162368E+03 -0.51035593828E+02  0.79372561228E+03  0.50400001928E-02 0. -1.
       -1    1    3    3    0  502 -0.64486387597E+03  0.45994162368E+03 -0.51236134749E+02  0.79373853205E+03  0.50400001928E-02 0.  1.
</event>
<event>
 5   0  0.5381164E-04  0.1608444E+04  0.7818609E-02  0.8815377E-01
        2   -1    0    0  501    0  0.00000000000E+00  0.00000000000E+00  0.88556779790E+03  0.88556779791E+03  0.25500000920E-02 0.  1.
       -2   -1    0    0    0  501  0.00000000000E+00  0.00000000000E+00 -0.73034842908E+03  0.73034842908E+03  0.25500000920E-02 0. -1.
    10030    2    1    2    0    0  0.00000000000E+00  0.00000000000E+00  0.15521936882E+03  0.16159162270E+04  0.16084440308E+04 0.  0.
        5    1    3    3  502    0  0.57175278748E+03 -0.22539073229E+03 -0.44349905931E+03  0.75790219541E+03  0.46999998093E+01 0. -1.
       -5    1    3    3    0  502 -0.57175278748E+03  0.22539073229E+03  0.59871842814E+03  0.85801403158E+03  0.46999998093E+01 0.  1.
</event>
<event>
 5   0  0.5315984E-04  0.1589195E+04  0.7818609E-02  0.8827213E-01
       -2   -1    0    0    0  501  0.00000000000E+00  0.00000000000E+00  0.43132276446E+03  0.43132276447E+03  0.25500000920E-02 0.  1.
        2   -1    0    0  501    0  0.00000000000E+00  0.00000000000E+00 -0.14638351691E+04  0.14638351691E+04  0.25500000920E-02 0. -1.
    10030    2    1    2    0    0  0.00000000000E+00  0.00000000000E+00 -0.10325124046E+04  0.18951579336E+04  0.15891953081E+04 0.  0.
        2    1    3    3  502    0 -0.56398897140E+03 -0.76760461939E+02  0.14493477678E+03  0.58735152840E+03  0.25500000920E-02 0.  1.
       -2    1    3    3    0  502  0.56398897140E+03  0.76760461939E+02 -0.11774471814E+04  0.13078064052E+04  0.25500000920E-02 0. -1.
</event>
<event>
 5   0  0.5381164E-04  0.1617425E+04  0.7818609E-02  0.8809914E-01
        2   -1    0    0  501    0  0.00000000000E+00  0.00000000000E+00  0.22075385538E+04  0.22075385538E+04  0.25500000920E-02 0.  1.
       -2   -1    0    0    0  501  0.00000000000E+00  0.00000000000E+00 -0.29626473149E+03  0.29626473150E+03  0.25500000920E-02 0. -1.
    10030    2    1    2    0    0  0.00000000000E+00  0.00000000000E+00  0.19112738223E+04  0.25038032853E+04  0.16174248878E+04 0.  0.
        5    1    3    3  502    0 -0.42929379272E+03  0.66669622378E+03  0.12014586631E+04  0.14395492435E+04  0.46999998093E+01 0. -1.
       -5    1    3    3    0  502  0.42929379272E+03 -0.66669622378E+03  0.70981515918E+03  0.10642540418E+04  0.46999998093E+01 0.  1.
</event>
<event>
 5   0  0.2689675E-04  0.1596851E+04  0.7818609E-02  0.8822485E-01
        1   -1    0    0  501    0  0.00000000000E+00  0.00000000000E+00  0.11065449148E+04  0.11065449148E+04  0.50400001928E-02 0. -1.
       -1   -1    0    0    0  501  0.00000000000E+00  0.00000000000E+00 -0.57610215208E+03  0.57610215210E+03  0.50400001928E-02 0.  1.
    10030    2    1    2    0    0  0.00000000000E+00  0.00000000000E+00  0.53044276268E+03  0.16826470669E+04  0.15968505338E+04 0.  0.
        1    1    3    3  502    0  0.55983770433E+02  0.78382248541E+03  0.41413316232E+03  0.88826693473E+03  0.50400001928E-02 0. -1.
       -1    1    3    3    0  502 -0.55983770433E+02 -0.78382248541E+03  0.11630960037E+03  0.79438013215E+03  0.50400001928E-02 0.  1.
</event>
<event>
 5   0  0.5083831E-04  0.1580087E+04  0.7818609E-02  0.8832876E-01
        2   -1    0    0  501    0  0.00000000000E+00  0.00000000000E+00  0.25322135411E+04  0.25322135411E+04  0.25500000920E-02 0.  1.
       -2   -1    0    0    0  501  0.00000000000E+00  0.00000000000E+00 -0.24649123246E+03  0.24649123247E+03  0.25500000920E-02 0. -1.
    10030    2    1    2    0    0  0.00000000000E+00  0.00000000000E+00  0.22857223086E+04  0.27787047736E+04  0.15800866263E+04 0.  0.
        4    1    3    3  502    0  0.92088951919E+02  0.58498349152E+03  0.20625160807E+04  0.21458472118E+04  0.12699999809E+01 0.  1.
       -4    1    3    3    0  502 -0.92088951919E+02 -0.58498349152E+03  0.22320622798E+03  0.63285756179E+03  0.12699999809E+01 0. -1.
</event>
<event>
 5   0  0.5264308E-04  0.1579922E+04  0.7818609E-02  0.8832979E-01
       -2   -1    0    0    0  501  0.00000000000E+00  0.00000000000E+00  0.39016866237E+03  0.39016866238E+03  0.25500000920E-02 0. -1.
        2   -1    0    0  501    0  0.00000000000E+00  0.00000000000E+00 -0.15994062377E+04  0.15994062377E+04  0.25500000920E-02 0.  1.
    10030    2    1    2    0    0  0.00000000000E+00  0.00000000000E+00 -0.12092375753E+04  0.19895749001E+04  0.15799217605E+04 0.  0.
        3    1    3    3  502    0 -0.52129866235E+03  0.48062410577E+03 -0.16605710330E+03  0.72823540024E+03  0.10100000352E+00 0. -1.
       -3    1    3    3    0  502  0.52129866235E+03 -0.48062410577E+03 -0.10431804720E+04  0.12613394998E+04  0.10100000352E+00 0.  1.
</event>
<event>
 5   0  0.1908125E-04  0.1613707E+04  0.7818609E-02  0.8812171E-01
        4   -1    0    0  501    0  0.00000000000E+00  0.00000000000E+00  0.78420742003E+03  0.78420844839E+03  0.12699999809E+01 0. -1.
       -4   -1    0    0    0  501  0.00000000000E+00  0.00000000000E+00 -0.83015111614E+03  0.83015208759E+03  0.12699999809E+01 0.  1.
    10030    2    1    2    0    0  0.00000000000E+00  0.00000000000E+00 -0.45943696113E+02  0.16143605360E+04  0.16137066391E+04 0.  0.
        2    1    3    3  502    0  0.54077780753E+02 -0.97332666286E+00  0.78239282712E+03  0.78426009058E+03  0.25500000920E-02 0. -1.
       -2    1    3    3    0  502 -0.54077780753E+02  0.97332666286E+00 -0.82833652323E+03  0.83010044541E+03  0.25500000920E-02 0.  1.
</event>
<event>
 5   0  0.5264308E-04  0.1602904E+04  0.7818609E-02  0.8818766E-01
       -2   -1    0    0    0  501  0.00000000000E+00  0.00000000000E+00  0.45600192983E+03  0.45600192984E+03  0.25500000920E-02 0. -1.
        2   -1    0    0  501    0  0.00000000000E+00  0.00000000000E+00 -0.14086018987E+04  0.14086018987E+04  0.25500000920E-02 0.  1.
    10030    2    1    2    0    0  0.00000000000E+00  0.00000000000E+00 -0.95259996884E+03  0.18646038285E+04  0.16029038451E+04 0.  0.
        3    1    3    3  502    0 -0.41791499472E+02  0.21473949167E+03 -0.13731967613E+04  0.13905139101E+04  0.10100000352E+00 0.  1.
       -3    1    3    3    0  502  0.41791499472E+02 -0.21473949167E+03  0.42059679247E+03  0.47408991842E+03  0.10100000352E+00 0. -1.
</event>
<event>
 5   0  0.2796994E-04  0.1598038E+04  0.7818609E-02  0.8821754E-01
       -1   -1    0    0    0  501  0.00000000000E+00  0.00000000000E+00  0.88705019710E+03  0.88705019712E+03  0.50400001928E-02 0. -1.
        1   -1    0    0  501    0  0.00000000000E+00  0.00000000000E+00 -0.71972404905E+03  0.71972404907E+03  0.50400001928E-02 0.  1.
    10030    2    1    2    0    0  0.00000000000E+00  0.00000000000E+00  0.16732614805E+03  0.16067742462E+04  0.15980379965E+04 0.  0.
        3    1    3    3  502    0 -0.24735693406E+03 -0.65347514591E+03  0.47335916167E+03  0.84396926798E+03  0.10100000352E+00 0. -1.
       -3    1    3    3    0  502  0.24735693406E+03  0.65347514591E+03 -0.30603301363E+03  0.76280497821E+03  0.10100000352E+00 0.  1.
</event>
<event>
 5   0  0.2796994E-04  0.1614827E+04  0.7818609E-02  0.8811491E-01
        1   -1    0    0  501    0  0.00000000000E+00  0.00000000000E+00  0.14078464716E+04  0.14078464716E+04  0.50400001928E-02 0.  1.
       -1   -1    0    0    0  501  0.00000000000E+00  0.00000000000E+00 -0.46305913634E+03  0.46305913637E+03  0.50400001928E-02 0. -1.
    10030    2    1    2    0    0  0.00000000000E+00  0.00000000000E+00  0.94478733527E+03  0.18709056080E+04  0.16148265186E+04 0.  0.
        3    1    3    3  502    0 -0.58635102880E+03  0.96497975638E+02  0.11057001819E+04  0.12552658247E+04  0.10100000352E+00 0.  1.
       -3    1    3    3    0  502  0.58635102880E+03 -0.96497975638E+02 -0.16091284666E+03  0.61563978323E+03  0.10100000352E+00 0. -1.
</event>
<event>
 5   0  0.5083831E-04  0.1598986E+04  0.7818609E-02  0.8821171E-01
        2   -1    0    0  501    0  0.00000000000E+00  0.00000000000E+00  0.78702022789E+03  0.78702022790E+03  0.25500000920E-02 0. -1.
       -2   -1    0    0    0  501  0.00000000000E+00  0.00000000000E+00 -0.81216320947E+03  0.81216320947E+03  0.25500000920E-02 0.  1.
    10030    2    1    2    0    0  0.00000000000E+00  0.00000000000E+00 -0.25142981576E+02  0.15991834374E+04  0.15989857713E+04 0.  0.
        4    1    3    3  502    0  0.56662046151E+03  0.18353466654E+03  0.52082692508E+03  0.79120542213E+03  0.12699999809E+01 0. -1.
       -4    1    3    3    0  502 -0.56662046151E+03 -0.18353466654E+03 -0.54596990666E+03  0.80797801523E+03  0.12699999809E+01 0.  1.
</event>
<event>
 5   0  0.2730707E-04  0.1611269E+04  0.7818609E-02  0.8813655E-01
        1   -1    0    0  501    0  0.00000000000E+00  0.00000000000E+00  0.13185601970E+04  0.13185601970E+04  0.50400001928E-02 0.  1.
       -1   -1    0    0    0  501  0.00000000000E+00  0.00000000000E+00 -0.49223932450E+03  0.49223932452E+03  0.50400001928E-02 0. -1.
    10030    2    1    2    0    0  0.00000000000E+00  0.00000000000E+00  0.82632087246E+03  0.18107995215E+04  0.16112692893E+04 0.  0.
        5    1    3    3  502    0 -0.62518282269E+03  0.46191020594E+03  0.65105914821E+03  0.10139599127E+04  0.46999998093E+01 0. -1.
       -5    1    3    3    0  502  0.62518282269E+03 -0.46191020594E+03  0.17526172426E+03  0.79683960878E+03  0.46999998093E+01 0.  1.
</event>
<event>
 5   0  0.2730707E-04  0.1573903E+04  0.7818609E-02  0.8836743E-01
       -1   -1    0    0    0  501  0.00000000000E+00  0.00000000000E+00  0.68869919117E+03  0.68869919119E+03  0.50400001928E-02 0.  1.
        1   -1    0    0  501    0  0.00000000000E+00  0.00000000000E+00 -0.89922100658E+03  0.89922100660E+03  0.50400001928E-02 0. -1.
    10030    2    1    2    0    0  0.00000000000E+00  0.00000000000E+00 -0.21052181541E+03  0.15879201978E+04  0.15739031482E+04 0.  0.
        5    1    3    3  502    0  0.69526156951E+03 -0.19846399738E+03  0.20814054655E+03  0.75241025074E+03  0.46999998093E+01 0.  1.
       -5    1    3    3    0  502 -0.69526156951E+03  0.19846399738E+03 -0.41866236196E+03  0.83550994705E+03  0.46999998093E+01 0. -1.
</event>
<event>
 5   0  0.1908125E-04  0.1612867E+04  0.7818609E-02  0.8812682E-01
        3   -1    0    0  501    0  0.00000000000E+00  0.00000000000E+00  0.61605792807E+03  0.61605793635E+03  0.10100000352E+00 0. -1.
       -3   -1    0    0    0  501  0.00000000000E+00  0.00000000000E+00 -0.10556387567E+04  0.10556387616E+04  0.10100000352E+00 0.  1.
    10030    2    1    2    0    0  0.00000000000E+00  0.00000000000E+00 -0.43958082867E+03  0.16716966979E+04  0.16128665614E+04 0.  0.
        1    1    3    3  502    0  0.26288770563E+03 -0.43637026586E+03  0.42815658203E+03  0.66546751495E+03  0.50400001928E-02 0. -1.
       -1    1    3    3    0  502 -0.26288770563E+03  0.43637026586E+03 -0.86773741070E+03  0.10062291830E+04  0.50400001928E-02 0.  1.
</event>
<event>
 5   0  0.2796994E-04  0.1553961E+04  0.7818609E-02  0.8849342E-01
       -1   -1    0    0    0  501  0.00000000000E+00  0.00000000000E+00  0.75277679760E+03  0.75277679761E+03  0.50400001928E-02 0.  1.
        1   -1    0    0  501    0  0.00000000000E+00  0.00000000000E+00 -0.80196219844E+03  0.80196219846E+03  0.50400001928E-02 0. -1.
    10030    2    1    2    0    0  0.00000000000E+00  0.00000000000E+00 -0.49185400844E+02  0.15547389961E+04  0.15539607917E+04 0.  0.
        3    1    3    3  502    0 -0.36253802352E+03 -0.50275305647E+02  0.66112422030E+03  0.75567629956E+03  0.10100000352E+00 0.  1.
       -3    1    3    3    0  502  0.36253802352E+03  0.50275305647E+02 -0.71030962114E+03  0.79906269651E+03  0.10100000352E+00 0. -1.
</event>
<event>
 5   0  0.5131239E-04  0.1620867E+04  0.7818609E-02  0.8807830E-01
       -2   -1    0    0    0  501  0.00000000000E+00  0.00000000000E+00  0.39567735160E+03  0.39567735161E+03  0.25500000920E-02 0.  1.
        2   -1    0    0  501    0  0.00000000000E+00  0.00000000000E+00 -0.16599449899E+04  0.16599449899E+04  0.25500000920E-02 0. -1.
    10030    2    1    2    0    0  0.00000000000E+00  0.00000000000E+00 -0.12642676383E+04  0.20556223415E+04  0.16208672215E+04 0.  0.
        1    1    3    3  502    0 -0.44761909423E+03  0.27849573529E+03  0.14849876998E+03  0.54769938178E+03  0.50400001928E-02 0.  1.
       -1    1    3    3    0  502  0.44761909423E+03 -0.27849573529E+03 -0.14127664082E+04  0.15079229597E+04  0.50400001928E-02 0. -1.
</event>
<event>
 5   0  0.2649086E-04  0.1608290E+04  0.7818609E-02  0.8815471E-01
        1   -1    0    0  501    0  0.00000000000E+00  0.00000000000E+00  0.27115393655E+03  0.27115393660E+03  0.50400001928E-02 0.  1.
       -1   -1    0    0    0  501  0.00000000000E+00  0.00000000000E+00 -0.23848036295E+04  0.23848036295E+04  0.50400001928E-02 0. -1.
    10030    2    1    2    0    0  0.00000000000E+00  0.00000000000E+00 -0.21136496930E+04  0.26559575661E+04  0.16082896407E+04 0.  0.
        2    1    3    3  502    0 -0.59957359976E+03 -0.11011544095E+03 -0.19075915644E+03  0.63875109991E+03  0.25500000920E-02 0.  1.
       -2    1    3    3    0  502  0.59957359976E+03  0.11011544095E+03 -0.19228905365E+04  0.20172064662E+04  0.25500000920E-02 0. -1.
</event>
<event>
 5   0  0.2796994E-04  0.1592015E+04  0.7818609E-02  0.8825469E-01
       -1   -1    0    0    0  501  0.00000000000E+00  0.00000000000E+00  0.62421064635E+03  0.62421064637E+03  0.50400001928E-02 0. -1.
        1   -1    0    0  501    0  0.00000000000E+00  0.00000000000E+00 -0.10150863232E+04  0.10150863232E+04  0.50400001928E-02 0.  1.
    10030    2    1    2    0    0  0.00000000000E+00  0.00000000000E+00 -0.39087567682E+03  0.16392969695E+04  0.15920146857E+04 0.  0.
        3    1    3    3  502    0  0.58828381637E+03  0.27118752357E+03 -0.67178624453E+03  0.93322949487E+03  0.10100000352E+00 0.  1.
       -3    1    3    3    0  502 -0.58828381637E+03 -0.27118752357E+03  0.28091056771E+03  0.70606747468E+03  0.10100000352E+00 0. -1.
</event>
<event>
 5   0  0.2649086E-04  0.1597236E+04  0.7818609E-02  0.8822248E-01
        1   -1    0    0  501    0  0.00000000000E+00  0.00000000000E+00  0.84610168009E+03  0.84610168010E+03  0.50400001928E-02 0. -1.
       -1   -1    0    0    0  501  0.00000000000E+00  0.00000000000E+00 -0.75379881523E+03  0.75379881525E+03  0.50400001928E-02 0.  1.
    10030    2    1    2    0    0  0.00000000000E+00  0.00000000000E+00  0.92302864860E+02  0.15999004953E+04  0.15972356671E+04 0.  0.
        2    1    3    3  502    0 -0.17925832367E+03 -0.71117089267E+03 -0.27043419490E+03  0.78168551155E+03  0.25500000920E-02 0.  1.
       -2    1    3    3    0  502  0.17925832367E+03  0.71117089267E+03  0.36273705976E+03  0.81821498380E+03  0.25500000920E-02 0. -1.
</event>
<event>
 5   0  0.2796994E-04  0.1589818E+04  0.7818609E-02  0.8826828E-01
        1   -1    0    0  501    0  0.00000000000E+00  0.00000000000E+00  0.12020378507E+04  0.12020378507E+04  0.50400001928E-02 0. -1.
       -1   -1    0    0    0  501  0.00000000000E+00  0.00000000000E+00 -0.52567443872E+03  0.52567443875E+03  0.50400001928E-02 0.  1.
    10030    2    1    2    0    0  0.00000000000E+00  0.00000000000E+00  0.67636341200E+03  0.17277122895E+04  0.15898183199E+04 0.  0.
        3    1    3    3  502    0  0.76458573988E+03  0.20633361938E+02  0.10292546093E+03  0.77175821988E+03  0.10100000352E+00 0.  1.
       -3    1    3    3    0  502 -0.76458573988E+03 -0.20633361938E+02  0.57343795108E+03  0.95595406960E+03  0.10100000352E+00 0. -1.
</event>
<event>
 5   0  0.5381164E-04  0.1618496E+04  0.7818609E-02  0.8809265E-01
       -2   -1    0    0    0  501  0.00000000000E+00  0.00000000000E+00  0.36235250225E+03  0.36235250226E+03  0.25500000920E-02 0.  1.
        2   -1    0    0  501    0  0.00000000000E+00  0.00000000000E+00 -0.18073072306E+04  0.18073072306E+04  0.25500000920E-02 0. -1.
    10030    2    1    2    0    0  0.00000000000E+00  0.00000000000E+00 -0.14449547283E+04  0.21696597328E+04  0.16184959652E+04 0.  0.
        5    1    3    3  502    0  0.59507233849E+03  0.53384781781E+03 -0.55421079128E+03  0.97276732665E+03  0.46999998093E+01 0. -1.
       -5    1    3    3    0  502 -0.59507233849E+03 -0.53384781781E+03 -0.89074393705E+03  0.11968924062E+04  0.46999998093E+01 0.  1.
</event>
<event>
 5   0  0.5131239E-04  0.1623767E+04  0.7818609E-02  0.8806079E-01
        2   -1    0    0  501    0  0.00000000000E+00  0.00000000000E+00  0.64116367806E+03  0.64116367807E+03  0.25500000920E-02 0.  1.
       -2   -1    0    0    0  501  0.00000000000E+00  0.00000000000E+00 -0.10280596917E+04  0.10280596917E+04  0.25500000920E-02 0. -1.
    10030    2    1    2    0    0  0.00000000000E+00  0.00000000000E+00 -0.38689601368E+03  0.16692233698E+04  0.16237666498E+04 0.  0.
        1    1    3    3  502    0 -0.53450130441E+02  0.80329482280E+03 -0.85557318063E+02  0.80960455994E+03  0.50400001928E-02 0.  1.
       -1    1    3    3    0  502  0.53450130441E+02 -0.80329482280E+03 -0.30133869561E+03  0.85961880987E+03  0.50400001928E-02 0. -1.
</event>
<event>
 5   0  0.2689675E-04  0.1578843E+04  0.7818609E-02  0.8833652E-01
       -1   -1    0    0    0  501  0.00000000000E+00  0.00000000000E+00  0.53134304562E+03  0.53134304565E+03  0.50400001928E-02 0.  1.
        1   -1    0    0  501    0  0.00000000000E+00  0.00000000000E+00 -0.11728506461E+04  0.11728506462E+04  0.50400001928E-02 0. -1.
    10030    2    1    2    0    0  0.00000000000E+00  0.00000000000E+00 -0.64150760052E+03  0.17041936918E+04  0.15788426577E+04 0.  0.
        1    1    3    3  502    0  0.37016842545E+03  0.86245341547E+02 -0.10675847359E+04  0.11332255250E+04  0.50400001928E-02 0. -1.
       -1    1    3    3    0  502 -0.37016842545E+03 -0.86245341547E+02  0.42607713541E+03  0.57096816678E+03  0.50400001928E-02 0.  1.
</event>
<event>
 5   0  0.5315984E-04  0.1557427E+04  0.7818609E-02  0.8847137E-01
       -2   -1    0    0    0  501  0.00000000000E+00  0.00000000000E+00  0.27587417988E+03  0.27587417989E+03  0.25500000920E-02 0.  1.
        2   -1    0    0  501    0  0.00000000000E+00  0.00000000000E+00 -0.21980854014E+04  0.21980854014E+04  0.25500000920E-02 0. -1.
    10030    2    1    2    0    0  0.00000000000E+00  0.00000000000E+00 -0.19222112216E+04  0.24739595813E+04  0.15574273754E+04 0.  0.
        2    1    3    3  502    0 -0.10999901934E+03 -0.74022830195E+03 -0.13031195356E+04  0.15027169552E+04  0.25500000920E-02 0. -1.
       -2    1    3    3    0  502  0.10999901934E+03  0.74022830195E+03 -0.61909168597E+03  0.97124262617E+03  0.25500000920E-02 0.  1.
</event>
<event>
 5   0  0.5381164E-04  0.1589989E+04  0.7818609E-02  0.8826722E-01
       -2   -1    0    0    0  501  0.00000000000E+00  0.00000000000E+00  0.34383043687E+03  0.34383043688E+03  0.25500000920E-02 0. -1.
        2   -1    0    0  501    0  0.00000000000E+00  0.00000000000E+00 -0.18381626730E+04  0.18381626730E+04  0.25500000920E-02 0.  1.
    10030    2    1    2    0    0  0.00000000000E+00  0.00000000000E+00 -0.14943322361E+04  0.21819931098E+04  0.15899890250E+04 0.  0.
        5    1    3    3  502    0 -0.41227119249E+03  0.31487386692E+03  0.79521477277E+02  0.52484173193E+03  0.46999998093E+01 0. -1.
       -5    1    3    3    0  502  0.41227119249E+03 -0.31487386692E+03 -0.15738537134E+04  0.16571513779E+04  0.46999998093E+01 0.  1.
</event>
<event>
 5   0  0.2649086E-04  0.1579405E+04  0.7818609E-02  0.8833301E-01
       -1   -1    0    0    0  501  0.00000000000E+00  0.00000000000E+00  0.88233869514E+03  0.88233869516E+03  0.50400001928E-02 0. -1.
        1   -1    0    0  501    0  0.00000000000E+00  0.00000000000E+00 -0.70679227546E+03  0.70679227548E+03  0.50400001928E-02 0.  1.
    10030    2    1    2    0    0  0.00000000000E+00  0.00000000000E+00  0.17554641968E+03  0.15891309706E+04  0.15794051717E+04 0.  0.
        2    1    3    3  502    0 -0.22165763195E+03  0.25137334534E+03  0.80723555825E+03  0.87404228219E+03  0.25500000920E-02 0. -1.
       -2    1    3    3    0  502  0.22165763195E+03 -0.25137334534E+03 -0.63168913857E+03  0.71508868845E+03  0.25500000920E-02 0.  1.
</event>
<event>
 5   0  0.5315984E-04  0.1609219E+04  0.7818609E-02  0.8814904E-01
        2   -1    0    0  501    0  0.00000000000E+00  0.00000000000E+00  0.17527059771E+04  0.17527059771E+04  0.25500000920E-02 0. -1.
       -2   -1    0    0    0  501  0.00000000000E+00  0.00000000000E+00 -0.36936988276E+03  0.36936988277E+03  0.25500000920E-02 0.  1.
    10030    2    1    2    0    0  0.00000000000E+00  0.00000000000E+00  0.13833360943E+04  0.21220758599E+04  0.16092194397E+04 0.  0.
        2    1    3    3  502    0  0.18826160304E+03  0.19470073809E+03 -0.30745500536E+03  0.40973087377E+03  0.25500000920E-02 0.  1.
       -2    1    3    3    0  502 -0.18826160304E+03 -0.19470073809E+03  0.16907910997E+04  0.17123449861E+04  0.25500000920E-02 0. -1.
</event>
<event>
 5   0  0.5264308E-04  0.1617560E+04  0.7818609E-02  0.8809833E-01
       -2   -1    0    0    0  501  0.00000000000E+00  0.00000000000E+00  0.67900533797E+03  0.67900533798E+03  0.25500000920E-02 0. -1.
        2   -1    0    0  501    0  0.00000000000E+00  0.00000000000E+00 -0.96335720516E+03  0.96335720517E+03  0.25500000920E-02 0.  1.
    10030    2    1    2    0    0  0.00000000000E+00  0.00000000000E+00 -0.28435186719E+03  0.16423625431E+04  0.16175595008E+04 0.  0.
        3    1    3    3  502    0  0.20433909445E+03 -0.24105060796E+03  0.61372942015E+03  0.69030694077E+03  0.10100000352E+00 0. -1.
       -3    1    3    3    0  502 -0.20433909445E+03  0.24105060796E+03 -0.89808128734E+03  0.95205560237E+03  0.10100000352E+00 0.  1.
</event>
<event>
 5   0  0.1908125E-04  0.1607766E+04  0.7818609E-02  0.8815791E-01
       -3   -1    0    0    0  501  0.00000000000E+00  0.00000000000E+00  0.11076615492E+04  0.11076615538E+04  0.10100000352E+00 0.  1.
        3   -1    0    0  501    0  0.00000000000E+00  0.00000000000E+00 -0.58341670490E+03  0.58341671364E+03  0.10100000352E+00 0. -1.
    10030    2    1    2    0    0  0.00000000000E+00  0.00000000000E+00  0.52424484432E+03  0.16910782675E+04  0.16077664786E+04 0.  0.
        4    1    3    3  502    0  0.25493364174E+03 -0.67926858587E+03 -0.10197946638E+03  0.73266527003E+03  0.12699999809E+01 0. -1.
       -4    1    3    3    0  502 -0.25493364174E+03  0.67926858587E+03  0.62622431069E+03  0.95841299743E+03  0.12699999809E+01 0.  1.
</event>
<event>
 5   0  0.2730707E-04  0.1579966E+04  0.7818609E-02  0.8832951E-01
       -1   -1    0    0    0  501  0.00000000000E+00  0.00000000000E+00  0.63639758554E+03  0.63639758556E+03  0.50400001928E-02 0.  1.
        1   -1    0    0  501    0  0.00000000000E+00  0.00000000000E+00 -0.98063378312E+03  0.98063378313E+03  0.50400001928E-02 0. -1.
    10030    2    1    2    0    0  0.00000000000E+00  0.00000000000E+00 -0.34423619757E+03  0.16170313687E+04  0.15799657869E+04 0.  0.
        5    1    3    3  502    0  0.27499607008E+03 -0.14067617488E+03  0.57201403135E+03  0.65010365850E+03  0.46999998093E+01 0.  1.
       -5    1    3    3    0  502 -0.27499607008E+03  0.14067617488E+03 -0.91625022892E+03  0.96692771019E+03  0.46999998093E+01 0. -1.
</event>
<event>
 5   0  0.5131239E-04  0.1605385E+04  0.7818609E-02  0.8817247E-01
        2   -1    0    0  501    0  0.00000000000E+00  0.00000000000E+00  0.55577522118E+03  0.55577522118E+03  0.25500000920E-02 0.  1.
       -2   -1    0    0    0  501  0.00000000000E+00  0.00000000000E+00 -0.11593088933E+04  0.11593088933E+04  0.25500000920E-02 0. -1.
    10030    2    1    2    0    0  0.00000000000E+00  0.00000000000E+00 -0.60353367216E+03  0.17150841145E+04  0.16053848842E+04 0.  0.
        1    1    3    3  502    0 -0.60367948923E+03  0.12863811842E+03  0.24646393141E+03  0.66462106552E+03  0.50400001928E-02 0.  1.
       -1    1    3    3    0  502  0.60367948923E+03 -0.12863811842E+03 -0.84999760357E+03  0.10504630490E+04  0.50400001928E-02 0. -1.
</event>
<event>
 5   0  0.2763895E-04  0.1580699E+04  0.7818609E-02  0.8832494E-01
        1   -1    0    0  501    0  0.00000000000E+00  0.00000000000E+00  0.19606951573E+04  0.19606951573E+04  0.50400001928E-02 0.  1.
       -1   -1    0    0    0  501  0.00000000000E+00  0.00000000000E+00 -0.31858708425E+03  0.31858708429E+03  0.50400001928E-02 0. -1.
    10030    2    1    2    0    0  0.00000000000E+00  0.00000000000E+00  0.16421080731E+04  0.22792822416E+04  0.15806987737E+04 0.  0.
        4    1    3    3  502    0  0.26024700375E+03 -0.60619950541E+03  0.14486637318E+04  0.15918023005E+04  0.12699999809E+01 0.  1.
       -4    1    3    3    0  502 -0.26024700375E+03  0.60619950541E+03  0.19344434130E+03  0.68747994109E+03  0.12699999809E+01 0. -1.
</event>
<event>
 5   0  0.2649086E-04  0.1601320E+04  0.7818609E-02  0.8819738E-01
       -1   -1    0    0    0  501  0.00000000000E+00  0.00000000000E+00  0.53284859890E+03  0.53284859892E+03  0.50400001928E-02 0.  1.
        1   -1    0    0  501    0  0.00000000000E+00  0.00000000000E+00 -0.12030736884E+04  0.12030736884E+04  0.50400001928E-02 0. -1.
    10030    2    1    2    0    0  0.00000000000E+00  0.00000000000E+00 -0.67022508952E+03  0.17359222873E+04  0.16013196174E+04 0.  0.
        2    1    3    3  502    0  0.48249487693E+03 -0.38019767654E+03  0.22157443827E+03  0.65302895128E+03  0.25500000920E-02 0.  1.
       -2    1    3    3    0  502 -0.48249487693E+03  0.38019767654E+03 -0.89179952779E+03  0.10828933361E+04  0.25500000920E-02 0. -1.
</event>
<event>
 5   0  0.5083831E-04  0.1612231E+04  0.7818609E-02  0.8813069E-01
        2   -1    0    0  501    0  0.00000000000E+00  0.00000000000E+00  0.68502704122E+03  0.68502704122E+03  0.25500000920E-02 0.  1.
       -2   -1    0    0    0  501  0.00000000000E+00  0.00000000000E+00 -0.94860839776E+03  0.94860839777E+03  0.25500000920E-02 0. -1.
    10030    2    1    2    0    0  0.00000000000E+00  0.00000000000E+00 -0.26358135655E+03  0.16336354390E+04  0.16122312539E+04 0.  0.
        4    1    3    3  502    0 -0.19586699616E+03  0.14443143910E+03  0.64691480674E+03  0.69117631677E+03  0.12699999809E+01 0.  1.
       -4    1    3    3    0  502  0.19586699616E+03 -0.14443143910E+03 -0.91049616329E+03  0.94245912222E+03  0.12699999809E+01 0. -1.
</event>
<event>
 5   0  0.5315984E-04  0.1603917E+04  0.7818609E-02  0.8818145E-01
       -2   -1    0    0    0  501  0.00000000000E+00  0.00000000000E+00  0.52494637582E+03  0.52494637583E+03  0.25500000920E-02 0.  1.
        2   -1    0    0  501    0  0.00000000000E+00  0.00000000000E+00 -0.12251487036E+04  0.12251487036E+04  0.25500000920E-02 0. -1.
    10030    2    1    2    0    0  0.00000000000E+00  0.00000000000E+00 -0.70020232776E+03  0.17500950794E+04  0.16039169203E+04 0.  0.
        2    1    3    3  502    0  0.13828143783E+03 -0.78901208223E+03 -0.30818739481E+03  0.85827809728E+03  0.25500000920E-02 0. -1.
       -2    1    3    3    0  502 -0.13828143783E+03  0.78901208223E+03 -0.39201493294E+03  0.89181698212E+03  0.25500000920E-02 0.  1.
</event>
<event>
 5   0  0.5381164E-04  0.1600387E+04  0.7818609E-02  0.8820310E-01
       -2   -1    0    0    0  501  0.00000000000E+00  0.00000000000E+00  0.35112972146E+03  0.35112972147E+03  0.25500000920E-02 0.  1.
        2   -1    0    0  501    0  0.00000000000E+00  0.00000000000E+00 -0.18235696772E+04  0.18235696772E+04  0.25500000920E-02 0. -1.
    10030    2    1    2    0    0  0.00000000000E+00  0.00000000000E+00 -0.14724399557E+04  0.21746993986E+04  0.16003868443E+04 0.  0.
        5    1    3    3  502    0  0.25731607540E+03  0.45005882426E+03 -0.15644806957E+04  0.16481463664E+04  0.46999998093E+01 0. -1.
       -5    1    3    3    0  502 -0.25731607540E+03 -0.45005882426E+03  0.92040739955E+02  0.52655303225E+03  0.46999998093E+01 0.  1.
</event>
<event>
 5   0  0.2649086E-04  0.1591433E+04  0.7818609E-02  0.8825828E-01
       -1   -1    0    0    0  501  0.00000000000E+00  0.00000000000E+00  0.25856126610E+03  0.25856126615E+03  0.50400001928E-02 0.  1.
        1   -1    0    0  501    0  0.00000000000E+00  0.00000000000E+00 -0.24487994540E+04  0.24487994540E+04  0.50400001928E-02 0. -1.
    10030    2    1    2    0    0  0.00000000000E+00  0.00000000000E+00 -0.21902381879E+04  0.27073607202E+04  0.15914329233E+04 0.  0.
        2    1    3    3  502    0  0.47684182397E+03 -0.36315859935E+02 -0.21770504786E+04  0.22289562026E+04  0.25500000920E-02 0. -1.
       -2    1    3    3    0  502 -0.47684182397E+03  0.36315859935E+02 -0.13187709359E+02  0.47840451760E+03  0.25500000920E-02 0.  1.
</event>
<event>
 5   0  0.5083831E-04  0.1594875E+04  0.7818609E-02  0.8823703E-01
       -2   -1    0    0    0  501  0.00000000000E+00  0.00000000000E+00  0.28740163257E+03  0.28740163258E+03  0.25500000920E-02 0.  1.
        2   -1    0    0  501    0  0.00000000000E+00  0.00000000000E+00 -0.22126055057E+04  0.22126055057E+04  0.25500000920E-02 0. -1.
    10030    2    1    2    0    0  0.00000000000E+00  0.00000000000E+00 -0.19252038731E+04  0.25000071383E+04  0.15948748347E+04 0.  0.
        4    1    3    3  502    0  0.14495176877E+03 -0.25228893872E+03  0.20122021627E+03  0.35376816166E+03  0.12699999809E+01 0.  1.
       -4    1    3    3    0  502 -0.14495176877E+03  0.25228893872E+03 -0.21264240894E+04  0.21462389766E+04  0.12699999809E+01 0. -1.
</event>
<event>
 5   0  0.5264308E-04  0.1517382E+04  0.7818609E-02  0.8872976E-01
       -2   -1    0    0    0  501  0.00000000000E+00  0.00000000000E+00  0.41404362499E+03  0.41404362500E+03  0.25500000920E-02 0.  1.
        2   -1    0    0  501    0  0.00000000000E+00  0.00000000000E+00 -0.13902207542E+04  0.13902207542E+04  0.25500000920E-02 0. -1.
    10030    2    1    2    0    0  0.00000000000E+00  0.00000000000E+00 -0.97617712918E+03  0.18042643792E+04  0.15173820094E+04 0.  0.
        3    1    3    3  502    0 -0.14556248048E+03 -0.30466453044E+03  0.31977795794E+03  0.46504501332E+03  0.10100000352E+00 0.  1.
       -3    1    3    3    0  502  0.14556248048E+03  0.30466453044E+03 -0.12959550871E+04  0.13392193658E+04  0.10100000352E+00 0. -1.
</event>
<event>
 5   0  0.2796994E-04  0.1619873E+04  0.7818609E-02  0.8808431E-01
       -1   -1    0    0    0  501  0.00000000000E+00  0.00000000000E+00  0.58409843927E+03  0.58409843929E+03  0.50400001928E-02 0.  1.
        1   -1    0    0  501    0  0.00000000000E+00  0.00000000000E+00 -0.11230935634E+04  0.11230935634E+04  0.50400001928E-02 0. -1.
    10030    2    1    2    0    0  0.00000000000E+00  0.00000000000E+00 -0.53899512409E+03  0.17071920027E+04  0.16198730784E+04 0.  0.
        3    1    3    3  502    0  0.53922447829E+03  0.27208733408E+03 -0.83821825177E+03  0.10331526524E+04  0.10100000352E+00 0. -1.
       -3    1    3    3    0  502 -0.53922447829E+03 -0.27208733408E+03  0.29922312768E+03  0.67403935026E+03  0.10100000352E+00 0.  1.
</event>
<event>
 5   0  0.5264308E-04  0.1616989E+04  0.7818609E-02  0.8810178E-01
        2   -1    0    0  501    0  0.00000000000E+00  0.00000000000E+00  0.17521727835E+04  0.17521727835E+04  0.25500000920E-02 0. -1.
       -2   -1    0    0    0  501  0.00000000000E+00  0.00000000000E+00 -0.37305896041E+03  0.37305896042E+03  0.25500000920E-02 0.  1.
    10030    2    1    2    0    0  0.00000000000E+00  0.00000000000E+00  0.13791138231E+04  0.21252317440E+04  0.16169894954E+04 0.  0.
        3    1    3    3  502    0 -0.56427672290E+03 -0.20419564853E+03 -0.22553419833E+02  0.60051040776E+03  0.10100000352E+00 0.  1.
       -3    1    3    3    0  502  0.56427672290E+03  0.20419564853E+03  0.14016672430E+04  0.15247213362E+04  0.10100000352E+00 0. -1.
</event>
<event>
 5   0  0.2649086E-04  0.1603119E+04  0.7818609E-02  0.8818634E-01
        1   -1    0    0  501    0  0.00000000000E+00  0.00000000000E+00  0.68623846041E+03  0.68623846043E+03  0.50400001928E-02 0.  1.
       -1   -1    0    0    0  501  0.00000000000E+00  0.00000000000E+00 -0.93625946976E+03  0.93625946977E+03  0.50400001928E-02 0. -1.
    10030    2    1    2    0    0  0.00000000000E+00  0.00000000000E+00 -0.25002100935E+03  0.16224979302E+04  0.16031185322E+04 0.  0.
        2    1    3    3  502    0 -0.76254858091E+03 -0.24494677023E+03 -0.15730229382E+03  0.81622501195E+03  0.25500000920E-02 0. -1.
       -2    1    3    3    0  502  0.76254858091E+03  0.24494677023E+03 -0.92718715528E+02  0.80627291825E+03  0.25500000920E-02 0.  1.
</event>
<event>
 5   0  0.2689675E-04  0.1602777E+04  0.7818609E-02  0.8818844E-01
        1   -1    0    0  501    0  0.00000000000E+00  0.00000000000E+00  0.94091939713E+03  0.94091939714E+03  0.50400001928E-02 0. -1.
       -1   -1    0    0    0  501  0.00000000000E+00  0.00000000000E+00 -0.68254891800E+03  0.68254891801E+03  0.50400001928E-02 0.  1.
    10030    2    1    2    0    0  0.00000000000E+00  0.00000000000E+00  0.25837047913E+03  0.16234683152E+04  0.16027769857E+04 0.  0.
        1    1    3    3  502    0  0.10156649693E+03 -0.53296779965E+03 -0.46821948184E+03  0.71665885326E+03  0.50400001928E-02 0.  1.
       -1    1    3    3    0  502 -0.10156649693E+03  0.53296779965E+03  0.72658996097E+03  0.90680946189E+03  0.50400001928E-02 0. -1.
</event>
<event>
 5   0  0.5083831E-04  0.1606846E+04  0.7818609E-02  0.8816353E-01
        2   -1    0    0  501    0  0.00000000000E+00  0.00000000000E+00  0.72955414571E+03  0.72955414571E+03  0.25500000920E-02 0.  1.
       -2   -1    0    0    0  501  0.00000000000E+00  0.00000000000E+00 -0.88477089212E+03  0.88477089212E+03  0.25500000920E-02 0. -1.
    10030    2    1    2    0    0  0.00000000000E+00  0.00000000000E+00 -0.15521674641E+03  0.16143250378E+04  0.16068456956E+04 0.  0.
        4    1    3    3  502    0  0.49474550068E+03 -0.37882686365E+03 -0.58712159976E+03  0.85615202439E+03  0.12699999809E+01 0. -1.
       -4    1    3    3    0  502 -0.49474550068E+03  0.37882686365E+03  0.43190485334E+03  0.75817301344E+03  0.12699999809E+01 0.  1.
</event>
<event>
 5   0  0.5083831E-04  0.1618204E+04  0.7818609E-02  0.8809442E-01
       -2   -1    0    0    0  501  0.00000000000E+00  0.00000000000E+00  0.54282216821E+03  0.54282216821E+03  0.25500000920E-02 0. -1.
        2   -1    0    0  501    0  0.00000000000E+00  0.00000000000E+00 -0.12060041943E+04  0.12060041944E+04  0.25500000920E-02 0.  1.
    10030    2    1    2    0    0  0.00000000000E+00  0.00000000000E+00 -0.66318202614E+03  0.17488263626E+04  0.16182037099E+04 0.  0.
        4    1    3    3  502    0  0.49122458226E+03  0.56562215533E+03 -0.66189963923E+03  0.99967132505E+03  0.12699999809E+01 0.  1.
       -4    1    3    3    0  502 -0.49122458226E+03 -0.56562215533E+03 -0.12823869132E+01  0.74915503751E+03  0.12699999809E+01 0. -1.
</event>
<event>
 5   0  0.5083831E-04  0.1587328E+04  0.7818609E-02  0.8828371E-01
       -2   -1    0    0    0  501  0.00000000000E+00  0.00000000000E+00  0.94789666736E+03  0.94789666736E+03  0.25500000920E-02 0.  1.
        2   -1    0    0  501    0  0.00000000000E+00  0.00000000000E+00 -0.66452617995E+03  0.66452617995E+03  0.25500000920E-02 0. -1.
    10030    2    1    2    0    0  0.00000000000E+00  0.00000000000E+00  0.28337048741E+03  0.16124228473E+04  0.15873275041E+04 0.  0.
        4    1    3    3  502    0  0.40375061227E+03  0.84963103919E+02  0.83039174755E+03  0.92724611254E+03  0.12699999809E+01 0.  1.
       -4    1    3    3    0  502 -0.40375061227E+03 -0.84963103919E+02 -0.54702126013E+03  0.68517673477E+03  0.12699999809E+01 0. -1.
</event>
<event>
 5   0  0.2689675E-04  0.1636154E+04  0.7818609E-02  0.8798640E-01
       -1   -1    0    0    0  501  0.00000000000E+00  0.00000000000E+00  0.77741322652E+03  0.77741322653E+03  0.50400001928E-02 0. -1.
        1   -1    0    0  501    0  0.00000000000E+00  0.00000000000E+00 -0.86086814017E+03  0.86086814018E+03  0.50400001928E-02 0.  1.
    10030    2    1    2    0    0  0.00000000000E+00  0.00000000000E+00 -0.83454913652E+02  0.16382813667E+04  0.16361543674E+04 0.  0.
        1    1    3    3  502    0  0.81308112454E+03  0.56616308008E+02  0.28677228208E+02  0.81555423171E+03  0.50400001928E-02 0. -1.
       -1    1    3    3    0  502 -0.81308112454E+03 -0.56616308008E+02 -0.11213214186E+03  0.82272713501E+03  0.50400001928E-02 0.  1.
</event>
<event>
 5   0  0.5264308E-04  0.1614685E+04  0.7818609E-02  0.8811577E-01
       -2   -1    0    0    0  501  0.00000000000E+00  0.00000000000E+00  0.45566908054E+03  0.45566908054E+03  0.25500000920E-02 0. -1.
        2   -1    0    0  501    0  0.00000000000E+00  0.00000000000E+00 -0.14304276537E+04  0.14304276537E+04  0.25500000920E-02 0.  1.
    10030    2    1    2    0    0  0.00000000000E+00  0.00000000000E+00 -0.97475857312E+03  0.18860967342E+04  0.16146846797E+04 0.  0.
        3    1    3    3  502    0 -0.70455939582E+03 -0.21076389067E+03 -0.98252321317E+02  0.74194264515E+03  0.10100000352E+00 0.  1.
       -3    1    3    3    0  502  0.70455939582E+03  0.21076389067E+03 -0.87650625180E+03  0.11441540891E+04  0.10100000352E+00 0. -1.
</event>
<event>
 5   0  0.5131239E-04  0.1580327E+04  0.7818609E-02  0.8832726E-01
       -2   -1    0    0    0  501  0.00000000000E+00  0.00000000000E+00  0.33667839974E+03  0.33667839975E+03  0.25500000920E-02 0.  1.
        2   -1    0    0  501    0  0.00000000000E+00  0.00000000000E+00 -0.18544642730E+04  0.18544642730E+04  0.25500000920E-02 0. -1.
    10030    2    1    2    0    0  0.00000000000E+00  0.00000000000E+00 -0.15177858733E+04  0.21911426728E+04  0.15803266293E+04 0.  0.
        1    1    3    3  502    0 -0.38596292223E+03  0.68774399521E+03 -0.82680209979E+03  0.11426114355E+04  0.50400001928E-02 0.  1.
       -1    1    3    3    0  502  0.38596292223E+03 -0.68774399521E+03 -0.69098377350E+03  0.10485312373E+04  0.50400001928E-02 0. -1.
</event>
<event>
 5   0  0.2649086E-04  0.1597366E+04  0.7818609E-02  0.8822168E-01
        1   -1    0    0  501    0  0.00000000000E+00  0.00000000000E+00  0.64833044680E+03  0.64833044682E+03  0.50400001928E-02 0.  1.
       -1   -1    0    0    0  501  0.00000000000E+00  0.00000000000E+00 -0.98390374426E+03  0.98390374428E+03  0.50400001928E-02 0. -1.
    10030    2    1    2    0    0  0.00000000000E+00  0.00000000000E+00 -0.33557329746E+03  0.16322341911E+04  0.15973662750E+04 0.  0.
        2    1    3    3  502    0  0.22177084049E+03 -0.59234986247E+03  0.33054103139E+03  0.71366521472E+03  0.25500000920E-02 0.  1.
       -2    1    3    3    0  502 -0.22177084049E+03  0.59234986247E+03 -0.66611432885E+03  0.91856897638E+03  0.25500000920E-02 0. -1.
</event>
<event>
 5   0  0.2689675E-04  0.1610691E+04  0.7818609E-02  0.8814007E-01
        1   -1    0    0  501    0  0.00000000000E+00  0.00000000000E+00  0.13238381387E+04  0.13238381387E+04  0.50400001928E-02 0.  1.
       -1   -1    0    0    0  501  0.00000000000E+00  0.00000000000E+00 -0.48992497523E+03  0.48992497526E+03  0.50400001928E-02 0. -1.
    10030    2    1    2    0    0  0.00000000000E+00  0.00000000000E+00  0.83391316344E+03  0.18137631139E+04  0.16106909913E+04 0.  0.
        1    1    3    3  502    0 -0.77125978022E+03 -0.19304049205E+03  0.27241853008E+03  0.84042735303E+03  0.50400001928E-02 0. -1.
       -1    1    3    3    0  502  0.77125978022E+03  0.19304049205E+03  0.56149463337E+03  0.97333576092E+03  0.50400001928E-02 0.  1.
</event>
<event>
 5   0  0.2649086E-04  0.1608379E+04  0.7818609E-02  0.8815417E-01
        1   -1    0    0  501    0  0.00000000000E+00  0.00000000000E+00  0.13610939854E+04  0.13610939854E+04  0.50400001928E-02 0.  1.
       -1   -1    0    0    0  501  0.00000000000E+00  0.00000000000E+00 -0.47514755911E+03  0.47514755914E+03  0.50400001928E-02 0. -1.
    10030    2    1    2    0    0  0.00000000000E+00  0.00000000000E+00  0.88594642633E+03  0.18362415446E+04  0.16083786680E+04 0.  0.
        2    1    3    3  502    0 -0.46213629271E+03  0.21956870228E+03  0.11513072182E+04  0.12598764538E+04  0.25500000920E-02 0.  1.
       -2    1    3    3    0  502  0.46213629271E+03 -0.21956870228E+03 -0.26536079186E+03  0.57636509083E+03  0.25500000920E-02 0. -1.
</event>
<event>
 5   0  0.5264308E-04  0.1447169E+04  0.7818609E-02  0.8920366E-01
       -2   -1    0    0    0  501  0.00000000000E+00  0.00000000000E+00  0.59243594448E+03  0.59243594448E+03  0.25500000920E-02 0.  1.
        2   -1    0    0  501    0  0.00000000000E+00  0.00000000000E+00 -0.88376530631E+03  0.88376530632E+03  0.25500000920E-02 0. -1.
    10030    2    1    2    0    0  0.00000000000E+00  0.00000000000E+00 -0.29132936184E+03  0.14762012508E+04  0.14471687309E+04 0.  0.
        3    1    3    3  502    0 -0.41525980589E+03  0.54621327690E+03  0.88693608054E+02  0.69184985117E+03  0.10100000352E+00 0.  1.
       -3    1    3    3    0  502  0.41525980589E+03 -0.54621327690E+03 -0.38002296989E+03  0.78435139963E+03  0.10100000352E+00 0. -1.
</event>
<event>
 5   0  0.2649086E-04  0.1588154E+04  0.7818609E-02  0.8827858E-01
       -1   -1    0    0    0  501  0.00000000000E+00  0.00000000000E+00  0.70456352177E+03  0.70456352179E+03  0.50400001928E-02 0.  1.
        1   -1    0    0  501    0  0.00000000000E+00  0.00000000000E+00 -0.89496353470E+03  0.89496353471E+03  0.50400001928E-02 0. -1.
    10030    2    1    2    0    0  0.00000000000E+00  0.00000000000E+00 -0.19040001293E+03  0.15995270565E+04  0.15881544760E+04 0.  0.
        2    1    3    3  502    0 -0.31904557008E+03 -0.55775804435E+03  0.37469699480E+03  0.74382924771E+03  0.25500000920E-02 0.  1.
       -2    1    3    3    0  502  0.31904557008E+03  0.55775804435E+03 -0.56509700773E+03  0.85569780879E+03  0.25500000920E-02 0. -1.
</event>
<event>
 5   0  0.5083831E-04  0.1599034E+04  0.7818609E-02  0.8821141E-01
        2   -1    0    0  501    0  0.00000000000E+00  0.00000000000E+00  0.10455005174E+04  0.10455005174E+04  0.25500000920E-02 0.  1.
       -2   -1    0    0    0  501  0.00000000000E+00  0.00000000000E+00 -0.61140843278E+03  0.61140843278E+03  0.25500000920E-02 0. -1.
    10030    2    1    2    0    0  0.00000000000E+00  0.00000000000E+00  0.43409208466E+03  0.16569089502E+04  0.15990344997E+04 0.  0.
        4    1    3    3  502    0 -0.14121901537E+03 -0.45195211894E+03  0.88458517703E+03  0.10033424522E+04  0.12699999809E+01 0.  1.
       -4    1    3    3    0  502  0.14121901537E+03  0.45195211894E+03 -0.45049309237E+03  0.65356649799E+03  0.12699999809E+01 0. -1.
</event>
<event>
 5   0  0.2796994E-04  0.1594252E+04  0.7818609E-02  0.8824087E-01
       -1   -1    0    0    0  501  0.00000000000E+00  0.00000000000E+00  0.63999521305E+03  0.63999521307E+03  0.50400001928E-02 0. -1.
        1   -1    0    0  501    0  0.00000000000E+00  0.00000000000E+00 -0.99283565649E+03  0.99283565650E+03  0.50400001928E-02 0.  1.
    10030    2    1    2    0    0  0.00000000000E+00  0.00000000000E+00 -0.35284044344E+03  0.16328308696E+04  0.15942522605E+04 0.  0.
        3    1    3    3  502    0 -0.53155275493E+03 -0.30356167584E+03  0.34653523711E+03  0.70340934246E+03  0.10100000352E+00 0. -1.
       -3    1    3    3    0  502  0.53155275493E+03  0.30356167584E+03 -0.69937568055E+03  0.92942152711E+03  0.10100000352E+00 0.  1.
</event>
<event>
 5   0  0.2689675E-04  0.1601956E+04  0.7818609E-02  0.8819347E-01
       -1   -1    0    0    0  501  0.00000000000E+00  0.00000000000E+00  0.57839593880E+03  0.57839593882E+03  0.50400001928E-02 0. -1.
        1   -1    0    0  501    0  0.00000000000E+00  0.00000000000E+00 -0.11092151207E+04  0.11092151207E+04  0.50400001928E-02 0.  1.
    10030    2    1    2    0    0  0.00000000000E+00  0.00000000000E+00 -0.53081918188E+03  0.16876110595E+04  0.16019557061E+04 0.  0.
        1    1    3    3  502    0 -0.37774004839E+03 -0.22995563485E+03 -0.96894911578E+03  0.10650960178E+04  0.50400001928E-02 0.  1.
       -1    1    3    3    0  502  0.37774004839E+03  0.22995563485E+03  0.43812993390E+03  0.62251504171E+03  0.50400001928E-02 0. -1.
</event>
<event>
 5   0  0.5083831E-04  0.1564191E+04  0.7818609E-02  0.8842854E-01
       -2   -1    0    0    0  501  0.00000000000E+00  0.00000000000E+00  0.88198741512E+03  0.88198741512E+03  0.25500000920E-02 0.  1.
        2   -1    0    0  501    0  0.00000000000E+00  0.00000000000E+00 -0.69351689696E+03  0.69351689697E+03  0.25500000920E-02 0. -1.
    10030    2    1    2    0    0  0.00000000000E+00  0.00000000000E+00  0.18847051815E+03  0.15755043121E+04  0.15641907496E+04 0.  0.
        4    1    3    3  502    0 -0.55313776248E+03 -0.21889849376E+03 -0.41717092085E+03  0.72657492728E+03  0.12699999809E+01 0. -1.
       -4    1    3    3    0  502  0.55313776248E+03  0.21889849376E+03  0.60564143900E+03  0.84892938481E+03  0.12699999809E+01 0.  1.
</event>
<event>
 5   0  0.5381164E-04  0.1589549E+04  0.7818609E-02  0.8826994E-01
       -2   -1    0    0    0  501  0.00000000000E+00  0.00000000000E+00  0.52906466598E+03  0.52906466599E+03  0.25500000920E-02 0. -1.
        2   -1    0    0  501    0  0.00000000000E+00  0.00000000000E+00 -0.11939309131E+04  0.11939309131E+04  0.25500000920E-02 0.  1.
    10030    2    1    2    0    0  0.00000000000E+00  0.00000000000E+00 -0.66486624716E+03  0.17229955791E+04  0.15895491937E+04 0.  0.
        5    1    3    3  502    0  0.73859648465E+03  0.10155238556E+03 -0.33987920094E+02  0.74633432378E+03  0.46999998093E+01 0. -1.
       -5    1    3    3    0  502 -0.73859648465E+03 -0.10155238556E+03 -0.63087832707E+03  0.97666125535E+03  0.46999998093E+01 0.  1.
</event>
<event>
 5   0  0.2649086E-04  0.1513297E+04  0.7818609E-02  0.8875658E-01
        1   -1    0    0  501    0  0.00000000000E+00  0.00000000000E+00  0.19259725632E+04  0.19259725632E+04  0.50400001928E-02 0.  1.
       -1   -1    0    0    0  501  0.00000000000E+00  0.00000000000E+00 -0.29726122299E+03  0.29726122304E+03  0.50400001928E-02 0. -1.
    10030    2    1    2    0    0  0.00000000000E+00  0.00000000000E+00  0.16287113402E+04  0.22232337863E+04  0.15132970094E+04 0.  0.
        2    1    3    3  502    0  0.50735119372E+03  0.55704266928E+03  0.71241025567E+03  0.10369330458E+04  0.25500000920E-02 0. -1.
       -2    1    3    3    0  502 -0.50735119372E+03 -0.55704266928E+03  0.91630108457E+03  0.11863007404E+04  0.25500000920E-02 0.  1.
</event>
<event>
 5   0  0.2649086E-04  0.1622598E+04  0.7818609E-02  0.8806784E-01
       -1   -1    0    0    0  501  0.00000000000E+00  0.00000000000E+00  0.90280421087E+03  0.90280421088E+03  0.50400001928E-02 0. -1.
        1   -1    0    0  501    0  0.00000000000E+00  0.00000000000E+00 -0.72906879683E+03  0.72906879685E+03  0.50400001928E-02 0.  1.
    10030    2    1    2    0    0  0.00000000000E+00  0.00000000000E+00  0.17373541403E+03  0.16318730077E+04  0.16225983851E+04 0.  0.
        2    1    3    3  502    0  0.14975504646E+02  0.28305569892E+03  0.85138485663E+03  0.89732991064E+03  0.25500000920E-02 0. -1.
       -2    1    3    3    0  502 -0.14975504646E+02 -0.28305569892E+03 -0.67764944259E+03  0.73454309709E+03  0.25500000920E-02 0.  1.
</event>
<event>
 5   0  0.2689675E-04  0.1587874E+04  0.7818609E-02  0.8828032E-01
       -1   -1    0    0    0  501  0.00000000000E+00  0.00000000000E+00  0.57885441995E+03  0.57885441997E+03  0.50400001928E-02 0.  1.
        1   -1    0    0  501    0  0.00000000000E+00  0.00000000000E+00 -0.10889376244E+04  0.10889376244E+04  0.50400001928E-02 0. -1.
    10030    2    1    2    0    0  0.00000000000E+00  0.00000000000E+00 -0.51008320440E+03  0.16677920443E+04  0.15878745000E+04 0.  0.
        1    1    3    3  502    0 -0.78292108398E+03  0.84827629453E+02 -0.36099071843E+03  0.86629986106E+03  0.50400001928E-02 0. -1.
       -1    1    3    3    0  502  0.78292108398E+03 -0.84827629453E+02 -0.14909248597E+03  0.80149218327E+03  0.50400001928E-02 0.  1.
</event>
<event>
 5   0  0.2730707E-04  0.1612828E+04  0.7818609E-02  0.8812706E-01
        1   -1    0    0  501    0  0.00000000000E+00  0.00000000000E+00  0.61020739293E+03  0.61020739295E+03  0.50400001928E-02 0.  1.
       -1   -1    0    0    0  501  0.00000000000E+00  0.00000000000E+00 -0.10657088106E+04  0.10657088106E+04  0.50400001928E-02 0. -1.
    10030    2    1    2    0    0  0.00000000000E+00  0.00000000000E+00 -0.45550141764E+03  0.16759162035E+04  0.16128278209E+04 0.  0.
        5    1    3    3  502    0 -0.57402514138E+02 -0.39723827426E+03  0.49902799911E+03  0.64042511589E+03  0.46999998093E+01 0.  1.
       -5    1    3    3    0  502  0.57402514138E+02  0.39723827426E+03 -0.95452941675E+03  0.10354910877E+04  0.46999998093E+01 0. -1.
</event>
<event>
 5   0  0.2796994E-04  0.1613059E+04  0.7818609E-02  0.8812565E-01
        1   -1    0    0  501    0  0.00000000000E+00  0.00000000000E+00  0.69315967409E+03  0.69315967411E+03  0.50400001928E-02 0. -1.
       -1   -1    0    0    0  501  0.00000000000E+00  0.00000000000E+00 -0.93844146212E+03  0.93844146214E+03  0.50400001928E-02 0.  1.
    10030    2    1    2    0    0  0.00000000000E+00  0.00000000000E+00 -0.24528178803E+03  0.16316011362E+04  0.16130589302E+04 0.  0.
        3    1    3    3  502    0 -0.34976063525E+03  0.31542629946E+03 -0.78489098389E+03  0.91535791861E+03  0.10100000352E+00 0.  1.
       -3    1    3    3    0  502  0.34976063525E+03 -0.31542629946E+03  0.53960919586E+03  0.71624321764E+03  0.10100000352E+00 0. -1.
</event>
<event>
 5   0  0.5131239E-04  0.1674147E+04  0.7818609E-02  0.8776248E-01
       -2   -1    0    0    0  501  0.00000000000E+00  0.00000000000E+00  0.81181798376E+03  0.81181798376E+03  0.25500000920E-02 0. -1.
        2   -1    0    0  501    0  0.00000000000E+00  0.00000000000E+00 -0.86311486006E+03  0.86311486006E+03  0.25500000920E-02 0.  1.
    10030    2    1    2    0    0  0.00000000000E+00  0.00000000000E+00 -0.51296876297E+02  0.16749328438E+04  0.16741471446E+04 0.  0.
        1    1    3    3  502    0 -0.64759123460E+03  0.15775251058E+03  0.48098027590E+03  0.82195029506E+03  0.50400001928E-02 0. -1.
       -1    1    3    3    0  502  0.64759123460E+03 -0.15775251058E+03 -0.53227715219E+03  0.85298254876E+03  0.50400001928E-02 0.  1.
</event>
<event>
 5   0  0.2730707E-04  0.1586048E+04  0.7818609E-02  0.8829165E-01
       -1   -1    0    0    0  501  0.00000000000E+00  0.00000000000E+00  0.86706265147E+03  0.86706265148E+03  0.50400001928E-02 0.  1.
        1   -1    0    0  501    0  0.00000000000E+00  0.00000000000E+00 -0.72530746570E+03  0.72530746572E+03  0.50400001928E-02 0. -1.
    10030    2    1    2    0    0  0.00000000000E+00  0.00000000000E+00  0.14175518576E+03  0.15923701172E+04  0.15860479367E+04 0.  0.
        5    1    3    3  502    0  0.41350753724E+03 -0.44588707032E+02 -0.60700881688E+03  0.73583858958E+03  0.46999998093E+01 0. -1.
       -5    1    3    3    0  502 -0.41350753724E+03  0.44588707032E+02  0.74876400264E+03  0.85653152762E+03  0.46999998093E+01 0.  1.
</event>
<event>
 5   0  0.2689675E-04  0.1597199E+04  0.7818609E-02  0.8822271E-01
       -1   -1    0    0    0  501  0.00000000000E+00  0.00000000000E+00  0.15067607972E+04  0.15067607972E+04  0.50400001928E-02 0.  1.
        1   -1    0    0  501    0  0.00000000000E+00  0.00000000000E+00 -0.42326611794E+03  0.42326611797E+03  0.50400001928E-02 0. -1.
    10030    2    1    2    0    0  0.00000000000E+00  0.00000000000E+00  0.10834946793E+04  0.19300269152E+04  0.15971985391E+04 0.  0.
        1    1    3    3  502    0 -0.62379615083E+02  0.60220150241E+03 -0.87567047908E+02  0.61172367437E+03  0.50400001928E-02 0. -1.
       -1    1    3    3    0  502  0.62379615083E+02 -0.60220150241E+03  0.11710617272E+04  0.13183032408E+04  0.50400001928E-02 0.  1.
</event>
<event>
 5   0  0.2796994E-04  0.1597673E+04  0.7818609E-02  0.8821979E-01
       -1   -1    0    0    0  501  0.00000000000E+00  0.00000000000E+00  0.40004704668E+03  0.40004704672E+03  0.50400001928E-02 0. -1.
        1   -1    0    0  501    0  0.00000000000E+00  0.00000000000E+00 -0.15951624314E+04  0.15951624314E+04  0.50400001928E-02 0.  1.
    10030    2    1    2    0    0  0.00000000000E+00  0.00000000000E+00 -0.11951153847E+04  0.19952094781E+04  0.15976733329E+04 0.  0.
        3    1    3    3  502    0  0.53158457430E+03 -0.58803204592E+03 -0.72103431039E+03  0.10715662992E+04  0.10100000352E+00 0.  1.
       -3    1    3    3    0  502 -0.53158457430E+03  0.58803204592E+03 -0.47408107429E+03  0.92364317887E+03  0.10100000352E+00 0. -1.
</event>
<event>
 5   0  0.2763895E-04  0.1612045E+04  0.7818609E-02  0.8813182E-01
       -1   -1    0    0    0  501  0.00000000000E+00  0.00000000000E+00  0.64395932979E+03  0.64395932981E+03  0.50400001928E-02 0.  1.
        1   -1    0    0  501    0  0.00000000000E+00  0.00000000000E+00 -0.10088721612E+04  0.10088721613E+04  0.50400001928E-02 0. -1.
    10030    2    1    2    0    0  0.00000000000E+00  0.00000000000E+00 -0.36491283145E+03  0.16528314911E+04  0.16120454594E+04 0.  0.
        4    1    3    3  502    0 -0.46502727449E+03 -0.16808800334E+03 -0.83508842799E+03  0.97050411557E+03  0.12699999809E+01 0. -1.
       -4    1    3    3    0  502  0.46502727449E+03  0.16808800334E+03  0.47017559653E+03  0.68232737550E+03  0.12699999809E+01 0.  1.
</event>
<event>
 5   0  0.2796994E-04  0.1591056E+04  0.7818609E-02  0.8826062E-01
       -1   -1    0    0    0  501  0.00000000000E+00  0.00000000000E+00  0.35450815815E+03  0.35450815818E+03  0.50400001928E-02 0.  1.
        1   -1    0    0  501    0  0.00000000000E+00  0.00000000000E+00 -0.17851901384E+04  0.17851901384E+04  0.50400001928E-02 0. -1.
    10030    2    1    2    0    0  0.00000000000E+00  0.00000000000E+00 -0.14306819802E+04  0.21396982966E+04  0.15910555841E+04 0.  0.
        3    1    3    3  502    0 -0.75138195567E+03  0.69275575016E+02 -0.37647998582E+03  0.84327405897E+03  0.10100000352E+00 0.  1.
       -3    1    3    3    0  502  0.75138195567E+03 -0.69275575016E+02 -0.10542019944E+04  0.12964242376E+04  0.10100000352E+00 0. -1.
</event>
<event>
 5   0  0.5131239E-04  0.1600743E+04  0.7818609E-02  0.8820092E-01
        2   -1    0    0  501    0  0.00000000000E+00  0.00000000000E+00  0.73619309232E+03  0.73619309233E+03  0.25500000920E-02 0.  1.
       -2   -1    0    0    0  501  0.00000000000E+00  0.00000000000E+00 -0.87014476682E+03  0.87014476683E+03  0.25500000920E-02 0. -1.
    10030    2    1    2    0    0  0.00000000000E+00  0.00000000000E+00 -0.13395167450E+03  0.16063378592E+04  0.16007430358E+04 0.  0.
        1    1    3    3  502    0 -0.44087716595E+03  0.65314314937E+03 -0.20755801282E+03  0.81489200372E+03  0.50400001928E-02 0.  1.
       -1    1    3    3    0  502  0.44087716595E+03 -0.65314314937E+03  0.73606338316E+02  0.79144585544E+03  0.50400001928E-02 0. -1.
</event>
<event>
 5   0  0.5264308E-04  0.1597460E+04  0.7818609E-02  0.8822110E-01
        2   -1    0    0  501    0  0.00000000000E+00  0.00000000000E+00  0.15771196443E+04  0.15771196443E+04  0.25500000920E-02 0. -1.
       -2   -1    0    0    0  501  0.00000000000E+00  0.00000000000E+00 -0.40451581526E+03  0.40451581527E+03  0.25500000920E-02 0.  1.
    10030    2    1    2    0    0  0.00000000000E+00  0.00000000000E+00  0.11726038291E+04  0.19816354596E+04  0.15974602827E+04 0.  0.
        3    1    3    3  502    0  0.12819845686E+03 -0.32270211617E+03 -0.30598845646E+03  0.46281794024E+03  0.10100000352E+00 0.  1.
       -3    1    3    3    0  502 -0.12819845686E+03  0.32270211617E+03  0.14785922855E+04  0.15188175194E+04  0.10100000352E+00 0. -1.
</event>
<event>
 5   0  0.2796994E-04  0.1601824E+04  0.7818609E-02  0.8819428E-01
       -1   -1    0    0    0  501  0.00000000000E+00  0.00000000000E+00  0.49870517957E+03  0.49870517960E+03  0.50400001928E-02 0. -1.
        1   -1    0    0  501    0  0.00000000000E+00  0.00000000000E+00 -0.12862514011E+04  0.12862514011E+04  0.50400001928E-02 0.  1.
    10030    2    1    2    0    0  0.00000000000E+00  0.00000000000E+00 -0.78754622148E+03  0.17849565807E+04  0.16018242550E+04 0.  0.
        3    1    3    3  502    0  0.19775190288E+03 -0.22991433036E+03  0.43225379497E+03  0.52802440082E+03  0.10100000352E+00 0. -1.
       -3    1    3    3    0  502 -0.19775190288E+03  0.22991433036E+03 -0.12198000164E+04  0.12569321798E+04  0.10100000352E+00 0.  1.
</event>
<event>
 5   0  0.1908125E-04  0.1626572E+04  0.7818609E-02  0.8804388E-01
       -4   -1    0    0    0  501  0.00000000000E+00  0.00000000000E+00  0.10887315192E+04  0.10887322600E+04  0.12699999809E+01 0.  1.
        4   -1    0    0  501    0  0.00000000000E+00  0.00000000000E+00 -0.60752552724E+03  0.60752685467E+03  0.12699999809E+01 0. -1.
    10030    2    1    2    0    0  0.00000000000E+00  0.00000000000E+00  0.48120599200E+03  0.16962591146E+04  0.16265717867E+04 0.  0.
        3    1    3    3  502    0  0.80474233037E+03  0.69656737961E+02  0.33937985995E+03  0.87615123065E+03  0.10100000352E+00 0.  1.
       -3    1    3    3    0  502 -0.80474233037E+03 -0.69656737961E+02  0.14182613205E+03  0.82010788398E+03  0.10100000352E+00 0. -1.
</event>
<event>
 5   0  0.2763895E-04  0.1582165E+04  0.7818609E-02  0.8831580E-01
       -1   -1    0    0    0  501  0.00000000000E+00  0.00000000000E+00  0.94590098001E+03  0.94590098003E+03  0.50400001928E-02 0.  1.
        1   -1    0    0  501    0  0.00000000000E+00  0.00000000000E+00 -0.66160371799E+03  0.66160371801E+03  0.50400001928E-02 0. -1.
    10030    2    1    2    0    0  0.00000000000E+00  0.00000000000E+00  0.28429726203E+03  0.16075046980E+04  0.15821651055E+04 0.  0.
        4    1    3    3  502    0  0.20871083729E+03  0.43823573615E+03 -0.49251505020E+03  0.69150810669E+03  0.12699999809E+01 0. -1.
       -4    1    3    3    0  502 -0.20871083729E+03 -0.43823573615E+03  0.77681231223E+03  0.91599659135E+03  0.12699999809E+01 0.  1.
</event>
<event>
 5   0  0.2649086E-04  0.1600118E+04  0.7818609E-02  0.8820475E-01
        1   -1    0    0  501    0  0.00000000000E+00  0.00000000000E+00  0.11804272502E+04  0.11804272502E+04  0.50400001928E-02 0. -1.
       -1   -1    0    0    0  501  0.00000000000E+00  0.00000000000E+00 -0.54225668175E+03  0.54225668178E+03  0.50400001928E-02 0.  1.
    10030    2    1    2    0    0  0.00000000000E+00  0.00000000000E+00  0.63817056840E+03  0.17226839319E+04  0.16001182003E+04 0.  0.
        2    1    3    3  502    0 -0.13574804712E+03 -0.73159634482E+03  0.25694867292E+01  0.74408826514E+03  0.25500000920E-02 0.  1.
       -2    1    3    3    0  502  0.13574804712E+03  0.73159634482E+03  0.63560108167E+03  0.97859566680E+03  0.25500000920E-02 0. -1.
</event>
<event>
 5   0  0.2689675E-04  0.1610537E+04  0.7818609E-02  0.8814101E-01
       -1   -1    0    0    0  501  0.00000000000E+00  0.00000000000E+00  0.61147744670E+03  0.61147744672E+03  0.50400001928E-02 0.  1.
        1   -1    0    0  501    0  0.00000000000E+00  0.00000000000E+00 -0.10604766714E+04  0.10604766714E+04  0.50400001928E-02 0. -1.
    10030    2    1    2    0    0  0.00000000000E+00  0.00000000000E+00 -0.44899922465E+03  0.16719541181E+04  0.16105372611E+04 0.  0.
        1    1    3    3  502    0 -0.68121765212E+03  0.76987722908E+02  0.21407127713E+03  0.71819991002E+03  0.50400001928E-02 0.  1.
       -1    1    3    3    0  502  0.68121765212E+03 -0.76987722908E+02 -0.66307050179E+03  0.95375420807E+03  0.50400001928E-02 0. -1.
</event>
<event>
 5   0  0.2730707E-04  0.1616819E+04  0.7818609E-02  0.8810281E-01
        1   -1    0    0  501    0  0.00000000000E+00  0.00000000000E+00  0.14789452449E+04  0.14789452449E+04  0.50400001928E-02 0.  1.
       -1   -1    0    0    0  501  0.00000000000E+00  0.00000000000E+00 -0.44188670399E+03  0.44188670402E+03  0.50400001928E-02 0. -1.
    10030    2    1    2    0    0  0.00000000000E+00  0.00000000000E+00  0.10370585409E+04  0.19208319489E+04  0.16168193958E+04 0.  0.
        5    1    3    3  502    0  0.22204282733E+03  0.50287588660E+03  0.12226991227E+04  0.13405977805E+04  0.46999998093E+01 0.  1.
       -5    1    3    3    0  502 -0.22204282733E+03 -0.50287588660E+03 -0.18564058185E+03  0.58023416834E+03  0.46999998093E+01 0. -1.
</event>
<event>
 5   0  0.5381164E-04  0.1581638E+04  0.7818609E-02  0.8831909E-01
        2   -1    0    0  501    0  0.00000000000E+00  0.00000000000E+00  0.12931131365E+04  0.12931131365E+04  0.25500000920E-02 0.  1.
       -2   -1    0    0    0  501  0.00000000000E+00  0.00000000000E+00 -0.48363469053E+03  0.48363469054E+03  0.25500000920E-02 0. -1.
    10030    2    1    2    0    0  0.00000000000E+00  0.00000000000E+00  0.80947844593E+03  0.17767478270E+04  0.15816375964E+04 0.  0.
        5    1    3    3  502    0 -0.73333660236E+03 -0.29015915121E+03  0.47021650326E+03  0.91820507259E+03  0.46999998093E+01 0.  1.
       -5    1    3    3    0  502  0.73333660236E+03  0.29015915121E+03  0.33926194267E+03  0.85854275440E+03  0.46999998093E+01 0. -1.
</event>
<event>
 5   0  0.5083831E-04  0.1567228E+04  0.7818609E-02  0.8840938E-01
        2   -1    0    0  501    0  0.00000000000E+00  0.00000000000E+00  0.81540294688E+03  0.81540294688E+03  0.25500000920E-02 0.  1.
       -2   -1    0    0    0  501  0.00000000000E+00  0.00000000000E+00 -0.75306392683E+03  0.75306392684E+03  0.25500000920E-02 0. -1.
    10030    2    1    2    0    0  0.00000000000E+00  0.00000000000E+00  0.62339020045E+02  0.15684668737E+04  0.15672275459E+04 0.  0.
        4    1    3    3  502    0 -0.32292447288E+03  0.71397909056E+03  0.32775550314E+02  0.78429726924E+03  0.12699999809E+01 0. -1.
       -4    1    3    3    0  502  0.32292447288E+03 -0.71397909056E+03  0.29563469731E+02  0.78416960448E+03  0.12699999809E+01 0.  1.
</event>
<event>
 5   0  0.2730707E-04  0.1597455E+04  0.7818609E-02  0.8822113E-01
       -1   -1    0    0    0  501  0.00000000000E+00  0.00000000000E+00  0.60975011819E+03  0.60975011822E+03  0.50400001928E-02 0.  1.
        1   -1    0    0  501    0  0.00000000000E+00  0.00000000000E+00 -0.10462740811E+04  0.10462740811E+04  0.50400001928E-02 0. -1.
    10030    2    1    2    0    0  0.00000000000E+00  0.00000000000E+00 -0.43652396288E+03  0.16560241993E+04  0.15974551570E+04 0.  0.
        5    1    3    3  502    0  0.78489879773E+03 -0.46477345885E+02 -0.36382890289E+03  0.86638318713E+03  0.46999998093E+01 0. -1.
       -5    1    3    3    0  502 -0.78489879773E+03  0.46477345885E+02 -0.72695059992E+02  0.78964101217E+03  0.46999998093E+01 0.  1.
</event>
<event>
 5   0  0.1908125E-04  0.1600461E+04  0.7818609E-02  0.8820265E-01
        3   -1    0    0  501    0  0.00000000000E+00  0.00000000000E+00  0.34364193761E+03  0.34364195246E+03  0.10100000352E+00 0. -1.
       -3   -1    0    0    0  501  0.00000000000E+00  0.00000000000E+00 -0.18634761415E+04  0.18634761442E+04  0.10100000352E+00 0.  1.
    10030    2    1    2    0    0  0.00000000000E+00  0.00000000000E+00 -0.15198342039E+04  0.22071180967E+04  0.16004606479E+04 0.  0.
        1    1    3    3  502    0 -0.50670216042E+01  0.20090326157E+03  0.30827469666E+03  0.36799603781E+03  0.50400001928E-02 0. -1.
       -1    1    3    3    0  502  0.50670216042E+01 -0.20090326157E+03 -0.18281089006E+04  0.18391220589E+04  0.50400001928E-02 0.  1.
</event>
<event>
 5   0  0.5131239E-04  0.1608735E+04  0.7818609E-02  0.8815200E-01
        2   -1    0    0  501    0  0.00000000000E+00  0.00000000000E+00  0.12706514519E+04  0.12706514519E+04  0.25500000920E-02 0.  1.
       -2   -1    0    0    0  501  0.00000000000E+00  0.00000000000E+00 -0.50919291289E+03  0.50919291289E+03  0.25500000920E-02 0. -1.
    10030    2    1    2    0    0  0.00000000000E+00  0.00000000000E+00  0.76145853904E+03  0.17798443648E+04  0.16087345512E+04 0.  0.
        1    1    3    3  502    0 -0.22777066536E+03  0.26976306670E+03  0.11803436002E+04  0.12320156666E+04  0.50400001928E-02 0.  1.
       -1    1    3    3    0  502  0.22777066536E+03 -0.26976306670E+03 -0.41888506114E+03  0.54782869825E+03  0.50400001928E-02 0. -1.
</event>
<event>
 5   0  0.5083831E-04  0.1633147E+04  0.7818609E-02  0.8800439E-01
        2   -1    0    0  501    0  0.00000000000E+00  0.00000000000E+00  0.66591316662E+03  0.66591316663E+03  0.25500000920E-02 0. -1.
       -2   -1    0    0    0  501  0.00000000000E+00  0.00000000000E+00 -0.10013200661E+04  0.10013200661E+04  0.25500000920E-02 0.  1.
    10030    2    1    2    0    0  0.00000000000E+00  0.00000000000E+00 -0.33540689945E+03  0.16672332327E+04  0.16331469205E+04 0.  0.
        4    1    3    3  502    0 -0.69724914524E+03 -0.32784630170E+03 -0.44381294356E+03  0.88916315142E+03  0.12699999809E+01 0.  1.
       -4    1    3    3    0  502  0.69724914524E+03  0.32784630170E+03  0.10840604412E+03  0.77807008128E+03  0.12699999809E+01 0. -1.
</event>
<event>
 5   0  0.5083831E-04  0.1623994E+04  0.7818609E-02  0.8805942E-01
       -2   -1    0    0    0  501  0.00000000000E+00  0.00000000000E+00  0.42257054040E+03  0.42257054041E+03  0.25500000920E-02 0.  1.
        2   -1    0    0  501    0  0.00000000000E+00  0.00000000000E+00 -0.15603046899E+04  0.15603046899E+04  0.25500000920E-02 0. -1.
    10030    2    1    2    0    0  0.00000000000E+00  0.00000000000E+00 -0.11377341495E+04  0.19828752303E+04  0.16239935912E+04 0.  0.
        4    1    3    3  502    0  0.54832563395E+03  0.48490711611E+03 -0.13970917698E+03  0.74519539661E+03  0.12699999809E+01 0.  1.
       -4    1    3    3    0  502 -0.54832563395E+03 -0.48490711611E+03 -0.99802497254E+03  0.12376798337E+04  0.12699999809E+01 0. -1.
</event>
<event>
 5   0  0.2689675E-04  0.1586231E+04  0.7818609E-02  0.8829052E-01
        1   -1    0    0  501    0  0.00000000000E+00  0.00000000000E+00  0.56725619852E+03  0.56725619854E+03  0.50400001928E-02 0.  1.
       -1   -1    0    0    0  501  0.00000000000E+00  0.00000000000E+00 -0.11089030386E+04  0.11089030386E+04  0.50400001928E-02 0. -1.
    10030    2    1    2    0    0  0.00000000000E+00  0.00000000000E+00 -0.54164684007E+03  0.16761592371E+04  0.15862309065E+04 0.  0.
        1    1    3    3  502    0  0.38350485798E+03  0.55098603372E+03 -0.71710650531E+03  0.98229492793E+03  0.50400001928E-02 0. -1.
       -1    1    3    3    0  502 -0.38350485798E+03 -0.55098603372E+03  0.17545966523E+03  0.69386430921E+03  0.50400001928E-02 0.  1.
</event>
<event>
 5   0  0.2796994E-04  0.1593762E+04  0.7818609E-02  0.8824389E-01
        1   -1    0    0  501    0  0.00000000000E+00  0.00000000000E+00  0.54812136846E+03  0.54812136848E+03  0.50400001928E-02 0.  1.
       -1   -1    0    0    0  501  0.00000000000E+00  0.00000000000E+00 -0.11585377055E+04  0.11585377055E+04  0.50400001928E-02 0. -1.
    10030    2    1    2    0    0  0.00000000000E+00  0.00000000000E+00 -0.61041633700E+03  0.17066590739E+04  0.15937619302E+04 0.  0.
        3    1    3    3  502    0 -0.65732389916E+03  0.27547031393E+03  0.76497736894E+02  0.71680577301E+03  0.10100000352E+00 0.  1.
       -3    1    3    3    0  502  0.65732389916E+03 -0.27547031393E+03 -0.68691407390E+03  0.98985330094E+03  0.10100000352E+00 0. -1.
</event>
<event>
 5   0  0.2796994E-04  0.1606374E+04  0.7818609E-02  0.8816642E-01
        1   -1    0    0  501    0  0.00000000000E+00  0.00000000000E+00  0.11919625801E+04  0.11919625801E+04  0.50400001928E-02 0.  1.
       -1   -1    0    0    0  501  0.00000000000E+00  0.00000000000E+00 -0.54121620307E+03  0.54121620309E+03  0.50400001928E-02 0. -1.
    10030    2    1    2    0    0  0.00000000000E+00  0.00000000000E+00  0.65074637702E+03  0.17331787832E+04  0.16063741305E+04 0.  0.
        3    1    3    3  502    0  0.18576061655E+03 -0.43009916445E+02 -0.51644261420E+03  0.55051779584E+03  0.10100000352E+00 0. -1.
       -3    1    3    3    0  502 -0.18576061655E+03  0.43009916445E+02  0.11671889912E+04  0.11826609873E+04  0.10100000352E+00 0.  1.
</event>
<event>
 5   0  0.5083831E-04  0.1592857E+04  0.7818609E-02  0.8824949E-01
        2   -1    0    0  501    0  0.00000000000E+00  0.00000000000E+00  0.23355147034E+04  0.23355147034E+04  0.25500000920E-02 0. -1.
       -2   -1    0    0    0  501  0.00000000000E+00  0.00000000000E+00 -0.27158811822E+03  0.27158811823E+03  0.25500000920E-02 0.  1.
    10030    2    1    2    0    0  0.00000000000E+00  0.00000000000E+00  0.20639265852E+04  0.26071028217E+04  0.15928566080E+04 0.  0.
        4    1    3    3  502    0 -0.31339547748E+03  0.34604960197E+03  0.20880510474E+04  0.21396088057E+04  0.12699999809E+01 0. -1.
       -4    1    3    3    0  502  0.31339547748E+03 -0.34604960197E+03 -0.24124462172E+02  0.46749401590E+03  0.12699999809E+01 0.  1.
</event>
<event>
 5   0  0.2763895E-04  0.1612240E+04  0.7818609E-02  0.8813064E-01
       -1   -1    0    0    0  501  0.00000000000E+00  0.00000000000E+00  0.13239889869E+04  0.13239889869E+04  0.50400001928E-02 0.  1.
        1   -1    0    0  501    0  0.00000000000E+00  0.00000000000E+00 -0.49081177723E+03  0.49081177725E+03  0.50400001928E-02 0. -1.
    10030    2    1    2    0    0  0.00000000000E+00  0.00000000000E+00  0.83317720966E+03  0.18148007641E+04  0.16122399173E+04 0.  0.
        4    1    3    3  502    0  0.52748106909E+03  0.48031871631E+03  0.83909405997E+03  0.11013731438E+04  0.12699999809E+01 0.  1.
       -4    1    3    3    0  502 -0.52748106909E+03 -0.48031871631E+03 -0.59168503117E+01  0.71342762036E+03  0.12699999809E+01 0. -1.
</event>
<event>
 5   0  0.5131239E-04  0.1616116E+04  0.7818609E-02  0.8810708E-01
        2   -1    0    0  501    0  0.00000000000E+00  0.00000000000E+00  0.10075733640E+04  0.10075733640E+04  0.25500000920E-02 0. -1.
       -2   -1    0    0    0  501  0.00000000000E+00  0.00000000000E+00 -0.64804995528E+03  0.64804995528E+03  0.25500000920E-02 0.  1.
    10030    2    1    2    0    0  0.00000000000E+00  0.00000000000E+00  0.35952340870E+03  0.16556233193E+04  0.16161161759E+04 0.  0.
        1    1    3    3  502    0  0.11389547926E+03  0.32667935931E+03 -0.56834065229E+03  0.66535906176E+03  0.50400001928E-02 0.  1.
       -1    1    3    3    0  502 -0.11389547926E+03 -0.32667935931E+03  0.92786406098E+03  0.99026425750E+03  0.50400001928E-02 0. -1.
</event>
<event>
 5   0  0.2730707E-04  0.1600940E+04  0.7818609E-02  0.8819971E-01
        1   -1    0    0  501    0  0.00000000000E+00  0.00000000000E+00  0.15560667758E+04  0.15560667758E+04  0.50400001928E-02 0.  1.
       -1   -1    0    0    0  501  0.00000000000E+00  0.00000000000E+00 -0.41177697127E+03  0.41177697130E+03  0.50400001928E-02 0. -1.
    10030    2    1    2    0    0  0.00000000000E+00  0.00000000000E+00  0.11442898045E+04  0.19678437471E+04  0.16009403038E+04 0.  0.
        5    1    3    3  502    0  0.56344362626E+02  0.10457221730E+03  0.15451558267E+04  0.15497221218E+04  0.46999998093E+01 0.  1.
       -5    1    3    3    0  502 -0.56344362626E+02 -0.10457221730E+03 -0.40086602219E+03  0.41812162534E+03  0.46999998093E+01 0. -1.
</event>
<event>
 5   0  0.5264308E-04  0.1558430E+04  0.7818609E-02  0.8846501E-01
       -2   -1    0    0    0  501  0.00000000000E+00  0.00000000000E+00  0.75013473040E+03  0.75013473040E+03  0.25500000920E-02 0. -1.
        2   -1    0    0  501    0  0.00000000000E+00  0.00000000000E+00 -0.80942272070E+03  0.80942272070E+03  0.25500000920E-02 0.  1.
    10030    2    1    2    0    0  0.00000000000E+00  0.00000000000E+00 -0.59287990304E+02  0.15595574511E+04  0.15584301003E+04 0.  0.
        3    1    3    3  502    0 -0.68613166763E+03  0.16542844237E+03 -0.36008408448E+03  0.79234070511E+03  0.10100000352E+00 0.  1.
       -3    1    3    3    0  502  0.68613166763E+03 -0.16542844237E+03  0.30079609418E+03  0.76721674600E+03  0.10100000352E+00 0. -1.
</event>
<event>
 5   0  0.5131239E-04  0.1612003E+04  0.7818609E-02  0.8813208E-01
       -2   -1    0    0    0  501  0.00000000000E+00  0.00000000000E+00  0.40616629974E+03  0.40616629975E+03  0.25500000920E-02 0. -1.
        2   -1    0    0  501    0  0.00000000000E+00  0.00000000000E+00 -0.15994403209E+04  0.15994403209E+04  0.25500000920E-02 0.  1.
    10030    2    1    2    0    0  0.00000000000E+00  0.00000000000E+00 -0.11932740211E+04  0.20056066206E+04  0.16120034203E+04 0.  0.
        1    1    3    3  502    0  0.71356479226E+03 -0.36412666584E+03 -0.48622214315E+03  0.93710987298E+03  0.50400001928E-02 0.  1.
       -1    1    3    3    0  502 -0.71356479226E+03  0.36412666584E+03 -0.70705187798E+03  0.10684967476E+04  0.50400001928E-02 0. -1.
</event>
<event>
 5   0  0.2730707E-04  0.1602055E+04  0.7818609E-02  0.8819286E-01
        1   -1    0    0  501    0  0.00000000000E+00  0.00000000000E+00  0.45762468842E+03  0.45762468844E+03  0.50400001928E-02 0. -1.
       -1   -1    0    0    0  501  0.00000000000E+00  0.00000000000E+00 -0.14021210760E+04  0.14021210760E+04  0.50400001928E-02 0.  1.
    10030    2    1    2    0    0  0.00000000000E+00  0.00000000000E+00 -0.94449638760E+03  0.18597457645E+04  0.16020552058E+04 0.  0.
        5    1    3    3  502    0  0.51765420814E+03  0.59517479048E+03 -0.31045960139E+03  0.84770641410E+03  0.46999998093E+01 0.  1.
       -5    1    3    3    0  502 -0.51765420814E+03 -0.59517479048E+03 -0.63403678621E+03  0.10120393504E+04  0.46999998093E+01 0. -1.
</event>
<event>
 5   0  0.2649086E-04  0.1604419E+04  0.7818609E-02  0.8817838E-01
        1   -1    0    0  501    0  0.00000000000E+00  0.00000000000E+00  0.16565149275E+04  0.16565149275E+04  0.50400001928E-02 0.  1.
       -1   -1    0    0    0  501  0.00000000000E+00  0.00000000000E+00 -0.38849042875E+03  0.38849042879E+03  0.50400001928E-02 0. -1.
    10030    2    1    2    0    0  0.00000000000E+00  0.00000000000E+00  0.12680244987E+04  0.20450053563E+04  0.16044191403E+04 0.  0.
        2    1    3    3  502    0 -0.30883482516E+03 -0.52637726916E+02 -0.30729283791E+03  0.43883774651E+03  0.25500000920E-02 0. -1.
       -2    1    3    3    0  502  0.30883482516E+03  0.52637726916E+02  0.15753173366E+04  0.16061676098E+04  0.25500000920E-02 0.  1.
</event>
<event>
 5   0  0.5315984E-04  0.1591747E+04  0.7818609E-02  0.8825634E-01
        2   -1    0    0  501    0  0.00000000000E+00  0.00000000000E+00  0.12954999130E+04  0.12954999130E+04  0.25500000920E-02 0.  1.
       -2   -1    0    0    0  501  0.00000000000E+00  0.00000000000E+00 -0.48893457030E+03  0.48893457031E+03  0.25500000920E-02 0. -1.
    10030    2    1    2    0    0  0.00000000000E+00  0.00000000000E+00  0.80656534265E+03  0.17844344833E+04  0.15917470820E+04 0.  0.
        2    1    3    3  502    0  0.38277756676E+03 -0.12418344851E+03 -0.36647787629E+03  0.54428506163E+03  0.25500000920E-02 0. -1.
       -2    1    3    3    0  502 -0.38277756676E+03  0.12418344851E+03  0.11730432189E+04  0.12401494216E+04  0.25500000920E-02 0.  1.
</event>
<event>
 5   0  0.5315984E-04  0.1569417E+04  0.7818609E-02  0.8839560E-01
        2   -1    0    0  501    0  0.00000000000E+00  0.00000000000E+00  0.74398412854E+03  0.74398412854E+03  0.25500000920E-02 0. -1.
       -2   -1    0    0    0  501  0.00000000000E+00  0.00000000000E+00 -0.82766233179E+03  0.82766233179E+03  0.25500000920E-02 0.  1.
    10030    2    1    2    0    0  0.00000000000E+00  0.00000000000E+00 -0.83678203247E+02  0.15716464603E+04  0.15694172659E+04 0.  0.
        2    1    3    3  502    0 -0.12414642953E+03 -0.69431018689E+03 -0.38625881543E+03  0.80416095659E+03  0.25500000920E-02 0. -1.
       -2    1    3    3    0  502  0.12414642953E+03  0.69431018689E+03  0.30258061219E+03  0.76748550375E+03  0.25500000920E-02 0.  1.
</event>
<event>
 5   0  0.2796994E-04  0.1837551E+04  0.7818609E-02  0.8686581E-01
       -1   -1    0    0    0  501  0.00000000000E+00  0.00000000000E+00  0.93123624998E+03  0.93123624999E+03  0.50400001928E-02 0.  1.
        1   -1    0    0  501    0  0.00000000000E+00  0.00000000000E+00 -0.90648184551E+03  0.90648184553E+03  0.50400001928E-02 0. -1.
    10030    2    1    2    0    0  0.00000000000E+00  0.00000000000E+00  0.24754404464E+02  0.18377180955E+04  0.18375513647E+04 0.  0.
        3    1    3    3  502    0 -0.65772994609E+03 -0.24558145980E+03 -0.58032301686E+03  0.91087526560E+03  0.10100000352E+00 0. -1.
       -3    1    3    3    0  502  0.65772994609E+03  0.24558145980E+03  0.60507742132E+03  0.92684282992E+03  0.10100000352E+00 0.  1.
</event>
<event>
 5   0  0.2649086E-04  0.1540973E+04  0.7818609E-02  0.8857655E-01
       -1   -1    0    0    0  501  0.00000000000E+00  0.00000000000E+00  0.44484298796E+03  0.44484298798E+03  0.50400001928E-02 0. -1.
        1   -1    0    0  501    0  0.00000000000E+00  0.00000000000E+00 -0.13345139063E+04  0.13345139063E+04  0.50400001928E-02 0.  1.
    10030    2    1    2    0    0  0.00000000000E+00  0.00000000000E+00 -0.88967091838E+03  0.17793568943E+04  0.15409726196E+04 0.  0.
        2    1    3    3  502    0 -0.67330077766E+03  0.26340651374E+03 -0.75236719141E+03  0.10434430121E+04  0.25500000920E-02 0.  1.
       -2    1    3    3    0  502  0.67330077766E+03 -0.26340651374E+03 -0.13730372697E+03  0.73591388228E+03  0.25500000920E-02 0. -1.
</event>
<event>
 5   0  0.5131239E-04  0.1589812E+04  0.7818609E-02  0.8826832E-01
       -2   -1    0    0    0  501  0.00000000000E+00  0.00000000000E+00  0.36375632091E+03  0.36375632092E+03  0.25500000920E-02 0.  1.
        2   -1    0    0  501    0  0.00000000000E+00  0.00000000000E+00 -0.17370839931E+04  0.17370839931E+04  0.25500000920E-02 0. -1.
    10030    2    1    2    0    0  0.00000000000E+00  0.00000000000E+00 -0.13733276722E+04  0.21008403140E+04  0.15898116649E+04 0.  0.
        1    1    3    3  502    0  0.38372987888E+02 -0.51322320338E+03  0.11387646466E+03  0.52710377718E+03  0.50400001928E-02 0.  1.
       -1    1    3    3    0  502 -0.38372987888E+02  0.51322320338E+03 -0.14872041368E+04  0.15737365368E+04  0.50400001928E-02 0. -1.
</event>
<event>
 5   0  0.2763895E-04  0.1601229E+04  0.7818609E-02  0.8819793E-01
       -1   -1    0    0    0  501  0.00000000000E+00  0.00000000000E+00  0.10602764702E+04  0.10602764702E+04  0.50400001928E-02 0. -1.
        1   -1    0    0  501    0  0.00000000000E+00  0.00000000000E+00 -0.60454386984E+03  0.60454386986E+03  0.50400001928E-02 0.  1.
    10030    2    1    2    0    0  0.00000000000E+00  0.00000000000E+00  0.45573260035E+03  0.16648203401E+04  0.16012290785E+04 0.  0.
        4    1    3    3  502    0  0.10538986826E+03  0.51742288439E+03  0.85355352456E+03  0.10036875499E+04  0.12699999809E+01 0. -1.
       -4    1    3    3    0  502 -0.10538986826E+03 -0.51742288439E+03 -0.39782092420E+03  0.66113279018E+03  0.12699999809E+01 0.  1.
</event>
<event>
 5   0  0.5131239E-04  0.1633603E+04  0.7818609E-02  0.8800166E-01
       -2   -1    0    0    0  501  0.00000000000E+00  0.00000000000E+00  0.39096594180E+03  0.39096594181E+03  0.25500000920E-02 0.  1.
        2   -1    0    0  501    0  0.00000000000E+00  0.00000000000E+00 -0.17064518734E+04  0.17064518734E+04  0.25500000920E-02 0. -1.
    10030    2    1    2    0    0  0.00000000000E+00  0.00000000000E+00 -0.13154859316E+04  0.20974178152E+04  0.16336028450E+04 0.  0.
        1    1    3    3  502    0 -0.78363189667E+03 -0.28851794637E+02 -0.36425191131E+03  0.86463335030E+03  0.50400001928E-02 0.  1.
       -1    1    3    3    0  502  0.78363189667E+03  0.28851794637E+02 -0.95123402028E+03  0.12327844649E+04  0.50400001928E-02 0. -1.
</event>
<event>
 5   0  0.2689675E-04  0.1470911E+04  0.7818609E-02  0.8904031E-01
        1   -1    0    0  501    0  0.00000000000E+00  0.00000000000E+00  0.69202401655E+03  0.69202401657E+03  0.50400001928E-02 0. -1.
       -1   -1    0    0    0  501  0.00000000000E+00  0.00000000000E+00 -0.78161224506E+03  0.78161224508E+03  0.50400001928E-02 0.  1.
    10030    2    1    2    0    0  0.00000000000E+00  0.00000000000E+00 -0.89588228513E+02  0.14736362616E+04  0.14709105278E+04 0.  0.
        1    1    3    3  502    0  0.21498139654E+03  0.11473135800E+03 -0.73999221138E+03  0.77908199715E+03  0.50400001928E-02 0.  1.
       -1    1    3    3    0  502 -0.21498139654E+03 -0.11473135800E+03  0.65040398286E+03  0.69455426449E+03  0.50400001928E-02 0. -1.
</event>
<event>
 5   0  0.5083831E-04  0.1602514E+04  0.7818609E-02  0.8819005E-01
       -2   -1    0    0    0  501  0.00000000000E+00  0.00000000000E+00  0.30886332092E+03  0.30886332093E+03  0.25500000920E-02 0. -1.
        2   -1    0    0  501    0  0.00000000000E+00  0.00000000000E+00 -0.20786311228E+04  0.20786311228E+04  0.25500000920E-02 0.  1.
    10030    2    1    2    0    0  0.00000000000E+00  0.00000000000E+00 -0.17697678019E+04  0.23874944437E+04  0.16025141641E+04 0.  0.
        4    1    3    3  502    0 -0.18949564982E+03 -0.21460076992E+03  0.23006146302E+03  0.36727643733E+03  0.12699999809E+01 0. -1.
       -4    1    3    3    0  502  0.18949564982E+03  0.21460076992E+03 -0.19998292649E+04  0.20202180064E+04  0.12699999809E+01 0.  1.
</event>
<event>
 5   0  0.1908125E-04  0.1593374E+04  0.7818609E-02  0.8824629E-01
        3   -1    0    0  501    0  0.00000000000E+00  0.00000000000E+00  0.15321983339E+04  0.15321983373E+04  0.10100000352E+00 0. -1.
       -3   -1    0    0    0  501  0.00000000000E+00  0.00000000000E+00 -0.41424815060E+03  0.41424816291E+03  0.10100000352E+00 0.  1.
    10030    2    1    2    0    0  0.00000000000E+00  0.00000000000E+00  0.11179501833E+04  0.19464465002E+04  0.15933742076E+04 0.  0.
        1    1    3    3  502    0 -0.54762542580E+03 -0.24316358427E+03 -0.82432036071E+02  0.60482822048E+03  0.50400001928E-02 0.  1.
       -1    1    3    3    0  502  0.54762542580E+03  0.24316358427E+03  0.12003822194E+04  0.13416182797E+04  0.50400001928E-02 0. -1.
</event>
<event>
 5   0  0.5264308E-04  0.1614068E+04  0.7818609E-02  0.8811952E-01
       -2   -1    0    0    0  501  0.00000000000E+00  0.00000000000E+00  0.66887679378E+03  0.66887679379E+03  0.25500000920E-02 0. -1.
        2   -1    0    0  501    0  0.00000000000E+00  0.00000000000E+00 -0.97372791047E+03  0.97372791047E+03  0.25500000920E-02 0.  1.
    10030    2    1    2    0    0  0.00000000000E+00  0.00000000000E+00 -0.30485111668E+03  0.16426047043E+04  0.16140681557E+04 0.  0.
        3    1    3    3  502    0  0.56072927017E+03 -0.10610827839E+03  0.42830124519E+03  0.71352522591E+03  0.10100000352E+00 0. -1.
       -3    1    3    3    0  502 -0.56072927017E+03  0.10610827839E+03 -0.73315236188E+03  0.92907947835E+03  0.10100000352E+00 0.  1.
</event>
<event>
 5   0  0.5315984E-04  0.1602242E+04  0.7818609E-02  0.8819172E-01
       -2   -1    0    0    0  501  0.00000000000E+00  0.00000000000E+00  0.55817912215E+03  0.55817912215E+03  0.25500000920E-02 0.  1.
        2   -1    0    0  501    0  0.00000000000E+00  0.00000000000E+00 -0.11498010106E+04  0.11498010106E+04  0.25500000920E-02 0. -1.
    10030    2    1    2    0    0  0.00000000000E+00  0.00000000000E+00 -0.59162188842E+03  0.17079801327E+04  0.16022420775E+04 0.  0.
        2    1    3    3  502    0 -0.51574844349E+03  0.55058688878E+03 -0.58314035477E+03  0.95351720091E+03  0.25500000920E-02 0. -1.
       -2    1    3    3    0  502  0.51574844349E+03 -0.55058688878E+03 -0.84815336480E+01  0.75446293181E+03  0.25500000920E-02 0.  1.
</event>
<event>
 5   0  0.5131239E-04  0.1596413E+04  0.7818609E-02  0.8822755E-01
        2   -1    0    0  501    0  0.00000000000E+00  0.00000000000E+00  0.10556375395E+04  0.10556375395E+04  0.25500000920E-02 0.  1.
       -2   -1    0    0    0  501  0.00000000000E+00  0.00000000000E+00 -0.60355305725E+03  0.60355305725E+03  0.25500000920E-02 0. -1.
    10030    2    1    2    0    0  0.00000000000E+00  0.00000000000E+00  0.45208448222E+03  0.16591905967E+04  0.15964125586E+04 0.  0.
        1    1    3    3  502    0 -0.30767773326E+03 -0.21441591330E+03 -0.50628960896E+03  0.63005471158E+03  0.50400001928E-02 0. -1.
       -1    1    3    3    0  502  0.30767773326E+03  0.21441591330E+03  0.95837409118E+03  0.10291358851E+04  0.50400001928E-02 0.  1.
</event>
<event>
 5   0  0.2763895E-04  0.1596826E+04  0.7818609E-02  0.8822500E-01
       -1   -1    0    0    0  501  0.00000000000E+00  0.00000000000E+00  0.42522690028E+03  0.42522690031E+03  0.50400001928E-02 0.  1.
        1   -1    0    0  501    0  0.00000000000E+00  0.00000000000E+00 -0.14991134677E+04  0.14991134677E+04  0.50400001928E-02 0. -1.
    10030    2    1    2    0    0  0.00000000000E+00  0.00000000000E+00 -0.10738865674E+04  0.19243403680E+04  0.15968260683E+04 0.  0.
        4    1    3    3  502    0 -0.41463144317E+03 -0.29212523851E+03  0.20613300041E+03  0.54749321036E+03  0.12699999809E+01 0.  1.
       -4    1    3    3    0  502  0.41463144317E+03  0.29212523851E+03 -0.12800195678E+04  0.13768471576E+04  0.12699999809E+01 0. -1.
</event>
<event>
 5   0  0.5315984E-04  0.1617607E+04  0.7818609E-02  0.8809804E-01
        2   -1    0    0  501    0  0.00000000000E+00  0.00000000000E+00  0.79107488401E+03  0.79107488402E+03  0.25500000920E-02 0.  1.
       -2   -1    0    0    0  501  0.00000000000E+00  0.00000000000E+00 -0.82692948051E+03  0.82692948051E+03  0.25500000920E-02 0. -1.
    10030    2    1    2    0    0  0.00000000000E+00  0.00000000000E+00 -0.35854596492E+02  0.16180043645E+04  0.16176070510E+04 0.  0.
        2    1    3    3  502    0 -0.65261403168E+03 -0.27954677510E+03  0.36961033657E+03  0.80041443935E+03  0.25500000920E-02 0.  1.
       -2    1    3    3    0  502  0.65261403168E+03  0.27954677510E+03 -0.40546493306E+03  0.81758992518E+03  0.25500000920E-02 0. -1.
</event>
<event>
 5   0  0.2730707E-04  0.1596780E+04  0.7818609E-02  0.8822529E-01
       -1   -1    0    0    0  501  0.00000000000E+00  0.00000000000E+00  0.47191297517E+03  0.47191297520E+03  0.50400001928E-02 0. -1.
        1   -1    0    0  501    0  0.00000000000E+00  0.00000000000E+00 -0.13507282654E+04  0.13507282654E+04  0.50400001928E-02 0.  1.
    10030    2    1    2    0    0  0.00000000000E+00  0.00000000000E+00 -0.87881529024E+03  0.18226412406E+04  0.15967795019E+04 0.  0.
        5    1    3    3  502    0  0.33878051071E+03 -0.50355050540E+03  0.15268256636E+03  0.62583496386E+03  0.46999998093E+01 0. -1.
       -5    1    3    3    0  502 -0.33878051071E+03  0.50355050540E+03 -0.10314978566E+04  0.11968062768E+04  0.46999998093E+01 0.  1.
</event>
<event>
 5   0  0.2763895E-04  0.1594542E+04  0.7818609E-02  0.8823908E-01
       -1   -1    0    0    0  501  0.00000000000E+00  0.00000000000E+00  0.67654002880E+03  0.67654002882E+03  0.50400001928E-02 0.  1.
        1   -1    0    0  501    0  0.00000000000E+00  0.00000000000E+00 -0.93954662698E+03  0.93954662699E+03  0.50400001928E-02 0. -1.
    10030    2    1    2    0    0  0.00000000000E+00  0.00000000000E+00 -0.26300659818E+03  0.16160866558E+04  0.15945418177E+04 0.  0.
        4    1    3    3  502    0  0.46962960473E+03  0.44357935953E+03  0.34206229539E+03  0.73097389876E+03  0.12699999809E+01 0.  1.
       -4    1    3    3    0  502 -0.46962960473E+03 -0.44357935953E+03 -0.60506889356E+03  0.88511275705E+03  0.12699999809E+01 0. -1.
</event>
<event>
 5   0  0.2649086E-04  0.1599209E+04  0.7818609E-02  0.8821034E-01
       -1   -1    0    0    0  501  0.00000000000E+00  0.00000000000E+00  0.94401085422E+03  0.94401085423E+03  0.50400001928E-02 0.  1.
        1   -1    0    0  501    0  0.00000000000E+00  0.00000000000E+00 -0.67728832338E+03  0.67728832340E+03  0.50400001928E-02 0. -1.
    10030    2    1    2    0    0  0.00000000000E+00  0.00000000000E+00  0.26672253084E+03  0.16212991776E+04  0.15992092155E+04 0.  0.
        2    1    3    3  502    0 -0.32188082867E+03 -0.58236986017E+03 -0.31616578239E+03  0.73669717243E+03  0.25500000920E-02 0. -1.
       -2    1    3    3    0  502  0.32188082867E+03  0.58236986017E+03  0.58288831324E+03  0.88460200521E+03  0.25500000920E-02 0.  1.
</event>
<event>
 5   0  0.2730707E-04  0.1602495E+04  0.7818609E-02  0.8819017E-01
        1   -1    0    0  501    0  0.00000000000E+00  0.00000000000E+00  0.17609399473E+04  0.17609399474E+04  0.50400001928E-02 0. -1.
       -1   -1    0    0    0  501  0.00000000000E+00  0.00000000000E+00 -0.36457653137E+03  0.36457653141E+03  0.50400001928E-02 0.  1.
    10030    2    1    2    0    0  0.00000000000E+00  0.00000000000E+00  0.13963634160E+04  0.21255164788E+04  0.16024947775E+04 0.  0.
        5    1    3    3  502    0 -0.65728544032E+03  0.15423282730E+03  0.12704701474E+04  0.14387245742E+04  0.46999998093E+01 0. -1.
       -5    1    3    3    0  502  0.65728544032E+03 -0.15423282730E+03  0.12589326860E+03  0.68679190455E+03  0.46999998093E+01 0.  1.
</event>
<event>
 5   0  0.5264308E-04  0.1610345E+04  0.7818609E-02  0.8814218E-01
        2   -1    0    0  501    0  0.00000000000E+00  0.00000000000E+00  0.19489576850E+04  0.19489576850E+04  0.25500000920E-02 0.  1.
       -2   -1    0    0    0  501  0.00000000000E+00  0.00000000000E+00 -0.33264062512E+03  0.33264062513E+03  0.25500000920E-02 0. -1.
    10030    2    1    2    0    0  0.00000000000E+00  0.00000000000E+00  0.16163170598E+04  0.22815983101E+04  0.16103446869E+04 0.  0.
        3    1    3    3  502    0 -0.73743107327E+03 -0.19019696956E+03  0.43781576818E+03  0.87844301587E+03  0.10100000352E+00 0. -1.
       -3    1    3    3    0  502  0.73743107327E+03  0.19019696956E+03  0.11785012917E+04  0.14031552942E+04  0.10100000352E+00 0.  1.
</event>
<event>
 5   0  0.5083831E-04  0.1604662E+04  0.7818609E-02  0.8817689E-01
       -2   -1    0    0    0  501  0.00000000000E+00  0.00000000000E+00  0.39524540664E+03  0.39524540664E+03  0.25500000920E-02 0.  1.
        2   -1    0    0  501    0  0.00000000000E+00  0.00000000000E+00 -0.16286962680E+04  0.16286962680E+04  0.25500000920E-02 0. -1.
    10030    2    1    2    0    0  0.00000000000E+00  0.00000000000E+00 -0.12334508614E+04  0.20239416747E+04  0.16046616076E+04 0.  0.
        4    1    3    3  502    0  0.33138745056E+03  0.53303749118E+03 -0.12471004715E+04  0.13961403254E+04  0.12699999809E+01 0. -1.
       -4    1    3    3    0  502 -0.33138745056E+03 -0.53303749118E+03  0.13649610073E+02  0.62780134927E+03  0.12699999809E+01 0.  1.
</event>
<event>
 5   0  0.5381164E-04  0.1605669E+04  0.7818609E-02  0.8817073E-01
       -2   -1    0    0    0  501  0.00000000000E+00  0.00000000000E+00  0.35482619996E+03  0.35482619997E+03  0.25500000920E-02 0.  1.
        2   -1    0    0  501    0  0.00000000000E+00  0.00000000000E+00 -0.18165046023E+04  0.18165046023E+04  0.25500000920E-02 0. -1.
    10030    2    1    2    0    0  0.00000000000E+00  0.00000000000E+00 -0.14616784023E+04  0.21713308022E+04  0.16056692377E+04 0.  0.
        5    1    3    3  502    0 -0.56614258934E+03 -0.16087868151E+03 -0.14691970324E+04  0.15827069823E+04  0.46999998093E+01 0. -1.
       -5    1    3    3    0  502  0.56614258934E+03  0.16087868151E+03  0.75186301382E+01  0.58862381996E+03  0.46999998093E+01 0.  1.
</event>
<event>
 5   0  0.2649086E-04  0.1570683E+04  0.7818609E-02  0.8838764E-01
       -1   -1    0    0    0  501  0.00000000000E+00  0.00000000000E+00  0.33984655482E+03  0.33984655485E+03  0.50400001928E-02 0. -1.
        1   -1    0    0  501    0  0.00000000000E+00  0.00000000000E+00 -0.18148221387E+04  0.18148221387E+04  0.50400001928E-02 0.  1.
    10030    2    1    2    0    0  0.00000000000E+00  0.00000000000E+00 -0.14749755839E+04  0.21546686935E+04  0.15706827197E+04 0.  0.
        2    1    3    3  502    0  0.51004038824E+03  0.23552718829E+03 -0.14902904785E+04  0.15926644230E+04  0.25500000920E-02 0.  1.
       -2    1    3    3    0  502 -0.51004038824E+03 -0.23552718829E+03  0.15314894644E+02  0.56200427051E+03  0.25500000920E-02 0. -1.
</event>
<event>
 5   0  0.2649086E-04  0.1631435E+04  0.7818609E-02  0.8801466E-01
        1   -1    0    0  501    0  0.00000000000E+00  0.00000000000E+00  0.76678175529E+03  0.76678175531E+03  0.50400001928E-02 0.  1.
       -1   -1    0    0    0  501  0.00000000000E+00  0.00000000000E+00 -0.86777640852E+03  0.86777640853E+03  0.50400001928E-02 0. -1.
    10030    2    1    2    0    0  0.00000000000E+00  0.00000000000E+00 -0.10099465322E+03  0.16345581638E+04  0.16314350956E+04 0.  0.
        2    1    3    3  502    0  0.66437065976E+03  0.28138587169E+03  0.33079489673E+03  0.79372013081E+03  0.25500000920E-02 0.  1.
       -2    1    3    3    0  502 -0.66437065976E+03 -0.28138587169E+03 -0.43178954995E+03  0.84083803303E+03  0.25500000920E-02 0. -1.
</event>
<event>
 5   0  0.1908125E-04  0.1608720E+04  0.7818609E-02  0.8815209E-01
       -3   -1    0    0    0  501  0.00000000000E+00  0.00000000000E+00  0.16872376716E+04  0.16872376746E+04  0.10100000352E+00 0.  1.
        3   -1    0    0  501    0  0.00000000000E+00  0.00000000000E+00 -0.38346386313E+03  0.38346387643E+03  0.10100000352E+00 0. -1.
    10030    2    1    2    0    0  0.00000000000E+00  0.00000000000E+00  0.13037738085E+04  0.20707015511E+04  0.16087196057E+04 0.  0.
        3    1    3    3  502    0  0.73067251427E+03  0.97916956525E+02  0.10660381720E+04  0.12961124364E+04  0.10100000352E+00 0.  1.
       -3    1    3    3    0  502 -0.73067251427E+03 -0.97916956525E+02  0.23773563651E+03  0.77458911466E+03  0.10100000352E+00 0. -1.
</event>
<event>
 5   0  0.1908125E-04  0.1610288E+04  0.7818609E-02  0.8814253E-01
       -3   -1    0    0    0  501  0.00000000000E+00  0.00000000000E+00  0.87558949904E+03  0.87558950487E+03  0.10100000352E+00 0.  1.
        3   -1    0    0  501    0  0.00000000000E+00  0.00000000000E+00 -0.74036598906E+03  0.74036599594E+03  0.10100000352E+00 0. -1.
    10030    2    1    2    0    0  0.00000000000E+00  0.00000000000E+00  0.13522350999E+03  0.16159555008E+04  0.16102877951E+04 0.  0.
        1    1    3    3  502    0 -0.47337918292E+02 -0.33825776465E+03  0.79928531530E+03  0.86920435407E+03  0.50400001928E-02 0.  1.
       -1    1    3    3    0  502  0.47337918292E+02  0.33825776465E+03 -0.66406180532E+03  0.74675114674E+03  0.50400001928E-02 0. -1.
</event>
<event>
 5   0  0.2763895E-04  0.1598298E+04  0.7818609E-02  0.8821594E-01
        1   -1    0    0  501    0  0.00000000000E+00  0.00000000000E+00  0.14371148314E+04  0.14371148314E+04  0.50400001928E-02 0.  1.
       -1   -1    0    0    0  501  0.00000000000E+00  0.00000000000E+00 -0.44438966616E+03  0.44438966619E+03  0.50400001928E-02 0. -1.
    10030    2    1    2    0    0  0.00000000000E+00  0.00000000000E+00  0.99272516521E+03  0.18815044976E+04  0.15982978198E+04 0.  0.
        4    1    3    3  502    0  0.19948894476E+03  0.20184598272E+03  0.13757970018E+04  0.14047621303E+04  0.12699999809E+01 0.  1.
       -4    1    3    3    0  502 -0.19948894476E+03 -0.20184598272E+03 -0.38307183658E+03  0.47674236722E+03  0.12699999809E+01 0. -1.
</event>
<event>
 5   0  0.2689675E-04  0.1608706E+04  0.7818609E-02  0.8815217E-01
       -1   -1    0    0    0  501  0.00000000000E+00  0.00000000000E+00  0.49193753503E+03  0.49193753505E+03  0.50400001928E-02 0.  1.
        1   -1    0    0  501    0  0.00000000000E+00  0.00000000000E+00 -0.13151746844E+04  0.13151746844E+04  0.50400001928E-02 0. -1.
    10030    2    1    2    0    0  0.00000000000E+00  0.00000000000E+00 -0.82323714938E+03  0.18071122195E+04  0.16087060545E+04 0.  0.
        1    1    3    3  502    0  0.21832663425E+03  0.75756010932E+03 -0.23251848401E+03  0.82196635204E+03  0.50400001928E-02 0. -1.
       -1    1    3    3    0  502 -0.21832663425E+03 -0.75756010932E+03 -0.59071866537E+03  0.98514586743E+03  0.50400001928E-02 0.  1.
</event>
<event>
 5   0  0.5083831E-04  0.1579475E+04  0.7818609E-02  0.8833257E-01
        2   -1    0    0  501    0  0.00000000000E+00  0.00000000000E+00  0.97530423813E+03  0.97530423814E+03  0.25500000920E-02 0. -1.
       -2   -1    0    0    0  501  0.00000000000E+00  0.00000000000E+00 -0.63947788087E+03  0.63947788088E+03  0.25500000920E-02 0.  1.
    10030    2    1    2    0    0  0.00000000000E+00  0.00000000000E+00  0.33582635726E+03  0.16147821190E+04  0.15794752134E+04 0.  0.
        4    1    3    3  502    0  0.15986277740E+02 -0.15648527668E+03 -0.62329910188E+03  0.64284258275E+03  0.12699999809E+01 0.  1.
       -4    1    3    3    0  502 -0.15986277740E+02  0.15648527668E+03  0.95912545914E+03  0.97193953627E+03  0.12699999809E+01 0. -1.
</event>
<event>
 5   0  0.5381164E-04  0.1602080E+04  0.7818609E-02  0.8819271E-01
       -2   -1    0    0    0  501  0.00000000000E+00  0.00000000000E+00  0.48157805885E+03  0.48157805886E+03  0.25500000920E-02 0. -1.
        2   -1    0    0  501    0  0.00000000000E+00  0.00000000000E+00 -0.13324211491E+04  0.13324211491E+04  0.25500000920E-02 0.  1.
    10030    2    1    2    0    0  0.00000000000E+00  0.00000000000E+00 -0.85084309023E+03  0.18139992079E+04  0.16020796367E+04 0.  0.
        5    1    3    3  502    0 -0.15021530429E+03 -0.64885475482E+03 -0.92933677802E+03  0.11433573665E+04  0.46999998093E+01 0.  1.
       -5    1    3    3    0  502  0.15021530429E+03  0.64885475482E+03  0.78493687792E+02  0.67064184146E+03  0.46999998093E+01 0. -1.
</event>
<event>
 5   0  0.2730707E-04  0.1596513E+04  0.7818609E-02  0.8822693E-01
        1   -1    0    0  501    0  0.00000000000E+00  0.00000000000E+00  0.85543271196E+03  0.85543271197E+03  0.50400001928E-02 0. -1.
       -1   -1    0    0    0  501  0.00000000000E+00  0.00000000000E+00 -0.74490202643E+03  0.74490202644E+03  0.50400001928E-02 0.  1.
    10030    2    1    2    0    0  0.00000000000E+00  0.00000000000E+00  0.11053068553E+03  0.16003347384E+04  0.15965131514E+04 0.  0.
        5    1    3    3  502    0 -0.13279999922E+03 -0.55279967967E+03  0.61693521057E+03  0.83896035048E+03  0.46999998093E+01 0.  1.
       -5    1    3    3    0  502  0.13279999922E+03  0.55279967967E+03 -0.50640452504E+03  0.76137438794E+03  0.46999998093E+01 0. -1.
</event>
<event>
 5   0  0.5131239E-04  0.1601833E+04  0.7818609E-02  0.8819423E-01
       -2   -1    0    0    0  501  0.00000000000E+00  0.00000000000E+00  0.49947517022E+03  0.49947517023E+03  0.25500000920E-02 0.  1.
        2   -1    0    0  501    0  0.00000000000E+00  0.00000000000E+00 -0.12842818238E+04  0.12842818238E+04  0.25500000920E-02 0. -1.
    10030    2    1    2    0    0  0.00000000000E+00  0.00000000000E+00 -0.78480665358E+03  0.17837569940E+04  0.16018325538E+04 0.  0.
        1    1    3    3  502    0  0.30797826963E+03 -0.54532081268E+03  0.16353771109E+03  0.64727890919E+03  0.50400001928E-02 0.  1.
       -1    1    3    3    0  502 -0.30797826963E+03  0.54532081268E+03 -0.94834436467E+03  0.11364780848E+04  0.50400001928E-02 0. -1.
</event>
<event>
 5   0  0.5315984E-04  0.1621269E+04  0.7818609E-02  0.8807587E-01
       -2   -1    0    0    0  501  0.00000000000E+00  0.00000000000E+00  0.60280144976E+03  0.60280144977E+03  0.25500000920E-02 0.  1.
        2   -1    0    0  501    0  0.00000000000E+00  0.00000000000E+00 -0.10901238983E+04  0.10901238983E+04  0.25500000920E-02 0. -1.
    10030    2    1    2    0    0  0.00000000000E+00  0.00000000000E+00 -0.48732244858E+03  0.16929253481E+04  0.16212689676E+04 0.  0.
        2    1    3    3  502    0  0.69162872211E+03  0.41492770384E+03 -0.15874683982E+03  0.82201937193E+03  0.25500000920E-02 0. -1.
       -2    1    3    3    0  502 -0.69162872211E+03 -0.41492770384E+03 -0.32857560876E+03  0.87090597618E+03  0.25500000920E-02 0.  1.
</event>
<event>
 5   0  0.5315984E-04  0.1573528E+04  0.7818609E-02  0.8836978E-01
       -2   -1    0    0    0  501  0.00000000000E+00  0.00000000000E+00  0.46286119628E+03  0.46286119629E+03  0.25500000920E-02 0.  1.
        2   -1    0    0  501    0  0.00000000000E+00  0.00000000000E+00 -0.13373280463E+04  0.13373280463E+04  0.25500000920E-02 0. -1.
    10030    2    1    2    0    0  0.00000000000E+00  0.00000000000E+00 -0.87446685004E+03  0.18001892426E+04  0.15735275776E+04 0.  0.
        2    1    3    3  502    0  0.23193968706E+03 -0.72147333179E+03 -0.19541571669E+03  0.78262832127E+03  0.25500000920E-02 0.  1.
       -2    1    3    3    0  502 -0.23193968706E+03  0.72147333179E+03 -0.67905113335E+03  0.10175609213E+04  0.25500000920E-02 0. -1.
</event>
<event>
 5   0  0.2763895E-04  0.1583656E+04  0.7818609E-02  0.8830652E-01
        1   -1    0    0  501    0  0.00000000000E+00  0.00000000000E+00  0.10475477251E+04  0.10475477251E+04  0.50400001928E-02 0.  1.
       -1   -1    0    0    0  501  0.00000000000E+00  0.00000000000E+00 -0.59853281151E+03  0.59853281153E+03  0.50400001928E-02 0. -1.
    10030    2    1    2    0    0  0.00000000000E+00  0.00000000000E+00  0.44901491355E+03  0.16460805366E+04  0.15836561307E+04 0.  0.
        4    1    3    3  502    0  0.24226561962E+02  0.78440228015E+03  0.11491805883E+03  0.79314666774E+03  0.12699999809E+01 0.  1.
       -4    1    3    3    0  502 -0.24226561962E+02 -0.78440228015E+03  0.33409685472E+03  0.85293386885E+03  0.12699999809E+01 0. -1.
</event>
<event>
 5   0  0.2689675E-04  0.1570218E+04  0.7818609E-02  0.8839056E-01
        1   -1    0    0  501    0  0.00000000000E+00  0.00000000000E+00  0.96011250703E+03  0.96011250704E+03  0.50400001928E-02 0. -1.
       -1   -1    0    0    0  501  0.00000000000E+00  0.00000000000E+00 -0.64200402832E+03  0.64200402834E+03  0.50400001928E-02 0.  1.
    10030    2    1    2    0    0  0.00000000000E+00  0.00000000000E+00  0.31810847871E+03  0.16021165354E+04  0.15702179431E+04 0.  0.
        1    1    3    3  502    0 -0.16811345059E+03  0.15666486826E+03  0.92503143230E+03  0.95314697921E+03  0.50400001928E-02 0. -1.
       -1    1    3    3    0  502  0.16811345059E+03 -0.15666486826E+03 -0.60692295359E+03  0.64896955617E+03  0.50400001928E-02 0.  1.
</event>
<event>
 5   0  0.5381164E-04  0.1603177E+04  0.7818609E-02  0.8818598E-01
        2   -1    0    0  501    0  0.00000000000E+00  0.00000000000E+00  0.85831520003E+03  0.85831520003E+03  0.25500000920E-02 0. -1.
       -2   -1    0    0    0  501  0.00000000000E+00  0.00000000000E+00 -0.74861118609E+03  0.74861118609E+03  0.25500000920E-02 0.  1.
    10030    2    1    2    0    0  0.00000000000E+00  0.00000000000E+00  0.10970401394E+03  0.16069263861E+04  0.16031772952E+04 0.  0.
        5    1    3    3  502    0 -0.25123810022E+03  0.18051242182E+03 -0.68634799796E+03  0.75286186099E+03  0.46999998093E+01 0.  1.
       -5    1    3    3    0  502  0.25123810022E+03 -0.18051242182E+03  0.79605201190E+03  0.85406452513E+03  0.46999998093E+01 0. -1.
</event>
<event>
 5   0  0.2730707E-04  0.1661053E+04  0.7818609E-02  0.8783894E-01
       -1   -1    0    0    0  501  0.00000000000E+00  0.00000000000E+00  0.68639994912E+03  0.68639994913E+03  0.50400001928E-02 0.  1.
        1   -1    0    0  501    0  0.00000000000E+00  0.00000000000E+00 -0.10049161956E+04  0.10049161956E+04  0.50400001928E-02 0. -1.
    10030    2    1    2    0    0  0.00000000000E+00  0.00000000000E+00 -0.31851624649E+03  0.16913161448E+04  0.16610531907E+04 0.  0.
        5    1    3    3  502    0 -0.77766037410E+03 -0.19824285526E+03  0.58403808249E+02  0.80466700064E+03  0.46999998093E+01 0.  1.
       -5    1    3    3    0  502  0.77766037410E+03  0.19824285526E+03 -0.37692005474E+03  0.88664914412E+03  0.46999998093E+01 0. -1.
</event>
<event>
 5   0  0.5315984E-04  0.1591149E+04  0.7818609E-02  0.8826004E-01
        2   -1    0    0  501    0  0.00000000000E+00  0.00000000000E+00  0.20384659658E+04  0.20384659658E+04  0.25500000920E-02 0.  1.
       -2   -1    0    0    0  501  0.00000000000E+00  0.00000000000E+00 -0.31049774763E+03  0.31049774764E+03  0.25500000920E-02 0. -1.
    10030    2    1    2    0    0  0.00000000000E+00  0.00000000000E+00  0.17279682182E+04  0.23489637134E+04  0.15911493846E+04 0.  0.
        2    1    3    3  502    0  0.16649133749E+03  0.68858709532E+03  0.13984412979E+04  0.15676446080E+04  0.25500000920E-02 0.  1.
       -2    1    3    3    0  502 -0.16649133749E+03 -0.68858709532E+03  0.32952692021E+03  0.78131910539E+03  0.25500000920E-02 0. -1.
</event>
<event>
 5   0  0.5083831E-04  0.1601723E+04  0.7818609E-02  0.8819490E-01
        2   -1    0    0  501    0  0.00000000000E+00  0.00000000000E+00  0.16403688519E+04  0.16403688519E+04  0.25500000920E-02 0. -1.
       -2   -1    0    0    0  501  0.00000000000E+00  0.00000000000E+00 -0.39099697211E+03  0.39099697212E+03  0.25500000920E-02 0.  1.
    10030    2    1    2    0    0  0.00000000000E+00  0.00000000000E+00  0.12493718798E+04  0.20313658240E+04  0.16017231399E+04 0.  0.
        4    1    3    3  502    0 -0.16747771220E+03 -0.53337505338E+03 -0.10257950290E+03  0.56838534373E+03  0.12699999809E+01 0.  1.
       -4    1    3    3    0  502  0.16747771220E+03  0.53337505338E+03  0.13519513827E+04  0.14629804803E+04  0.12699999809E+01 0. -1.
</event>
<event>
 5   0  0.2763895E-04  0.1608805E+04  0.7818609E-02  0.8815157E-01
       -1   -1    0    0    0  501  0.00000000000E+00  0.00000000000E+00  0.66689842397E+03  0.66689842399E+03  0.50400001928E-02 0. -1.
        1   -1    0    0  501    0  0.00000000000E+00  0.00000000000E+00 -0.97025740174E+03  0.97025740175E+03  0.50400001928E-02 0.  1.
    10030    2    1    2    0    0  0.00000000000E+00  0.00000000000E+00 -0.30335897776E+03  0.16371558257E+04  0.16088046893E+04 0.  0.
        4    1    3    3  502    0  0.26674874386E+03  0.31563104644E+03 -0.85397442963E+03  0.94871059295E+03  0.12699999809E+01 0.  1.
       -4    1    3    3    0  502 -0.26674874386E+03 -0.31563104644E+03  0.55061545186E+03  0.68844523279E+03  0.12699999809E+01 0. -1.
</event>
<event>
 5   0  0.5381164E-04  0.1594607E+04  0.7818609E-02  0.8823868E-01
        2   -1    0    0  501    0  0.00000000000E+00  0.00000000000E+00  0.11834171416E+04  0.11834171416E+04  0.25500000920E-02 0.  1.
       -2   -1    0    0    0  501  0.00000000000E+00  0.00000000000E+00 -0.53716716391E+03  0.53716716392E+03  0.25500000920E-02 0. -1.
    10030    2    1    2    0    0  0.00000000000E+00  0.00000000000E+00  0.64624997773E+03  0.17205843056E+04  0.15946069481E+04 0.  0.
        5    1    3    3  502    0  0.56630974603E+03 -0.80283239851E+02 -0.27620083344E+03  0.63518589204E+03  0.46999998093E+01 0. -1.
       -5    1    3    3    0  502 -0.56630974603E+03  0.80283239851E+02  0.92245081117E+03  0.10853984135E+04  0.46999998093E+01 0.  1.
</event>
<event>
 5   0  0.5264308E-04  0.1669867E+04  0.7818609E-02  0.8778739E-01
        2   -1    0    0  501    0  0.00000000000E+00  0.00000000000E+00  0.18546806362E+04  0.18546806362E+04  0.25500000920E-02 0.  1.
       -2   -1    0    0    0  501  0.00000000000E+00  0.00000000000E+00 -0.37586735465E+03  0.37586735466E+03  0.25500000920E-02 0. -1.
    10030    2    1    2    0    0  0.00000000000E+00  0.00000000000E+00  0.14788132815E+04  0.22305479908E+04  0.16698669461E+04 0.  0.
        3    1    3    3  502    0  0.34031288157E+03 -0.72318693058E+03  0.41687649428E+03  0.90144229744E+03  0.10100000352E+00 0.  1.
       -3    1    3    3    0  502 -0.34031288157E+03  0.72318693058E+03  0.10619367873E+04  0.13291056934E+04  0.10100000352E+00 0. -1.
</event>
<event>
 5   0  0.5083831E-04  0.1613181E+04  0.7818609E-02  0.8812491E-01
        2   -1    0    0  501    0  0.00000000000E+00  0.00000000000E+00  0.12820811367E+04  0.12820811367E+04  0.25500000920E-02 0. -1.
       -2   -1    0    0    0  501  0.00000000000E+00  0.00000000000E+00 -0.50744698984E+03  0.50744698984E+03  0.25500000920E-02 0.  1.
    10030    2    1    2    0    0  0.00000000000E+00  0.00000000000E+00  0.77463414687E+03  0.17895281266E+04  0.16131809738E+04 0.  0.
        4    1    3    3  502    0  0.60042428828E+03 -0.47705002728E+03  0.66464738770E+03  0.10148122079E+04  0.12699999809E+01 0.  1.
       -4    1    3    3    0  502 -0.60042428828E+03  0.47705002728E+03  0.10998675917E+03  0.77471591863E+03  0.12699999809E+01 0. -1.
</event>
<event>
 5   0  0.2649086E-04  0.1636359E+04  0.7818609E-02  0.8798517E-01
       -1   -1    0    0    0  501  0.00000000000E+00  0.00000000000E+00  0.10613139595E+04  0.10613139595E+04  0.50400001928E-02 0.  1.
        1   -1    0    0  501    0  0.00000000000E+00  0.00000000000E+00 -0.63074442000E+03  0.63074442002E+03  0.50400001928E-02 0. -1.
    10030    2    1    2    0    0  0.00000000000E+00  0.00000000000E+00  0.43056953946E+03  0.16920583795E+04  0.16363592000E+04 0.  0.
        2    1    3    3  502    0 -0.16680743897E+03 -0.79880400735E+03  0.15406398078E+03  0.83045064516E+03  0.25500000920E-02 0. -1.
       -2    1    3    3    0  502  0.16680743897E+03  0.79880400735E+03  0.27650555868E+03  0.86160773433E+03  0.25500000920E-02 0.  1.
</event>
<event>
 5   0  0.5381164E-04  0.1609963E+04  0.7818609E-02  0.8814451E-01
       -2   -1    0    0    0  501  0.00000000000E+00  0.00000000000E+00  0.84059872337E+03  0.84059872337E+03  0.25500000920E-02 0.  1.
        2   -1    0    0  501    0  0.00000000000E+00  0.00000000000E+00 -0.77087353754E+03  0.77087353754E+03  0.25500000920E-02 0. -1.
    10030    2    1    2    0    0  0.00000000000E+00  0.00000000000E+00  0.69725185826E+02  0.16114722609E+04  0.16099631195E+04 0.  0.
        5    1    3    3  502    0 -0.11739302941E+02  0.28324357267E+03 -0.71924158635E+03  0.77310754894E+03  0.46999998093E+01 0. -1.
       -5    1    3    3    0  502  0.11739302941E+02 -0.28324357267E+03  0.78896677218E+03  0.83836471198E+03  0.46999998093E+01 0.  1.
</event>
<event>
 5   0  0.2730707E-04  0.1605878E+04  0.7818609E-02  0.8816945E-01
       -1   -1    0    0    0  501  0.00000000000E+00  0.00000000000E+00  0.69374363485E+03  0.69374363487E+03  0.50400001928E-02 0.  1.
        1   -1    0    0  501    0  0.00000000000E+00  0.00000000000E+00 -0.92932177890E+03  0.92932177891E+03  0.50400001928E-02 0. -1.
    10030    2    1    2    0    0  0.00000000000E+00  0.00000000000E+00 -0.23557814404E+03  0.16230654138E+04  0.16058780388E+04 0.  0.
        5    1    3    3  502    0 -0.38114207378E+03  0.67941090016E+03 -0.31434550116E+03  0.84006168569E+03  0.46999998093E+01 0.  1.
       -5    1    3    3    0  502  0.38114207378E+03 -0.67941090016E+03  0.78767357116E+02  0.78300372810E+03  0.46999998093E+01 0. -1.
</event>
<event>
 5   0  0.5083831E-04  0.1488614E+04  0.7818609E-02  0.8892060E-01
       -2   -1    0    0    0  501  0.00000000000E+00  0.00000000000E+00  0.26336437208E+03  0.26336437209E+03  0.25500000920E-02 0.  1.
        2   -1    0    0  501    0  0.00000000000E+00  0.00000000000E+00 -0.21035229396E+04  0.21035229396E+04  0.25500000920E-02 0. -1.
    10030    2    1    2    0    0  0.00000000000E+00  0.00000000000E+00 -0.18401585676E+04  0.23668873117E+04  0.14886141181E+04 0.  0.
        4    1    3    3  502    0 -0.33701497809E+03 -0.51854176499E+03 -0.26157083822E+03  0.67148013657E+03  0.12699999809E+01 0.  1.
       -4    1    3    3    0  502  0.33701497809E+03  0.51854176499E+03 -0.15785877293E+04  0.16954071752E+04  0.12699999809E+01 0. -1.
</event>
<event>
 5   0  0.2689675E-04  0.1587598E+04  0.7818609E-02  0.8828203E-01
       -1   -1    0    0    0  501  0.00000000000E+00  0.00000000000E+00  0.74900750706E+03  0.74900750708E+03  0.50400001928E-02 0. -1.
        1   -1    0    0  501    0  0.00000000000E+00  0.00000000000E+00 -0.84126939564E+03  0.84126939566E+03  0.50400001928E-02 0.  1.
    10030    2    1    2    0    0  0.00000000000E+00  0.00000000000E+00 -0.92261888578E+02  0.15902769027E+04  0.15875983029E+04 0.  0.
        1    1    3    3  502    0 -0.65136777449E+03  0.26068224087E+03  0.32582005555E+03  0.77355925240E+03  0.50400001928E-02 0. -1.
       -1    1    3    3    0  502  0.65136777449E+03 -0.26068224087E+03 -0.41808194413E+03  0.81671765034E+03  0.50400001928E-02 0.  1.
</event>
<event>
 5   0  0.5381164E-04  0.1605688E+04  0.7818609E-02  0.8817061E-01
       -2   -1    0    0    0  501  0.00000000000E+00  0.00000000000E+00  0.37155400306E+03  0.37155400306E+03  0.25500000920E-02 0. -1.
        2   -1    0    0  501    0  0.00000000000E+00  0.00000000000E+00 -0.17347637258E+04  0.17347637258E+04  0.25500000920E-02 0.  1.
    10030    2    1    2    0    0  0.00000000000E+00  0.00000000000E+00 -0.13632097227E+04  0.21063177288E+04  0.16056878983E+04 0.  0.
        5    1    3    3  502    0  0.72997759463E+02 -0.14318767789E+03  0.35021655611E+03  0.38536360773E+03  0.46999998093E+01 0. -1.
       -5    1    3    3    0  502 -0.72997759463E+02  0.14318767789E+03 -0.17134262788E+04  0.17209541211E+04  0.46999998093E+01 0.  1.
</event>
<event>
 5   0  0.2730707E-04  0.1573114E+04  0.7818609E-02  0.8837238E-01
       -1   -1    0    0    0  501  0.00000000000E+00  0.00000000000E+00  0.81933325350E+03  0.81933325352E+03  0.50400001928E-02 0. -1.
        1   -1    0    0  501    0  0.00000000000E+00  0.00000000000E+00 -0.75509165861E+03  0.75509165862E+03  0.50400001928E-02 0.  1.
    10030    2    1    2    0    0  0.00000000000E+00  0.00000000000E+00  0.64241594899E+02  0.15744249121E+04  0.15731137344E+04 0.  0.
        5    1    3    3  502    0  0.38820851680E+02  0.61952494246E+03 -0.45132570872E+03  0.76748628535E+03  0.46999998093E+01 0.  1.
       -5    1    3    3    0  502 -0.38820851680E+02 -0.61952494246E+03  0.51556730361E+03  0.80693862679E+03  0.46999998093E+01 0. -1.
</event>
<event>
 5   0  0.2730707E-04  0.1604131E+04  0.7818609E-02  0.8818014E-01
        1   -1    0    0  501    0  0.00000000000E+00  0.00000000000E+00  0.95678420624E+03  0.95678420625E+03  0.50400001928E-02 0. -1.
       -1   -1    0    0    0  501  0.00000000000E+00  0.00000000000E+00 -0.67236604388E+03  0.67236604390E+03  0.50400001928E-02 0.  1.
    10030    2    1    2    0    0  0.00000000000E+00  0.00000000000E+00  0.28441816235E+03  0.16291502502E+04  0.16041311812E+04 0.  0.
        5    1    3    3  502    0  0.37587866735E+03  0.36290378457E+03 -0.47580729996E+03  0.70668140354E+03  0.46999998093E+01 0.  1.
       -5    1    3    3    0  502 -0.37587866735E+03 -0.36290378457E+03  0.76022546231E+03  0.92246884661E+03  0.46999998093E+01 0. -1.
</event>
<event>
 5   0  0.5381164E-04  0.1623423E+04  0.7818609E-02  0.8806286E-01
        2   -1    0    0  501    0  0.00000000000E+00  0.00000000000E+00  0.89737852174E+03  0.89737852174E+03  0.25500000920E-02 0. -1.
       -2   -1    0    0    0  501  0.00000000000E+00  0.00000000000E+00 -0.73422240098E+03  0.73422240098E+03  0.25500000920E-02 0.  1.
    10030    2    1    2    0    0  0.00000000000E+00  0.00000000000E+00  0.16315612076E+03  0.16316009227E+04  0.16234228196E+04 0.  0.
        5    1    3    3  502    0  0.65054172220E+03 -0.25017355168E+03  0.49968091786E+03  0.85760972940E+03  0.46999998093E+01 0. -1.
       -5    1    3    3    0  502 -0.65054172220E+03  0.25017355168E+03 -0.33652479710E+03  0.77399119333E+03  0.46999998093E+01 0.  1.
</event>
<event>
 5   0  0.2763895E-04  0.1588475E+04  0.7818609E-02  0.8827660E-01
       -1   -1    0    0    0  501  0.00000000000E+00  0.00000000000E+00  0.32663685168E+03  0.32663685172E+03  0.50400001928E-02 0. -1.
        1   -1    0    0  501    0  0.00000000000E+00  0.00000000000E+00 -0.19312377458E+04  0.19312377458E+04  0.50400001928E-02 0.  1.
    10030    2    1    2    0    0  0.00000000000E+00  0.00000000000E+00 -0.16046008941E+04  0.22578745976E+04  0.15884752654E+04 0.  0.
        4    1    3    3  502    0  0.79831566727E+02  0.78907765892E+03 -0.74207603517E+03  0.10861376919E+04  0.12699999809E+01 0. -1.
       -4    1    3    3    0  502 -0.79831566727E+02 -0.78907765892E+03 -0.86252485898E+03  0.11717369057E+04  0.12699999809E+01 0.  1.
</event>
<event>
 5   0  0.2763895E-04  0.1591992E+04  0.7818609E-02  0.8825483E-01
       -1   -1    0    0    0  501  0.00000000000E+00  0.00000000000E+00  0.34419603702E+03  0.34419603705E+03  0.50400001928E-02 0. -1.
        1   -1    0    0  501    0  0.00000000000E+00  0.00000000000E+00 -0.18408387849E+04  0.18408387849E+04  0.50400001928E-02 0.  1.
    10030    2    1    2    0    0  0.00000000000E+00  0.00000000000E+00 -0.14966427479E+04  0.21850348219E+04  0.15919917269E+04 0.  0.
        4    1    3    3  502    0  0.25885502510E+03  0.48350739118E+03  0.43493913689E+02  0.55016238946E+03  0.12699999809E+01 0. -1.
       -4    1    3    3    0  502 -0.25885502510E+03 -0.48350739118E+03 -0.15401366616E+04  0.16348724325E+04  0.12699999809E+01 0.  1.
</event>
<event>
 5   0  0.2730707E-04  0.1601543E+04  0.7818609E-02  0.8819601E-01
       -1   -1    0    0    0  501  0.00000000000E+00  0.00000000000E+00  0.24929783040E+03  0.24929783046E+03  0.50400001928E-02 0.  1.
        1   -1    0    0  501    0  0.00000000000E+00  0.00000000000E+00 -0.25721644267E+04  0.25721644267E+04  0.50400001928E-02 0. -1.
    10030    2    1    2    0    0  0.00000000000E+00  0.00000000000E+00 -0.23228665963E+04  0.28214622572E+04  0.16015430198E+04 0.  0.
        5    1    3    3  502    0  0.79268562964E+03 -0.24226091178E+02 -0.96624426565E+03  0.12500349922E+04  0.46999998093E+01 0. -1.
       -5    1    3    3    0  502 -0.79268562964E+03  0.24226091178E+02 -0.13566223306E+04  0.15714272649E+04  0.46999998093E+01 0.  1.
</event>
<event>
 5   0  0.2763895E-04  0.1613764E+04  0.7818609E-02  0.8812136E-01
       -1   -1    0    0    0  501  0.00000000000E+00  0.00000000000E+00  0.37131246590E+03  0.37131246593E+03  0.50400001928E-02 0. -1.
        1   -1    0    0  501    0  0.00000000000E+00  0.00000000000E+00 -0.17533988215E+04  0.17533988216E+04  0.50400001928E-02 0.  1.
    10030    2    1    2    0    0  0.00000000000E+00  0.00000000000E+00 -0.13820863556E+04  0.21247112875E+04  0.16137643449E+04 0.  0.
        4    1    3    3  502    0  0.18599393664E+03 -0.56039917532E+03 -0.14150828601E+04  0.15333303930E+04  0.12699999809E+01 0.  1.
       -4    1    3    3    0  502 -0.18599393664E+03  0.56039917532E+03  0.32996504467E+02  0.59138089450E+03  0.12699999809E+01 0. -1.
</event>
<event>
 5   0  0.2763895E-04  0.1591520E+04  0.7818609E-02  0.8825775E-01
       -1   -1    0    0    0  501  0.00000000000E+00  0.00000000000E+00  0.53720979690E+03  0.53720979693E+03  0.50400001928E-02 0.  1.
        1   -1    0    0  501    0  0.00000000000E+00  0.00000000000E+00 -0.11787462615E+04  0.11787462615E+04  0.50400001928E-02 0. -1.
    10030    2    1    2    0    0  0.00000000000E+00  0.00000000000E+00 -0.64153646457E+03  0.17159560584E+04  0.15915200781E+04 0.  0.
        4    1    3    3  502    0 -0.46380235883E+03 -0.47137320400E+03 -0.79801313348E+03  0.10364033479E+04  0.12699999809E+01 0. -1.
       -4    1    3    3    0  502  0.46380235883E+03  0.47137320400E+03  0.15647666891E+03  0.67955271048E+03  0.12699999809E+01 0.  1.
</event>
<event>
 5   0  0.2763895E-04  0.1604627E+04  0.7818609E-02  0.8817710E-01
        1   -1    0    0  501    0  0.00000000000E+00  0.00000000000E+00  0.60378250327E+03  0.60378250329E+03  0.50400001928E-02 0.  1.
       -1   -1    0    0    0  501  0.00000000000E+00  0.00000000000E+00 -0.10661239432E+04  0.10661239432E+04  0.50400001928E-02 0. -1.
    10030    2    1    2    0    0  0.00000000000E+00  0.00000000000E+00 -0.46234143992E+03  0.16699064465E+04  0.16046270386E+04 0.  0.
        4    1    3    3  502    0 -0.43873052572E+03 -0.30968799123E+03  0.38916150789E+03  0.66320390396E+03  0.12699999809E+01 0.  1.
       -4    1    3    3    0  502  0.43873052572E+03  0.30968799123E+03 -0.85150294781E+03  0.10067025425E+04  0.12699999809E+01 0. -1.
</event>
<event>
 5   0  0.2689675E-04  0.1593508E+04  0.7818609E-02  0.8824546E-01
        1   -1    0    0  501    0  0.00000000000E+00  0.00000000000E+00  0.16243521210E+04  0.16243521210E+04  0.50400001928E-02 0. -1.
       -1   -1    0    0    0  501  0.00000000000E+00  0.00000000000E+00 -0.39081243067E+03  0.39081243071E+03  0.50400001928E-02 0.  1.
    10030    2    1    2    0    0  0.00000000000E+00  0.00000000000E+00  0.12335396903E+04  0.20151645517E+04  0.15935080806E+04 0.  0.
        1    1    3    3  502    0  0.34552625819E+03 -0.41523329693E+03 -0.12387427883E+03  0.55421288596E+03  0.50400001928E-02 0.  1.
       -1    1    3    3    0  502 -0.34552625819E+03  0.41523329693E+03  0.13574139691E+04  0.14609516657E+04  0.50400001928E-02 0. -1.
</event>
<event>
 5   0  0.5315984E-04  0.1628250E+04  0.7818609E-02  0.8803379E-01
        2   -1    0    0  501    0  0.00000000000E+00  0.00000000000E+00  0.62969472262E+03  0.62969472263E+03  0.25500000920E-02 0.  1.
       -2   -1    0    0    0  501  0.00000000000E+00  0.00000000000E+00 -0.10525724094E+04  0.10525724095E+04  0.25500000920E-02 0. -1.
    10030    2    1    2    0    0  0.00000000000E+00  0.00000000000E+00 -0.42287768683E+03  0.16822671321E+04  0.16282497246E+04 0.  0.
        2    1    3    3  502    0  0.43203556274E+03  0.68922023757E+03 -0.17686175691E+03  0.83244179642E+03  0.25500000920E-02 0.  1.
       -2    1    3    3    0  502 -0.43203556274E+03 -0.68922023757E+03 -0.24601592992E+03  0.84982533566E+03  0.25500000920E-02 0. -1.
</event>
<event>
 5   0  0.2689675E-04  0.1589856E+04  0.7818609E-02  0.8826804E-01
        1   -1    0    0  501    0  0.00000000000E+00  0.00000000000E+00  0.16726315376E+04  0.16726315377E+04  0.50400001928E-02 0. -1.
       -1   -1    0    0    0  501  0.00000000000E+00  0.00000000000E+00 -0.37779437644E+03  0.37779437647E+03  0.50400001928E-02 0.  1.
    10030    2    1    2    0    0  0.00000000000E+00  0.00000000000E+00  0.12948371612E+04  0.20504259141E+04  0.15898563316E+04 0.  0.
        1    1    3    3  502    0 -0.57572676720E+03  0.46088324333E+03  0.10300817235E+04  0.12668634621E+04  0.50400001928E-02 0. -1.
       -1    1    3    3    0  502  0.57572676720E+03 -0.46088324333E+03  0.26475543774E+03  0.78356245207E+03  0.50400001928E-02 0.  1.
</event>
<event>
 5   0  0.2689675E-04  0.1590715E+04  0.7818609E-02  0.8826272E-01
       -1   -1    0    0    0  501  0.00000000000E+00  0.00000000000E+00  0.65625114911E+03  0.65625114913E+03  0.50400001928E-02 0. -1.
        1   -1    0    0  501    0  0.00000000000E+00  0.00000000000E+00 -0.96395064270E+03  0.96395064271E+03  0.50400001928E-02 0.  1.
    10030    2    1    2    0    0  0.00000000000E+00  0.00000000000E+00 -0.30769949359E+03  0.16202017918E+04  0.15907152064E+04 0.  0.
        1    1    3    3  502    0  0.22457308700E+03  0.19512552887E+03 -0.90514512953E+03  0.95278263468E+03  0.50400001928E-02 0.  1.
       -1    1    3    3    0  502 -0.22457308700E+03 -0.19512552887E+03  0.59744563593E+03  0.66741915716E+03  0.50400001928E-02 0. -1.
</event>
<event>
 5   0  0.5381164E-04  0.1592202E+04  0.7818609E-02  0.8825353E-01
       -2   -1    0    0    0  501  0.00000000000E+00  0.00000000000E+00  0.75751991739E+03  0.75751991739E+03  0.25500000920E-02 0.  1.
        2   -1    0    0  501    0  0.00000000000E+00  0.00000000000E+00 -0.83664712163E+03  0.83664712164E+03  0.25500000920E-02 0. -1.
    10030    2    1    2    0    0  0.00000000000E+00  0.00000000000E+00 -0.79127204244E+02  0.15941670390E+04  0.15922020707E+04 0.  0.
        5    1    3    3  502    0 -0.39067339484E+03 -0.66438009981E+03 -0.23912880230E+03  0.80698902877E+03  0.46999998093E+01 0.  1.
       -5    1    3    3    0  502  0.39067339484E+03  0.66438009981E+03  0.16000159805E+03  0.78717801026E+03  0.46999998093E+01 0. -1.
</event>
<event>
 5   0  0.1908125E-04  0.1458542E+04  0.7818609E-02  0.8912500E-01
        4   -1    0    0  501    0  0.00000000000E+00  0.00000000000E+00  0.67862163637E+03  0.67862282473E+03  0.12699999809E+01 0. -1.
       -4   -1    0    0    0  501  0.00000000000E+00  0.00000000000E+00 -0.78369841598E+03  0.78369944501E+03  0.12699999809E+01 0.  1.
    10030    2    1    2    0    0  0.00000000000E+00  0.00000000000E+00 -0.10507677961E+03  0.14623222697E+04  0.14585421800E+04 0.  0.
        3    1    3    3  502    0  0.37451640676E+03  0.62458800681E+03 -0.14182274736E+02  0.72840501392E+03  0.10100000352E+00 0.  1.
       -3    1    3    3    0  502 -0.37451640676E+03 -0.62458800681E+03 -0.90894504879E+02  0.73391725583E+03  0.10100000352E+00 0. -1.
</event>
<event>
 5   0  0.2796994E-04  0.1598794E+04  0.7818609E-02  0.8821289E-01
       -1   -1    0    0    0  501  0.00000000000E+00  0.00000000000E+00  0.62848910860E+03  0.62848910862E+03  0.50400001928E-02 0. -1.
        1   -1    0    0  501    0  0.00000000000E+00  0.00000000000E+00 -0.10167805703E+04  0.10167805703E+04  0.50400001928E-02 0.  1.
    10030    2    1    2    0    0  0.00000000000E+00  0.00000000000E+00 -0.38829146168E+03  0.16452696789E+04  0.15987939383E+04 0.  0.
        3    1    3    3  502    0 -0.18315598052E+03 -0.47952026116E+03 -0.82478108847E+03  0.97146778030E+03  0.10100000352E+00 0.  1.
       -3    1    3    3    0  502  0.18315598052E+03  0.47952026116E+03  0.43648962679E+03  0.67380189860E+03  0.10100000352E+00 0. -1.
</event>
<event>
 5   0  0.2763895E-04  0.1595691E+04  0.7818609E-02  0.8823200E-01
       -1   -1    0    0    0  501  0.00000000000E+00  0.00000000000E+00  0.44619897535E+03  0.44619897538E+03  0.50400001928E-02 0. -1.
        1   -1    0    0  501    0  0.00000000000E+00  0.00000000000E+00 -0.14266220214E+04  0.14266220214E+04  0.50400001928E-02 0.  1.
    10030    2    1    2    0    0  0.00000000000E+00  0.00000000000E+00 -0.98042304602E+03  0.18728209968E+04  0.15956908024E+04 0.  0.
        4    1    3    3  502    0  0.23956942693E+03  0.58974230069E+03  0.74332047695E+02  0.64087156104E+03  0.12699999809E+01 0. -1.
       -4    1    3    3    0  502 -0.23956942693E+03 -0.58974230069E+03 -0.10547550937E+04  0.12319494357E+04  0.12699999809E+01 0.  1.
</event>
<event>
 5   0  0.2763895E-04  0.1542223E+04  0.7818609E-02  0.8856851E-01
       -1   -1    0    0    0  501  0.00000000000E+00  0.00000000000E+00  0.41322657153E+03  0.41322657156E+03  0.50400001928E-02 0.  1.
        1   -1    0    0  501    0  0.00000000000E+00  0.00000000000E+00 -0.14389513240E+04  0.14389513240E+04  0.50400001928E-02 0. -1.
    10030    2    1    2    0    0  0.00000000000E+00  0.00000000000E+00 -0.10257247524E+04  0.18521778955E+04  0.15422229699E+04 0.  0.
        4    1    3    3  502    0 -0.42327404922E+02 -0.88603751656E+02 -0.14314106459E+04  0.14347753427E+04  0.12699999809E+01 0. -1.
       -4    1    3    3    0  502  0.42327404922E+02  0.88603751656E+02  0.40568589347E+03  0.41740255279E+03  0.12699999809E+01 0.  1.
</event>
<event>
 5   0  0.5083831E-04  0.1579201E+04  0.7818609E-02  0.8833429E-01
        2   -1    0    0  501    0  0.00000000000E+00  0.00000000000E+00  0.80038357028E+03  0.80038357029E+03  0.25500000920E-02 0. -1.
       -2   -1    0    0    0  501  0.00000000000E+00  0.00000000000E+00 -0.77896252983E+03  0.77896252983E+03  0.25500000920E-02 0.  1.
    10030    2    1    2    0    0  0.00000000000E+00  0.00000000000E+00  0.21421040453E+02  0.15793461001E+04  0.15792008241E+04 0.  0.
        4    1    3    3  502    0  0.43133933928E+03 -0.47981626582E+03  0.46593359218E+03  0.79584734703E+03  0.12699999809E+01 0. -1.
       -4    1    3    3    0  502 -0.43133933928E+03  0.47981626582E+03 -0.44451255172E+03  0.78349875309E+03  0.12699999809E+01 0.  1.
</event>
<event>
 5   0  0.1908125E-04  0.1558558E+04  0.7818609E-02  0.8846420E-01
        3   -1    0    0  501    0  0.00000000000E+00  0.00000000000E+00  0.79138019214E+03  0.79138019859E+03  0.10100000352E+00 0. -1.
       -3   -1    0    0    0  501  0.00000000000E+00  0.00000000000E+00 -0.76736308552E+03  0.76736309216E+03  0.10100000352E+00 0.  1.
    10030    2    1    2    0    0  0.00000000000E+00  0.00000000000E+00  0.24017106625E+02  0.15587432908E+04  0.15585582521E+04 0.  0.
        3    1    3    3  502    0 -0.25916731867E+03 -0.51531065619E+03 -0.51204141864E+03  0.77129708677E+03  0.10100000352E+00 0.  1.
       -3    1    3    3    0  502  0.25916731867E+03  0.51531065619E+03  0.53605852527E+03  0.78744620398E+03  0.10100000352E+00 0. -1.
</event>
<event>
 5   0  0.2796994E-04  0.1599650E+04  0.7818609E-02  0.8820763E-01
       -1   -1    0    0    0  501  0.00000000000E+00  0.00000000000E+00  0.48052179190E+03  0.48052179192E+03  0.50400001928E-02 0. -1.
        1   -1    0    0  501    0  0.00000000000E+00  0.00000000000E+00 -0.13313027728E+04  0.13313027728E+04  0.50400001928E-02 0.  1.
    10030    2    1    2    0    0  0.00000000000E+00  0.00000000000E+00 -0.85078098089E+03  0.18118245647E+04  0.15996499542E+04 0.  0.
        3    1    3    3  502    0 -0.79367610496E+03 -0.97649325259E+02 -0.40702800308E+03  0.89728978363E+03  0.10100000352E+00 0. -1.
       -3    1    3    3    0  502  0.79367610496E+03  0.97649325259E+02 -0.44375297781E+03  0.91453478110E+03  0.10100000352E+00 0.  1.
</event>
<event>
 5   0  0.5315984E-04  0.1608657E+04  0.7818609E-02  0.8815247E-01
        2   -1    0    0  501    0  0.00000000000E+00  0.00000000000E+00  0.10135477101E+04  0.10135477101E+04  0.25500000920E-02 0.  1.
       -2   -1    0    0    0  501  0.00000000000E+00  0.00000000000E+00 -0.63829700077E+03  0.63829700078E+03  0.25500000920E-02 0. -1.
    10030    2    1    2    0    0  0.00000000000E+00  0.00000000000E+00  0.37525070932E+03  0.16518447109E+04  0.16086571586E+04 0.  0.
        2    1    3    3  502    0  0.23613862478E+03 -0.53644123940E+03 -0.37799286851E+03  0.69743047115E+03  0.25500000920E-02 0. -1.
       -2    1    3    3    0  502 -0.23613862478E+03  0.53644123940E+03  0.75324357783E+03  0.95441423972E+03  0.25500000920E-02 0.  1.
</event>
<event>
 5   0  0.5381164E-04  0.1620769E+04  0.7818609E-02  0.8807890E-01
        2   -1    0    0  501    0  0.00000000000E+00  0.00000000000E+00  0.12844701151E+04  0.12844701151E+04  0.25500000920E-02 0. -1.
       -2   -1    0    0    0  501  0.00000000000E+00  0.00000000000E+00 -0.51127916906E+03  0.51127916906E+03  0.25500000920E-02 0.  1.
    10030    2    1    2    0    0  0.00000000000E+00  0.00000000000E+00  0.77319094600E+03  0.17957492841E+04  0.16207687227E+04 0.  0.
        5    1    3    3  502    0 -0.16208766553E+03 -0.78283541713E+03  0.53357073295E+03  0.96115738497E+03  0.46999998093E+01 0.  1.
       -5    1    3    3    0  502  0.16208766553E+03  0.78283541713E+03  0.23962021305E+03  0.83459189915E+03  0.46999998093E+01 0. -1.
</event>
<event>
 5   0  0.5264308E-04  0.1585548E+04  0.7818609E-02  0.8829476E-01
       -2   -1    0    0    0  501  0.00000000000E+00  0.00000000000E+00  0.57127626639E+03  0.57127626640E+03  0.25500000920E-02 0. -1.
        2   -1    0    0  501    0  0.00000000000E+00  0.00000000000E+00 -0.11001521432E+04  0.11001521432E+04  0.25500000920E-02 0.  1.
    10030    2    1    2    0    0  0.00000000000E+00  0.00000000000E+00 -0.52887587684E+03  0.16714284096E+04  0.15855482444E+04 0.  0.
        3    1    3    3  502    0  0.34178861425E+02 -0.46438730599E+03 -0.94080330888E+03  0.10497307468E+04  0.10100000352E+00 0.  1.
       -3    1    3    3    0  502 -0.34178861425E+02  0.46438730599E+03  0.41192743204E+03  0.62169766285E+03  0.10100000352E+00 0. -1.
</event>
<event>
 5   0  0.2649086E-04  0.1625097E+04  0.7818609E-02  0.8805277E-01
        1   -1    0    0  501    0  0.00000000000E+00  0.00000000000E+00  0.79128084612E+03  0.79128084613E+03  0.50400001928E-02 0. -1.
       -1   -1    0    0    0  501  0.00000000000E+00  0.00000000000E+00 -0.83438746823E+03  0.83438746824E+03  0.50400001928E-02 0.  1.
    10030    2    1    2    0    0  0.00000000000E+00  0.00000000000E+00 -0.43106622111E+02  0.16256683144E+04  0.16250967010E+04 0.  0.
        2    1    3    3  502    0 -0.26352673950E+03  0.63408364278E+02 -0.78783048819E+03  0.83315295188E+03  0.25500000920E-02 0.  1.
       -2    1    3    3    0  502  0.26352673950E+03 -0.63408364278E+02  0.74472386608E+03  0.79251536250E+03  0.25500000920E-02 0. -1.
</event>
<event>
 5   0  0.5264308E-04  0.1613666E+04  0.7818609E-02  0.8812196E-01
        2   -1    0    0  501    0  0.00000000000E+00  0.00000000000E+00  0.11378986862E+04  0.11378986862E+04  0.25500000920E-02 0. -1.
       -2   -1    0    0    0  501  0.00000000000E+00  0.00000000000E+00 -0.57208883124E+03  0.57208883124E+03  0.25500000920E-02 0.  1.
    10030    2    1    2    0    0  0.00000000000E+00  0.00000000000E+00  0.56580985495E+03  0.17099875174E+04  0.16136655533E+04 0.  0.
        3    1    3    3  502    0  0.26547956746E+03  0.12194340170E+03 -0.51407144709E+03  0.59128593495E+03  0.10100000352E+00 0.  1.
       -3    1    3    3    0  502 -0.26547956746E+03 -0.12194340170E+03  0.10798813020E+04  0.11187015825E+04  0.10100000352E+00 0. -1.
</event>
<event>
 5   0  0.2730707E-04  0.1605616E+04  0.7818609E-02  0.8817105E-01
        1   -1    0    0  501    0  0.00000000000E+00  0.00000000000E+00  0.20950357867E+04  0.20950357867E+04  0.50400001928E-02 0. -1.
       -1   -1    0    0    0  501  0.00000000000E+00  0.00000000000E+00 -0.30763246812E+03  0.30763246816E+03  0.50400001928E-02 0.  1.
    10030    2    1    2    0    0  0.00000000000E+00  0.00000000000E+00  0.17874033186E+04  0.24026682548E+04  0.16056164298E+04 0.  0.
        5    1    3    3  502    0 -0.64933437474E+03 -0.46568935016E+03  0.77800993023E+03  0.11152682380E+04  0.46999998093E+01 0.  1.
       -5    1    3    3    0  502  0.64933437474E+03  0.46568935016E+03  0.10093933883E+04  0.12874000169E+04  0.46999998093E+01 0. -1.
</event>
<event>
 5   0  0.2796994E-04  0.1609065E+04  0.7818609E-02  0.8814998E-01
        1   -1    0    0  501    0  0.00000000000E+00  0.00000000000E+00  0.72202728898E+03  0.72202728900E+03  0.50400001928E-02 0. -1.
       -1   -1    0    0    0  501  0.00000000000E+00  0.00000000000E+00 -0.89646570416E+03  0.89646570417E+03  0.50400001928E-02 0.  1.
    10030    2    1    2    0    0  0.00000000000E+00  0.00000000000E+00 -0.17443841518E+03  0.16184929932E+04  0.16090651970E+04 0.  0.
        3    1    3    3  502    0  0.62696226419E+03 -0.48922280813E+03 -0.20980226771E+03  0.82245828979E+03  0.10100000352E+00 0.  1.
       -3    1    3    3    0  502 -0.62696226419E+03  0.48922280813E+03  0.35363852533E+02  0.79603470338E+03  0.10100000352E+00 0. -1.
</event>
<event>
 5   0  0.2763895E-04  0.1596707E+04  0.7818609E-02  0.8822574E-01
       -1   -1    0    0    0  501  0.00000000000E+00  0.00000000000E+00  0.74960415616E+03  0.74960415618E+03  0.50400001928E-02 0.  1.
        1   -1    0    0  501    0  0.00000000000E+00  0.00000000000E+00 -0.85027303219E+03  0.85027303221E+03  0.50400001928E-02 0. -1.
    10030    2    1    2    0    0  0.00000000000E+00  0.00000000000E+00 -0.10066887603E+03  0.15998771884E+04  0.15967068595E+04 0.  0.
        4    1    3    3  502    0 -0.71040829491E+03  0.35010263332E+03 -0.15110642392E+03  0.80627945750E+03  0.12699999809E+01 0.  1.
       -4    1    3    3    0  502  0.71040829491E+03 -0.35010263332E+03  0.50437547890E+02  0.79359773089E+03  0.12699999809E+01 0. -1.
</event>
<event>
 5   0  0.5083831E-04  0.1592689E+04  0.7818609E-02  0.8825052E-01
       -2   -1    0    0    0  501  0.00000000000E+00  0.00000000000E+00  0.37160753878E+03  0.37160753878E+03  0.25500000920E-02 0. -1.
        2   -1    0    0  501    0  0.00000000000E+00  0.00000000000E+00 -0.17065434888E+04  0.17065434888E+04  0.25500000920E-02 0.  1.
    10030    2    1    2    0    0  0.00000000000E+00  0.00000000000E+00 -0.13349359500E+04  0.20781510275E+04  0.15926888280E+04 0.  0.
        4    1    3    3  502    0 -0.95917382699E+02 -0.57129126047E+03 -0.13804573347E+04  0.14970764558E+04  0.12699999809E+01 0.  1.
       -4    1    3    3    0  502  0.95917382699E+02  0.57129126047E+03  0.45521384726E+02  0.58107457177E+03  0.12699999809E+01 0. -1.
</event>
<event>
 5   0  0.2763895E-04  0.1563257E+04  0.7818609E-02  0.8843444E-01
        1   -1    0    0  501    0  0.00000000000E+00  0.00000000000E+00  0.11455736745E+04  0.11455736745E+04  0.50400001928E-02 0. -1.
       -1   -1    0    0    0  501  0.00000000000E+00  0.00000000000E+00 -0.53330742108E+03  0.53330742111E+03  0.50400001928E-02 0.  1.
    10030    2    1    2    0    0  0.00000000000E+00  0.00000000000E+00  0.61226625340E+03  0.16788810956E+04  0.15632567825E+04 0.  0.
        4    1    3    3  502    0  0.57030262605E+03  0.29401807683E+03 -0.17325620167E+03  0.66461345089E+03  0.12699999809E+01 0.  1.
       -4    1    3    3    0  502 -0.57030262605E+03 -0.29401807683E+03  0.78552245507E+03  0.10142676447E+04  0.12699999809E+01 0. -1.
</event>
<event>
 5   0  0.1908125E-04  0.1602602E+04  0.7818609E-02  0.8818951E-01
       -4   -1    0    0    0  501  0.00000000000E+00  0.00000000000E+00  0.16615914673E+04  0.16615919526E+04  0.12699999809E+01 0.  1.
        4   -1    0    0  501    0  0.00000000000E+00  0.00000000000E+00 -0.38642524227E+03  0.38642732922E+03  0.12699999809E+01 0. -1.
    10030    2    1    2    0    0  0.00000000000E+00  0.00000000000E+00  0.12751662250E+04  0.20480192818E+04  0.16026022830E+04 0.  0.
        4    1    3    3  502    0 -0.56192057801E+03 -0.52012903061E+03  0.33572837722E+03  0.83606465100E+03  0.12699999809E+01 0. -1.
       -4    1    3    3    0  502  0.56192057801E+03  0.52012903061E+03  0.93943784778E+03  0.12119546308E+04  0.12699999809E+01 0.  1.
</event>
<event>
 5   0  0.2796994E-04  0.1604958E+04  0.7818609E-02  0.8817508E-01
        1   -1    0    0  501    0  0.00000000000E+00  0.00000000000E+00  0.11779227006E+04  0.11779227006E+04  0.50400001928E-02 0. -1.
       -1   -1    0    0    0  501  0.00000000000E+00  0.00000000000E+00 -0.54670154327E+03  0.54670154330E+03  0.50400001928E-02 0.  1.
    10030    2    1    2    0    0  0.00000000000E+00  0.00000000000E+00  0.63122115736E+03  0.17246242439E+04  0.16049575176E+04 0.  0.
        3    1    3    3  502    0  0.14307102785E+03 -0.34687899788E+02  0.11632881631E+04  0.11725663862E+04  0.10100000352E+00 0. -1.
       -3    1    3    3    0  502 -0.14307102785E+03  0.34687899788E+02 -0.53206700579E+03  0.55205785770E+03  0.10100000352E+00 0.  1.
</event>
<event>
 5   0  0.5315984E-04  0.1597471E+04  0.7818609E-02  0.8822103E-01
        2   -1    0    0  501    0  0.00000000000E+00  0.00000000000E+00  0.12648922862E+04  0.12648922862E+04  0.25500000920E-02 0.  1.
       -2   -1    0    0    0  501  0.00000000000E+00  0.00000000000E+00 -0.50437351689E+03  0.50437351689E+03  0.25500000920E-02 0. -1.
    10030    2    1    2    0    0  0.00000000000E+00  0.00000000000E+00  0.76051876936E+03  0.17692658031E+04  0.15974707145E+04 0.  0.
        2    1    3    3  502    0 -0.71335981938E+03  0.15724638194E+03  0.22453886754E+02  0.73083023582E+03  0.25500000920E-02 0. -1.
       -2    1    3    3    0  502  0.71335981938E+03 -0.15724638194E+03  0.73806488261E+03  0.10384355673E+04  0.25500000920E-02 0.  1.
</event>
<event>
 5   0  0.5083831E-04  0.1658005E+04  0.7818609E-02  0.8785685E-01
       -2   -1    0    0    0  501  0.00000000000E+00  0.00000000000E+00  0.47582306905E+03  0.47582306905E+03  0.25500000920E-02 0. -1.
        2   -1    0    0  501    0  0.00000000000E+00  0.00000000000E+00 -0.14443286348E+04  0.14443286348E+04  0.25500000920E-02 0.  1.
    10030    2    1    2    0    0  0.00000000000E+00  0.00000000000E+00 -0.96850556573E+03  0.19201517038E+04  0.16580046848E+04 0.  0.
        4    1    3    3  502    0  0.19979401268E+03 -0.31697885804E+03 -0.13406670774E+04  0.13920427685E+04  0.12699999809E+01 0.  1.
       -4    1    3    3    0  502 -0.19979401268E+03  0.31697885804E+03  0.37216151166E+03  0.52810893536E+03  0.12699999809E+01 0. -1.
</event>
<event>
 5   0  0.5315984E-04  0.1626662E+04  0.7818609E-02  0.8804334E-01
       -2   -1    0    0    0  501  0.00000000000E+00  0.00000000000E+00  0.31617162935E+03  0.31617162936E+03  0.25500000920E-02 0. -1.
        2   -1    0    0  501    0  0.00000000000E+00  0.00000000000E+00 -0.20922409806E+04  0.20922409806E+04  0.25500000920E-02 0.  1.
    10030    2    1    2    0    0  0.00000000000E+00  0.00000000000E+00 -0.17760693512E+04  0.24084126099E+04  0.16266619069E+04 0.  0.
        2    1    3    3  502    0 -0.16160414798E+03 -0.68757485099E+03 -0.29094877554E+03  0.76388890969E+03  0.25500000920E-02 0. -1.
       -2    1    3    3    0  502  0.16160414798E+03  0.68757485099E+03 -0.14851205757E+04  0.16445237002E+04  0.25500000920E-02 0.  1.
</event>
<event>
 5   0  0.2763895E-04  0.1610272E+04  0.7818609E-02  0.8814263E-01
        1   -1    0    0  501    0  0.00000000000E+00  0.00000000000E+00  0.13008349989E+04  0.13008349989E+04  0.50400001928E-02 0.  1.
       -1   -1    0    0    0  501  0.00000000000E+00  0.00000000000E+00 -0.49832888979E+03  0.49832888981E+03  0.50400001928E-02 0. -1.
    10030    2    1    2    0    0  0.00000000000E+00  0.00000000000E+00  0.80250610912E+03  0.17991638887E+04  0.16102716055E+04 0.  0.
        4    1    3    3  502    0  0.59710521768E+03 -0.49977049232E+03  0.63006018573E+03  0.10016399735E+04  0.12699999809E+01 0.  1.
       -4    1    3    3    0  502 -0.59710521768E+03  0.49977049232E+03  0.17244592339E+03  0.79752391523E+03  0.12699999809E+01 0. -1.
</event>
<event>
 5   0  0.5381164E-04  0.1609155E+04  0.7818609E-02  0.8814943E-01
        2   -1    0    0  501    0  0.00000000000E+00  0.00000000000E+00  0.55469717182E+03  0.55469717182E+03  0.25500000920E-02 0. -1.
       -2   -1    0    0    0  501  0.00000000000E+00  0.00000000000E+00 -0.11670247740E+04  0.11670247740E+04  0.25500000920E-02 0.  1.
    10030    2    1    2    0    0  0.00000000000E+00  0.00000000000E+00 -0.61232760214E+03  0.17217219458E+04  0.16091554823E+04 0.  0.
        5    1    3    3  502    0 -0.33005802678E+03 -0.56312286822E+03  0.19714406539E+03  0.68186035101E+03  0.46999998093E+01 0.  1.
       -5    1    3    3    0  502  0.33005802678E+03  0.56312286822E+03 -0.80947166753E+03  0.10398615948E+04  0.46999998093E+01 0. -1.
</event>
<event>
 5   0  0.2649086E-04  0.1586792E+04  0.7818609E-02  0.8828704E-01
       -1   -1    0    0    0  501  0.00000000000E+00  0.00000000000E+00  0.30463888124E+03  0.30463888128E+03  0.50400001928E-02 0. -1.
        1   -1    0    0  501    0  0.00000000000E+00  0.00000000000E+00 -0.20663052084E+04  0.20663052084E+04  0.50400001928E-02 0.  1.
    10030    2    1    2    0    0  0.00000000000E+00  0.00000000000E+00 -0.17616663271E+04  0.23709440897E+04  0.15867916146E+04 0.  0.
        2    1    3    3  502    0 -0.46686420751E+03 -0.14508064165E+03 -0.18145027434E+04  0.18792101497E+04  0.25500000920E-02 0.  1.
       -2    1    3    3    0  502  0.46686420751E+03  0.14508064165E+03  0.52836416262E+02  0.49173393998E+03  0.25500000920E-02 0. -1.
</event>
<event>
 5   0  0.2689675E-04  0.1593024E+04  0.7818609E-02  0.8824845E-01
       -1   -1    0    0    0  501  0.00000000000E+00  0.00000000000E+00  0.94066506765E+03  0.94066506766E+03  0.50400001928E-02 0. -1.
        1   -1    0    0  501    0  0.00000000000E+00  0.00000000000E+00 -0.67444974183E+03  0.67444974184E+03  0.50400001928E-02 0.  1.
    10030    2    1    2    0    0  0.00000000000E+00  0.00000000000E+00  0.26621532582E+03  0.16151148095E+04  0.15930239321E+04 0.  0.
        1    1    3    3  502    0 -0.34500807575E+03 -0.64919798247E+03 -0.17764342845E+03  0.75633708125E+03  0.50400001928E-02 0.  1.
       -1    1    3    3    0  502  0.34500807575E+03  0.64919798247E+03  0.44385875428E+03  0.85877772826E+03  0.50400001928E-02 0. -1.
</event>
<event>
 5   0  0.2730707E-04  0.1593048E+04  0.7818609E-02  0.8824830E-01
        1   -1    0    0  501    0  0.00000000000E+00  0.00000000000E+00  0.12296015941E+04  0.12296015941E+04  0.50400001928E-02 0.  1.
       -1   -1    0    0    0  501  0.00000000000E+00  0.00000000000E+00 -0.51598054684E+03  0.51598054687E+03  0.50400001928E-02 0. -1.
    10030    2    1    2    0    0  0.00000000000E+00  0.00000000000E+00  0.71362104730E+03  0.17455821410E+04  0.15930480256E+04 0.  0.
        5    1    3    3  502    0  0.46570277741E+03 -0.10263970193E+03  0.10558735350E+04  0.11585788696E+04  0.46999998093E+01 0.  1.
       -5    1    3    3    0  502 -0.46570277741E+03  0.10263970193E+03 -0.34225248768E+03  0.58700327138E+03  0.46999998093E+01 0. -1.
</event>
<event>
 5   0  0.2763895E-04  0.1600922E+04  0.7818609E-02  0.8819982E-01
       -1   -1    0    0    0  501  0.00000000000E+00  0.00000000000E+00  0.44078940116E+03  0.44078940119E+03  0.50400001928E-02 0. -1.
        1   -1    0    0  501    0  0.00000000000E+00  0.00000000000E+00 -0.14536147563E+04  0.14536147563E+04  0.50400001928E-02 0.  1.
    10030    2    1    2    0    0  0.00000000000E+00  0.00000000000E+00 -0.10128253551E+04  0.18944041575E+04  0.16009222067E+04 0.  0.
        4    1    3    3  502    0 -0.79420748189E+03  0.96818822401E+02 -0.47750097107E+03  0.93174470695E+03  0.12699999809E+01 0.  1.
       -4    1    3    3    0  502  0.79420748189E+03 -0.96818822401E+02 -0.53532438406E+03  0.96265945055E+03  0.12699999809E+01 0. -1.
</event>
<event>
 5   0  0.5131239E-04  0.1612762E+04  0.7818609E-02  0.8812746E-01
        2   -1    0    0  501    0  0.00000000000E+00  0.00000000000E+00  0.12137223771E+04  0.12137223771E+04  0.25500000920E-02 0.  1.
       -2   -1    0    0    0  501  0.00000000000E+00  0.00000000000E+00 -0.53574897711E+03  0.53574897712E+03  0.25500000920E-02 0. -1.
    10030    2    1    2    0    0  0.00000000000E+00  0.00000000000E+00  0.67797339996E+03  0.17494713542E+04  0.16127622540E+04 0.  0.
        1    1    3    3  502    0  0.53132707185E+03  0.78256847063E+02  0.99148822045E+03  0.11275998770E+04  0.50400001928E-02 0.  1.
       -1    1    3    3    0  502 -0.53132707185E+03 -0.78256847063E+02 -0.31351482049E+03  0.62187147715E+03  0.50400001928E-02 0. -1.
</event>
<event>
 5   0  0.2689675E-04  0.1580974E+04  0.7818609E-02  0.8832323E-01
        1   -1    0    0  501    0  0.00000000000E+00  0.00000000000E+00  0.16738712586E+04  0.16738712586E+04  0.50400001928E-02 0. -1.
       -1   -1    0    0    0  501  0.00000000000E+00  0.00000000000E+00 -0.37330789361E+03  0.37330789364E+03  0.50400001928E-02 0.  1.
    10030    2    1    2    0    0  0.00000000000E+00  0.00000000000E+00  0.13005633650E+04  0.20471791522E+04  0.15809735656E+04 0.  0.
        1    1    3    3  502    0 -0.78548347076E+03 -0.85568954296E+02  0.61955645822E+03  0.10040699845E+04  0.50400001928E-02 0.  1.
       -1    1    3    3    0  502  0.78548347076E+03  0.85568954296E+02  0.68100690673E+03  0.10431091677E+04  0.50400001928E-02 0. -1.
</event>
<event>
 5   0  0.5264308E-04  0.1599614E+04  0.7818609E-02  0.8820785E-01
       -2   -1    0    0    0  501  0.00000000000E+00  0.00000000000E+00  0.13502407599E+04  0.13502407599E+04  0.25500000920E-02 0.  1.
        2   -1    0    0  501    0  0.00000000000E+00  0.00000000000E+00 -0.47376080294E+03  0.47376080295E+03  0.25500000920E-02 0. -1.
    10030    2    1    2    0    0  0.00000000000E+00  0.00000000000E+00  0.87647995695E+03  0.18240015628E+04  0.15996138866E+04 0.  0.
        3    1    3    3  502    0 -0.43614069651E+03 -0.60728954044E+03  0.11436974779E+03  0.75637275367E+03  0.10100000352E+00 0. -1.
       -3    1    3    3    0  502  0.43614069651E+03  0.60728954044E+03  0.76211020916E+03  0.10676288092E+04  0.10100000352E+00 0.  1.
</event>
<event>
 5   0  0.5131239E-04  0.1490679E+04  0.7818609E-02  0.8890675E-01
       -2   -1    0    0    0  501  0.00000000000E+00  0.00000000000E+00  0.87323344159E+03  0.87323344160E+03  0.25500000920E-02 0. -1.
        2   -1    0    0  501    0  0.00000000000E+00  0.00000000000E+00 -0.63617711719E+03  0.63617711719E+03  0.25500000920E-02 0.  1.
    10030    2    1    2    0    0  0.00000000000E+00  0.00000000000E+00  0.23705632441E+03  0.15094105588E+04  0.14906792190E+04 0.  0.
        1    1    3    3  502    0  0.29716800729E+03 -0.16513355813E+03  0.79015251535E+03  0.86018539520E+03  0.50400001928E-02 0. -1.
       -1    1    3    3    0  502 -0.29716800729E+03  0.16513355813E+03 -0.55309619094E+03  0.64922516359E+03  0.50400001928E-02 0.  1.
</event>
<event>
 5   0  0.5131239E-04  0.1425859E+04  0.7818609E-02  0.8935310E-01
       -2   -1    0    0    0  501  0.00000000000E+00  0.00000000000E+00  0.27963443688E+03  0.27963443689E+03  0.25500000920E-02 0. -1.
        2   -1    0    0  501    0  0.00000000000E+00  0.00000000000E+00 -0.18176179685E+04  0.18176179685E+04  0.25500000920E-02 0.  1.
    10030    2    1    2    0    0  0.00000000000E+00  0.00000000000E+00 -0.15379835316E+04  0.20972524053E+04  0.14258591474E+04 0.  0.
        1    1    3    3  502    0  0.47684762991E+03  0.48729943933E+03 -0.10754983758E+04  0.12733974879E+04  0.50400001928E-02 0.  1.
       -1    1    3    3    0  502 -0.47684762991E+03 -0.48729943933E+03 -0.46248515578E+03  0.82385491748E+03  0.50400001928E-02 0. -1.
</event>
<event>
 5   0  0.5381164E-04  0.1594620E+04  0.7818609E-02  0.8823860E-01
        2   -1    0    0  501    0  0.00000000000E+00  0.00000000000E+00  0.77850967614E+03  0.77850967614E+03  0.25500000920E-02 0. -1.
       -2   -1    0    0    0  501  0.00000000000E+00  0.00000000000E+00 -0.81656443685E+03  0.81656443685E+03  0.25500000920E-02 0.  1.
    10030    2    1    2    0    0  0.00000000000E+00  0.00000000000E+00 -0.38054760707E+02  0.15950741130E+04  0.15946200993E+04 0.  0.
        5    1    3    3  502    0  0.67156846304E+03 -0.42973501860E+03 -0.16827089191E+02  0.79748456266E+03  0.46999998093E+01 0. -1.
       -5    1    3    3    0  502 -0.67156846304E+03  0.42973501860E+03 -0.21227671515E+02  0.79758955033E+03  0.46999998093E+01 0.  1.
</event>
<event>
 5   0  0.2730707E-04  0.1598367E+04  0.7818609E-02  0.8821552E-01
        1   -1    0    0  501    0  0.00000000000E+00  0.00000000000E+00  0.55295637857E+03  0.55295637859E+03  0.50400001928E-02 0. -1.
       -1   -1    0    0    0  501  0.00000000000E+00  0.00000000000E+00 -0.11550535585E+04  0.11550535585E+04  0.50400001928E-02 0.  1.
    10030    2    1    2    0    0  0.00000000000E+00  0.00000000000E+00 -0.60209717991E+03  0.17080099371E+04  0.15983669576E+04 0.  0.
        5    1    3    3  502    0  0.40690338212E+03  0.53535606657E+02  0.43172820450E+03  0.59569099046E+03  0.46999998093E+01 0. -1.
       -5    1    3    3    0  502 -0.40690338212E+03 -0.53535606657E+02 -0.10338253844E+04  0.11123189466E+04  0.46999998093E+01 0.  1.
</event>
<event>
 5   0  0.5264308E-04  0.1602504E+04  0.7818609E-02  0.8819011E-01
       -2   -1    0    0    0  501  0.00000000000E+00  0.00000000000E+00  0.11701292328E+04  0.11701292328E+04  0.25500000920E-02 0.  1.
        2   -1    0    0  501    0  0.00000000000E+00  0.00000000000E+00 -0.54866158704E+03  0.54866158705E+03  0.25500000920E-02 0. -1.
    10030    2    1    2    0    0  0.00000000000E+00  0.00000000000E+00  0.62146764576E+03  0.17187908198E+04  0.16025042426E+04 0.  0.
        3    1    3    3  502    0  0.34859929043E+03 -0.58061037742E+03 -0.14856358132E+03  0.69332605861E+03  0.10100000352E+00 0. -1.
       -3    1    3    3    0  502 -0.34859929043E+03  0.58061037742E+03  0.77003122708E+03  0.10254647612E+04  0.10100000352E+00 0.  1.
</event>
<event>
 5   0  0.2649086E-04  0.1593909E+04  0.7818609E-02  0.8824299E-01
       -1   -1    0    0    0  501  0.00000000000E+00  0.00000000000E+00  0.44635905705E+03  0.44635905708E+03  0.50400001928E-02 0.  1.
        1   -1    0    0  501    0  0.00000000000E+00  0.00000000000E+00 -0.14229271799E+04  0.14229271799E+04  0.50400001928E-02 0. -1.
    10030    2    1    2    0    0  0.00000000000E+00  0.00000000000E+00 -0.97656812282E+03  0.18692862370E+04  0.15939089488E+04 0.  0.
        2    1    3    3  502    0  0.60782242708E+03 -0.51396406459E+03 -0.53414623459E+03  0.95860281790E+03  0.25500000920E-02 0.  1.
       -2    1    3    3    0  502 -0.60782242708E+03  0.51396406459E+03 -0.44242188822E+03  0.91068341906E+03  0.25500000920E-02 0. -1.
</event>
<event>
 5   0  0.2689675E-04  0.1576539E+04  0.7818609E-02  0.8835092E-01
        1   -1    0    0  501    0  0.00000000000E+00  0.00000000000E+00  0.11187880070E+04  0.11187880071E+04  0.50400001928E-02 0.  1.
       -1   -1    0    0    0  501  0.00000000000E+00  0.00000000000E+00 -0.55539477623E+03  0.55539477625E+03  0.50400001928E-02 0. -1.
    10030    2    1    2    0    0  0.00000000000E+00  0.00000000000E+00  0.56339323081E+03  0.16741827833E+04  0.15765392667E+04 0.  0.
        1    1    3    3  502    0  0.19611124957E+03 -0.10569564706E+03  0.10846614779E+04  0.11073038037E+04  0.50400001928E-02 0.  1.
       -1    1    3    3    0  502 -0.19611124957E+03  0.10569564706E+03 -0.52126824712E+03  0.56687897958E+03  0.50400001928E-02 0. -1.
</event>
<event>
 5   0  0.2796994E-04  0.1600431E+04  0.7818609E-02  0.8820283E-01
        1   -1    0    0  501    0  0.00000000000E+00  0.00000000000E+00  0.16935357936E+04  0.16935357936E+04  0.50400001928E-02 0.  1.
       -1   -1    0    0    0  501  0.00000000000E+00  0.00000000000E+00 -0.37811119442E+03  0.37811119446E+03  0.50400001928E-02 0. -1.
    10030    2    1    2    0    0  0.00000000000E+00  0.00000000000E+00  0.13154245992E+04  0.20716469881E+04  0.16004309942E+04 0.  0.
        3    1    3    3  502    0 -0.65088925463E+03 -0.46248413498E+03  0.58926108814E+03  0.99235932862E+03  0.10100000352E+00 0.  1.
       -3    1    3    3    0  502  0.65088925463E+03  0.46248413498E+03  0.72616351108E+03  0.10792876595E+04  0.10100000352E+00 0. -1.
</event>
<event>
 5   0  0.2796994E-04  0.1603678E+04  0.7818609E-02  0.8818292E-01
        1   -1    0    0  501    0  0.00000000000E+00  0.00000000000E+00  0.83702923695E+03  0.83702923697E+03  0.50400001928E-02 0.  1.
       -1   -1    0    0    0  501  0.00000000000E+00  0.00000000000E+00 -0.76812841405E+03  0.76812841407E+03  0.50400001928E-02 0. -1.
    10030    2    1    2    0    0  0.00000000000E+00  0.00000000000E+00  0.68900822897E+02  0.16051576510E+04  0.16036781975E+04 0.  0.
        3    1    3    3  502    0 -0.49005951806E+03 -0.51307144337E+03  0.40835264896E+03  0.81862844646E+03  0.10100000352E+00 0.  1.
       -3    1    3    3    0  502  0.49005951806E+03  0.51307144337E+03 -0.33945182606E+03  0.78652920458E+03  0.10100000352E+00 0. -1.
</event>
<event>
 5   0  0.5315984E-04  0.1588558E+04  0.7818609E-02  0.8827608E-01
       -2   -1    0    0    0  501  0.00000000000E+00  0.00000000000E+00  0.67832786480E+03  0.67832786481E+03  0.25500000920E-02 0.  1.
        2   -1    0    0  501    0  0.00000000000E+00  0.00000000000E+00 -0.93005020526E+03  0.93005020526E+03  0.25500000920E-02 0. -1.
    10030    2    1    2    0    0  0.00000000000E+00  0.00000000000E+00 -0.25172234046E+03  0.16083780701E+04  0.15885577986E+04 0.  0.
        2    1    3    3  502    0  0.62004425504E+03  0.44687333404E+03 -0.34472559872E+03  0.83844283842E+03  0.25500000920E-02 0. -1.
       -2    1    3    3    0  502 -0.62004425504E+03 -0.44687333404E+03  0.93003258263E+02  0.76993523165E+03  0.25500000920E-02 0.  1.
</event>
<event>
 5   0  0.2730707E-04  0.1633741E+04  0.7818609E-02  0.8800084E-01
        1   -1    0    0  501    0  0.00000000000E+00  0.00000000000E+00  0.87954988086E+03  0.87954988088E+03  0.50400001928E-02 0.  1.
       -1   -1    0    0    0  501  0.00000000000E+00  0.00000000000E+00 -0.75865748893E+03  0.75865748894E+03  0.50400001928E-02 0. -1.
    10030    2    1    2    0    0  0.00000000000E+00  0.00000000000E+00  0.12089239194E+03  0.16382073698E+04  0.16337406208E+04 0.  0.
        5    1    3    3  502    0  0.45601501783E+03  0.55019617921E+03 -0.33634959951E+03  0.78982192626E+03  0.46999998093E+01 0. -1.
       -5    1    3    3    0  502 -0.45601501783E+03 -0.55019617921E+03  0.45724199145E+03  0.84838544356E+03  0.46999998093E+01 0.  1.
</event>
<event>
 5   0  0.5381164E-04  0.1625711E+04  0.7818609E-02  0.8804907E-01
        2   -1    0    0  501    0  0.00000000000E+00  0.00000000000E+00  0.12133000658E+04  0.12133000658E+04  0.25500000920E-02 0.  1.
       -2   -1    0    0    0  501  0.00000000000E+00  0.00000000000E+00 -0.54457606360E+03  0.54457606360E+03  0.25500000920E-02 0. -1.
    10030    2    1    2    0    0  0.00000000000E+00  0.00000000000E+00  0.66872400224E+03  0.17578761294E+04  0.16257111353E+04 0.  0.
        5    1    3    3  502    0  0.80507084106E+03 -0.18088181058E+02  0.45401930734E+03  0.92445760468E+03  0.46999998093E+01 0. -1.
       -5    1    3    3    0  502 -0.80507084106E+03  0.18088181058E+02  0.21470469491E+03  0.83341852477E+03  0.46999998093E+01 0.  1.
</event>
<event>
 5   0  0.2649086E-04  0.1603262E+04  0.7818609E-02  0.8818547E-01
       -1   -1    0    0    0  501  0.00000000000E+00  0.00000000000E+00  0.62665536234E+03  0.62665536236E+03  0.50400001928E-02 0. -1.
        1   -1    0    0  501    0  0.00000000000E+00  0.00000000000E+00 -0.10254630203E+04  0.10254630204E+04  0.50400001928E-02 0.  1.
    10030    2    1    2    0    0  0.00000000000E+00  0.00000000000E+00 -0.39880765801E+03  0.16521183827E+04  0.16032615515E+04 0.  0.
        2    1    3    3  502    0 -0.30457235536E+03  0.23094063888E+03  0.52670636866E+03  0.65078221943E+03  0.25500000920E-02 0. -1.
       -2    1    3    3    0  502  0.30457235536E+03 -0.23094063888E+03 -0.92551402667E+03  0.10013361633E+04  0.25500000920E-02 0.  1.
</event>
<event>
 5   0  0.1908125E-04  0.1604848E+04  0.7818609E-02  0.8817575E-01
        4   -1    0    0  501    0  0.00000000000E+00  0.00000000000E+00  0.70976238144E+03  0.70976351766E+03  0.12699999809E+01 0.  1.
       -4   -1    0    0    0  501  0.00000000000E+00  0.00000000000E+00 -0.90718083410E+03  0.90718172306E+03  0.12699999809E+01 0. -1.
    10030    2    1    2    0    0  0.00000000000E+00  0.00000000000E+00 -0.19741845266E+03  0.16169452407E+04  0.16048482377E+04 0.  0.
        5    1    3    3  502    0 -0.45863557930E+03  0.62801981283E+03 -0.29795449591E+03  0.83279916639E+03  0.46999998093E+01 0. -1.
       -5    1    3    3    0  502  0.45863557930E+03 -0.62801981283E+03  0.10053604325E+03  0.78414607434E+03  0.46999998093E+01 0.  1.
</event>
<event>
 5   0  0.2689675E-04  0.1691943E+04  0.7818609E-02  0.8765973E-01
        1   -1    0    0  501    0  0.00000000000E+00  0.00000000000E+00  0.13559503720E+04  0.13559503720E+04  0.50400001928E-02 0. -1.
       -1   -1    0    0    0  501  0.00000000000E+00  0.00000000000E+00 -0.52779762914E+03  0.52779762916E+03  0.50400001928E-02 0.  1.
    10030    2    1    2    0    0  0.00000000000E+00  0.00000000000E+00  0.82815274282E+03  0.18837480011E+04  0.16919425423E+04 0.  0.
        1    1    3    3  502    0 -0.29418605257E+03  0.79302865643E+03  0.39728308740E+03  0.93449116368E+03  0.50400001928E-02 0.  1.
       -1    1    3    3    0  502  0.29418605257E+03 -0.79302865643E+03  0.43086965542E+03  0.94925683744E+03  0.50400001928E-02 0. -1.
</event>
<event>
 5   0  0.2649086E-04  0.1583945E+04  0.7818609E-02  0.8830472E-01
       -1   -1    0    0    0  501  0.00000000000E+00  0.00000000000E+00  0.21111766525E+04  0.21111766525E+04  0.50400001928E-02 0. -1.
        1   -1    0    0  501    0  0.00000000000E+00  0.00000000000E+00 -0.29709532000E+03  0.29709532004E+03  0.50400001928E-02 0.  1.
    10030    2    1    2    0    0  0.00000000000E+00  0.00000000000E+00  0.18140813325E+04  0.24082719726E+04  0.15839453314E+04 0.  0.
        2    1    3    3  502    0  0.13310172339E+03 -0.73157573759E+03  0.49259810220E+03  0.89194843960E+03  0.25500000920E-02 0.  1.
       -2    1    3    3    0  502 -0.13310172339E+03  0.73157573759E+03  0.13214832303E+04  0.15163235330E+04  0.25500000920E-02 0. -1.
</event>
<event>
 5   0  0.5131239E-04  0.1610798E+04  0.7818609E-02  0.8813941E-01
       -2   -1    0    0    0  501  0.00000000000E+00  0.00000000000E+00  0.13429324721E+04  0.13429324721E+04  0.25500000920E-02 0.  1.
        2   -1    0    0  501    0  0.00000000000E+00  0.00000000000E+00 -0.48302342921E+03  0.48302342922E+03  0.25500000920E-02 0. -1.
    10030    2    1    2    0    0  0.00000000000E+00  0.00000000000E+00  0.85990904285E+03  0.18259559013E+04  0.16107983708E+04 0.  0.
        1    1    3    3  502    0  0.31033881917E+03  0.40386165628E+03  0.11371920955E+04  0.12460418461E+04  0.50400001928E-02 0.  1.
       -1    1    3    3    0  502 -0.31033881917E+03 -0.40386165628E+03 -0.27728305265E+03  0.57991405519E+03  0.50400001928E-02 0. -1.
</event>
<event>
 5   0  0.5131239E-04  0.1574042E+04  0.7818609E-02  0.8836655E-01
       -2   -1    0    0    0  501  0.00000000000E+00  0.00000000000E+00  0.63203438439E+03  0.63203438440E+03  0.25500000920E-02 0. -1.
        2   -1    0    0  501    0  0.00000000000E+00  0.00000000000E+00 -0.98001375347E+03  0.98001375348E+03  0.25500000920E-02 0.  1.
    10030    2    1    2    0    0  0.00000000000E+00  0.00000000000E+00 -0.34797936908E+03  0.16120481379E+04  0.15740424256E+04 0.  0.
        1    1    3    3  502    0 -0.19302907150E+03 -0.73818166483E+03 -0.37159929899E+03  0.84868040614E+03  0.50400001928E-02 0.  1.
       -1    1    3    3    0  502  0.19302907150E+03  0.73818166483E+03  0.23619929906E+02  0.76336773173E+03  0.50400001928E-02 0. -1.
</event>
<event>
 5   0  0.1908125E-04  0.1597302E+04  0.7818609E-02  0.8822207E-01
       -3   -1    0    0    0  501  0.00000000000E+00  0.00000000000E+00  0.18298008129E+04  0.18298008156E+04  0.10100000352E+00 0. -1.
        3   -1    0    0  501    0  0.00000000000E+00  0.00000000000E+00 -0.34858641997E+03  0.34858643461E+03  0.10100000352E+00 0.  1.
    10030    2    1    2    0    0  0.00000000000E+00  0.00000000000E+00  0.14812143929E+04  0.21783872502E+04  0.15973023929E+04 0.  0.
        3    1    3    3  502    0  0.45443292339E+03  0.35286769897E+03  0.14960280126E+04  0.16028489384E+04  0.10100000352E+00 0. -1.
       -3    1    3    3    0  502 -0.45443292339E+03 -0.35286769897E+03 -0.14813619690E+02  0.57553831182E+03  0.10100000352E+00 0.  1.
</event>
<event>
 5   0  0.2763895E-04  0.1596515E+04  0.7818609E-02  0.8822692E-01
       -1   -1    0    0    0  501  0.00000000000E+00  0.00000000000E+00  0.97696494744E+03  0.97696494745E+03  0.50400001928E-02 0. -1.
        1   -1    0    0  501    0  0.00000000000E+00  0.00000000000E+00 -0.65223941892E+03  0.65223941894E+03  0.50400001928E-02 0.  1.
    10030    2    1    2    0    0  0.00000000000E+00  0.00000000000E+00  0.32472552852E+03  0.16292043664E+04  0.15965150167E+04 0.  0.
        4    1    3    3  502    0  0.12835753756E+03 -0.22375172685E+03 -0.60853395770E+03  0.66095059065E+03  0.12699999809E+01 0.  1.
       -4    1    3    3    0  502 -0.12835753756E+03  0.22375172685E+03  0.93325948622E+03  0.96825377574E+03  0.12699999809E+01 0. -1.
</event>
<event>
 5   0  0.5381164E-04  0.1605359E+04  0.7818609E-02  0.8817262E-01
        2   -1    0    0  501    0  0.00000000000E+00  0.00000000000E+00  0.66673610144E+03  0.66673610144E+03  0.25500000920E-02 0.  1.
       -2   -1    0    0    0  501  0.00000000000E+00  0.00000000000E+00 -0.96634103232E+03  0.96634103232E+03  0.25500000920E-02 0. -1.
    10030    2    1    2    0    0  0.00000000000E+00  0.00000000000E+00 -0.29960493088E+03  0.16330771338E+04  0.16053590907E+04 0.  0.
        5    1    3    3  502    0  0.25490097606E+03  0.47822089845E+03  0.45253806807E+03  0.70603295133E+03  0.46999998093E+01 0.  1.
       -5    1    3    3    0  502 -0.25490097606E+03 -0.47822089845E+03 -0.75214299895E+03  0.92704418243E+03  0.46999998093E+01 0. -1.
</event>
<event>
 5   0  0.2730707E-04  0.1598360E+04  0.7818609E-02  0.8821556E-01
        1   -1    0    0  501    0  0.00000000000E+00  0.00000000000E+00  0.27225281472E+04  0.27225281472E+04  0.50400001928E-02 0.  1.
       -1   -1    0    0    0  501  0.00000000000E+00  0.00000000000E+00 -0.23459409246E+03  0.23459409252E+03  0.50400001928E-02 0. -1.
    10030    2    1    2    0    0  0.00000000000E+00  0.00000000000E+00  0.24879340547E+04  0.29571222397E+04  0.15983604349E+04 0.  0.
        5    1    3    3  502    0  0.16059808999E+03 -0.71890462750E+03  0.67058216167E+03  0.99615166289E+03  0.46999998093E+01 0. -1.
       -5    1    3    3    0  502 -0.16059808999E+03  0.71890462750E+03  0.18173518931E+04  0.19609705768E+04  0.46999998093E+01 0.  1.
</event>
<event>
 5   0  0.2649086E-04  0.1578176E+04  0.7818609E-02  0.8834069E-01
        1   -1    0    0  501    0  0.00000000000E+00  0.00000000000E+00  0.86353456288E+03  0.86353456289E+03  0.50400001928E-02 0. -1.
       -1   -1    0    0    0  501  0.00000000000E+00  0.00000000000E+00 -0.72105958848E+03  0.72105958850E+03  0.50400001928E-02 0.  1.
    10030    2    1    2    0    0  0.00000000000E+00  0.00000000000E+00  0.14247497439E+03  0.15845941514E+04  0.15781760061E+04 0.  0.
        2    1    3    3  502    0 -0.73164632803E+03  0.13545816113E+03  0.33499307991E+03  0.81601202585E+03  0.25500000920E-02 0. -1.
       -2    1    3    3    0  502  0.73164632803E+03 -0.13545816113E+03 -0.19251810551E+03  0.76858212554E+03  0.25500000920E-02 0.  1.
</event>
<event>
 5   0  0.5381164E-04  0.1566174E+04  0.7818609E-02  0.8841602E-01
        2   -1    0    0  501    0  0.00000000000E+00  0.00000000000E+00  0.11148137042E+04  0.11148137042E+04  0.25500000920E-02 0. -1.
       -2   -1    0    0    0  501  0.00000000000E+00  0.00000000000E+00 -0.55006972353E+03  0.55006972354E+03  0.25500000920E-02 0.  1.
    10030    2    1    2    0    0  0.00000000000E+00  0.00000000000E+00  0.56474398068E+03  0.16648834278E+04  0.15661740211E+04 0.  0.
        5    1    3    3  502    0  0.25790136950E+03  0.50002667111E+02 -0.50181387565E+03  0.56643855704E+03  0.46999998093E+01 0.  1.
       -5    1    3    3    0  502 -0.25790136950E+03 -0.50002667111E+02  0.10665578563E+04  0.10984448707E+04  0.46999998093E+01 0. -1.
</event>
<event>
 5   0  0.5131239E-04  0.1610778E+04  0.7818609E-02  0.8813954E-01
        2   -1    0    0  501    0  0.00000000000E+00  0.00000000000E+00  0.88349025167E+03  0.88349025167E+03  0.25500000920E-02 0. -1.
       -2   -1    0    0    0  501  0.00000000000E+00  0.00000000000E+00 -0.73419175263E+03  0.73419175263E+03  0.25500000920E-02 0.  1.
    10030    2    1    2    0    0  0.00000000000E+00  0.00000000000E+00  0.14929849904E+03  0.16176820043E+04  0.16107777703E+04 0.  0.
        1    1    3    3  502    0 -0.37113090076E+03 -0.30449240382E+03  0.72410301044E+03  0.86878014436E+03  0.50400001928E-02 0. -1.
       -1    1    3    3    0  502  0.37113090076E+03  0.30449240382E+03 -0.57480451140E+03  0.74890185995E+03  0.50400001928E-02 0.  1.
</event>
<event>
 5   0  0.2649086E-04  0.1587477E+04  0.7818609E-02  0.8828279E-01
        1   -1    0    0  501    0  0.00000000000E+00  0.00000000000E+00  0.10366139997E+04  0.10366139997E+04  0.50400001928E-02 0.  1.
       -1   -1    0    0    0  501  0.00000000000E+00  0.00000000000E+00 -0.60776780824E+03  0.60776780826E+03  0.50400001928E-02 0. -1.
    10030    2    1    2    0    0  0.00000000000E+00  0.00000000000E+00  0.42884619142E+03  0.16443818079E+04  0.15874767634E+04 0.  0.
        2    1    3    3  502    0  0.74053922047E+03  0.28285101145E+03  0.25608403811E+03  0.83305586026E+03  0.25500000920E-02 0.  1.
       -2    1    3    3    0  502 -0.74053922047E+03 -0.28285101145E+03  0.17276215332E+03  0.81132594767E+03  0.25500000920E-02 0. -1.
</event>
<event>
 5   0  0.1908125E-04  0.1607029E+04  0.7818609E-02  0.8816242E-01
        3   -1    0    0  501    0  0.00000000000E+00  0.00000000000E+00  0.16439287022E+04  0.16439287053E+04  0.10100000352E+00 0. -1.
       -3   -1    0    0    0  501  0.00000000000E+00  0.00000000000E+00 -0.39273918053E+03  0.39273919351E+03  0.10100000352E+00 0.  1.
    10030    2    1    2    0    0  0.00000000000E+00  0.00000000000E+00  0.12511895216E+04  0.20366678988E+04  0.16070285968E+04 0.  0.
        2    1    3    3  502    0 -0.20157713077E+03 -0.31999458581E+03  0.15240783894E+04  0.15703008666E+04  0.25500000920E-02 0. -1.
       -2    1    3    3    0  502  0.20157713077E+03  0.31999458581E+03 -0.27288886773E+03  0.46636703221E+03  0.25500000920E-02 0.  1.
</event>
<event>
 5   0  0.2796994E-04  0.1322850E+04  0.7818609E-02  0.9011639E-01
        1   -1    0    0  501    0  0.00000000000E+00  0.00000000000E+00  0.53325539980E+03  0.53325539983E+03  0.50400001928E-02 0.  1.
       -1   -1    0    0    0  501  0.00000000000E+00  0.00000000000E+00 -0.82040038376E+03  0.82040038377E+03  0.50400001928E-02 0. -1.
    10030    2    1    2    0    0  0.00000000000E+00  0.00000000000E+00 -0.28714498395E+03  0.13536557836E+04  0.13228498549E+04 0.  0.
        3    1    3    3  502    0  0.14227679206E+03 -0.18794483902E+03  0.48881339742E+03  0.54268268423E+03  0.10100000352E+00 0.  1.
       -3    1    3    3    0  502 -0.14227679206E+03  0.18794483902E+03 -0.77595838137E+03  0.81097309936E+03  0.10100000352E+00 0. -1.
</event>
<event>
 5   0  0.2796994E-04  0.1680854E+04  0.7818609E-02  0.8772360E-01
       -1   -1    0    0    0  501  0.00000000000E+00  0.00000000000E+00  0.25208595366E+03  0.25208595371E+03  0.50400001928E-02 0. -1.
        1   -1    0    0  501    0  0.00000000000E+00  0.00000000000E+00 -0.28018908019E+04  0.28018908019E+04  0.50400001928E-02 0.  1.
    10030    2    1    2    0    0  0.00000000000E+00  0.00000000000E+00 -0.25498048482E+04  0.30539767556E+04  0.16808537294E+04 0.  0.
        3    1    3    3  502    0 -0.65056080949E+03 -0.50681655487E+03 -0.15691364345E+04  0.17726481736E+04  0.10100000352E+00 0.  1.
       -3    1    3    3    0  502  0.65056080949E+03  0.50681655487E+03 -0.98066841370E+03  0.12813285820E+04  0.10100000352E+00 0. -1.
</event>
<event>
 5   0  0.2730707E-04  0.1532529E+04  0.7818609E-02  0.8863105E-01
       -1   -1    0    0    0  501  0.00000000000E+00  0.00000000000E+00  0.24336218754E+03  0.24336218760E+03  0.50400001928E-02 0. -1.
        1   -1    0    0  501    0  0.00000000000E+00  0.00000000000E+00 -0.24127068080E+04  0.24127068080E+04  0.50400001928E-02 0.  1.
    10030    2    1    2    0    0  0.00000000000E+00  0.00000000000E+00 -0.21693446205E+04  0.26560689956E+04  0.15325294213E+04 0.  0.
        5    1    3    3  502    0  0.71427878786E+03  0.25794909313E+03 -0.12614818651E+04  0.14724437196E+04  0.46999998093E+01 0.  1.
       -5    1    3    3    0  502 -0.71427878786E+03 -0.25794909313E+03 -0.90786275542E+03  0.11836252761E+04  0.46999998093E+01 0. -1.
</event>
<event>
 5   0  0.2763895E-04  0.1599725E+04  0.7818609E-02  0.8820717E-01
       -1   -1    0    0    0  501  0.00000000000E+00  0.00000000000E+00  0.13818661251E+04  0.13818661251E+04  0.50400001928E-02 0. -1.
        1   -1    0    0  501    0  0.00000000000E+00  0.00000000000E+00 -0.46298267631E+03  0.46298267634E+03  0.50400001928E-02 0.  1.
    10030    2    1    2    0    0  0.00000000000E+00  0.00000000000E+00  0.91888344875E+03  0.18448488014E+04  0.15997250725E+04 0.  0.
        4    1    3    3  502    0  0.19678089760E+02  0.32191158050E+03 -0.38467452461E+03  0.50198644968E+03  0.12699999809E+01 0.  1.
       -4    1    3    3    0  502 -0.19678089760E+02 -0.32191158050E+03  0.13035579734E+04  0.13428623517E+04  0.12699999809E+01 0. -1.
</event>
<event>
 5   0  0.2730707E-04  0.1603760E+04  0.7818609E-02  0.8818242E-01
        1   -1    0    0  501    0  0.00000000000E+00  0.00000000000E+00  0.17638589482E+04  0.17638589482E+04  0.50400001928E-02 0.  1.
       -1   -1    0    0    0  501  0.00000000000E+00  0.00000000000E+00 -0.36454808261E+03  0.36454808265E+03  0.50400001928E-02 0. -1.
    10030    2    1    2    0    0  0.00000000000E+00  0.00000000000E+00  0.13993108656E+04  0.21284070309E+04  0.16037598294E+04 0.  0.
        5    1    3    3  502    0 -0.38981433010E+03 -0.29739599252E+03 -0.14241165618E+03  0.51059059737E+03  0.46999998093E+01 0. -1.
       -5    1    3    3    0  502  0.38981433010E+03  0.29739599252E+03  0.15417225218E+04  0.16178164335E+04  0.46999998093E+01 0.  1.
</event>
<event>
 5   0  0.5083831E-04  0.1580271E+04  0.7818609E-02  0.8832761E-01
        2   -1    0    0  501    0  0.00000000000E+00  0.00000000000E+00  0.66037085229E+03  0.66037085230E+03  0.25500000920E-02 0. -1.
       -2   -1    0    0    0  501  0.00000000000E+00  0.00000000000E+00 -0.94539975589E+03  0.94539975590E+03  0.25500000920E-02 0.  1.
    10030    2    1    2    0    0  0.00000000000E+00  0.00000000000E+00 -0.28502890360E+03  0.16057706082E+04  0.15802714230E+04 0.  0.
        4    1    3    3  502    0 -0.58550205088E+03 -0.36010298166E+03  0.25342148557E+03  0.73260553590E+03  0.12699999809E+01 0. -1.
       -4    1    3    3    0  502  0.58550205088E+03  0.36010298166E+03 -0.53845038917E+03  0.87316507230E+03  0.12699999809E+01 0.  1.
</event>
<event>
 5   0  0.2730707E-04  0.1604668E+04  0.7818609E-02  0.8817686E-01
        1   -1    0    0  501    0  0.00000000000E+00  0.00000000000E+00  0.14579493689E+04  0.14579493689E+04  0.50400001928E-02 0.  1.
       -1   -1    0    0    0  501  0.00000000000E+00  0.00000000000E+00 -0.44153760342E+03  0.44153760345E+03  0.50400001928E-02 0. -1.
    10030    2    1    2    0    0  0.00000000000E+00  0.00000000000E+00  0.10164117654E+04  0.18994869723E+04  0.16046675298E+04 0.  0.
        5    1    3    3  502    0 -0.33748509672E+03 -0.61131221795E+03  0.40493868816E+02  0.69947170188E+03  0.46999998093E+01 0. -1.
       -5    1    3    3    0  502  0.33748509672E+03  0.61131221795E+03  0.97591789662E+03  0.12000152704E+04  0.46999998093E+01 0.  1.
</event>
<event>
 5   0  0.5264308E-04  0.1607134E+04  0.7818609E-02  0.8816177E-01
       -2   -1    0    0    0  501  0.00000000000E+00  0.00000000000E+00  0.13080988595E+04  0.13080988595E+04  0.25500000920E-02 0.  1.
        2   -1    0    0  501    0  0.00000000000E+00  0.00000000000E+00 -0.49363244549E+03  0.49363244550E+03  0.25500000920E-02 0. -1.
    10030    2    1    2    0    0  0.00000000000E+00  0.00000000000E+00  0.81446641404E+03  0.18017313050E+04  0.16071341437E+04 0.  0.
        3    1    3    3  502    0  0.57359640526E+03 -0.40995588237E+03 -0.24992570273E+02  0.70547948261E+03  0.10100000352E+00 0.  1.
       -3    1    3    3    0  502 -0.57359640526E+03  0.40995588237E+03  0.83945898432E+03  0.10962518224E+04  0.10100000352E+00 0. -1.
</event>
<event>
 5   0  0.5264308E-04  0.1607090E+04  0.7818609E-02  0.8816204E-01
        2   -1    0    0  501    0  0.00000000000E+00  0.00000000000E+00  0.11325615823E+04  0.11325615823E+04  0.25500000920E-02 0.  1.
       -2   -1    0    0    0  501  0.00000000000E+00  0.00000000000E+00 -0.57010966176E+03  0.57010966176E+03  0.25500000920E-02 0. -1.
    10030    2    1    2    0    0  0.00000000000E+00  0.00000000000E+00  0.56245192052E+03  0.17026712440E+04  0.16070896684E+04 0.  0.
        3    1    3    3  502    0  0.72618604476E+02 -0.69051833047E+03  0.70975085379E+03  0.99289239653E+03  0.10100000352E+00 0.  1.
       -3    1    3    3    0  502 -0.72618604476E+02  0.69051833047E+03 -0.14729893327E+03  0.70977884751E+03  0.10100000352E+00 0. -1.
</event>
<event>
 5   0  0.2649086E-04  0.1552981E+04  0.7818609E-02  0.8849966E-01
       -1   -1    0    0    0  501  0.00000000000E+00  0.00000000000E+00  0.57170923393E+03  0.57170923396E+03  0.50400001928E-02 0.  1.
        1   -1    0    0  501    0  0.00000000000E+00  0.00000000000E+00 -0.10546221439E+04  0.10546221439E+04  0.50400001928E-02 0. -1.
    10030    2    1    2    0    0  0.00000000000E+00  0.00000000000E+00 -0.48291290992E+03  0.16263313778E+04  0.15529806412E+04 0.  0.
        2    1    3    3  502    0 -0.15619781363E+03  0.75997438623E+03 -0.20869978634E+03  0.80343912372E+03  0.25500000920E-02 0.  1.
       -2    1    3    3    0  502  0.15619781363E+03 -0.75997438623E+03 -0.27421312358E+03  0.82289225410E+03  0.25500000920E-02 0. -1.
</event>
<event>
 5   0  0.5381164E-04  0.1640669E+04  0.7818609E-02  0.8795946E-01
       -2   -1    0    0    0  501  0.00000000000E+00  0.00000000000E+00  0.60859138342E+03  0.60859138343E+03  0.25500000920E-02 0. -1.
        2   -1    0    0  501    0  0.00000000000E+00  0.00000000000E+00 -0.11057484711E+04  0.11057484711E+04  0.25500000920E-02 0.  1.
    10030    2    1    2    0    0  0.00000000000E+00  0.00000000000E+00 -0.49715708771E+03  0.17143398546E+04  0.16406693656E+04 0.  0.
        5    1    3    3  502    0  0.49534514147E+03 -0.45740476481E+03 -0.73682991767E+03  0.99876240699E+03  0.46999998093E+01 0.  1.
       -5    1    3    3    0  502 -0.49534514147E+03  0.45740476481E+03  0.23967282996E+03  0.71557744757E+03  0.46999998093E+01 0. -1.
</event>
<event>
 5   0  0.2730707E-04  0.1615680E+04  0.7818609E-02  0.8810973E-01
       -1   -1    0    0    0  501  0.00000000000E+00  0.00000000000E+00  0.64566782371E+03  0.64566782373E+03  0.50400001928E-02 0. -1.
        1   -1    0    0  501    0  0.00000000000E+00  0.00000000000E+00 -0.10107448268E+04  0.10107448268E+04  0.50400001928E-02 0.  1.
    10030    2    1    2    0    0  0.00000000000E+00  0.00000000000E+00 -0.36507700307E+03  0.16564126505E+04  0.16156799345E+04 0.  0.
        5    1    3    3  502    0  0.99049752775E+02 -0.19273625051E+03 -0.98037734899E+03  0.10040517677E+04  0.46999998093E+01 0.  1.
       -5    1    3    3    0  502 -0.99049752775E+02  0.19273625051E+03  0.61530034591E+03  0.65236088284E+03  0.46999998093E+01 0. -1.
</event>
<event>
 5   0  0.2649086E-04  0.1631821E+04  0.7818609E-02  0.8801234E-01
        1   -1    0    0  501    0  0.00000000000E+00  0.00000000000E+00  0.61925106402E+03  0.61925106404E+03  0.50400001928E-02 0. -1.
       -1   -1    0    0    0  501  0.00000000000E+00  0.00000000000E+00 -0.10750243161E+04  0.10750243161E+04  0.50400001928E-02 0.  1.
    10030    2    1    2    0    0  0.00000000000E+00  0.00000000000E+00 -0.45577325207E+03  0.16942753801E+04  0.16318210093E+04 0.  0.
        2    1    3    3  502    0 -0.80820701688E+03  0.77160001103E+02 -0.14380765750E+03  0.82451979374E+03  0.25500000920E-02 0.  1.
       -2    1    3    3    0  502  0.80820701688E+03 -0.77160001103E+02 -0.31196559457E+03  0.86975558641E+03  0.25500000920E-02 0. -1.
</event>
<event>
 5   0  0.5381164E-04  0.1592706E+04  0.7818609E-02  0.8825042E-01
        2   -1    0    0  501    0  0.00000000000E+00  0.00000000000E+00  0.26089757782E+03  0.26089757783E+03  0.25500000920E-02 0.  1.
       -2   -1    0    0    0  501  0.00000000000E+00  0.00000000000E+00 -0.24307542577E+04  0.24307542577E+04  0.25500000920E-02 0. -1.
    10030    2    1    2    0    0  0.00000000000E+00  0.00000000000E+00 -0.21698566799E+04  0.26916518355E+04  0.15927057457E+04 0.  0.
        5    1    3    3  502    0 -0.76249622717E+03  0.22332519498E+03 -0.99421572190E+03  0.12726985624E+04  0.46999998093E+01 0. -1.
       -5    1    3    3    0  502  0.76249622717E+03 -0.22332519498E+03 -0.11756409580E+04  0.14189532731E+04  0.46999998093E+01 0.  1.
</event>
<event>
 5   0  0.5131239E-04  0.1502036E+04  0.7818609E-02  0.8883100E-01
       -2   -1    0    0    0  501  0.00000000000E+00  0.00000000000E+00  0.22827040882E+03  0.22827040883E+03  0.25500000920E-02 0.  1.
        2   -1    0    0  501    0  0.00000000000E+00  0.00000000000E+00 -0.24708778892E+04  0.24708778892E+04  0.25500000920E-02 0. -1.
    10030    2    1    2    0    0  0.00000000000E+00  0.00000000000E+00 -0.22426074804E+04  0.26991482980E+04  0.15020363590E+04 0.  0.
        1    1    3    3  502    0  0.71322028590E+03 -0.15977989278E+03 -0.81101396657E+03  0.10917675780E+04  0.50400001928E-02 0.  1.
       -1    1    3    3    0  502 -0.71322028590E+03  0.15977989278E+03 -0.14315935138E+04  0.16073807200E+04  0.50400001928E-02 0. -1.
</event>
<event>
 5   0  0.2649086E-04  0.1599259E+04  0.7818609E-02  0.8821003E-01
       -1   -1    0    0    0  501  0.00000000000E+00  0.00000000000E+00  0.54449229001E+03  0.54449229003E+03  0.50400001928E-02 0. -1.
        1   -1    0    0  501    0  0.00000000000E+00  0.00000000000E+00 -0.11743185988E+04  0.11743185988E+04  0.50400001928E-02 0.  1.
    10030    2    1    2    0    0  0.00000000000E+00  0.00000000000E+00 -0.62982630882E+03  0.17188108889E+04  0.15992591073E+04 0.  0.
        2    1    3    3  502    0  0.46338992141E+03  0.13129587306E+03  0.37111248598E+03  0.60802409722E+03  0.25500000920E-02 0. -1.
       -2    1    3    3    0  502 -0.46338992141E+03 -0.13129587306E+03 -0.10009387948E+04  0.11107867916E+04  0.25500000920E-02 0.  1.
</event>
<event>
 5   0  0.5131239E-04  0.1597891E+04  0.7818609E-02  0.8821845E-01
       -2   -1    0    0    0  501  0.00000000000E+00  0.00000000000E+00  0.26714194360E+03  0.26714194361E+03  0.25500000920E-02 0.  1.
        2   -1    0    0  501    0  0.00000000000E+00  0.00000000000E+00 -0.23894172740E+04  0.23894172740E+04  0.25500000920E-02 0. -1.
    10030    2    1    2    0    0  0.00000000000E+00  0.00000000000E+00 -0.21222753304E+04  0.26565592176E+04  0.15978905778E+04 0.  0.
        1    1    3    3  502    0  0.16150517765E+03  0.31699662704E+02  0.23865159176E+03  0.28990235131E+03  0.50400001928E-02 0.  1.
       -1    1    3    3    0  502 -0.16150517765E+03 -0.31699662704E+02 -0.23609269221E+04  0.23666568663E+04  0.50400001928E-02 0. -1.
</event>
<event>
 5   0  0.2763895E-04  0.1627894E+04  0.7818609E-02  0.8803593E-01
        1   -1    0    0  501    0  0.00000000000E+00  0.00000000000E+00  0.24207353982E+04  0.24207353982E+04  0.50400001928E-02 0.  1.
       -1   -1    0    0    0  501  0.00000000000E+00  0.00000000000E+00 -0.27368107999E+03  0.27368108003E+03  0.50400001928E-02 0. -1.
    10030    2    1    2    0    0  0.00000000000E+00  0.00000000000E+00  0.21470543182E+04  0.26944164783E+04  0.16278937044E+04 0.  0.
        4    1    3    3  502    0  0.57497297412E+03  0.18179189905E+03  0.19783773520E+04  0.20682409858E+04  0.12699999809E+01 0.  1.
       -4    1    3    3    0  502 -0.57497297412E+03 -0.18179189905E+03  0.16867696625E+03  0.62617549247E+03  0.12699999809E+01 0. -1.
</event>
<event>
 5   0  0.5264308E-04  0.1599692E+04  0.7818609E-02  0.8820737E-01
       -2   -1    0    0    0  501  0.00000000000E+00  0.00000000000E+00  0.94176774323E+03  0.94176774324E+03  0.25500000920E-02 0.  1.
        2   -1    0    0  501    0  0.00000000000E+00  0.00000000000E+00 -0.67931145548E+03  0.67931145548E+03  0.25500000920E-02 0. -1.
    10030    2    1    2    0    0  0.00000000000E+00  0.00000000000E+00  0.26245628775E+03  0.16210791987E+04  0.15996919908E+04 0.  0.
        3    1    3    3  502    0  0.18365896530E+03 -0.37987052832E+03  0.81981360949E+03  0.92202310075E+03  0.10100000352E+00 0.  1.
       -3    1    3    3    0  502 -0.18365896530E+03  0.37987052832E+03 -0.55735732173E+03  0.69905609797E+03  0.10100000352E+00 0. -1.
</event>
<event>
 5   0  0.2763895E-04  0.1614350E+04  0.7818609E-02  0.8811780E-01
       -1   -1    0    0    0  501  0.00000000000E+00  0.00000000000E+00  0.70528769539E+03  0.70528769540E+03  0.50400001928E-02 0.  1.
        1   -1    0    0  501    0  0.00000000000E+00  0.00000000000E+00 -0.92378117443E+03  0.92378117444E+03  0.50400001928E-02 0. -1.
    10030    2    1    2    0    0  0.00000000000E+00  0.00000000000E+00 -0.21849347905E+03  0.16290688698E+04  0.16143500185E+04 0.  0.
        4    1    3    3  502    0  0.69104090909E+03  0.39945719335E+03  0.11957873974E+02  0.79827826665E+03  0.12699999809E+01 0.  1.
       -4    1    3    3    0  502 -0.69104090909E+03 -0.39945719335E+03 -0.23045135302E+03  0.83079060320E+03  0.12699999809E+01 0. -1.
</event>
<event>
 5   0  0.5264308E-04  0.1600661E+04  0.7818609E-02  0.8820142E-01
        2   -1    0    0  501    0  0.00000000000E+00  0.00000000000E+00  0.87454279705E+03  0.87454279705E+03  0.25500000920E-02 0. -1.
       -2   -1    0    0    0  501  0.00000000000E+00  0.00000000000E+00 -0.73241547535E+03  0.73241547535E+03  0.25500000920E-02 0.  1.
    10030    2    1    2    0    0  0.00000000000E+00  0.00000000000E+00  0.14212732170E+03  0.16069582724E+04  0.16006607116E+04 0.  0.
        3    1    3    3  502    0  0.33860209428E+03 -0.56084228110E+03 -0.39045493580E+03  0.76266015342E+03  0.10100000352E+00 0.  1.
       -3    1    3    3    0  502 -0.33860209428E+03  0.56084228110E+03  0.53258225750E+03  0.84429811899E+03  0.10100000352E+00 0. -1.
</event>
<event>
 5   0  0.5083831E-04  0.1615325E+04  0.7818609E-02  0.8811188E-01
        2   -1    0    0  501    0  0.00000000000E+00  0.00000000000E+00  0.17902438729E+04  0.17902438729E+04  0.25500000920E-02 0.  1.
       -2   -1    0    0    0  501  0.00000000000E+00  0.00000000000E+00 -0.36437432902E+03  0.36437432903E+03  0.25500000920E-02 0. -1.
    10030    2    1    2    0    0  0.00000000000E+00  0.00000000000E+00  0.14258695439E+04  0.21546182019E+04  0.16153252428E+04 0.  0.
        4    1    3    3  502    0 -0.31725119807E+03  0.14098566039E+03 -0.25977045975E+03  0.43359841302E+03  0.12699999809E+01 0. -1.
       -4    1    3    3    0  502  0.31725119807E+03 -0.14098566039E+03  0.16856400036E+04  0.17210197889E+04  0.12699999809E+01 0.  1.
</event>
<event>
 5   0  0.5315984E-04  0.1611203E+04  0.7818609E-02  0.8813695E-01
       -2   -1    0    0    0  501  0.00000000000E+00  0.00000000000E+00  0.70885784056E+03  0.70885784056E+03  0.25500000920E-02 0. -1.
        2   -1    0    0  501    0  0.00000000000E+00  0.00000000000E+00 -0.91554892751E+03  0.91554892752E+03  0.25500000920E-02 0.  1.
    10030    2    1    2    0    0  0.00000000000E+00  0.00000000000E+00 -0.20669108695E+03  0.16244067681E+04  0.16112033214E+04 0.  0.
        2    1    3    3  502    0  0.45999885988E+03 -0.17114948312E+03  0.54071886900E+03  0.73025200579E+03  0.25500000920E-02 0. -1.
       -2    1    3    3    0  502 -0.45999885988E+03  0.17114948312E+03 -0.74740995595E+03  0.89415476229E+03  0.25500000920E-02 0.  1.
</event>
<event>
 5   0  0.5315984E-04  0.1619418E+04  0.7818609E-02  0.8808707E-01
       -2   -1    0    0    0  501  0.00000000000E+00  0.00000000000E+00  0.31956036459E+03  0.31956036460E+03  0.25500000920E-02 0. -1.
        2   -1    0    0  501    0  0.00000000000E+00  0.00000000000E+00 -0.20516594287E+04  0.20516594287E+04  0.25500000920E-02 0.  1.
    10030    2    1    2    0    0  0.00000000000E+00  0.00000000000E+00 -0.17320990641E+04  0.23712197933E+04  0.16194184574E+04 0.  0.
        2    1    3    3  502    0  0.53953074795E+03  0.11393383780E+03 -0.17342283254E+04  0.18197863149E+04  0.25500000920E-02 0.  1.
       -2    1    3    3    0  502 -0.53953074795E+03 -0.11393383780E+03  0.21292612200E+01  0.55143347843E+03  0.25500000920E-02 0. -1.
</event>
<event>
 5   0  0.2763895E-04  0.1622048E+04  0.7818609E-02  0.8807117E-01
       -1   -1    0    0    0  501  0.00000000000E+00  0.00000000000E+00  0.67299542471E+03  0.67299542473E+03  0.50400001928E-02 0.  1.
        1   -1    0    0  501    0  0.00000000000E+00  0.00000000000E+00 -0.97736135823E+03  0.97736135824E+03  0.50400001928E-02 0. -1.
    10030    2    1    2    0    0  0.00000000000E+00  0.00000000000E+00 -0.30436593352E+03  0.16503567830E+04  0.16220477458E+04 0.  0.
        4    1    3    3  502    0 -0.74506695944E+03  0.23052091767E+03 -0.37853689585E+03  0.86692356177E+03  0.12699999809E+01 0. -1.
       -4    1    3    3    0  502  0.74506695944E+03 -0.23052091767E+03  0.74170962327E+02  0.78343322120E+03  0.12699999809E+01 0.  1.
</event>
<event>
 5   0  0.5315984E-04  0.1595572E+04  0.7818609E-02  0.8823273E-01
        2   -1    0    0  501    0  0.00000000000E+00  0.00000000000E+00  0.12161756338E+04  0.12161756338E+04  0.25500000920E-02 0. -1.
       -2   -1    0    0    0  501  0.00000000000E+00  0.00000000000E+00 -0.52333127896E+03  0.52333127897E+03  0.25500000920E-02 0.  1.
    10030    2    1    2    0    0  0.00000000000E+00  0.00000000000E+00  0.69284435485E+03  0.17395069128E+04  0.15955723110E+04 0.  0.
        2    1    3    3  502    0 -0.39355946324E+03 -0.25554760537E+03 -0.35696875497E+03  0.58959335287E+03  0.25500000920E-02 0.  1.
       -2    1    3    3    0  502  0.39355946324E+03  0.25554760537E+03  0.10498131098E+04  0.11499135599E+04  0.25500000920E-02 0. -1.
</event>
<event>
 5   0  0.5381164E-04  0.1560453E+04  0.7818609E-02  0.8845219E-01
        2   -1    0    0  501    0  0.00000000000E+00  0.00000000000E+00  0.97893468441E+03  0.97893468442E+03  0.25500000920E-02 0. -1.
       -2   -1    0    0    0  501  0.00000000000E+00  0.00000000000E+00 -0.62185256192E+03  0.62185256192E+03  0.25500000920E-02 0.  1.
    10030    2    1    2    0    0  0.00000000000E+00  0.00000000000E+00  0.35708212250E+03  0.16007872463E+04  0.15604525516E+04 0.  0.
        5    1    3    3  502    0 -0.68148517543E+03 -0.29022866489E+03  0.42998106856E+03  0.85648148350E+03  0.46999998093E+01 0. -1.
       -5    1    3    3    0  502  0.68148517543E+03  0.29022866489E+03 -0.72898946069E+02  0.74430576284E+03  0.46999998093E+01 0.  1.
</event>
<event>
 5   0  0.5381164E-04  0.1594409E+04  0.7818609E-02  0.8823990E-01
        2   -1    0    0  501    0  0.00000000000E+00  0.00000000000E+00  0.11874073133E+04  0.11874073133E+04  0.25500000920E-02 0.  1.
       -2   -1    0    0    0  501  0.00000000000E+00  0.00000000000E+00 -0.53522896165E+03  0.53522896166E+03  0.25500000920E-02 0. -1.
    10030    2    1    2    0    0  0.00000000000E+00  0.00000000000E+00  0.65217835170E+03  0.17226362750E+04  0.15944087097E+04 0.  0.
        5    1    3    3  502    0 -0.49082981212E+03  0.31585104879E+02  0.10039212583E+04  0.11179407436E+04  0.46999998093E+01 0.  1.
       -5    1    3    3    0  502  0.49082981212E+03 -0.31585104879E+02 -0.35174290663E+03  0.60469553139E+03  0.46999998093E+01 0. -1.
</event>
<event>
 5   0  0.5264308E-04  0.1583119E+04  0.7818609E-02  0.8830986E-01
        2   -1    0    0  501    0  0.00000000000E+00  0.00000000000E+00  0.27065573931E+03  0.27065573932E+03  0.25500000920E-02 0.  1.
       -2   -1    0    0    0  501  0.00000000000E+00  0.00000000000E+00 -0.23149931582E+04  0.23149931582E+04  0.25500000920E-02 0. -1.
    10030    2    1    2    0    0  0.00000000000E+00  0.00000000000E+00 -0.20443374189E+04  0.25856488975E+04  0.15831186749E+04 0.  0.
        3    1    3    3  502    0  0.28576340436E+03 -0.13792941768E+03 -0.22065725039E+04  0.22292706145E+04  0.10100000352E+00 0. -1.
       -3    1    3    3    0  502 -0.28576340436E+03  0.13792941768E+03  0.16223508507E+03  0.35637828296E+03  0.10100000352E+00 0.  1.
</event>
<event>
 5   0  0.2730707E-04  0.1629439E+04  0.7818609E-02  0.8802664E-01
       -1   -1    0    0    0  501  0.00000000000E+00  0.00000000000E+00  0.96312542260E+03  0.96312542261E+03  0.50400001928E-02 0.  1.
        1   -1    0    0  501    0  0.00000000000E+00  0.00000000000E+00 -0.68918146460E+03  0.68918146462E+03  0.50400001928E-02 0. -1.
    10030    2    1    2    0    0  0.00000000000E+00  0.00000000000E+00  0.27394395800E+03  0.16523068872E+04  0.16294393997E+04 0.  0.
        5    1    3    3  502    0 -0.67228816894E+03 -0.26879006575E+02 -0.32887950029E+03  0.74891767158E+03  0.46999998093E+01 0. -1.
       -5    1    3    3    0  502  0.67228816894E+03  0.26879006575E+02  0.60282345829E+03  0.90338921565E+03  0.46999998093E+01 0.  1.
</event>
<event>
 5   0  0.2689675E-04  0.1736746E+04  0.7818609E-02  0.8740680E-01
        1   -1    0    0  501    0  0.00000000000E+00  0.00000000000E+00  0.17492748697E+04  0.17492748697E+04  0.50400001928E-02 0.  1.
       -1   -1    0    0    0  501  0.00000000000E+00  0.00000000000E+00 -0.43107693574E+03  0.43107693577E+03  0.50400001928E-02 0. -1.
    10030    2    1    2    0    0  0.00000000000E+00  0.00000000000E+00  0.13181979340E+04  0.21803518055E+04  0.17367464416E+04 0.  0.
        1    1    3    3  502    0  0.54427341186E+03 -0.66301841042E+03  0.48952344000E+03  0.98765386535E+03  0.50400001928E-02 0. -1.
       -1    1    3    3    0  502 -0.54427341186E+03  0.66301841042E+03  0.82867449395E+03  0.11926979401E+04  0.50400001928E-02 0.  1.
</event>
<event>
 5   0  0.5264308E-04  0.1607958E+04  0.7818609E-02  0.8815674E-01
        2   -1    0    0  501    0  0.00000000000E+00  0.00000000000E+00  0.23527994055E+04  0.23527994055E+04  0.25500000920E-02 0. -1.
       -2   -1    0    0    0  501  0.00000000000E+00  0.00000000000E+00 -0.27472908507E+03  0.27472908508E+03  0.25500000920E-02 0.  1.
    10030    2    1    2    0    0  0.00000000000E+00  0.00000000000E+00  0.20780703204E+04  0.26275284906E+04  0.16079582433E+04 0.  0.
        3    1    3    3  502    0 -0.46844257786E+03  0.14045529211E+03 -0.37269289170E+01  0.48906036236E+03  0.10100000352E+00 0.  1.
       -3    1    3    3    0  502  0.46844257786E+03 -0.14045529211E+03  0.20817972493E+04  0.21384681282E+04  0.10100000352E+00 0. -1.
</event>
<event>
 5   0  0.2649086E-04  0.1590125E+04  0.7818609E-02  0.8826638E-01
        1   -1    0    0  501    0  0.00000000000E+00  0.00000000000E+00  0.19345922844E+04  0.19345922844E+04  0.50400001928E-02 0. -1.
       -1   -1    0    0    0  501  0.00000000000E+00  0.00000000000E+00 -0.32674821371E+03  0.32674821375E+03  0.50400001928E-02 0.  1.
    10030    2    1    2    0    0  0.00000000000E+00  0.00000000000E+00  0.16078440707E+04  0.22613404982E+04  0.15901252444E+04 0.  0.
        2    1    3    3  502    0 -0.10992981610E+03  0.72766837031E+03  0.37601258381E+03  0.82642076741E+03  0.25500000920E-02 0.  1.
       -2    1    3    3    0  502  0.10992981610E+03 -0.72766837031E+03  0.12318314869E+04  0.14349197308E+04  0.25500000920E-02 0. -1.
</event>
<event>
 5   0  0.5083831E-04  0.1663514E+04  0.7818609E-02  0.8782452E-01
        2   -1    0    0  501    0  0.00000000000E+00  0.00000000000E+00  0.19457172749E+04  0.19457172749E+04  0.25500000920E-02 0. -1.
       -2   -1    0    0    0  501  0.00000000000E+00  0.00000000000E+00 -0.35556027774E+03  0.35556027775E+03  0.25500000920E-02 0.  1.
    10030    2    1    2    0    0  0.00000000000E+00  0.00000000000E+00  0.15901569971E+04  0.23012775526E+04  0.16635140813E+04 0.  0.
        4    1    3    3  502    0  0.44120101998E+03  0.49611081608E+03  0.10195808610E+03  0.67170033950E+03  0.12699999809E+01 0.  1.
       -4    1    3    3    0  502 -0.44120101998E+03 -0.49611081608E+03  0.14881989110E+04  0.16295772131E+04  0.12699999809E+01 0. -1.
</event>
<event>
 5   0  0.2763895E-04  0.1603013E+04  0.7818609E-02  0.8818699E-01
       -1   -1    0    0    0  501  0.00000000000E+00  0.00000000000E+00  0.95800340523E+03  0.95800340524E+03  0.50400001928E-02 0. -1.
        1   -1    0    0  501    0  0.00000000000E+00  0.00000000000E+00 -0.67057488024E+03  0.67057488026E+03  0.50400001928E-02 0.  1.
    10030    2    1    2    0    0  0.00000000000E+00  0.00000000000E+00  0.28742852499E+03  0.16285782855E+04  0.16030134357E+04 0.  0.
        4    1    3    3  502    0  0.16782515279E+03 -0.59786333374E+02 -0.65020324853E+03  0.67417027884E+03  0.12699999809E+01 0.  1.
       -4    1    3    3    0  502 -0.16782515279E+03  0.59786333374E+02  0.93763177352E+03  0.95440800666E+03  0.12699999809E+01 0. -1.
</event>
<event>
 5   0  0.5083831E-04  0.1319166E+04  0.7818609E-02  0.9014503E-01
       -2   -1    0    0    0  501  0.00000000000E+00  0.00000000000E+00  0.26067322726E+03  0.26067322727E+03  0.25500000920E-02 0. -1.
        2   -1    0    0  501    0  0.00000000000E+00  0.00000000000E+00 -0.16689455327E+04  0.16689455327E+04  0.25500000920E-02 0.  1.
    10030    2    1    2    0    0  0.00000000000E+00  0.00000000000E+00 -0.14082723054E+04  0.19296187600E+04  0.13191655213E+04 0.  0.
        4    1    3    3  502    0 -0.40775734188E+03 -0.60531513198E+02 -0.14573036598E+04  0.15144852868E+04  0.12699999809E+01 0.  1.
       -4    1    3    3    0  502  0.40775734188E+03  0.60531513198E+02  0.49031354415E+02  0.41513347319E+03  0.12699999809E+01 0. -1.
</event>
<event>
 5   0  0.5131239E-04  0.1622505E+04  0.7818609E-02  0.8806840E-01
        2   -1    0    0  501    0  0.00000000000E+00  0.00000000000E+00  0.17938559232E+04  0.17938559232E+04  0.25500000920E-02 0. -1.
       -2   -1    0    0    0  501  0.00000000000E+00  0.00000000000E+00 -0.36688046700E+03  0.36688046701E+03  0.25500000920E-02 0.  1.
    10030    2    1    2    0    0  0.00000000000E+00  0.00000000000E+00  0.14269754562E+04  0.21607363902E+04  0.16225050987E+04 0.  0.
        1    1    3    3  502    0 -0.13929097839E+03 -0.29092300594E+03 -0.27781628039E+03  0.42569949227E+03  0.50400001928E-02 0.  1.
       -1    1    3    3    0  502  0.13929097839E+03  0.29092300594E+03  0.17047917365E+04  0.17350368979E+04  0.50400001928E-02 0. -1.
</event>
<event>
 5   0  0.5315984E-04  0.1601102E+04  0.7818609E-02  0.8819871E-01
        2   -1    0    0  501    0  0.00000000000E+00  0.00000000000E+00  0.98381526975E+03  0.98381526976E+03  0.25500000920E-02 0.  1.
       -2   -1    0    0    0  501  0.00000000000E+00  0.00000000000E+00 -0.65142488968E+03  0.65142488969E+03  0.25500000920E-02 0. -1.
    10030    2    1    2    0    0  0.00000000000E+00  0.00000000000E+00  0.33239038007E+03  0.16352401594E+04  0.16011018126E+04 0.  0.
        2    1    3    3  502    0 -0.13626779036E+03  0.78640146431E+03  0.10253168982E+03  0.80467939030E+03  0.25500000920E-02 0.  1.
       -2    1    3    3    0  502  0.13626779036E+03 -0.78640146431E+03  0.22985869025E+03  0.83056076914E+03  0.25500000920E-02 0. -1.
</event>
<event>
 5   0  0.2796994E-04  0.1602216E+04  0.7818609E-02  0.8819188E-01
       -1   -1    0    0    0  501  0.00000000000E+00  0.00000000000E+00  0.11249338242E+04  0.11249338242E+04  0.50400001928E-02 0.  1.
        1   -1    0    0  501    0  0.00000000000E+00  0.00000000000E+00 -0.57049938592E+03  0.57049938594E+03  0.50400001928E-02 0. -1.
    10030    2    1    2    0    0  0.00000000000E+00  0.00000000000E+00  0.55443443830E+03  0.16954332102E+04  0.16022160353E+04 0.  0.
        3    1    3    3  502    0 -0.35440425655E+03  0.51407472740E+03 -0.25387837497E+03  0.67403964415E+03  0.10100000352E+00 0. -1.
       -3    1    3    3    0  502  0.35440425655E+03 -0.51407472740E+03  0.80831281327E+03  0.10213935660E+04  0.10100000352E+00 0.  1.
</event>
<event>
 5   0  0.2689675E-04  0.1559977E+04  0.7818609E-02  0.8845520E-01
       -1   -1    0    0    0  501  0.00000000000E+00  0.00000000000E+00  0.86871838480E+03  0.86871838482E+03  0.50400001928E-02 0.  1.
        1   -1    0    0  501    0  0.00000000000E+00  0.00000000000E+00 -0.70032158370E+03  0.70032158372E+03  0.50400001928E-02 0. -1.
    10030    2    1    2    0    0  0.00000000000E+00  0.00000000000E+00  0.16839680110E+03  0.15690399685E+04  0.15599772243E+04 0.  0.
        1    1    3    3  502    0 -0.34834633569E+03  0.53409846933E+03 -0.36760592579E+03  0.73603020402E+03  0.50400001928E-02 0. -1.
       -1    1    3    3    0  502  0.34834633569E+03 -0.53409846933E+03  0.53600272688E+03  0.83300976452E+03  0.50400001928E-02 0.  1.
</event>
<event>
 5   0  0.2649086E-04  0.1600039E+04  0.7818609E-02  0.8820524E-01
       -1   -1    0    0    0  501  0.00000000000E+00  0.00000000000E+00  0.49931143178E+03  0.49931143181E+03  0.50400001928E-02 0. -1.
        1   -1    0    0  501    0  0.00000000000E+00  0.00000000000E+00 -0.12818280215E+04  0.12818280216E+04  0.50400001928E-02 0.  1.
    10030    2    1    2    0    0  0.00000000000E+00  0.00000000000E+00 -0.78251658976E+03  0.17811394534E+04  0.16000392305E+04 0.  0.
        2    1    3    3  502    0  0.48216816405E+03 -0.63611733753E+03 -0.33131166988E+03  0.86423308669E+03  0.25500000920E-02 0. -1.
       -2    1    3    3    0  502 -0.48216816405E+03  0.63611733753E+03 -0.45120491989E+03  0.91690636668E+03  0.25500000920E-02 0.  1.
</event>
<event>
 5   0  0.5315984E-04  0.1601193E+04  0.7818609E-02  0.8819816E-01
       -2   -1    0    0    0  501  0.00000000000E+00  0.00000000000E+00  0.29085132461E+03  0.29085132463E+03  0.25500000920E-02 0. -1.
        2   -1    0    0  501    0  0.00000000000E+00  0.00000000000E+00 -0.22037192539E+04  0.22037192539E+04  0.25500000920E-02 0.  1.
    10030    2    1    2    0    0  0.00000000000E+00  0.00000000000E+00 -0.19128679292E+04  0.24945705785E+04  0.16011928854E+04 0.  0.
        2    1    3    3  502    0 -0.20173618340E+03  0.75648539519E+03 -0.69580030721E+03  0.10474281399E+04  0.25500000920E-02 0. -1.
       -2    1    3    3    0  502  0.20173618340E+03 -0.75648539519E+03 -0.12170676220E+04  0.14471424385E+04  0.25500000920E-02 0.  1.
</event>
<event>
 5   0  0.5381164E-04  0.1613348E+04  0.7818609E-02  0.8812389E-01
        2   -1    0    0  501    0  0.00000000000E+00  0.00000000000E+00  0.95153538543E+03  0.95153538543E+03  0.25500000920E-02 0. -1.
       -2   -1    0    0    0  501  0.00000000000E+00  0.00000000000E+00 -0.68386651935E+03  0.68386651935E+03  0.25500000920E-02 0.  1.
    10030    2    1    2    0    0  0.00000000000E+00  0.00000000000E+00  0.26766886608E+03  0.16354019048E+04  0.16133483097E+04 0.  0.
        5    1    3    3  502    0  0.21855365972E+03  0.65616309293E+03 -0.28703423500E+03  0.74881669904E+03  0.46999998093E+01 0.  1.
       -5    1    3    3    0  502 -0.21855365972E+03 -0.65616309293E+03  0.55470310108E+03  0.88658520574E+03  0.46999998093E+01 0. -1.
</event>
<event>
 5   0  0.2689675E-04  0.1605618E+04  0.7818609E-02  0.8817104E-01
       -1   -1    0    0    0  501  0.00000000000E+00  0.00000000000E+00  0.13869461668E+04  0.13869461668E+04  0.50400001928E-02 0. -1.
        1   -1    0    0  501    0  0.00000000000E+00  0.00000000000E+00 -0.46469185326E+03  0.46469185329E+03  0.50400001928E-02 0.  1.
    10030    2    1    2    0    0  0.00000000000E+00  0.00000000000E+00  0.92225431349E+03  0.18516380201E+04  0.16056183664E+04 0.  0.
        1    1    3    3  502    0  0.69747333752E+02 -0.56290371021E+03  0.11163141380E+04  0.12521511619E+04  0.50400001928E-02 0. -1.
       -1    1    3    3    0  502 -0.69747333752E+02  0.56290371021E+03 -0.19405982454E+03  0.59948685812E+03  0.50400001928E-02 0.  1.
</event>
<event>
 5   0  0.5131239E-04  0.1516537E+04  0.7818609E-02  0.8873530E-01
        2   -1    0    0  501    0  0.00000000000E+00  0.00000000000E+00  0.19863485682E+04  0.19863485682E+04  0.25500000920E-02 0.  1.
       -2   -1    0    0    0  501  0.00000000000E+00  0.00000000000E+00 -0.28946118578E+03  0.28946118579E+03  0.25500000920E-02 0. -1.
    10030    2    1    2    0    0  0.00000000000E+00  0.00000000000E+00  0.16968873824E+04  0.22758097540E+04  0.15165365962E+04 0.  0.
        1    1    3    3  502    0  0.24318238023E+03 -0.53396371252E+03  0.12763200672E+03  0.60045386626E+03  0.50400001928E-02 0. -1.
       -1    1    3    3    0  502 -0.24318238023E+03  0.53396371252E+03  0.15692553757E+04  0.16753558877E+04  0.50400001928E-02 0.  1.
</event>
<event>
 5   0  0.2689675E-04  0.1611892E+04  0.7818609E-02  0.8813276E-01
        1   -1    0    0  501    0  0.00000000000E+00  0.00000000000E+00  0.18510725483E+04  0.18510725483E+04  0.50400001928E-02 0.  1.
       -1   -1    0    0    0  501  0.00000000000E+00  0.00000000000E+00 -0.35090396354E+03  0.35090396358E+03  0.50400001928E-02 0. -1.
    10030    2    1    2    0    0  0.00000000000E+00  0.00000000000E+00  0.15001685847E+04  0.22019765118E+04  0.16118916763E+04 0.  0.
        1    1    3    3  502    0  0.25118386671E+01  0.37415088255E+03 -0.22506638043E+03  0.43663493662E+03  0.50400001928E-02 0. -1.
       -1    1    3    3    0  502 -0.25118386671E+01 -0.37415088255E+03  0.17252349651E+04  0.17653415752E+04  0.50400001928E-02 0.  1.
</event>
<event>
 5   0  0.5381164E-04  0.1712792E+04  0.7818609E-02  0.8754102E-01
        2   -1    0    0  501    0  0.00000000000E+00  0.00000000000E+00  0.70435928475E+03  0.70435928475E+03  0.25500000920E-02 0.  1.
       -2   -1    0    0    0  501  0.00000000000E+00  0.00000000000E+00 -0.10412503005E+04  0.10412503005E+04  0.25500000920E-02 0. -1.
    10030    2    1    2    0    0  0.00000000000E+00  0.00000000000E+00 -0.33689101574E+03  0.17456095852E+04  0.17127922430E+04 0.  0.
        5    1    3    3  502    0  0.15522504721E+03 -0.11707150313E+03  0.68155584767E+03  0.70876019613E+03  0.46999998093E+01 0.  1.
       -5    1    3    3    0  502 -0.15522504721E+03  0.11707150313E+03 -0.10184468634E+04  0.10368493891E+04  0.46999998093E+01 0. -1.
</event>
<event>
 5   0  0.5131239E-04  0.1587379E+04  0.7818609E-02  0.8828340E-01
        2   -1    0    0  501    0  0.00000000000E+00  0.00000000000E+00  0.68577022865E+03  0.68577022865E+03  0.25500000920E-02 0.  1.
       -2   -1    0    0    0  501  0.00000000000E+00  0.00000000000E+00 -0.91859155572E+03  0.91859155573E+03  0.25500000920E-02 0. -1.
    10030    2    1    2    0    0  0.00000000000E+00  0.00000000000E+00 -0.23282132707E+03  0.16043617844E+04  0.15873786457E+04 0.  0.
        1    1    3    3  502    0 -0.10712047572E+03 -0.36976582114E+03 -0.81791225736E+03  0.90398120532E+03  0.50400001928E-02 0. -1.
       -1    1    3    3    0  502  0.10712047572E+03  0.36976582114E+03  0.58509093028E+03  0.70038057906E+03  0.50400001928E-02 0.  1.
</event>
<event>
 5   0  0.5381164E-04  0.1605305E+04  0.7818609E-02  0.8817296E-01
       -2   -1    0    0    0  501  0.00000000000E+00  0.00000000000E+00  0.63967684837E+03  0.63967684837E+03  0.25500000920E-02 0.  1.
        2   -1    0    0  501    0  0.00000000000E+00  0.00000000000E+00 -0.10071508335E+04  0.10071508335E+04  0.25500000920E-02 0. -1.
    10030    2    1    2    0    0  0.00000000000E+00  0.00000000000E+00 -0.36747398509E+03  0.16468276818E+04  0.16053050439E+04 0.  0.
        5    1    3    3  502    0  0.25403201028E+03  0.73180850309E+03  0.31824341107E+02  0.77531337286E+03  0.46999998093E+01 0.  1.
       -5    1    3    3    0  502 -0.25403201028E+03 -0.73180850309E+03 -0.39929832620E+03  0.87151430897E+03  0.46999998093E+01 0. -1.
</event>
<event>
 5   0  0.5381164E-04  0.1591086E+04  0.7818609E-02  0.8826043E-01
       -2   -1    0    0    0  501  0.00000000000E+00  0.00000000000E+00  0.45928450931E+03  0.45928450932E+03  0.25500000920E-02 0. -1.
        2   -1    0    0  501    0  0.00000000000E+00  0.00000000000E+00 -0.13779880117E+04  0.13779880117E+04  0.25500000920E-02 0.  1.
    10030    2    1    2    0    0  0.00000000000E+00  0.00000000000E+00 -0.91870350240E+03  0.18372725210E+04  0.15910858529E+04 0.  0.
        5    1    3    3  502    0 -0.55021977008E+01  0.50705761960E+03 -0.11671625456E+04  0.12725675627E+04  0.46999998093E+01 0.  1.
       -5    1    3    3    0  502  0.55021977008E+01 -0.50705761960E+03  0.24845904323E+03  0.56470495831E+03  0.46999998093E+01 0. -1.
</event>
<event>
 5   0  0.2649086E-04  0.1637005E+04  0.7818609E-02  0.8798132E-01
       -1   -1    0    0    0  501  0.00000000000E+00  0.00000000000E+00  0.67927544439E+03  0.67927544441E+03  0.50400001928E-02 0.  1.
        1   -1    0    0  501    0  0.00000000000E+00  0.00000000000E+00 -0.98626597056E+03  0.98626597058E+03  0.50400001928E-02 0. -1.
    10030    2    1    2    0    0  0.00000000000E+00  0.00000000000E+00 -0.30699052617E+03  0.16655414150E+04  0.16370048937E+04 0.  0.
        2    1    3    3  502    0  0.75910807835E+03 -0.20827646583E+03  0.74741087015E+02  0.79070246675E+03  0.25500000920E-02 0.  1.
       -2    1    3    3    0  502 -0.75910807835E+03  0.20827646583E+03 -0.38173161318E+03  0.87483894823E+03  0.25500000920E-02 0. -1.
</event>
<event>
 5   0  0.5131239E-04  0.1594408E+04  0.7818609E-02  0.8823991E-01
        2   -1    0    0  501    0  0.00000000000E+00  0.00000000000E+00  0.86001200177E+03  0.86001200177E+03  0.25500000920E-02 0. -1.
       -2   -1    0    0    0  501  0.00000000000E+00  0.00000000000E+00 -0.73898271287E+03  0.73898271287E+03  0.25500000920E-02 0.  1.
    10030    2    1    2    0    0  0.00000000000E+00  0.00000000000E+00  0.12102928890E+03  0.15989947146E+04  0.15944077297E+04 0.  0.
        1    1    3    3  502    0  0.37375973898E+03 -0.69272674515E+03  0.18724002386E+03  0.80908931057E+03  0.50400001928E-02 0.  1.
       -1    1    3    3    0  502 -0.37375973898E+03  0.69272674515E+03 -0.66210734961E+02  0.78990540407E+03  0.50400001928E-02 0. -1.
</event>
<event>
 5   0  0.2649086E-04  0.1613711E+04  0.7818609E-02  0.8812169E-01
        1   -1    0    0  501    0  0.00000000000E+00  0.00000000000E+00  0.11293657159E+04  0.11293657159E+04  0.50400001928E-02 0. -1.
       -1   -1    0    0    0  501  0.00000000000E+00  0.00000000000E+00 -0.57644394639E+03  0.57644394641E+03  0.50400001928E-02 0.  1.
    10030    2    1    2    0    0  0.00000000000E+00  0.00000000000E+00  0.55292176952E+03  0.17058096623E+04  0.16137112880E+04 0.  0.
        2    1    3    3  502    0 -0.28244172307E+03 -0.74396959069E+03  0.41730145783E+03  0.89855694617E+03  0.25500000920E-02 0. -1.
       -2    1    3    3    0  502  0.28244172307E+03  0.74396959069E+03  0.13562031169E+03  0.80725271616E+03  0.25500000920E-02 0.  1.
</event>
<event>
 5   0  0.5083831E-04  0.1632180E+04  0.7818609E-02  0.8801019E-01
       -2   -1    0    0    0  501  0.00000000000E+00  0.00000000000E+00  0.58788848368E+03  0.58788848369E+03  0.25500000920E-02 0.  1.
        2   -1    0    0  501    0  0.00000000000E+00  0.00000000000E+00 -0.11328730933E+04  0.11328730933E+04  0.25500000920E-02 0. -1.
    10030    2    1    2    0    0  0.00000000000E+00  0.00000000000E+00 -0.54498460958E+03  0.17207615770E+04  0.16321801923E+04 0.  0.
        4    1    3    3  502    0 -0.28252101955E+03 -0.40080785752E+03  0.41524239571E+03  0.64256744800E+03  0.12699999809E+01 0.  1.
       -4    1    3    3    0  502  0.28252101955E+03  0.40080785752E+03 -0.96022700529E+03  0.10781941290E+04  0.12699999809E+01 0. -1.
</event>
<event>
 5   0  0.2796994E-04  0.1604148E+04  0.7818609E-02  0.8818004E-01
        1   -1    0    0  501    0  0.00000000000E+00  0.00000000000E+00  0.16390388382E+04  0.16390388383E+04  0.50400001928E-02 0. -1.
       -1   -1    0    0    0  501  0.00000000000E+00  0.00000000000E+00 -0.39249982078E+03  0.39249982082E+03  0.50400001928E-02 0.  1.
    10030    2    1    2    0    0  0.00000000000E+00  0.00000000000E+00  0.12465390175E+04  0.20315386591E+04  0.16041476869E+04 0.  0.
        3    1    3    3  502    0  0.67164864713E+03 -0.35542307496E+02  0.69871643973E+02  0.67620796922E+03  0.10100000352E+00 0.  1.
       -3    1    3    3    0  502 -0.67164864713E+03  0.35542307496E+02  0.11766673735E+04  0.13553306898E+04  0.10100000352E+00 0. -1.
</event>
<event>
 5   0  0.5264308E-04  0.1598097E+04  0.7818609E-02  0.8821718E-01
        2   -1    0    0  501    0  0.00000000000E+00  0.00000000000E+00  0.15577618952E+04  0.15577618952E+04  0.25500000920E-02 0.  1.
       -2   -1    0    0    0  501  0.00000000000E+00  0.00000000000E+00 -0.40986891805E+03  0.40986891805E+03  0.25500000920E-02 0. -1.
    10030    2    1    2    0    0  0.00000000000E+00  0.00000000000E+00  0.11478929772E+04  0.19676308133E+04  0.15980965960E+04 0.  0.
        3    1    3    3  502    0 -0.37431215184E+03  0.36368082604E+03 -0.17103130091E+03  0.54920401158E+03  0.10100000352E+00 0. -1.
       -3    1    3    3    0  502  0.37431215184E+03 -0.36368082604E+03  0.13189242781E+04  0.14184268017E+04  0.10100000352E+00 0.  1.
</event>
<event>
 5   0  0.2763895E-04  0.1602994E+04  0.7818609E-02  0.8818711E-01
        1   -1    0    0  501    0  0.00000000000E+00  0.00000000000E+00  0.79309444035E+03  0.79309444036E+03  0.50400001928E-02 0. -1.
       -1   -1    0    0    0  501  0.00000000000E+00  0.00000000000E+00 -0.80998904176E+03  0.80998904178E+03  0.50400001928E-02 0.  1.
    10030    2    1    2    0    0  0.00000000000E+00  0.00000000000E+00 -0.16894601416E+02  0.16030834821E+04  0.16029944551E+04 0.  0.
        4    1    3    3  502    0  0.68017260189E+03 -0.26381957421E+03 -0.34037032391E+03  0.80503981665E+03  0.12699999809E+01 0.  1.
       -4    1    3    3    0  502 -0.68017260189E+03  0.26381957421E+03  0.32347572249E+03  0.79804366549E+03  0.12699999809E+01 0. -1.
</event>
<event>
 5   0  0.5131239E-04  0.1660411E+04  0.7818609E-02  0.8784271E-01
       -2   -1    0    0    0  501  0.00000000000E+00  0.00000000000E+00  0.14826096874E+04  0.14826096874E+04  0.25500000920E-02 0.  1.
        2   -1    0    0  501    0  0.00000000000E+00  0.00000000000E+00 -0.46488389297E+03  0.46488389298E+03  0.25500000920E-02 0. -1.
    10030    2    1    2    0    0  0.00000000000E+00  0.00000000000E+00  0.10177257944E+04  0.19474935803E+04  0.16604112301E+04 0.  0.
        1    1    3    3  502    0 -0.63372994330E+03  0.39468536857E+03  0.93475774516E+03  0.11963119256E+04  0.50400001928E-02 0. -1.
       -1    1    3    3    0  502  0.63372994330E+03 -0.39468536857E+03  0.82968049238E+02  0.75118165474E+03  0.50400001928E-02 0.  1.
</event>
<event>
 5   0  0.2730707E-04  0.1602917E+04  0.7818609E-02  0.8818758E-01
        1   -1    0    0  501    0  0.00000000000E+00  0.00000000000E+00  0.92013144480E+03  0.92013144482E+03  0.50400001928E-02 0. -1.
       -1   -1    0    0    0  501  0.00000000000E+00  0.00000000000E+00 -0.69809083815E+03  0.69809083817E+03  0.50400001928E-02 0.  1.
    10030    2    1    2    0    0  0.00000000000E+00  0.00000000000E+00  0.22204060665E+03  0.16182222830E+04  0.16029165063E+04 0.  0.
        5    1    3    3  502    0 -0.56653449430E+02  0.64309445137E+03  0.59045832592E+03  0.87489611461E+03  0.46999998093E+01 0. -1.
       -5    1    3    3    0  502  0.56653449430E+02 -0.64309445137E+03 -0.36841771927E+03  0.74332616837E+03  0.46999998093E+01 0.  1.
</event>
<event>
 5   0  0.2763895E-04  0.1609146E+04  0.7818609E-02  0.8814949E-01
        1   -1    0    0  501    0  0.00000000000E+00  0.00000000000E+00  0.19722222514E+04  0.19722222514E+04  0.50400001928E-02 0.  1.
       -1   -1    0    0    0  501  0.00000000000E+00  0.00000000000E+00 -0.32822767007E+03  0.32822767010E+03  0.50400001928E-02 0. -1.
    10030    2    1    2    0    0  0.00000000000E+00  0.00000000000E+00  0.16439945813E+04  0.23004499215E+04  0.16091462512E+04 0.  0.
        4    1    3    3  502    0  0.30402810861E+03 -0.12052481798E+03 -0.22891309803E+03  0.39920188117E+03  0.12699999809E+01 0. -1.
       -4    1    3    3    0  502 -0.30402810861E+03  0.12052481798E+03  0.18729076793E+04  0.19012480403E+04  0.12699999809E+01 0.  1.
</event>
<event>
 5   0  0.5264308E-04  0.1603466E+04  0.7818609E-02  0.8818421E-01
       -2   -1    0    0    0  501  0.00000000000E+00  0.00000000000E+00  0.10250123575E+04  0.10250123575E+04  0.25500000920E-02 0.  1.
        2   -1    0    0  501    0  0.00000000000E+00  0.00000000000E+00 -0.62709099432E+03  0.62709099433E+03  0.25500000920E-02 0. -1.
    10030    2    1    2    0    0  0.00000000000E+00  0.00000000000E+00  0.39792136313E+03  0.16521033518E+04  0.16034662684E+04 0.  0.
        3    1    3    3  502    0  0.14238352767E+03  0.32439600836E+03 -0.54206984799E+03  0.64756896891E+03  0.10100000352E+00 0. -1.
       -3    1    3    3    0  502 -0.14238352767E+03 -0.32439600836E+03  0.93999121112E+03  0.10045343829E+04  0.10100000352E+00 0.  1.
</event>
<event>
 5   0  0.2730707E-04  0.1593685E+04  0.7818609E-02  0.8824437E-01
        1   -1    0    0  501    0  0.00000000000E+00  0.00000000000E+00  0.18549390549E+04  0.18549390549E+04  0.50400001928E-02 0.  1.
       -1   -1    0    0    0  501  0.00000000000E+00  0.00000000000E+00 -0.34230665195E+03  0.34230665198E+03  0.50400001928E-02 0. -1.
    10030    2    1    2    0    0  0.00000000000E+00  0.00000000000E+00  0.15126324030E+04  0.21972457069E+04  0.15936850097E+04 0.  0.
        5    1    3    3  502    0  0.30843123099E+03 -0.20125737448E+03  0.17305374249E+04  0.17692982293E+04  0.46999998093E+01 0.  1.
       -5    1    3    3    0  502 -0.30843123099E+03  0.20125737448E+03 -0.21790502195E+03  0.42794747764E+03  0.46999998093E+01 0. -1.
</event>
<event>
 5   0  0.2796994E-04  0.1558514E+04  0.7818609E-02  0.8846448E-01
       -1   -1    0    0    0  501  0.00000000000E+00  0.00000000000E+00  0.89020498507E+03  0.89020498508E+03  0.50400001928E-02 0.  1.
        1   -1    0    0  501    0  0.00000000000E+00  0.00000000000E+00 -0.68213637419E+03  0.68213637421E+03  0.50400001928E-02 0. -1.
    10030    2    1    2    0    0  0.00000000000E+00  0.00000000000E+00  0.20806861088E+03  0.15723413593E+04  0.15585136519E+04 0.  0.
        3    1    3    3  502    0 -0.15127243684E+02 -0.76671859473E+03 -0.35595064994E+02  0.76769346478E+03  0.10100000352E+00 0. -1.
       -3    1    3    3    0  502  0.15127243684E+02  0.76671859473E+03  0.24366367587E+03  0.80464789452E+03  0.10100000352E+00 0.  1.
</event>
<event>
 5   0  0.2649086E-04  0.1583683E+04  0.7818609E-02  0.8830635E-01
        1   -1    0    0  501    0  0.00000000000E+00  0.00000000000E+00  0.13867089431E+04  0.13867089431E+04  0.50400001928E-02 0. -1.
       -1   -1    0    0    0  501  0.00000000000E+00  0.00000000000E+00 -0.45215887137E+03  0.45215887140E+03  0.50400001928E-02 0.  1.
    10030    2    1    2    0    0  0.00000000000E+00  0.00000000000E+00  0.93455007174E+03  0.18388678145E+04  0.15836827342E+04 0.  0.
        2    1    3    3  502    0 -0.74977359268E+03  0.53333820770E+02  0.75641328040E+03  0.10663798514E+04  0.25500000920E-02 0. -1.
       -2    1    3    3    0  502  0.74977359268E+03 -0.53333820770E+02  0.17813679134E+03  0.77248796312E+03  0.25500000920E-02 0.  1.
</event>
<event>
 5   0  0.5315984E-04  0.1604448E+04  0.7818609E-02  0.8817820E-01
       -2   -1    0    0    0  501  0.00000000000E+00  0.00000000000E+00  0.92383591206E+03  0.92383591206E+03  0.25500000920E-02 0.  1.
        2   -1    0    0  501    0  0.00000000000E+00  0.00000000000E+00 -0.69662111881E+03  0.69662111882E+03  0.25500000920E-02 0. -1.
    10030    2    1    2    0    0  0.00000000000E+00  0.00000000000E+00  0.22721479325E+03  0.16204570309E+04  0.16044483247E+04 0.  0.
        2    1    3    3  502    0  0.66738243908E+03  0.25331150643E+03  0.48331658348E+03  0.86206783907E+03  0.25500000920E-02 0.  1.
       -2    1    3    3    0  502 -0.66738243908E+03 -0.25331150643E+03 -0.25610179024E+03  0.75838919181E+03  0.25500000920E-02 0. -1.
</event>
<event>
 5   0  0.2649086E-04  0.1585106E+04  0.7818609E-02  0.8829751E-01
        1   -1    0    0  501    0  0.00000000000E+00  0.00000000000E+00  0.68200006576E+03  0.68200006578E+03  0.50400001928E-02 0. -1.
       -1   -1    0    0    0  501  0.00000000000E+00  0.00000000000E+00 -0.92102612418E+03  0.92102612420E+03  0.50400001928E-02 0.  1.
    10030    2    1    2    0    0  0.00000000000E+00  0.00000000000E+00 -0.23902605843E+03  0.16030261900E+04  0.15851055199E+04 0.  0.
        2    1    3    3  502    0 -0.21930267656E+03 -0.65892009010E+03 -0.50576100575E+03  0.85910624723E+03  0.25500000920E-02 0.  1.
       -2    1    3    3    0  502  0.21930267656E+03  0.65892009010E+03  0.26673494733E+03  0.74391994274E+03  0.25500000920E-02 0. -1.
</event>
<event>
 5   0  0.2649086E-04  0.1580700E+04  0.7818609E-02  0.8832493E-01
        1   -1    0    0  501    0  0.00000000000E+00  0.00000000000E+00  0.10283298460E+04  0.10283298460E+04  0.50400001928E-02 0.  1.
       -1   -1    0    0    0  501  0.00000000000E+00  0.00000000000E+00 -0.60744466729E+03  0.60744466731E+03  0.50400001928E-02 0. -1.
    10030    2    1    2    0    0  0.00000000000E+00  0.00000000000E+00  0.42088517870E+03  0.16357745133E+04  0.15807004538E+04 0.  0.
        2    1    3    3  502    0  0.12265005484E+03 -0.31602967261E+03 -0.52839057410E+03  0.62778530464E+03  0.25500000920E-02 0. -1.
       -2    1    3    3    0  502 -0.12265005484E+03  0.31602967261E+03  0.94927575280E+03  0.10079892087E+04  0.25500000920E-02 0.  1.
</event>
<event>
 5   0  0.2796994E-04  0.1604113E+04  0.7818609E-02  0.8818025E-01
       -1   -1    0    0    0  501  0.00000000000E+00  0.00000000000E+00  0.94845205014E+03  0.94845205015E+03  0.50400001928E-02 0.  1.
        1   -1    0    0  501    0  0.00000000000E+00  0.00000000000E+00 -0.67825732840E+03  0.67825732842E+03  0.50400001928E-02 0. -1.
    10030    2    1    2    0    0  0.00000000000E+00  0.00000000000E+00  0.27019472174E+03  0.16267093786E+04  0.16041129058E+04 0.  0.
        3    1    3    3  502    0 -0.56040681447E+03  0.57210803084E+03  0.17966120886E+03  0.82075669770E+03  0.10100000352E+00 0. -1.
       -3    1    3    3    0  502  0.56040681447E+03 -0.57210803084E+03  0.90533512879E+02  0.80595268088E+03  0.10100000352E+00 0.  1.
</event>
<event>
 5   0  0.5131239E-04  0.1604481E+04  0.7818609E-02  0.8817800E-01
        2   -1    0    0  501    0  0.00000000000E+00  0.00000000000E+00  0.69738408107E+03  0.69738408108E+03  0.25500000920E-02 0. -1.
       -2   -1    0    0    0  501  0.00000000000E+00  0.00000000000E+00 -0.92286310655E+03  0.92286310656E+03  0.25500000920E-02 0.  1.
    10030    2    1    2    0    0  0.00000000000E+00  0.00000000000E+00 -0.22547902548E+03  0.16202471876E+04  0.16044812738E+04 0.  0.
        1    1    3    3  502    0 -0.26522982247E+03 -0.11759104643E+03 -0.86802976818E+03  0.91523231553E+03  0.50400001928E-02 0.  1.
       -1    1    3    3    0  502  0.26522982247E+03  0.11759104643E+03  0.64255074269E+03  0.70501487211E+03  0.50400001928E-02 0. -1.
</event>
<event>
 5   0  0.5083831E-04  0.1622147E+04  0.7818609E-02  0.8807057E-01
        2   -1    0    0  501    0  0.00000000000E+00  0.00000000000E+00  0.10862871840E+04  0.10862871840E+04  0.25500000920E-02 0.  1.
       -2   -1    0    0    0  501  0.00000000000E+00  0.00000000000E+00 -0.60558572430E+03  0.60558572430E+03  0.25500000920E-02 0. -1.
    10030    2    1    2    0    0  0.00000000000E+00  0.00000000000E+00  0.48070145970E+03  0.16918729083E+04  0.16221467395E+04 0.  0.
        4    1    3    3  502    0  0.70572919820E+03  0.27503176585E+03 -0.62190517927E+02  0.75997726732E+03  0.12699999809E+01 0. -1.
       -4    1    3    3    0  502 -0.70572919820E+03 -0.27503176585E+03  0.54289197763E+03  0.93189564099E+03  0.12699999809E+01 0.  1.
</event>
<event>
 5   0  0.2689675E-04  0.1562329E+04  0.7818609E-02  0.8844031E-01
       -1   -1    0    0    0  501  0.00000000000E+00  0.00000000000E+00  0.57676152923E+03  0.57676152925E+03  0.50400001928E-02 0.  1.
        1   -1    0    0  501    0  0.00000000000E+00  0.00000000000E+00 -0.10580077649E+04  0.10580077649E+04  0.50400001928E-02 0. -1.
    10030    2    1    2    0    0  0.00000000000E+00  0.00000000000E+00 -0.48124623570E+03  0.16347692942E+04  0.15623292565E+04 0.  0.
        1    1    3    3  502    0 -0.41969817783E+03 -0.54926327651E+03 -0.62133594045E+03  0.92945955174E+03  0.50400001928E-02 0. -1.
       -1    1    3    3    0  502  0.41969817783E+03  0.54926327651E+03  0.14008970474E+03  0.70530974245E+03  0.50400001928E-02 0.  1.
</event>
<event>
 5   0  0.5131239E-04  0.1605833E+04  0.7818609E-02  0.8816973E-01
        2   -1    0    0  501    0  0.00000000000E+00  0.00000000000E+00  0.12617926471E+04  0.12617926471E+04  0.25500000920E-02 0.  1.
       -2   -1    0    0    0  501  0.00000000000E+00  0.00000000000E+00 -0.51091956620E+03  0.51091956621E+03  0.25500000920E-02 0. -1.
    10030    2    1    2    0    0  0.00000000000E+00  0.00000000000E+00  0.75087308085E+03  0.17727122133E+04  0.16058325590E+04 0.  0.
        1    1    3    3  502    0 -0.16128835594E+03  0.15202962173E+03  0.12273514549E+04  0.12472042870E+04  0.50400001928E-02 0.  1.
       -1    1    3    3    0  502  0.16128835594E+03 -0.15202962173E+03 -0.47647837403E+03  0.52550792628E+03  0.50400001928E-02 0. -1.
</event>
<event>
 5   0  0.5083831E-04  0.1603050E+04  0.7818609E-02  0.8818677E-01
       -2   -1    0    0    0  501  0.00000000000E+00  0.00000000000E+00  0.29638093575E+03  0.29638093576E+03  0.25500000920E-02 0.  1.
        2   -1    0    0  501    0  0.00000000000E+00  0.00000000000E+00 -0.21676233956E+04  0.21676233956E+04  0.25500000920E-02 0. -1.
    10030    2    1    2    0    0  0.00000000000E+00  0.00000000000E+00 -0.18712424599E+04  0.24640043314E+04  0.16030499061E+04 0.  0.
        4    1    3    3  502    0 -0.16407763211E+03 -0.13699173327E+03  0.25176367398E+03  0.33026468897E+03  0.12699999809E+01 0.  1.
       -4    1    3    3    0  502  0.16407763211E+03  0.13699173327E+03 -0.21230061339E+04  0.21337396424E+04  0.12699999809E+01 0. -1.
</event>
<event>
 5   0  0.5381164E-04  0.1617770E+04  0.7818609E-02  0.8809705E-01
        2   -1    0    0  501    0  0.00000000000E+00  0.00000000000E+00  0.24089081804E+04  0.24089081804E+04  0.25500000920E-02 0. -1.
       -2   -1    0    0    0  501  0.00000000000E+00  0.00000000000E+00 -0.27161473197E+03  0.27161473199E+03  0.25500000920E-02 0.  1.
    10030    2    1    2    0    0  0.00000000000E+00  0.00000000000E+00  0.21372934484E+04  0.26805229123E+04  0.16177700081E+04 0.  0.
        5    1    3    3  502    0 -0.31842143476E+03  0.30755914689E+03 -0.53041076922E+02  0.44589268305E+03  0.46999998093E+01 0.  1.
       -5    1    3    3    0  502  0.31842143476E+03 -0.30755914689E+03  0.21903345253E+04  0.22346302293E+04  0.46999998093E+01 0. -1.
</event>
<event>
 5   0  0.5131239E-04  0.1591867E+04  0.7818609E-02  0.8825560E-01
       -2   -1    0    0    0  501  0.00000000000E+00  0.00000000000E+00  0.39796221632E+03  0.39796221633E+03  0.25500000920E-02 0. -1.
        2   -1    0    0  501    0  0.00000000000E+00  0.00000000000E+00 -0.15918851314E+04  0.15918851314E+04  0.25500000920E-02 0.  1.
    10030    2    1    2    0    0  0.00000000000E+00  0.00000000000E+00 -0.11939229151E+04  0.19898473477E+04  0.15918669982E+04 0.  0.
        1    1    3    3  502    0 -0.23503843757E+01  0.20702458744E+03  0.36371335793E+03  0.41851178105E+03  0.50400001928E-02 0. -1.
       -1    1    3    3    0  502  0.23503843757E+01 -0.20702458744E+03 -0.15576362730E+04  0.15713355667E+04  0.50400001928E-02 0.  1.
</event>
<event>
 5   0  0.5381164E-04  0.1596857E+04  0.7818609E-02  0.8822481E-01
        2   -1    0    0  501    0  0.00000000000E+00  0.00000000000E+00  0.15380025008E+04  0.15380025008E+04  0.25500000920E-02 0.  1.
       -2   -1    0    0    0  501  0.00000000000E+00  0.00000000000E+00 -0.41449112470E+03  0.41449112470E+03  0.25500000920E-02 0. -1.
    10030    2    1    2    0    0  0.00000000000E+00  0.00000000000E+00  0.11235113761E+04  0.19524936255E+04  0.15968573967E+04 0.  0.
        5    1    3    3  502    0 -0.19712565777E+03  0.26669850993E+02  0.15072011736E+04  0.15202786829E+04  0.46999998093E+01 0.  1.
       -5    1    3    3    0  502  0.19712565777E+03 -0.26669850993E+02 -0.38368979751E+03  0.43221494261E+03  0.46999998093E+01 0. -1.
</event>
<event>
 5   0  0.5131239E-04  0.1612021E+04  0.7818609E-02  0.8813197E-01
       -2   -1    0    0    0  501  0.00000000000E+00  0.00000000000E+00  0.14533925324E+04  0.14533925324E+04  0.25500000920E-02 0. -1.
        2   -1    0    0  501    0  0.00000000000E+00  0.00000000000E+00 -0.44699055601E+03  0.44699055601E+03  0.25500000920E-02 0.  1.
    10030    2    1    2    0    0  0.00000000000E+00  0.00000000000E+00  0.10064019764E+04  0.19003830884E+04  0.16120207643E+04 0.  0.
        1    1    3    3  502    0  0.32515854537E+01  0.23865409033E+03  0.14107769865E+04  0.14308242566E+04  0.50400001928E-02 0. -1.
       -1    1    3    3    0  502 -0.32515854537E+01 -0.23865409033E+03 -0.40437501014E+03  0.46955883177E+03  0.50400001928E-02 0.  1.
</event>
<event>
 5   0  0.2763895E-04  0.1591015E+04  0.7818609E-02  0.8826087E-01
       -1   -1    0    0    0  501  0.00000000000E+00  0.00000000000E+00  0.31137568307E+03  0.31137568311E+03  0.50400001928E-02 0.  1.
        1   -1    0    0  501    0  0.00000000000E+00  0.00000000000E+00 -0.20323751444E+04  0.20323751444E+04  0.50400001928E-02 0. -1.
    10030    2    1    2    0    0  0.00000000000E+00  0.00000000000E+00 -0.17209994613E+04  0.23437508275E+04  0.15910150205E+04 0.  0.
        4    1    3    3  502    0 -0.40903438595E+03 -0.40987255835E+03 -0.56974387733E+02  0.58185250428E+03  0.12699999809E+01 0.  1.
       -4    1    3    3    0  502  0.40903438595E+03  0.40987255835E+03 -0.16640250736E+04  0.17618983232E+04  0.12699999809E+01 0. -1.
</event>
<event>
 5   0  0.2796994E-04  0.1597518E+04  0.7818609E-02  0.8822074E-01
       -1   -1    0    0    0  501  0.00000000000E+00  0.00000000000E+00  0.62883481271E+03  0.62883481273E+03  0.50400001928E-02 0.  1.
        1   -1    0    0  501    0  0.00000000000E+00  0.00000000000E+00 -0.10145999968E+04  0.10145999968E+04  0.50400001928E-02 0. -1.
    10030    2    1    2    0    0  0.00000000000E+00  0.00000000000E+00 -0.38576518412E+03  0.16434348096E+04  0.15975178234E+04 0.  0.
        3    1    3    3  502    0 -0.69275297833E+03 -0.21912122861E+03  0.14846004672E+03  0.74159368760E+03  0.10100000352E+00 0.  1.
       -3    1    3    3    0  502  0.69275297833E+03  0.21912122861E+03 -0.53422523084E+03  0.90184112197E+03  0.10100000352E+00 0. -1.
</event>
<event>
 5   0  0.5131239E-04  0.1597890E+04  0.7818609E-02  0.8821845E-01
        2   -1    0    0  501    0  0.00000000000E+00  0.00000000000E+00  0.91153616516E+03  0.91153616516E+03  0.25500000920E-02 0. -1.
       -2   -1    0    0    0  501  0.00000000000E+00  0.00000000000E+00 -0.70026099451E+03  0.70026099452E+03  0.25500000920E-02 0.  1.
    10030    2    1    2    0    0  0.00000000000E+00  0.00000000000E+00  0.21127517064E+03  0.16117971597E+04  0.15978901358E+04 0.  0.
        1    1    3    3  502    0  0.37928340758E+02 -0.79594957662E+03  0.16392400595E+03  0.81353879275E+03  0.50400001928E-02 0.  1.
       -1    1    3    3    0  502 -0.37928340758E+02  0.79594957662E+03  0.47351164696E+02  0.79825836693E+03  0.50400001928E-02 0. -1.
</event>
<event>
 5   0  0.2649086E-04  0.1593452E+04  0.7818609E-02  0.8824581E-01
        1   -1    0    0  501    0  0.00000000000E+00  0.00000000000E+00  0.20061482868E+04  0.20061482868E+04  0.50400001928E-02 0. -1.
       -1   -1    0    0    0  501  0.00000000000E+00  0.00000000000E+00 -0.31641363813E+03  0.31641363817E+03  0.50400001928E-02 0.  1.
    10030    2    1    2    0    0  0.00000000000E+00  0.00000000000E+00  0.16897346487E+04  0.23225619250E+04  0.15934524506E+04 0.  0.
        2    1    3    3  502    0 -0.35584483457E+03  0.49697401289E+03  0.99989889273E+02  0.61935990647E+03  0.25500000920E-02 0.  1.
       -2    1    3    3    0  502  0.35584483457E+03 -0.49697401289E+03  0.15897447594E+04  0.17032020185E+04  0.25500000920E-02 0. -1.
</event>
<event>
 5   0  0.5315984E-04  0.1528907E+04  0.7818609E-02  0.8865455E-01
        2   -1    0    0  501    0  0.00000000000E+00  0.00000000000E+00  0.13052043650E+04  0.13052043650E+04  0.25500000920E-02 0. -1.
       -2   -1    0    0    0  501  0.00000000000E+00  0.00000000000E+00 -0.44773743190E+03  0.44773743191E+03  0.25500000920E-02 0.  1.
    10030    2    1    2    0    0  0.00000000000E+00  0.00000000000E+00  0.85746693306E+03  0.17529417969E+04  0.15289066034E+04 0.  0.
        2    1    3    3  502    0  0.16369568611E+03  0.15798807371E+03  0.12654923016E+04  0.12857788591E+04  0.25500000920E-02 0. -1.
       -2    1    3    3    0  502 -0.16369568611E+03 -0.15798807371E+03 -0.40802536852E+03  0.46716293780E+03  0.25500000920E-02 0.  1.
</event>
<event>
 5   0  0.2763895E-04  0.1591844E+04  0.7818609E-02  0.8825574E-01
        1   -1    0    0  501    0  0.00000000000E+00  0.00000000000E+00  0.13023848723E+04  0.13023848723E+04  0.50400001928E-02 0.  1.
       -1   -1    0    0    0  501  0.00000000000E+00  0.00000000000E+00 -0.48640905481E+03  0.48640905483E+03  0.50400001928E-02 0. -1.
    10030    2    1    2    0    0  0.00000000000E+00  0.00000000000E+00  0.81597581749E+03  0.17887939271E+04  0.15918439556E+04 0.  0.
        4    1    3    3  502    0  0.56163114168E+03 -0.22067268874E+03 -0.17522853753E+03  0.62835708647E+03  0.12699999809E+01 0. -1.
       -4    1    3    3    0  502 -0.56163114168E+03  0.22067268874E+03  0.99120435502E+03  0.11604368407E+04  0.12699999809E+01 0.  1.
</event>
<event>
 5   0  0.5381164E-04  0.1593685E+04  0.7818609E-02  0.8824437E-01
       -2   -1    0    0    0  501  0.00000000000E+00  0.00000000000E+00  0.61815398926E+03  0.61815398927E+03  0.25500000920E-02 0. -1.
        2   -1    0    0  501    0  0.00000000000E+00  0.00000000000E+00 -0.10271840295E+04  0.10271840295E+04  0.25500000920E-02 0.  1.
    10030    2    1    2    0    0  0.00000000000E+00  0.00000000000E+00 -0.40903004021E+03  0.16453380187E+04  0.15936849193E+04 0.  0.
        5    1    3    3  502    0  0.38556223917E+03 -0.16166439637E+03  0.49580848265E+03  0.64856900850E+03  0.46999998093E+01 0. -1.
       -5    1    3    3    0  502 -0.38556223917E+03  0.16166439637E+03 -0.90483852286E+03  0.99676901024E+03  0.46999998093E+01 0.  1.
</event>
<event>
 5   0  0.2763895E-04  0.1603703E+04  0.7818609E-02  0.8818277E-01
       -1   -1    0    0    0  501  0.00000000000E+00  0.00000000000E+00  0.10051646884E+04  0.10051646884E+04  0.50400001928E-02 0. -1.
        1   -1    0    0  501    0  0.00000000000E+00  0.00000000000E+00 -0.63966189874E+03  0.63966189876E+03  0.50400001928E-02 0.  1.
    10030    2    1    2    0    0  0.00000000000E+00  0.00000000000E+00  0.36550278965E+03  0.16448265872E+04  0.16037026572E+04 0.  0.
        4    1    3    3  502    0  0.52250565587E+03 -0.21201342511E+03  0.76745980928E+03  0.95234343836E+03  0.12699999809E+01 0. -1.
       -4    1    3    3    0  502 -0.52250565587E+03  0.21201342511E+03 -0.40195701963E+03  0.69248314880E+03  0.12699999809E+01 0.  1.
</event>
<event>
 5   0  0.5131239E-04  0.1591921E+04  0.7818609E-02  0.8825526E-01
       -2   -1    0    0    0  501  0.00000000000E+00  0.00000000000E+00  0.35838146038E+03  0.35838146039E+03  0.25500000920E-02 0.  1.
        2   -1    0    0  501    0  0.00000000000E+00  0.00000000000E+00 -0.17678188294E+04  0.17678188294E+04  0.25500000920E-02 0. -1.
    10030    2    1    2    0    0  0.00000000000E+00  0.00000000000E+00 -0.14094373691E+04  0.21262002898E+04  0.15919214727E+04 0.  0.
        1    1    3    3  502    0  0.43946060370E+03  0.29710507486E+03 -0.14973119053E+04  0.15885024361E+04  0.50400001928E-02 0. -1.
       -1    1    3    3    0  502 -0.43946060370E+03 -0.29710507486E+03  0.87874536280E+02  0.53769785369E+03  0.50400001928E-02 0.  1.
</event>
<event>
 5   0  0.2649086E-04  0.1642413E+04  0.7818609E-02  0.8794907E-01
       -1   -1    0    0    0  501  0.00000000000E+00  0.00000000000E+00  0.55533671910E+03  0.55533671912E+03  0.50400001928E-02 0. -1.
        1   -1    0    0  501    0  0.00000000000E+00  0.00000000000E+00 -0.12143630575E+04  0.12143630576E+04  0.50400001928E-02 0.  1.
    10030    2    1    2    0    0  0.00000000000E+00  0.00000000000E+00 -0.65902633845E+03  0.17696997767E+04  0.16424133416E+04 0.  0.
        2    1    3    3  502    0 -0.18937509563E+03 -0.42887076238E+03 -0.10559967437E+04  0.11553883245E+04  0.25500000920E-02 0.  1.
       -2    1    3    3    0  502  0.18937509563E+03  0.42887076238E+03  0.39697040523E+03  0.61431145220E+03  0.25500000920E-02 0. -1.
</event>
<event>
 5   0  0.2649086E-04  0.1582077E+04  0.7818609E-02  0.8831635E-01
       -1   -1    0    0    0  501  0.00000000000E+00  0.00000000000E+00  0.55249965262E+03  0.55249965264E+03  0.50400001928E-02 0. -1.
        1   -1    0    0  501    0  0.00000000000E+00  0.00000000000E+00 -0.11325658695E+04  0.11325658695E+04  0.50400001928E-02 0.  1.
    10030    2    1    2    0    0  0.00000000000E+00  0.00000000000E+00 -0.58006621690E+03  0.16850655222E+04  0.15820774311E+04 0.  0.
        2    1    3    3  502    0 -0.65601160201E+03  0.34881592808E+03 -0.57921908647E+03  0.94208201543E+03  0.25500000920E-02 0.  1.
       -2    1    3    3    0  502  0.65601160201E+03 -0.34881592808E+03 -0.84713043621E+00  0.74298350675E+03  0.25500000920E-02 0. -1.
</event>
<event>
 5   0  0.2730707E-04  0.1600325E+04  0.7818609E-02  0.8820348E-01
        1   -1    0    0  501    0  0.00000000000E+00  0.00000000000E+00  0.16444276407E+04  0.16444276407E+04  0.50400001928E-02 0. -1.
       -1   -1    0    0    0  501  0.00000000000E+00  0.00000000000E+00 -0.38935138097E+03  0.38935138100E+03  0.50400001928E-02 0.  1.
    10030    2    1    2    0    0  0.00000000000E+00  0.00000000000E+00  0.12550762598E+04  0.20337790217E+04  0.16003251830E+04 0.  0.
        5    1    3    3  502    0  0.57617577456E+03 -0.18283593358E+03  0.12937740622E+04  0.14280339337E+04  0.46999998093E+01 0. -1.
       -5    1    3    3    0  502 -0.57617577456E+03  0.18283593358E+03 -0.38697802412E+02  0.60574508806E+03  0.46999998093E+01 0.  1.
</event>
<event>
 5   0  0.2730707E-04  0.1579482E+04  0.7818609E-02  0.8833253E-01
        1   -1    0    0  501    0  0.00000000000E+00  0.00000000000E+00  0.86387096533E+03  0.86387096535E+03  0.50400001928E-02 0. -1.
       -1   -1    0    0    0  501  0.00000000000E+00  0.00000000000E+00 -0.72197261897E+03  0.72197261898E+03  0.50400001928E-02 0.  1.
    10030    2    1    2    0    0  0.00000000000E+00  0.00000000000E+00  0.14189834636E+03  0.15858435843E+04  0.15794824258E+04 0.  0.
        5    1    3    3  502    0 -0.25321148908E+03  0.53550577037E+03 -0.45344405158E+03  0.74600005778E+03  0.46999998093E+01 0.  1.
       -5    1    3    3    0  502  0.25321148908E+03 -0.53550577037E+03  0.59534239794E+03  0.83984352655E+03  0.46999998093E+01 0. -1.
</event>
<event>
 5   0  0.2763895E-04  0.1607005E+04  0.7818609E-02  0.8816256E-01
       -1   -1    0    0    0  501  0.00000000000E+00  0.00000000000E+00  0.16182818152E+04  0.16182818152E+04  0.50400001928E-02 0. -1.
        1   -1    0    0  501    0  0.00000000000E+00  0.00000000000E+00 -0.39895187040E+03  0.39895187043E+03  0.50400001928E-02 0.  1.
    10030    2    1    2    0    0  0.00000000000E+00  0.00000000000E+00  0.12193299448E+04  0.20172336856E+04  0.16070053604E+04 0.  0.
        4    1    3    3  502    0  0.11352707064E+03  0.29135869621E+03 -0.31943924463E+03  0.44701379121E+03  0.12699999809E+01 0.  1.
       -4    1    3    3    0  502 -0.11352707064E+03 -0.29135869621E+03  0.15387691894E+04  0.15702198944E+04  0.12699999809E+01 0. -1.
</event>
<event>
 5   0  0.5083831E-04  0.1603405E+04  0.7818609E-02  0.8818459E-01
       -2   -1    0    0    0  501  0.00000000000E+00  0.00000000000E+00  0.75417020022E+03  0.75417020023E+03  0.25500000920E-02 0.  1.
        2   -1    0    0  501    0  0.00000000000E+00  0.00000000000E+00 -0.85223106596E+03  0.85223106596E+03  0.25500000920E-02 0. -1.
    10030    2    1    2    0    0  0.00000000000E+00  0.00000000000E+00 -0.98060865734E+02  0.16064012662E+04  0.16034054679E+04 0.  0.
        4    1    3    3  502    0  0.36422913619E+03  0.69307867490E+03  0.12364223938E+03  0.79266003400E+03  0.12699999809E+01 0. -1.
       -4    1    3    3    0  502 -0.36422913619E+03 -0.69307867490E+03 -0.22170310512E+03  0.81374123219E+03  0.12699999809E+01 0.  1.
</event>
<event>
 5   0  0.5131239E-04  0.1566219E+04  0.7818609E-02  0.8841574E-01
       -2   -1    0    0    0  501  0.00000000000E+00  0.00000000000E+00  0.59151733908E+03  0.59151733909E+03  0.25500000920E-02 0. -1.
        2   -1    0    0  501    0  0.00000000000E+00  0.00000000000E+00 -0.10367584964E+04  0.10367584964E+04  0.25500000920E-02 0.  1.
    10030    2    1    2    0    0  0.00000000000E+00  0.00000000000E+00 -0.44524115729E+03  0.16282758355E+04  0.15662191763E+04 0.  0.
        1    1    3    3  502    0 -0.22020074423E+03  0.24034599910E+03 -0.96287671447E+03  0.10165560163E+04  0.50400001928E-02 0.  1.
       -1    1    3    3    0  502  0.22020074423E+03 -0.24034599910E+03  0.51763555718E+03  0.61171981913E+03  0.50400001928E-02 0. -1.
</event>
<event>
 5   0  0.5381164E-04  0.1575490E+04  0.7818609E-02  0.8835748E-01
       -2   -1    0    0    0  501  0.00000000000E+00  0.00000000000E+00  0.68002353500E+03  0.68002353501E+03  0.25500000920E-02 0. -1.
        2   -1    0    0  501    0  0.00000000000E+00  0.00000000000E+00 -0.91253101374E+03  0.91253101374E+03  0.25500000920E-02 0.  1.
    10030    2    1    2    0    0  0.00000000000E+00  0.00000000000E+00 -0.23250747873E+03  0.15925545487E+04  0.15754904833E+04 0.  0.
        5    1    3    3  502    0 -0.17257949218E+03 -0.73812593118E+03  0.10032585538E+03  0.76465739953E+03  0.46999998093E+01 0. -1.
       -5    1    3    3    0  502  0.17257949218E+03  0.73812593118E+03 -0.33283333411E+03  0.82789714922E+03  0.46999998093E+01 0.  1.
</event>
<event>
 5   0  0.5315984E-04  0.1614344E+04  0.7818609E-02  0.8811784E-01
        2   -1    0    0  501    0  0.00000000000E+00  0.00000000000E+00  0.18639847805E+04  0.18639847805E+04  0.25500000920E-02 0.  1.
       -2   -1    0    0    0  501  0.00000000000E+00  0.00000000000E+00 -0.34953420634E+03  0.34953420635E+03  0.25500000920E-02 0. -1.
    10030    2    1    2    0    0  0.00000000000E+00  0.00000000000E+00  0.15144505741E+04  0.22135189868E+04  0.16143437563E+04 0.  0.
        2    1    3    3  502    0  0.37473042902E+03 -0.11352730088E+03  0.17250477005E+04  0.17689264856E+04  0.25500000920E-02 0.  1.
       -2    1    3    3    0  502 -0.37473042902E+03  0.11352730088E+03 -0.21059712638E+03  0.44459250120E+03  0.25500000920E-02 0. -1.
</event>
<event>
 5   0  0.2649086E-04  0.1603808E+04  0.7818609E-02  0.8818212E-01
       -1   -1    0    0    0  501  0.00000000000E+00  0.00000000000E+00  0.47585482918E+03  0.47585482921E+03  0.50400001928E-02 0. -1.
        1   -1    0    0  501    0  0.00000000000E+00  0.00000000000E+00 -0.13513578997E+04  0.13513578997E+04  0.50400001928E-02 0.  1.
    10030    2    1    2    0    0  0.00000000000E+00  0.00000000000E+00 -0.87550307052E+03  0.18272127289E+04  0.16038081962E+04 0.  0.
        2    1    3    3  502    0  0.68427470957E+03  0.24057780345E+03 -0.82735193025E+03  0.11002821339E+04  0.25500000920E-02 0.  1.
       -2    1    3    3    0  502 -0.68427470957E+03 -0.24057780345E+03 -0.48151140266E+02  0.72693059503E+03  0.25500000920E-02 0. -1.
</event>
<event>
 5   0  0.2689675E-04  0.1616708E+04  0.7818609E-02  0.8810349E-01
        1   -1    0    0  501    0  0.00000000000E+00  0.00000000000E+00  0.18594050104E+04  0.18594050104E+04  0.50400001928E-02 0. -1.
       -1   -1    0    0    0  501  0.00000000000E+00  0.00000000000E+00 -0.35142200846E+03  0.35142200849E+03  0.50400001928E-02 0.  1.
    10030    2    1    2    0    0  0.00000000000E+00  0.00000000000E+00  0.15079830019E+04  0.22108270189E+04  0.16167075720E+04 0.  0.
        1    1    3    3  502    0 -0.70019153858E+02  0.31388302271E+03 -0.26017398042E+03  0.41366137596E+03  0.50400001928E-02 0.  1.
       -1    1    3    3    0  502  0.70019153858E+02 -0.31388302271E+03  0.17681569823E+04  0.17971656429E+04  0.50400001928E-02 0. -1.
</event>
<event>
 5   0  0.5381164E-04  0.1591488E+04  0.7818609E-02  0.8825795E-01
        2   -1    0    0  501    0  0.00000000000E+00  0.00000000000E+00  0.25084289315E+04  0.25084289315E+04  0.25500000920E-02 0. -1.
       -2   -1    0    0    0  501  0.00000000000E+00  0.00000000000E+00 -0.25243216502E+03  0.25243216503E+03  0.25500000920E-02 0.  1.
    10030    2    1    2    0    0  0.00000000000E+00  0.00000000000E+00  0.22559967664E+04  0.27608610965E+04  0.15914875381E+04 0.  0.
        5    1    3    3  502    0  0.22766049605E+03 -0.21255276798E+03 -0.14227102909E+03  0.34244870616E+03  0.46999998093E+01 0.  1.
       -5    1    3    3    0  502 -0.22766049605E+03  0.21255276798E+03  0.23982677955E+04  0.24184123903E+04  0.46999998093E+01 0. -1.
</event>
<event>
 5   0  0.5131239E-04  0.1725178E+04  0.7818609E-02  0.8747133E-01
        2   -1    0    0  501    0  0.00000000000E+00  0.00000000000E+00  0.15974544815E+04  0.15974544815E+04  0.25500000920E-02 0.  1.
       -2   -1    0    0    0  501  0.00000000000E+00  0.00000000000E+00 -0.46577830082E+03  0.46577830083E+03  0.25500000920E-02 0. -1.
    10030    2    1    2    0    0  0.00000000000E+00  0.00000000000E+00  0.11316761807E+04  0.20632327824E+04  0.17251778274E+04 0.  0.
        1    1    3    3  502    0  0.14450203533E+03  0.42848190161E+03 -0.31266463078E+03  0.54976062935E+03  0.50400001928E-02 0. -1.
       -1    1    3    3    0  502 -0.14450203533E+03 -0.42848190161E+03  0.14443408115E+04  0.15134721530E+04  0.50400001928E-02 0.  1.
</event>
<event>
 5   0  0.2730707E-04  0.1572551E+04  0.7818609E-02  0.8837591E-01
        1   -1    0    0  501    0  0.00000000000E+00  0.00000000000E+00  0.10307410417E+04  0.10307410417E+04  0.50400001928E-02 0.  1.
       -1   -1    0    0    0  501  0.00000000000E+00  0.00000000000E+00 -0.59979064223E+03  0.59979064225E+03  0.50400001928E-02 0. -1.
    10030    2    1    2    0    0  0.00000000000E+00  0.00000000000E+00  0.43095039948E+03  0.16305316840E+04  0.15725505797E+04 0.  0.
        5    1    3    3  502    0  0.11440490092E+03  0.62833207959E+03 -0.26003722383E+03  0.68958765314E+03  0.46999998093E+01 0. -1.
       -5    1    3    3    0  502 -0.11440490092E+03 -0.62833207959E+03  0.69098762331E+03  0.94094403083E+03  0.46999998093E+01 0.  1.
</event>
<event>
 5   0  0.2796994E-04  0.1584677E+04  0.7818609E-02  0.8830017E-01
       -1   -1    0    0    0  501  0.00000000000E+00  0.00000000000E+00  0.58150445312E+03  0.58150445314E+03  0.50400001928E-02 0. -1.
        1   -1    0    0  501    0  0.00000000000E+00  0.00000000000E+00 -0.10796142951E+04  0.10796142951E+04  0.50400001928E-02 0.  1.
    10030    2    1    2    0    0  0.00000000000E+00  0.00000000000E+00 -0.49810984198E+03  0.16611187483E+04  0.15846772798E+04 0.  0.
        3    1    3    3  502    0  0.71470510102E+03  0.33415357278E+03 -0.17246524664E+03  0.80759288204E+03  0.10100000352E+00 0. -1.
       -3    1    3    3    0  502 -0.71470510102E+03 -0.33415357278E+03 -0.32564459534E+03  0.85352586621E+03  0.10100000352E+00 0.  1.
</event>
<event>
 5   0  0.5381164E-04  0.1419844E+04  0.7818609E-02  0.8939579E-01
        2   -1    0    0  501    0  0.00000000000E+00  0.00000000000E+00  0.71117067578E+03  0.71117067579E+03  0.25500000920E-02 0. -1.
       -2   -1    0    0    0  501  0.00000000000E+00  0.00000000000E+00 -0.70867504797E+03  0.70867504797E+03  0.25500000920E-02 0.  1.
    10030    2    1    2    0    0  0.00000000000E+00  0.00000000000E+00  0.24956278150E+01  0.14198457238E+04  0.14198435305E+04 0.  0.
        5    1    3    3  502    0 -0.20806570315E+03 -0.38221907829E+02  0.67890258621E+03  0.71111395896E+03  0.46999998093E+01 0. -1.
       -5    1    3    3    0  502  0.20806570315E+03  0.38221907829E+02 -0.67640695840E+03  0.70873176480E+03  0.46999998093E+01 0.  1.
</event>
<event>
 5   0  0.2796994E-04  0.1628695E+04  0.7818609E-02  0.8803111E-01
        1   -1    0    0  501    0  0.00000000000E+00  0.00000000000E+00  0.10666677063E+04  0.10666677063E+04  0.50400001928E-02 0.  1.
       -1   -1    0    0    0  501  0.00000000000E+00  0.00000000000E+00 -0.62171379457E+03  0.62171379459E+03  0.50400001928E-02 0. -1.
    10030    2    1    2    0    0  0.00000000000E+00  0.00000000000E+00  0.44495391172E+03  0.16883815009E+04  0.16286952167E+04 0.  0.
        3    1    3    3  502    0 -0.33587227056E+03 -0.27782954362E+03  0.93555318562E+03  0.10321139524E+04  0.10100000352E+00 0.  1.
       -3    1    3    3    0  502  0.33587227056E+03  0.27782954362E+03 -0.49059927390E+03  0.65626754848E+03  0.10100000352E+00 0. -1.
</event>
<event>
 5   0  0.5381164E-04  0.1667704E+04  0.7818609E-02  0.8780002E-01
        2   -1    0    0  501    0  0.00000000000E+00  0.00000000000E+00  0.70911891538E+03  0.70911891538E+03  0.25500000920E-02 0.  1.
       -2   -1    0    0    0  501  0.00000000000E+00  0.00000000000E+00 -0.98052494341E+03  0.98052494341E+03  0.25500000920E-02 0. -1.
    10030    2    1    2    0    0  0.00000000000E+00  0.00000000000E+00 -0.27140602803E+03  0.16896438588E+04  0.16677035520E+04 0.  0.
        5    1    3    3  502    0  0.66383573283E+03  0.34374518411E+03 -0.50995146130E+03  0.90493713299E+03  0.46999998093E+01 0. -1.
       -5    1    3    3    0  502 -0.66383573283E+03 -0.34374518411E+03  0.23854543327E+03  0.78470672580E+03  0.46999998093E+01 0.  1.
</event>
<event>
 5   0  0.2649086E-04  0.1605574E+04  0.7818609E-02  0.8817131E-01
        1   -1    0    0  501    0  0.00000000000E+00  0.00000000000E+00  0.73019469186E+03  0.73019469187E+03  0.50400001928E-02 0. -1.
       -1   -1    0    0    0  501  0.00000000000E+00  0.00000000000E+00 -0.88259629613E+03  0.88259629615E+03  0.50400001928E-02 0.  1.
    10030    2    1    2    0    0  0.00000000000E+00  0.00000000000E+00 -0.15240160427E+03  0.16127909880E+04  0.16055742032E+04 0.  0.
        2    1    3    3  502    0 -0.32923921722E+03  0.67995166178E+03 -0.34896213201E+03  0.83217023145E+03  0.25500000920E-02 0.  1.
       -2    1    3    3    0  502  0.32923921722E+03 -0.67995166178E+03  0.19656052774E+03  0.78062075657E+03  0.25500000920E-02 0. -1.
</event>
<event>
 5   0  0.5131239E-04  0.1609360E+04  0.7818609E-02  0.8814818E-01
       -2   -1    0    0    0  501  0.00000000000E+00  0.00000000000E+00  0.37778043094E+03  0.37778043095E+03  0.25500000920E-02 0. -1.
        2   -1    0    0  501    0  0.00000000000E+00  0.00000000000E+00 -0.17139852366E+04  0.17139852366E+04  0.25500000920E-02 0.  1.
    10030    2    1    2    0    0  0.00000000000E+00  0.00000000000E+00 -0.13362048057E+04  0.20917656675E+04  0.16093602223E+04 0.  0.
        1    1    3    3  502    0 -0.23654809360E+03  0.70885114711E+03 -0.10560404555E+04  0.12936948609E+04  0.50400001928E-02 0.  1.
       -1    1    3    3    0  502  0.23654809360E+03 -0.70885114711E+03 -0.28016435016E+03  0.79807080668E+03  0.50400001928E-02 0. -1.
</event>
<event>
 5   0  0.2649086E-04  0.1604409E+04  0.7818609E-02  0.8817844E-01
       -1   -1    0    0    0  501  0.00000000000E+00  0.00000000000E+00  0.36968062072E+03  0.36968062075E+03  0.50400001928E-02 0.  1.
        1   -1    0    0  501    0  0.00000000000E+00  0.00000000000E+00 -0.17407781524E+04  0.17407781524E+04  0.50400001928E-02 0. -1.
    10030    2    1    2    0    0  0.00000000000E+00  0.00000000000E+00 -0.13710975317E+04  0.21104587732E+04  0.16044088606E+04 0.  0.
        2    1    3    3  502    0 -0.70244700149E+03 -0.52244657539E+02 -0.18057673277E+03  0.72716521546E+03  0.25500000920E-02 0.  1.
       -2    1    3    3    0  502  0.70244700149E+03  0.52244657539E+02 -0.11905207989E+04  0.13832935577E+04  0.25500000920E-02 0. -1.
</event>
<event>
 5   0  0.5083831E-04  0.1586087E+04  0.7818609E-02  0.8829141E-01
        2   -1    0    0  501    0  0.00000000000E+00  0.00000000000E+00  0.77347113981E+03  0.77347113981E+03  0.25500000920E-02 0. -1.
       -2   -1    0    0    0  501  0.00000000000E+00  0.00000000000E+00 -0.81311135258E+03  0.81311135258E+03  0.25500000920E-02 0.  1.
    10030    2    1    2    0    0  0.00000000000E+00  0.00000000000E+00 -0.39640212773E+02  0.15865824924E+04  0.15860872166E+04 0.  0.
        4    1    3    3  502    0  0.39126700597E+03  0.57628554809E+03 -0.39904486916E+03  0.80276604524E+03  0.12699999809E+01 0.  1.
       -4    1    3    3    0  502 -0.39126700597E+03 -0.57628554809E+03  0.35940465639E+03  0.78381644715E+03  0.12699999809E+01 0. -1.
</event>
<event>
 5   0  0.2763895E-04  0.1601453E+04  0.7818609E-02  0.8819656E-01
        1   -1    0    0  501    0  0.00000000000E+00  0.00000000000E+00  0.13885462395E+04  0.13885462395E+04  0.50400001928E-02 0.  1.
       -1   -1    0    0    0  501  0.00000000000E+00  0.00000000000E+00 -0.46175148073E+03  0.46175148075E+03  0.50400001928E-02 0. -1.
    10030    2    1    2    0    0  0.00000000000E+00  0.00000000000E+00  0.92679475875E+03  0.18502977202E+04  0.16014534426E+04 0.  0.
        4    1    3    3  502    0 -0.25760436561E+02  0.30936227163E+03 -0.38939454141E+03  0.49799431421E+03  0.12699999809E+01 0. -1.
       -4    1    3    3    0  502  0.25760436561E+02 -0.30936227163E+03  0.13161893002E+04  0.13523034060E+04  0.12699999809E+01 0.  1.
</event>
<event>
 5   0  0.2649086E-04  0.1608409E+04  0.7818609E-02  0.8815399E-01
        1   -1    0    0  501    0  0.00000000000E+00  0.00000000000E+00  0.61532169936E+03  0.61532169939E+03  0.50400001928E-02 0. -1.
       -1   -1    0    0    0  501  0.00000000000E+00  0.00000000000E+00 -0.10510675869E+04  0.10510675869E+04  0.50400001928E-02 0.  1.
    10030    2    1    2    0    0  0.00000000000E+00  0.00000000000E+00 -0.43574588750E+03  0.16663892863E+04  0.16084087711E+04 0.  0.
        2    1    3    3  502    0  0.52583529342E+03  0.56841961197E+03  0.70738503769E+01  0.77437306929E+03  0.25500000920E-02 0. -1.
       -2    1    3    3    0  502 -0.52583529342E+03 -0.56841961197E+03 -0.44281973788E+03  0.89201621697E+03  0.25500000920E-02 0.  1.
</event>
<event>
 5   0  0.2730707E-04  0.1611018E+04  0.7818609E-02  0.8813808E-01
       -1   -1    0    0    0  501  0.00000000000E+00  0.00000000000E+00  0.29388058161E+03  0.29388058165E+03  0.50400001928E-02 0. -1.
        1   -1    0    0  501    0  0.00000000000E+00  0.00000000000E+00 -0.22078508999E+04  0.22078508999E+04  0.50400001928E-02 0.  1.
    10030    2    1    2    0    0  0.00000000000E+00  0.00000000000E+00 -0.19139703183E+04  0.25017314815E+04  0.16110176990E+04 0.  0.
        5    1    3    3  502    0 -0.38003306474E+03  0.30918441398E+03  0.35895472842E+02  0.49125421842E+03  0.46999998093E+01 0. -1.
       -5    1    3    3    0  502  0.38003306474E+03 -0.30918441398E+03 -0.19498657911E+04  0.20104772631E+04  0.46999998093E+01 0.  1.
</event>
<event>
 5   0  0.2649086E-04  0.1597443E+04  0.7818609E-02  0.8822120E-01
        1   -1    0    0  501    0  0.00000000000E+00  0.00000000000E+00  0.15767763720E+04  0.15767763720E+04  0.50400001928E-02 0.  1.
       -1   -1    0    0    0  501  0.00000000000E+00  0.00000000000E+00 -0.40459526251E+03  0.40459526254E+03  0.50400001928E-02 0. -1.
    10030    2    1    2    0    0  0.00000000000E+00  0.00000000000E+00  0.11721811095E+04  0.19813716346E+04  0.15974432700E+04 0.  0.
        2    1    3    3  502    0  0.51822776034E+03  0.48953061381E+02  0.13374944336E+04  0.14352169779E+04  0.25500000920E-02 0.  1.
       -2    1    3    3    0  502 -0.51822776034E+03 -0.48953061381E+02 -0.16531332411E+03  0.54615465661E+03  0.25500000920E-02 0. -1.
</event>
<event>
 5   0  0.2796994E-04  0.1572192E+04  0.7818609E-02  0.8837816E-01
        1   -1    0    0  501    0  0.00000000000E+00  0.00000000000E+00  0.15751337847E+04  0.15751337848E+04  0.50400001928E-02 0.  1.
       -1   -1    0    0    0  501  0.00000000000E+00  0.00000000000E+00 -0.39231377498E+03  0.39231377501E+03  0.50400001928E-02 0. -1.
    10030    2    1    2    0    0  0.00000000000E+00  0.00000000000E+00  0.11828200098E+04  0.19674475598E+04  0.15721916947E+04 0.  0.
        3    1    3    3  502    0  0.58401034352E+03  0.29472927623E+03  0.11369035343E+04  0.13116718660E+04  0.10100000352E+00 0.  1.
       -3    1    3    3    0  502 -0.58401034352E+03 -0.29472927623E+03  0.45916475483E+02  0.65577569376E+03  0.10100000352E+00 0. -1.
</event>
<event>
 5   0  0.2730707E-04  0.1603202E+04  0.7818609E-02  0.8818584E-01
        1   -1    0    0  501    0  0.00000000000E+00  0.00000000000E+00  0.10527888444E+04  0.10527888444E+04  0.50400001928E-02 0.  1.
       -1   -1    0    0    0  501  0.00000000000E+00  0.00000000000E+00 -0.61034448376E+03  0.61034448378E+03  0.50400001928E-02 0. -1.
    10030    2    1    2    0    0  0.00000000000E+00  0.00000000000E+00  0.44244436064E+03  0.16631333282E+04  0.16032016264E+04 0.  0.
        5    1    3    3  502    0 -0.61949164106E+03 -0.94299645373E+02 -0.29734401100E+03  0.69361218800E+03  0.46999998093E+01 0. -1.
       -5    1    3    3    0  502  0.61949164106E+03  0.94299645373E+02  0.73978837163E+03  0.96952114018E+03  0.46999998093E+01 0.  1.
</event>
<event>
 5   0  0.2730707E-04  0.1596283E+04  0.7818609E-02  0.8822835E-01
       -1   -1    0    0    0  501  0.00000000000E+00  0.00000000000E+00  0.70807415554E+03  0.70807415556E+03  0.50400001928E-02 0.  1.
        1   -1    0    0  501    0  0.00000000000E+00  0.00000000000E+00 -0.89966578403E+03  0.89966578404E+03  0.50400001928E-02 0. -1.
    10030    2    1    2    0    0  0.00000000000E+00  0.00000000000E+00 -0.19159162849E+03  0.16077399396E+04  0.15962832961E+04 0.  0.
        5    1    3    3  502    0  0.11137869465E+03  0.34328570344E+03 -0.81277412015E+03  0.88931105255E+03  0.46999998093E+01 0. -1.
       -5    1    3    3    0  502 -0.11137869465E+03 -0.34328570344E+03  0.62118249166E+03  0.71842888705E+03  0.46999998093E+01 0.  1.
</event>
<event>
 5   0  0.2730707E-04  0.1379685E+04  0.7818609E-02  0.8968656E-01
       -1   -1    0    0    0  501  0.00000000000E+00  0.00000000000E+00  0.65261327879E+03  0.65261327881E+03  0.50400001928E-02 0.  1.
        1   -1    0    0  501    0  0.00000000000E+00  0.00000000000E+00 -0.72919557805E+03  0.72919557807E+03  0.50400001928E-02 0. -1.
    10030    2    1    2    0    0  0.00000000000E+00  0.00000000000E+00 -0.76582299259E+02  0.13818088569E+04  0.13796850613E+04 0.  0.
        5    1    3    3  502    0 -0.56870008457E+02 -0.66049071380E+03 -0.22931609447E+03  0.70149136991E+03  0.46999998093E+01 0. -1.
       -5    1    3    3    0  502  0.56870008457E+02  0.66049071380E+03  0.15273379521E+03  0.68031748697E+03  0.46999998093E+01 0.  1.
</event>
<event>
 5   0  0.5083831E-04  0.1518934E+04  0.7818609E-02  0.8871959E-01
        2   -1    0    0  501    0  0.00000000000E+00  0.00000000000E+00  0.98980330395E+03  0.98980330396E+03  0.25500000920E-02 0. -1.
       -2   -1    0    0    0  501  0.00000000000E+00  0.00000000000E+00 -0.58273174838E+03  0.58273174839E+03  0.25500000920E-02 0.  1.
    10030    2    1    2    0    0  0.00000000000E+00  0.00000000000E+00  0.40707155557E+03  0.15725350523E+04  0.15189335863E+04 0.  0.
        4    1    3    3  502    0 -0.46628539910E+03 -0.53428376812E+03  0.48498773555E+03  0.85912509847E+03  0.12699999809E+01 0. -1.
       -4    1    3    3    0  502  0.46628539910E+03  0.53428376812E+03 -0.77916179985E+02  0.71340995388E+03  0.12699999809E+01 0.  1.
</event>
<event>
 5   0  0.2763895E-04  0.1601033E+04  0.7818609E-02  0.8819913E-01
       -1   -1    0    0    0  501  0.00000000000E+00  0.00000000000E+00  0.44406536581E+03  0.44406536584E+03  0.50400001928E-02 0.  1.
        1   -1    0    0  501    0  0.00000000000E+00  0.00000000000E+00 -0.14430914262E+04  0.14430914262E+04  0.50400001928E-02 0. -1.
    10030    2    1    2    0    0  0.00000000000E+00  0.00000000000E+00 -0.99902606038E+03  0.18871567920E+04  0.16010333190E+04 0.  0.
        4    1    3    3  502    0 -0.15522408837E+03 -0.68939770336E+02 -0.14216077916E+04  0.14317183856E+04  0.12699999809E+01 0. -1.
       -4    1    3    3    0  502  0.15522408837E+03  0.68939770336E+02  0.42258173127E+03  0.45543840642E+03  0.12699999809E+01 0.  1.
</event>
<event>
 5   0  0.5264308E-04  0.1587155E+04  0.7818609E-02  0.8828479E-01
        2   -1    0    0  501    0  0.00000000000E+00  0.00000000000E+00  0.53624854418E+03  0.53624854419E+03  0.25500000920E-02 0. -1.
       -2   -1    0    0    0  501  0.00000000000E+00  0.00000000000E+00 -0.11743898605E+04  0.11743898605E+04  0.25500000920E-02 0.  1.
    10030    2    1    2    0    0  0.00000000000E+00  0.00000000000E+00 -0.63814131630E+03  0.17106384047E+04  0.15871545016E+04 0.  0.
        3    1    3    3  502    0  0.16652763031E+03  0.57229847594E+03  0.24562752879E+03  0.64466261744E+03  0.10100000352E+00 0. -1.
       -3    1    3    3    0  502 -0.16652763031E+03 -0.57229847594E+03 -0.88376884509E+03  0.10659757872E+04  0.10100000352E+00 0.  1.
</event>
<event>
 5   0  0.5131239E-04  0.1591531E+04  0.7818609E-02  0.8825768E-01
       -2   -1    0    0    0  501  0.00000000000E+00  0.00000000000E+00  0.63068304846E+03  0.63068304846E+03  0.25500000920E-02 0. -1.
        2   -1    0    0  501    0  0.00000000000E+00  0.00000000000E+00 -0.10040588115E+04  0.10040588115E+04  0.25500000920E-02 0.  1.
    10030    2    1    2    0    0  0.00000000000E+00  0.00000000000E+00 -0.37337576308E+03  0.16347418600E+04  0.15915311773E+04 0.  0.
        1    1    3    3  502    0  0.48140155418E+03  0.40319463974E+03 -0.68876325313E+03  0.93204516669E+03  0.50400001928E-02 0.  1.
       -1    1    3    3    0  502 -0.48140155418E+03 -0.40319463974E+03  0.31538749005E+03  0.70269669330E+03  0.50400001928E-02 0. -1.
</event>
<event>
 5   0  0.2763895E-04  0.1584683E+04  0.7818609E-02  0.8830013E-01
        1   -1    0    0  501    0  0.00000000000E+00  0.00000000000E+00  0.11419434293E+04  0.11419434293E+04  0.50400001928E-02 0.  1.
       -1   -1    0    0    0  501  0.00000000000E+00  0.00000000000E+00 -0.54976902084E+03  0.54976902086E+03  0.50400001928E-02 0. -1.
    10030    2    1    2    0    0  0.00000000000E+00  0.00000000000E+00  0.59217440842E+03  0.16917124501E+04  0.15846830863E+04 0.  0.
        4    1    3    3  502    0 -0.40225728013E+03  0.67778643223E+03  0.38280234173E+03  0.87621037022E+03  0.12699999809E+01 0.  1.
       -4    1    3    3    0  502  0.40225728013E+03 -0.67778643223E+03  0.20937206669E+03  0.81550207992E+03  0.12699999809E+01 0. -1.
</event>
<event>
 5   0  0.5131239E-04  0.1649041E+04  0.7818609E-02  0.8790974E-01
        2   -1    0    0  501    0  0.00000000000E+00  0.00000000000E+00  0.23476673568E+04  0.23476673568E+04  0.25500000920E-02 0. -1.
       -2   -1    0    0    0  501  0.00000000000E+00  0.00000000000E+00 -0.28957865467E+03  0.28957865468E+03  0.25500000920E-02 0.  1.
    10030    2    1    2    0    0  0.00000000000E+00  0.00000000000E+00  0.20580887021E+04  0.26372460115E+04  0.16490413637E+04 0.  0.
        1    1    3    3  502    0 -0.39875156222E+03 -0.22236610324E+03  0.21270559069E+04  0.21755036942E+04  0.50400001928E-02 0. -1.
       -1    1    3    3    0  502  0.39875156222E+03  0.22236610324E+03 -0.68967204763E+02  0.46174231732E+03  0.50400001928E-02 0.  1.
</event>
<event>
 5   0  0.5264308E-04  0.1594208E+04  0.7818609E-02  0.8824114E-01
        2   -1    0    0  501    0  0.00000000000E+00  0.00000000000E+00  0.51072804031E+03  0.51072804031E+03  0.25500000920E-02 0.  1.
       -2   -1    0    0    0  501  0.00000000000E+00  0.00000000000E+00 -0.12440567587E+04  0.12440567587E+04  0.25500000920E-02 0. -1.
    10030    2    1    2    0    0  0.00000000000E+00  0.00000000000E+00 -0.73332871838E+03  0.17547847990E+04  0.15942078540E+04 0.  0.
        3    1    3    3  502    0  0.68244271381E+02  0.56263295535E+03 -0.98362211179E+03  0.11352205037E+04  0.10100000352E+00 0. -1.
       -3    1    3    3    0  502 -0.68244271381E+02 -0.56263295535E+03  0.25029339341E+03  0.61956429530E+03  0.10100000352E+00 0.  1.
</event>
<event>
 5   0  0.2649086E-04  0.1603661E+04  0.7818609E-02  0.8818302E-01
        1   -1    0    0  501    0  0.00000000000E+00  0.00000000000E+00  0.12105532492E+04  0.12105532492E+04  0.50400001928E-02 0. -1.
       -1   -1    0    0    0  501  0.00000000000E+00  0.00000000000E+00 -0.53110621333E+03  0.53110621335E+03  0.50400001928E-02 0.  1.
    10030    2    1    2    0    0  0.00000000000E+00  0.00000000000E+00  0.67944703584E+03  0.17416594625E+04  0.16036612513E+04 0.  0.
        2    1    3    3  502    0 -0.69309315946E+02  0.62904314247E+03  0.87446852826E+03  0.10794416442E+04  0.25500000920E-02 0. -1.
       -2    1    3    3    0  502  0.69309315946E+02 -0.62904314247E+03 -0.19502149242E+03  0.66221781830E+03  0.25500000920E-02 0.  1.
</event>
<event>
 5   0  0.5264308E-04  0.1604330E+04  0.7818609E-02  0.8817892E-01
        2   -1    0    0  501    0  0.00000000000E+00  0.00000000000E+00  0.15493249249E+04  0.15493249249E+04  0.25500000920E-02 0. -1.
       -2   -1    0    0    0  501  0.00000000000E+00  0.00000000000E+00 -0.41532193122E+03  0.41532193122E+03  0.25500000920E-02 0.  1.
    10030    2    1    2    0    0  0.00000000000E+00  0.00000000000E+00  0.11340029937E+04  0.19646468562E+04  0.16043299161E+04 0.  0.
        3    1    3    3  502    0  0.50044145612E+03  0.57081102852E+03  0.24954732604E+03  0.79908745417E+03  0.10100000352E+00 0.  1.
       -3    1    3    3    0  502 -0.50044145612E+03 -0.57081102852E+03  0.88445566769E+03  0.11655594020E+04  0.10100000352E+00 0. -1.
</event>
<event>
 5   0  0.2763895E-04  0.1635176E+04  0.7818609E-02  0.8799224E-01
       -1   -1    0    0    0  501  0.00000000000E+00  0.00000000000E+00  0.47313206544E+03  0.47313206547E+03  0.50400001928E-02 0.  1.
        1   -1    0    0  501    0  0.00000000000E+00  0.00000000000E+00 -0.14128201568E+04  0.14128201568E+04  0.50400001928E-02 0. -1.
    10030    2    1    2    0    0  0.00000000000E+00  0.00000000000E+00 -0.93968809138E+03  0.18859522223E+04  0.16351764662E+04 0.  0.
        4    1    3    3  502    0 -0.19837912767E+03  0.54358768724E+03 -0.11360118980E+04  0.12748986224E+04  0.12699999809E+01 0. -1.
       -4    1    3    3    0  502  0.19837912767E+03 -0.54358768724E+03  0.19632380664E+03  0.61105359991E+03  0.12699999809E+01 0.  1.
</event>
<event>
 5   0  0.2649086E-04  0.1714748E+04  0.7818609E-02  0.8752997E-01
        1   -1    0    0  501    0  0.00000000000E+00  0.00000000000E+00  0.21507594556E+04  0.21507594557E+04  0.50400001928E-02 0. -1.
       -1   -1    0    0    0  501  0.00000000000E+00  0.00000000000E+00 -0.34178182302E+03  0.34178182306E+03  0.50400001928E-02 0.  1.
    10030    2    1    2    0    0  0.00000000000E+00  0.00000000000E+00  0.18089776326E+04  0.24925412787E+04  0.17147483637E+04 0.  0.
        2    1    3    3  502    0  0.14177679246E+03 -0.39521827406E+03  0.19910825249E+04  0.20348729110E+04  0.25500000920E-02 0. -1.
       -2    1    3    3    0  502 -0.14177679246E+03  0.39521827406E+03 -0.18210489224E+03  0.45766836773E+03  0.25500000920E-02 0.  1.
</event>
<event>
 5   0  0.2689675E-04  0.1570761E+04  0.7818609E-02  0.8838715E-01
        1   -1    0    0  501    0  0.00000000000E+00  0.00000000000E+00  0.20495274926E+04  0.20495274926E+04  0.50400001928E-02 0. -1.
       -1   -1    0    0    0  501  0.00000000000E+00  0.00000000000E+00 -0.30095845529E+03  0.30095845533E+03  0.50400001928E-02 0.  1.
    10030    2    1    2    0    0  0.00000000000E+00  0.00000000000E+00  0.17485690373E+04  0.23504859480E+04  0.15707611255E+04 0.  0.
        1    1    3    3  502    0  0.26141923636E+03 -0.72887497090E+03  0.10706716881E+04  0.13213389436E+04  0.50400001928E-02 0.  1.
       -1    1    3    3    0  502 -0.26141923636E+03  0.72887497090E+03  0.67789734930E+03  0.10291470043E+04  0.50400001928E-02 0. -1.
</event>
<event>
 5   0  0.5131239E-04  0.1600276E+04  0.7818609E-02  0.8820379E-01
        2   -1    0    0  501    0  0.00000000000E+00  0.00000000000E+00  0.19266110706E+04  0.19266110706E+04  0.25500000920E-02 0.  1.
       -2   -1    0    0    0  501  0.00000000000E+00  0.00000000000E+00 -0.33230405769E+03  0.33230405770E+03  0.25500000920E-02 0. -1.
    10030    2    1    2    0    0  0.00000000000E+00  0.00000000000E+00  0.15943070129E+04  0.22589151283E+04  0.16002758217E+04 0.  0.
        1    1    3    3  502    0  0.36279189717E+03 -0.19791880502E+03 -0.16998993178E+03  0.44686283239E+03  0.50400001928E-02 0. -1.
       -1    1    3    3    0  502 -0.36279189717E+03  0.19791880502E+03  0.17642969447E+04  0.18120522959E+04  0.50400001928E-02 0.  1.
</event>
<event>
 5   0  0.2689675E-04  0.1599444E+04  0.7818609E-02  0.8820890E-01
       -1   -1    0    0    0  501  0.00000000000E+00  0.00000000000E+00  0.17869437648E+04  0.17869437648E+04  0.50400001928E-02 0.  1.
        1   -1    0    0  501    0  0.00000000000E+00  0.00000000000E+00 -0.35790462892E+03  0.35790462895E+03  0.50400001928E-02 0. -1.
    10030    2    1    2    0    0  0.00000000000E+00  0.00000000000E+00  0.14290391359E+04  0.21448483937E+04  0.15994442098E+04 0.  0.
        1    1    3    3  502    0  0.60007222802E+03 -0.36937229576E+03  0.20735905141E+03  0.73452048844E+03  0.50400001928E-02 0. -1.
       -1    1    3    3    0  502 -0.60007222802E+03  0.36937229576E+03  0.12216800844E+04  0.14103279053E+04  0.50400001928E-02 0.  1.
</event>
<event>
 5   0  0.2763895E-04  0.1817939E+04  0.7818609E-02  0.8696817E-01
       -1   -1    0    0    0  501  0.00000000000E+00  0.00000000000E+00  0.58132599315E+03  0.58132599317E+03  0.50400001928E-02 0.  1.
        1   -1    0    0  501    0  0.00000000000E+00  0.00000000000E+00 -0.14212781651E+04  0.14212781651E+04  0.50400001928E-02 0. -1.
    10030    2    1    2    0    0  0.00000000000E+00  0.00000000000E+00 -0.83995217196E+03  0.20026041583E+04  0.18179394279E+04 0.  0.
        4    1    3    3  502    0 -0.17705039519E+03  0.39533144988E+02 -0.14011329189E+04  0.14128286454E+04  0.12699999809E+01 0. -1.
       -4    1    3    3    0  502  0.17705039519E+03 -0.39533144988E+02  0.56118074692E+03  0.58977551289E+03  0.12699999809E+01 0.  1.
</event>
<event>
 5   0  0.5315984E-04  0.1597305E+04  0.7818609E-02  0.8822205E-01
       -2   -1    0    0    0  501  0.00000000000E+00  0.00000000000E+00  0.28569180270E+03  0.28569180271E+03  0.25500000920E-02 0. -1.
        2   -1    0    0  501    0  0.00000000000E+00  0.00000000000E+00 -0.22326361375E+04  0.22326361375E+04  0.25500000920E-02 0.  1.
    10030    2    1    2    0    0  0.00000000000E+00  0.00000000000E+00 -0.19469443348E+04  0.25183279402E+04  0.15973050340E+04 0.  0.
        2    1    3    3  502    0  0.29329054777E+03  0.18253718468E+03  0.16180420366E+03  0.38147053560E+03  0.25500000920E-02 0. -1.
       -2    1    3    3    0  502 -0.29329054777E+03 -0.18253718468E+03 -0.21087485385E+04  0.21368574046E+04  0.25500000920E-02 0.  1.
</event>
<event>
 5   0  0.5315984E-04  0.1645718E+04  0.7818609E-02  0.8792943E-01
       -2   -1    0    0    0  501  0.00000000000E+00  0.00000000000E+00  0.43080403042E+03  0.43080403043E+03  0.25500000920E-02 0. -1.
        2   -1    0    0  501    0  0.00000000000E+00  0.00000000000E+00 -0.15717060894E+04  0.15717060894E+04  0.25500000920E-02 0.  1.
    10030    2    1    2    0    0  0.00000000000E+00  0.00000000000E+00 -0.11409020590E+04  0.20025101198E+04  0.16457184668E+04 0.  0.
        2    1    3    3  502    0  0.54728546824E+03  0.58579545773E+03 -0.34470392590E+03  0.87263881336E+03  0.25500000920E-02 0.  1.
       -2    1    3    3    0  502 -0.54728546824E+03 -0.58579545773E+03 -0.79619813307E+03  0.11298713065E+04  0.25500000920E-02 0. -1.
</event>
<event>
 5   0  0.1908125E-04  0.1601364E+04  0.7818609E-02  0.8819710E-01
        4   -1    0    0  501    0  0.00000000000E+00  0.00000000000E+00  0.12342849712E+04  0.12342856246E+04  0.12699999809E+01 0. -1.
       -4   -1    0    0    0  501  0.00000000000E+00  0.00000000000E+00 -0.51940181583E+03  0.51940336848E+03  0.12699999809E+01 0.  1.
    10030    2    1    2    0    0  0.00000000000E+00  0.00000000000E+00  0.71488315541E+03  0.17536889931E+04  0.16013641555E+04 0.  0.
        1    1    3    3  502    0 -0.76258489727E+03 -0.21581848181E+03  0.23268201698E+03  0.82598684232E+03  0.50400001928E-02 0. -1.
       -1    1    3    3    0  502  0.76258489727E+03  0.21581848181E+03  0.48220113843E+03  0.92770215078E+03  0.50400001928E-02 0.  1.
</event>
<event>
 5   0  0.5131239E-04  0.1582903E+04  0.7818609E-02  0.8831121E-01
        2   -1    0    0  501    0  0.00000000000E+00  0.00000000000E+00  0.12586899593E+04  0.12586899593E+04  0.25500000920E-02 0.  1.
       -2   -1    0    0    0  501  0.00000000000E+00  0.00000000000E+00 -0.49765653034E+03  0.49765653035E+03  0.25500000920E-02 0. -1.
    10030    2    1    2    0    0  0.00000000000E+00  0.00000000000E+00  0.76103342892E+03  0.17563464896E+04  0.15829027486E+04 0.  0.
        1    1    3    3  502    0 -0.13332183088E+03 -0.58847254590E+03 -0.18777612924E+03  0.63192920695E+03  0.50400001928E-02 0. -1.
       -1    1    3    3    0  502  0.13332183088E+03  0.58847254590E+03  0.94880955816E+03  0.11244172827E+04  0.50400001928E-02 0.  1.
</event>
<event>
 5   0  0.2796994E-04  0.1595909E+04  0.7818609E-02  0.8823065E-01
       -1   -1    0    0    0  501  0.00000000000E+00  0.00000000000E+00  0.66296756053E+03  0.66296756055E+03  0.50400001928E-02 0. -1.
        1   -1    0    0  501    0  0.00000000000E+00  0.00000000000E+00 -0.96042668123E+03  0.96042668124E+03  0.50400001928E-02 0.  1.
    10030    2    1    2    0    0  0.00000000000E+00  0.00000000000E+00 -0.29745912070E+03  0.16233942418E+04  0.15959094385E+04 0.  0.
        3    1    3    3  502    0 -0.31670571635E+03  0.24765958361E+03  0.55241166784E+03  0.68322502961E+03  0.10100000352E+00 0. -1.
       -3    1    3    3    0  502  0.31670571635E+03 -0.24765958361E+03 -0.84987078854E+03  0.94016921218E+03  0.10100000352E+00 0.  1.
</event>
<event>
 5   0  0.5083831E-04  0.1618692E+04  0.7818609E-02  0.8809146E-01
       -2   -1    0    0    0  501  0.00000000000E+00  0.00000000000E+00  0.51535595400E+03  0.51535595400E+03  0.25500000920E-02 0. -1.
        2   -1    0    0  501    0  0.00000000000E+00  0.00000000000E+00 -0.12710461920E+04  0.12710461920E+04  0.25500000920E-02 0.  1.
    10030    2    1    2    0    0  0.00000000000E+00  0.00000000000E+00 -0.75569023804E+03  0.17864021460E+04  0.16186923400E+04 0.  0.
        4    1    3    3  502    0  0.35716398154E+03  0.37124856299E+03 -0.10667371305E+04  0.11846186406E+04  0.12699999809E+01 0.  1.
       -4    1    3    3    0  502 -0.35716398154E+03 -0.37124856299E+03  0.31104689243E+03  0.60178350544E+03  0.12699999809E+01 0. -1.
</event>
<event>
 5   0  0.5381164E-04  0.1605341E+04  0.7818609E-02  0.8817274E-01
       -2   -1    0    0    0  501  0.00000000000E+00  0.00000000000E+00  0.64276511123E+03  0.64276511124E+03  0.25500000920E-02 0. -1.
        2   -1    0    0  501    0  0.00000000000E+00  0.00000000000E+00 -0.10023566631E+04  0.10023566631E+04  0.25500000920E-02 0.  1.
    10030    2    1    2    0    0  0.00000000000E+00  0.00000000000E+00 -0.35959155188E+03  0.16451217744E+04  0.16053409508E+04 0.  0.
        5    1    3    3  502    0 -0.20925257719E+03  0.77073605622E+03 -0.97576121610E+02  0.80458927343E+03  0.46999998093E+01 0. -1.
       -5    1    3    3    0  502  0.20925257719E+03 -0.77073605622E+03 -0.26201543028E+03  0.84053250093E+03  0.46999998093E+01 0.  1.
</event>
<event>
 5   0  0.5264308E-04  0.1594632E+04  0.7818609E-02  0.8823853E-01
        2   -1    0    0  501    0  0.00000000000E+00  0.00000000000E+00  0.12262431731E+04  0.12262431731E+04  0.25500000920E-02 0.  1.
       -2   -1    0    0    0  501  0.00000000000E+00  0.00000000000E+00 -0.51842308105E+03  0.51842308106E+03  0.25500000920E-02 0. -1.
    10030    2    1    2    0    0  0.00000000000E+00  0.00000000000E+00  0.70782009200E+03  0.17446662541E+04  0.15946319499E+04 0.  0.
        3    1    3    3  502    0  0.42256292006E+03  0.42612712236E+03  0.92824743023E+03  0.11053447642E+04  0.10100000352E+00 0.  1.
       -3    1    3    3    0  502 -0.42256292006E+03 -0.42612712236E+03 -0.22042733823E+03  0.63932148991E+03  0.10100000352E+00 0. -1.
</event>
<event>
 5   0  0.2689675E-04  0.1589653E+04  0.7818609E-02  0.8826930E-01
       -1   -1    0    0    0  501  0.00000000000E+00  0.00000000000E+00  0.61829466674E+03  0.61829466676E+03  0.50400001928E-02 0. -1.
        1   -1    0    0  501    0  0.00000000000E+00  0.00000000000E+00 -0.10217608491E+04  0.10217608491E+04  0.50400001928E-02 0.  1.
    10030    2    1    2    0    0  0.00000000000E+00  0.00000000000E+00 -0.40346618235E+03  0.16400555159E+04  0.15896531492E+04 0.  0.
        1    1    3    3  502    0  0.73812573060E+03 -0.20347715801E+03  0.18377899526E+02  0.76587877319E+03  0.50400001928E-02 0. -1.
       -1    1    3    3    0  502 -0.73812573060E+03  0.20347715801E+03 -0.42184408187E+03  0.87417674268E+03  0.50400001928E-02 0.  1.
</event>
<event>
 5   0  0.2649086E-04  0.1601874E+04  0.7818609E-02  0.8819398E-01
        1   -1    0    0  501    0  0.00000000000E+00  0.00000000000E+00  0.20066298335E+04  0.20066298335E+04  0.50400001928E-02 0.  1.
       -1   -1    0    0    0  501  0.00000000000E+00  0.00000000000E+00 -0.31969012612E+03  0.31969012616E+03  0.50400001928E-02 0. -1.
    10030    2    1    2    0    0  0.00000000000E+00  0.00000000000E+00  0.16869397074E+04  0.23263199597E+04  0.16018735838E+04 0.  0.
        2    1    3    3  502    0 -0.32226725256E+03 -0.48744797258E+03  0.47989671109E+02  0.58631452019E+03  0.25500000920E-02 0. -1.
       -2    1    3    3    0  502  0.32226725256E+03  0.48744797258E+03  0.16389500363E+04  0.17400054395E+04  0.25500000920E-02 0.  1.
</event>
<event>
 5   0  0.2649086E-04  0.1606560E+04  0.7818609E-02  0.8816528E-01
       -1   -1    0    0    0  501  0.00000000000E+00  0.00000000000E+00  0.73235721476E+03  0.73235721478E+03  0.50400001928E-02 0. -1.
        1   -1    0    0  501    0  0.00000000000E+00  0.00000000000E+00 -0.88107097267E+03  0.88107097268E+03  0.50400001928E-02 0.  1.
    10030    2    1    2    0    0  0.00000000000E+00  0.00000000000E+00 -0.14871375791E+03  0.16134281875E+04  0.16065599069E+04 0.  0.
        2    1    3    3  502    0  0.62316134259E+03  0.24047369105E+03 -0.52247186428E+03  0.84801798563E+03  0.25500000920E-02 0.  1.
       -2    1    3    3    0  502 -0.62316134259E+03 -0.24047369105E+03  0.37375810637E+03  0.76541020184E+03  0.25500000920E-02 0. -1.
</event>
<event>
 5   0  0.5315984E-04  0.1588550E+04  0.7818609E-02  0.8827613E-01
       -2   -1    0    0    0  501  0.00000000000E+00  0.00000000000E+00  0.71055354216E+03  0.71055354216E+03  0.25500000920E-02 0. -1.
        2   -1    0    0  501    0  0.00000000000E+00  0.00000000000E+00 -0.88786144260E+03  0.88786144261E+03  0.25500000920E-02 0.  1.
    10030    2    1    2    0    0  0.00000000000E+00  0.00000000000E+00 -0.17730790045E+03  0.15984149848E+04  0.15885503996E+04 0.  0.
        2    1    3    3  502    0 -0.25987784820E+03  0.58905491763E+03  0.37936980651E+03  0.74729086844E+03  0.25500000920E-02 0. -1.
       -2    1    3    3    0  502  0.25987784820E+03 -0.58905491763E+03 -0.55667770695E+03  0.85112411632E+03  0.25500000920E-02 0.  1.
</event>
<event>
 5   0  0.5083831E-04  0.1602632E+04  0.7818609E-02  0.8818932E-01
        2   -1    0    0  501    0  0.00000000000E+00  0.00000000000E+00  0.10125674852E+04  0.10125674852E+04  0.25500000920E-02 0.  1.
       -2   -1    0    0    0  501  0.00000000000E+00  0.00000000000E+00 -0.63413816752E+03  0.63413816753E+03  0.25500000920E-02 0. -1.
    10030    2    1    2    0    0  0.00000000000E+00  0.00000000000E+00  0.37842931770E+03  0.16467056528E+04  0.16026324464E+04 0.  0.
        4    1    3    3  502    0  0.44498005300E+03 -0.42231573346E+03  0.71889914386E+03  0.94507958302E+03  0.12699999809E+01 0.  1.
       -4    1    3    3    0  502 -0.44498005300E+03  0.42231573346E+03 -0.34046982616E+03  0.70162606973E+03  0.12699999809E+01 0. -1.
</event>
<event>
 5   0  0.5381164E-04  0.1587065E+04  0.7818609E-02  0.8828534E-01
       -2   -1    0    0    0  501  0.00000000000E+00  0.00000000000E+00  0.43727929255E+03  0.43727929256E+03  0.25500000920E-02 0.  1.
        2   -1    0    0  501    0  0.00000000000E+00  0.00000000000E+00 -0.14400262596E+04  0.14400262596E+04  0.25500000920E-02 0. -1.
    10030    2    1    2    0    0  0.00000000000E+00  0.00000000000E+00 -0.10027469671E+04  0.18773055522E+04  0.15870647927E+04 0.  0.
        5    1    3    3  502    0 -0.12241915667E+03 -0.46848862252E+03  0.24224592663E+03  0.54145472416E+03  0.46999998093E+01 0.  1.
       -5    1    3    3    0  502  0.12241915667E+03  0.46848862252E+03 -0.12449928937E+04  0.13358508280E+04  0.46999998093E+01 0. -1.
</event>
<event>
 5   0  0.2689675E-04  0.1602466E+04  0.7818609E-02  0.8819035E-01
       -1   -1    0    0    0  501  0.00000000000E+00  0.00000000000E+00  0.93930823215E+03  0.93930823216E+03  0.50400001928E-02 0.  1.
        1   -1    0    0  501    0  0.00000000000E+00  0.00000000000E+00 -0.68345431774E+03  0.68345431776E+03  0.50400001928E-02 0. -1.
    10030    2    1    2    0    0  0.00000000000E+00  0.00000000000E+00  0.25585391441E+03  0.16227625499E+04  0.16024659335E+04 0.  0.
        1    1    3    3  502    0  0.37417696315E+03 -0.51350102734E+03  0.62225164574E+03  0.88931929895E+03  0.50400001928E-02 0.  1.
       -1    1    3    3    0  502 -0.37417696315E+03  0.51350102734E+03 -0.36639773133E+03  0.73344325096E+03  0.50400001928E-02 0. -1.
</event>
<event>
 5   0  0.2763895E-04  0.1603139E+04  0.7818609E-02  0.8818622E-01
       -1   -1    0    0    0  501  0.00000000000E+00  0.00000000000E+00  0.33450397547E+03  0.33450397551E+03  0.50400001928E-02 0. -1.
        1   -1    0    0  501    0  0.00000000000E+00  0.00000000000E+00 -0.19207951902E+04  0.19207951902E+04  0.50400001928E-02 0.  1.
    10030    2    1    2    0    0  0.00000000000E+00  0.00000000000E+00 -0.15862912147E+04  0.22552991657E+04  0.16031389549E+04 0.  0.
        4    1    3    3  502    0 -0.23089479640E+03  0.68213695531E+03 -0.12883095164E+04  0.14759289467E+04  0.12699999809E+01 0.  1.
       -4    1    3    3    0  502  0.23089479640E+03 -0.68213695531E+03 -0.29798169832E+03  0.77937021899E+03  0.12699999809E+01 0. -1.
</event>
<event>
 5   0  0.5315984E-04  0.1580679E+04  0.7818609E-02  0.8832507E-01
       -2   -1    0    0    0  501  0.00000000000E+00  0.00000000000E+00  0.44347060344E+03  0.44347060345E+03  0.25500000920E-02 0.  1.
        2   -1    0    0  501    0  0.00000000000E+00  0.00000000000E+00 -0.14085175794E+04  0.14085175794E+04  0.25500000920E-02 0. -1.
    10030    2    1    2    0    0  0.00000000000E+00  0.00000000000E+00 -0.96504697600E+03  0.18519881829E+04  0.15806785137E+04 0.  0.
        2    1    3    3  502    0  0.53768153601E+03  0.27355385206E+03 -0.10807527783E+04  0.12377236008E+04  0.25500000920E-02 0. -1.
       -2    1    3    3    0  502 -0.53768153601E+03 -0.27355385206E+03  0.11570580229E+03  0.61426458211E+03  0.25500000920E-02 0.  1.
</event>
<event>
 5   0  0.5131239E-04  0.1618026E+04  0.7818609E-02  0.8809550E-01
        2   -1    0    0  501    0  0.00000000000E+00  0.00000000000E+00  0.12371289660E+04  0.12371289661E+04  0.25500000920E-02 0. -1.
       -2   -1    0    0    0  501  0.00000000000E+00  0.00000000000E+00 -0.52904927589E+03  0.52904927590E+03  0.25500000920E-02 0.  1.
    10030    2    1    2    0    0  0.00000000000E+00  0.00000000000E+00  0.70807969016E+03  0.17661782419E+04  0.16180261848E+04 0.  0.
        1    1    3    3  502    0 -0.72601070709E+03  0.34597963353E+03  0.44987843224E+03  0.92151183250E+03  0.50400001928E-02 0. -1.
       -1    1    3    3    0  502  0.72601070709E+03 -0.34597963353E+03  0.25820125792E+03  0.84466640945E+03  0.50400001928E-02 0.  1.
</event>
<event>
 5   0  0.5131239E-04  0.1597999E+04  0.7818609E-02  0.8821778E-01
       -2   -1    0    0    0  501  0.00000000000E+00  0.00000000000E+00  0.10208673029E+04  0.10208673029E+04  0.25500000920E-02 0.  1.
        2   -1    0    0  501    0  0.00000000000E+00  0.00000000000E+00 -0.62535049322E+03  0.62535049323E+03  0.25500000920E-02 0. -1.
    10030    2    1    2    0    0  0.00000000000E+00  0.00000000000E+00  0.39551680966E+03  0.16462177961E+04  0.15979985875E+04 0.  0.
        1    1    3    3  502    0  0.47676634198E+03 -0.31747819281E+01 -0.46274643111E+03  0.66441740165E+03  0.50400001928E-02 0. -1.
       -1    1    3    3    0  502 -0.47676634198E+03  0.31747819281E+01  0.85826324077E+03  0.98180039446E+03  0.50400001928E-02 0.  1.
</event>
<event>
 5   0  0.2649086E-04  0.1575429E+04  0.7818609E-02  0.8835787E-01
       -1   -1    0    0    0  501  0.00000000000E+00  0.00000000000E+00  0.61657450914E+03  0.61657450916E+03  0.50400001928E-02 0. -1.
        1   -1    0    0  501    0  0.00000000000E+00  0.00000000000E+00 -0.10063566940E+04  0.10063566940E+04  0.50400001928E-02 0.  1.
    10030    2    1    2    0    0  0.00000000000E+00  0.00000000000E+00 -0.38978218485E+03  0.16229312032E+04  0.15754286841E+04 0.  0.
        2    1    3    3  502    0  0.38246565256E+03  0.12463350647E+03 -0.89257137967E+03  0.97902867891E+03  0.25500000920E-02 0.  1.
       -2    1    3    3    0  502 -0.38246565256E+03 -0.12463350647E+03  0.50278919482E+03  0.64390252426E+03  0.25500000920E-02 0. -1.
</event>
<event>
 5   0  0.5381164E-04  0.1624931E+04  0.7818609E-02  0.8805377E-01
       -2   -1    0    0    0  501  0.00000000000E+00  0.00000000000E+00  0.31342658759E+03  0.31342658760E+03  0.25500000920E-02 0.  1.
        2   -1    0    0  501    0  0.00000000000E+00  0.00000000000E+00 -0.21060758868E+04  0.21060758868E+04  0.25500000920E-02 0. -1.
    10030    2    1    2    0    0  0.00000000000E+00  0.00000000000E+00 -0.17926492992E+04  0.24195024744E+04  0.16249309873E+04 0.  0.
        5    1    3    3  502    0 -0.74392266200E+03 -0.33876517448E+02 -0.13799811406E+04  0.15681003105E+04  0.46999998093E+01 0. -1.
       -5    1    3    3    0  502  0.74392266200E+03  0.33876517448E+02 -0.41266815854E+03  0.85140216381E+03  0.46999998093E+01 0.  1.
</event>
<event>
 5   0  0.2763895E-04  0.1574821E+04  0.7818609E-02  0.8836167E-01
        1   -1    0    0  501    0  0.00000000000E+00  0.00000000000E+00  0.21541963305E+04  0.21541963306E+04  0.50400001928E-02 0.  1.
       -1   -1    0    0    0  501  0.00000000000E+00  0.00000000000E+00 -0.28781759784E+03  0.28781759789E+03  0.50400001928E-02 0. -1.
    10030    2    1    2    0    0  0.00000000000E+00  0.00000000000E+00  0.18663787327E+04  0.24420139284E+04  0.15748214035E+04 0.  0.
        4    1    3    3  502    0  0.21549917139E+03  0.12002930115E+03  0.20927344086E+04  0.21072223053E+04  0.12699999809E+01 0.  1.
       -4    1    3    3    0  502 -0.21549917139E+03 -0.12002930115E+03 -0.22635567592E+03  0.33479162314E+03  0.12699999809E+01 0. -1.
</event>
<event>
 5   0  0.2689675E-04  0.1608747E+04  0.7818609E-02  0.8815192E-01
       -1   -1    0    0    0  501  0.00000000000E+00  0.00000000000E+00  0.55696915681E+03  0.55696915683E+03  0.50400001928E-02 0. -1.
        1   -1    0    0  501    0  0.00000000000E+00  0.00000000000E+00 -0.11616743080E+04  0.11616743080E+04  0.50400001928E-02 0.  1.
    10030    2    1    2    0    0  0.00000000000E+00  0.00000000000E+00 -0.60470515115E+03  0.17186434648E+04  0.16087470402E+04 0.  0.
        1    1    3    3  502    0 -0.51569398716E+03  0.41290853300E+03 -0.79259365463E+03  0.10318131839E+04  0.50400001928E-02 0.  1.
       -1    1    3    3    0  502  0.51569398716E+03 -0.41290853300E+03  0.18788850348E+03  0.68683028092E+03  0.50400001928E-02 0. -1.
</event>
<event>
 5   0  0.2689675E-04  0.1616294E+04  0.7818609E-02  0.8810600E-01
       -1   -1    0    0    0  501  0.00000000000E+00  0.00000000000E+00  0.38079287415E+03  0.38079287418E+03  0.50400001928E-02 0. -1.
        1   -1    0    0  501    0  0.00000000000E+00  0.00000000000E+00 -0.17151094086E+04  0.17151094086E+04  0.50400001928E-02 0.  1.
    10030    2    1    2    0    0  0.00000000000E+00  0.00000000000E+00 -0.13343165345E+04  0.20959022828E+04  0.16162938362E+04 0.  0.
        1    1    3    3  502    0 -0.18496133256E+02 -0.38986227493E+03 -0.15847900609E+04  0.16321440615E+04  0.50400001928E-02 0.  1.
       -1    1    3    3    0  502  0.18496133256E+02  0.38986227493E+03  0.25047352643E+03  0.46375822130E+03  0.50400001928E-02 0. -1.
</event>
<event>
 5   0  0.2649086E-04  0.1575478E+04  0.7818609E-02  0.8835756E-01
       -1   -1    0    0    0  501  0.00000000000E+00  0.00000000000E+00  0.43980960694E+03  0.43980960697E+03  0.50400001928E-02 0.  1.
        1   -1    0    0  501    0  0.00000000000E+00  0.00000000000E+00 -0.14109129927E+04  0.14109129927E+04  0.50400001928E-02 0. -1.
    10030    2    1    2    0    0  0.00000000000E+00  0.00000000000E+00 -0.97110338574E+03  0.18507225997E+04  0.15754784527E+04 0.  0.
        2    1    3    3  502    0 -0.39206350034E+03 -0.66147152423E+03 -0.28456131884E+03  0.81989847533E+03  0.25500000920E-02 0.  1.
       -2    1    3    3    0  502  0.39206350034E+03  0.66147152423E+03 -0.68654206689E+03  0.10308241243E+04  0.25500000920E-02 0. -1.
</event>
<event>
 5   0  0.2796994E-04  0.1601492E+04  0.7818609E-02  0.8819632E-01
       -1   -1    0    0    0  501  0.00000000000E+00  0.00000000000E+00  0.27048803480E+03  0.27048803485E+03  0.50400001928E-02 0. -1.
        1   -1    0    0  501    0  0.00000000000E+00  0.00000000000E+00 -0.23705079959E+04  0.23705079959E+04  0.50400001928E-02 0.  1.
    10030    2    1    2    0    0  0.00000000000E+00  0.00000000000E+00 -0.21000199611E+04  0.26409960308E+04  0.16014918662E+04 0.  0.
        3    1    3    3  502    0  0.23379974233E+03 -0.73499827095E+03 -0.69513372821E+03  0.10383138678E+04  0.10100000352E+00 0. -1.
       -3    1    3    3    0  502 -0.23379974233E+03  0.73499827095E+03 -0.14048862329E+04  0.16026821630E+04  0.10100000352E+00 0.  1.
</event>
<event>
 5   0  0.5264308E-04  0.1591658E+04  0.7818609E-02  0.8825690E-01
       -2   -1    0    0    0  501  0.00000000000E+00  0.00000000000E+00  0.40724871598E+03  0.40724871598E+03  0.25500000920E-02 0. -1.
        2   -1    0    0  501    0  0.00000000000E+00  0.00000000000E+00 -0.15551760439E+04  0.15551760439E+04  0.25500000920E-02 0.  1.
    10030    2    1    2    0    0  0.00000000000E+00  0.00000000000E+00 -0.11479273280E+04  0.19624247599E+04  0.15916575599E+04 0.  0.
        3    1    3    3  502    0 -0.53042014374E+03 -0.37154301941E+03 -0.11442635327E+04  0.13148113121E+04  0.10100000352E+00 0.  1.
       -3    1    3    3    0  502  0.53042014374E+03  0.37154301941E+03 -0.36637953090E+01  0.64761344779E+03  0.10100000352E+00 0. -1.
</event>
<event>
 5   0  0.2796994E-04  0.1553214E+04  0.7818609E-02  0.8849818E-01
        1   -1    0    0  501    0  0.00000000000E+00  0.00000000000E+00  0.64335536834E+03  0.64335536836E+03  0.50400001928E-02 0. -1.
       -1   -1    0    0    0  501  0.00000000000E+00  0.00000000000E+00 -0.93745722022E+03  0.93745722023E+03  0.50400001928E-02 0.  1.
    10030    2    1    2    0    0  0.00000000000E+00  0.00000000000E+00 -0.29410185187E+03  0.15808125886E+04  0.15532136173E+04 0.  0.
        3    1    3    3  502    0  0.20073663042E+03 -0.47863432669E+03  0.44090963346E+03  0.68101933053E+03  0.10100000352E+00 0. -1.
       -3    1    3    3    0  502 -0.20073663042E+03  0.47863432669E+03 -0.73501148533E+03  0.89979325806E+03  0.10100000352E+00 0.  1.
</event>
<event>
 5   0  0.5083831E-04  0.1605756E+04  0.7818609E-02  0.8817020E-01
        2   -1    0    0  501    0  0.00000000000E+00  0.00000000000E+00  0.12853345231E+04  0.12853345231E+04  0.25500000920E-02 0.  1.
       -2   -1    0    0    0  501  0.00000000000E+00  0.00000000000E+00 -0.50151383493E+03  0.50151383494E+03  0.25500000920E-02 0. -1.
    10030    2    1    2    0    0  0.00000000000E+00  0.00000000000E+00  0.78382068819E+03  0.17868483581E+04  0.16057559539E+04 0.  0.
        4    1    3    3  502    0  0.44322001288E+03  0.71822044525E+01 -0.35299882207E+03  0.56666157904E+03  0.12699999809E+01 0. -1.
       -4    1    3    3    0  502 -0.44322001288E+03 -0.71822044525E+01  0.11368195103E+04  0.12201867790E+04  0.12699999809E+01 0.  1.
</event>
<event>
 5   0  0.5264308E-04  0.1628628E+04  0.7818609E-02  0.8803151E-01
       -2   -1    0    0    0  501  0.00000000000E+00  0.00000000000E+00  0.51323160563E+03  0.51323160564E+03  0.25500000920E-02 0.  1.
        2   -1    0    0  501    0  0.00000000000E+00  0.00000000000E+00 -0.12920230604E+04  0.12920230604E+04  0.25500000920E-02 0. -1.
    10030    2    1    2    0    0  0.00000000000E+00  0.00000000000E+00 -0.77879145478E+03  0.18052546661E+04  0.16286277289E+04 0.  0.
        3    1    3    3  502    0  0.30160565028E+03 -0.68236383233E+03 -0.27624819064E+02  0.74655844297E+03  0.10100000352E+00 0.  1.
       -3    1    3    3    0  502 -0.30160565028E+03  0.68236383233E+03 -0.75116663572E+03  0.10586962231E+04  0.10100000352E+00 0. -1.
</event>
<event>
 5   0  0.5315984E-04  0.1658245E+04  0.7818609E-02  0.8785544E-01
       -2   -1    0    0    0  501  0.00000000000E+00  0.00000000000E+00  0.12971469011E+04  0.12971469011E+04  0.25500000920E-02 0. -1.
        2   -1    0    0  501    0  0.00000000000E+00  0.00000000000E+00 -0.52996639471E+03  0.52996639471E+03  0.25500000920E-02 0.  1.
    10030    2    1    2    0    0  0.00000000000E+00  0.00000000000E+00  0.76718050641E+03  0.18271132958E+04  0.16582451768E+04 0.  0.
        2    1    3    3  502    0  0.68639983334E+02  0.41895367632E+03 -0.40112286223E+03  0.58406607573E+03  0.25500000920E-02 0.  1.
       -2    1    3    3    0  502 -0.68639983334E+02 -0.41895367632E+03  0.11683033686E+04  0.12430472201E+04  0.25500000920E-02 0. -1.
</event>
<event>
 5   0  0.2730707E-04  0.1566513E+04  0.7818609E-02  0.8841389E-01
       -1   -1    0    0    0  501  0.00000000000E+00  0.00000000000E+00  0.43528325178E+03  0.43528325181E+03  0.50400001928E-02 0. -1.
        1   -1    0    0  501    0  0.00000000000E+00  0.00000000000E+00 -0.14094050300E+04  0.14094050300E+04  0.50400001928E-02 0.  1.
    10030    2    1    2    0    0  0.00000000000E+00  0.00000000000E+00 -0.97412177819E+03  0.18446882818E+04  0.15665125656E+04 0.  0.
        5    1    3    3  502    0 -0.67527811741E+02 -0.41233375358E+03  0.29306833227E+03  0.51038247137E+03  0.46999998093E+01 0. -1.
       -5    1    3    3    0  502  0.67527811741E+02  0.41233375358E+03 -0.12671901105E+04  0.13343058104E+04  0.46999998093E+01 0.  1.
</event>
<event>
 5   0  0.2689675E-04  0.1598118E+04  0.7818609E-02  0.8821705E-01
        1   -1    0    0  501    0  0.00000000000E+00  0.00000000000E+00  0.85687663629E+03  0.85687663630E+03  0.50400001928E-02 0.  1.
       -1   -1    0    0    0  501  0.00000000000E+00  0.00000000000E+00 -0.74514263839E+03  0.74514263840E+03  0.50400001928E-02 0. -1.
    10030    2    1    2    0    0  0.00000000000E+00  0.00000000000E+00  0.11173399790E+03  0.16020192747E+04  0.15981180401E+04 0.  0.
        1    1    3    3  502    0 -0.57402907398E+03 -0.40436561129E+03  0.43820913192E+03  0.82767636712E+03  0.50400001928E-02 0. -1.
       -1    1    3    3    0  502  0.57402907398E+03  0.40436561129E+03 -0.32647513401E+03  0.77434290758E+03  0.50400001928E-02 0.  1.
</event>
<event>
 5   0  0.5131239E-04  0.1611472E+04  0.7818609E-02  0.8813531E-01
       -2   -1    0    0    0  501  0.00000000000E+00  0.00000000000E+00  0.59486915505E+03  0.59486915506E+03  0.25500000920E-02 0.  1.
        2   -1    0    0  501    0  0.00000000000E+00  0.00000000000E+00 -0.10913499868E+04  0.10913499868E+04  0.25500000920E-02 0. -1.
    10030    2    1    2    0    0  0.00000000000E+00  0.00000000000E+00 -0.49648083178E+03  0.16862191419E+04  0.16114719291E+04 0.  0.
        1    1    3    3  502    0 -0.12747151136E+03 -0.13202304837E+03  0.57270894108E+03  0.60139388318E+03  0.50400001928E-02 0.  1.
       -1    1    3    3    0  502  0.12747151136E+03  0.13202304837E+03 -0.10691897729E+04  0.10848252587E+04  0.50400001928E-02 0. -1.
</event>
<event>
 5   0  0.5083831E-04  0.1612492E+04  0.7818609E-02  0.8812910E-01
       -2   -1    0    0    0  501  0.00000000000E+00  0.00000000000E+00  0.93350918104E+03  0.93350918104E+03  0.25500000920E-02 0.  1.
        2   -1    0    0  501    0  0.00000000000E+00  0.00000000000E+00 -0.69633267465E+03  0.69633267465E+03  0.25500000920E-02 0. -1.
    10030    2    1    2    0    0  0.00000000000E+00  0.00000000000E+00  0.23717650639E+03  0.16298418557E+04  0.16124924122E+04 0.  0.
        4    1    3    3  502    0  0.30041967287E+01  0.44167393140E+03  0.80034261451E+03  0.91413062544E+03  0.12699999809E+01 0.  1.
       -4    1    3    3    0  502 -0.30041967287E+01 -0.44167393140E+03 -0.56316610812E+03  0.71571123025E+03  0.12699999809E+01 0. -1.
</event>
<event>
 5   0  0.1908125E-04  0.1598247E+04  0.7818609E-02  0.8821625E-01
       -4   -1    0    0    0  501  0.00000000000E+00  0.00000000000E+00  0.71171781660E+03  0.71171894970E+03  0.12699999809E+01 0. -1.
        4   -1    0    0  501    0  0.00000000000E+00  0.00000000000E+00 -0.89726143485E+03  0.89726233364E+03  0.12699999809E+01 0.  1.
    10030    2    1    2    0    0  0.00000000000E+00  0.00000000000E+00 -0.18554361826E+03  0.16089812833E+04  0.15982472699E+04 0.  0.
        2    1    3    3  502    0 -0.24948779833E+03  0.39853277125E+03 -0.74327407058E+03  0.87950490350E+03  0.25500000920E-02 0.  1.
       -2    1    3    3    0  502  0.24948779833E+03 -0.39853277125E+03  0.55773045233E+03  0.72947637984E+03  0.25500000920E-02 0. -1.
</event>
<event>
 5   0  0.5264308E-04  0.1594093E+04  0.7818609E-02  0.8824185E-01
       -2   -1    0    0    0  501  0.00000000000E+00  0.00000000000E+00  0.46694302141E+03  0.46694302142E+03  0.25500000920E-02 0. -1.
        2   -1    0    0  501    0  0.00000000000E+00  0.00000000000E+00 -0.13605155524E+04  0.13605155524E+04  0.25500000920E-02 0.  1.
    10030    2    1    2    0    0  0.00000000000E+00  0.00000000000E+00 -0.89357253096E+03  0.18274585738E+04  0.15940931500E+04 0.  0.
        3    1    3    3  502    0 -0.61090062411E+03 -0.34368711772E+03 -0.11816544975E+02  0.70104211597E+03  0.10100000352E+00 0. -1.
       -3    1    3    3    0  502  0.61090062411E+03  0.34368711772E+03 -0.88175598598E+03  0.11264164578E+04  0.10100000352E+00 0.  1.
</event>
<event>
 5   0  0.5083831E-04  0.1672117E+04  0.7818609E-02  0.8777429E-01
       -2   -1    0    0    0  501  0.00000000000E+00  0.00000000000E+00  0.34520205629E+03  0.34520205629E+03  0.25500000920E-02 0.  1.
        2   -1    0    0  501    0  0.00000000000E+00  0.00000000000E+00 -0.20248835881E+04  0.20248835881E+04  0.25500000920E-02 0. -1.
    10030    2    1    2    0    0  0.00000000000E+00  0.00000000000E+00 -0.16796815318E+04  0.23700856444E+04  0.16721171949E+04 0.  0.
        4    1    3    3  502    0  0.72721150758E+03  0.41140430241E+03 -0.88241727806E+03  0.12152168293E+04  0.12699999809E+01 0. -1.
       -4    1    3    3    0  502 -0.72721150758E+03 -0.41140430241E+03 -0.79726425379E+03  0.11548688151E+04  0.12699999809E+01 0.  1.
</event>
<event>
 5   0  0.2730707E-04  0.1631927E+04  0.7818609E-02  0.8801170E-01
        1   -1    0    0  501    0  0.00000000000E+00  0.00000000000E+00  0.11259225289E+04  0.11259225289E+04  0.50400001928E-02 0.  1.
       -1   -1    0    0    0  501  0.00000000000E+00  0.00000000000E+00 -0.59133448680E+03  0.59133448683E+03  0.50400001928E-02 0. -1.
    10030    2    1    2    0    0  0.00000000000E+00  0.00000000000E+00  0.53458804210E+03  0.17172570157E+04  0.16319274749E+04 0.  0.
        5    1    3    3  502    0  0.77707202695E+03  0.22354395812E+03  0.15220485843E+03  0.82280085392E+03  0.46999998093E+01 0.  1.
       -5    1    3    3    0  502 -0.77707202695E+03 -0.22354395812E+03  0.38238318367E+03  0.89445616183E+03  0.46999998093E+01 0. -1.
</event>
<event>
 5   0  0.2649086E-04  0.1595836E+04  0.7818609E-02  0.8823110E-01
       -1   -1    0    0    0  501  0.00000000000E+00  0.00000000000E+00  0.51722400987E+03  0.51722400990E+03  0.50400001928E-02 0.  1.
        1   -1    0    0  501    0  0.00000000000E+00  0.00000000000E+00 -0.12309431137E+04  0.12309431137E+04  0.50400001928E-02 0. -1.
    10030    2    1    2    0    0  0.00000000000E+00  0.00000000000E+00 -0.71371910387E+03  0.17481671236E+04  0.15958362488E+04 0.  0.
        2    1    3    3  502    0 -0.27122222952E+03 -0.44570722723E+03  0.30446966993E+03  0.60408460508E+03  0.25500000920E-02 0.  1.
       -2    1    3    3    0  502  0.27122222952E+03  0.44570722723E+03 -0.10181887738E+04  0.11440825186E+04  0.25500000920E-02 0. -1.
</event>
<event>
 5   0  0.5083831E-04  0.1627963E+04  0.7818609E-02  0.8803551E-01
        2   -1    0    0  501    0  0.00000000000E+00  0.00000000000E+00  0.20870068416E+04  0.20870068416E+04  0.25500000920E-02 0.  1.
       -2   -1    0    0    0  501  0.00000000000E+00  0.00000000000E+00 -0.31747174762E+03  0.31747174763E+03  0.25500000920E-02 0. -1.
    10030    2    1    2    0    0  0.00000000000E+00  0.00000000000E+00  0.17695350940E+04  0.24044785892E+04  0.16279627874E+04 0.  0.
        4    1    3    3  502    0 -0.16309432206E+03  0.56155555870E+03  0.17210857273E+04  0.18177134254E+04  0.12699999809E+01 0.  1.
       -4    1    3    3    0  502  0.16309432206E+03 -0.56155555870E+03  0.48449366675E+02  0.58676516378E+03  0.12699999809E+01 0. -1.
</event>
<event>
 5   0  0.5264308E-04  0.1600268E+04  0.7818609E-02  0.8820384E-01
        2   -1    0    0  501    0  0.00000000000E+00  0.00000000000E+00  0.15884000093E+04  0.15884000094E+04  0.25500000920E-02 0.  1.
       -2   -1    0    0    0  501  0.00000000000E+00  0.00000000000E+00 -0.40305595613E+03  0.40305595614E+03  0.25500000920E-02 0. -1.
    10030    2    1    2    0    0  0.00000000000E+00  0.00000000000E+00  0.11853440532E+04  0.19914559655E+04  0.16002675833E+04 0.  0.
        3    1    3    3  502    0  0.22218147723E+03  0.39148489415E+03  0.14158833197E+04  0.14857155234E+04  0.10100000352E+00 0.  1.
       -3    1    3    3    0  502 -0.22218147723E+03 -0.39148489415E+03 -0.23053926651E+03  0.50574044210E+03  0.10100000352E+00 0. -1.
</event>
<event>
 5   0  0.1908125E-04  0.1598430E+04  0.7818609E-02  0.8821513E-01
       -3   -1    0    0    0  501  0.00000000000E+00  0.00000000000E+00  0.91967210299E+03  0.91967210853E+03  0.10100000352E+00 0. -1.
        3   -1    0    0  501    0  0.00000000000E+00  0.00000000000E+00 -0.69453478928E+03  0.69453479663E+03  0.10100000352E+00 0.  1.
    10030    2    1    2    0    0  0.00000000000E+00  0.00000000000E+00  0.22513731370E+03  0.16142069052E+04  0.15984295801E+04 0.  0.
        1    1    3    3  502    0 -0.26516373765E+03  0.33718936411E+03  0.79356576657E+03  0.90208375494E+03  0.50400001928E-02 0. -1.
       -1    1    3    3    0  502  0.26516373765E+03 -0.33718936411E+03 -0.56842845286E+03  0.71212315022E+03  0.50400001928E-02 0.  1.
</event>
<event>
 5   0  0.5315984E-04  0.1647552E+04  0.7818609E-02  0.8791856E-01
        2   -1    0    0  501    0  0.00000000000E+00  0.00000000000E+00  0.83353868945E+03  0.83353868945E+03  0.25500000920E-02 0. -1.
       -2   -1    0    0    0  501  0.00000000000E+00  0.00000000000E+00 -0.81412807738E+03  0.81412807738E+03  0.25500000920E-02 0.  1.
    10030    2    1    2    0    0  0.00000000000E+00  0.00000000000E+00  0.19410612069E+02  0.16476667668E+04  0.16475524279E+04 0.  0.
        2    1    3    3  502    0 -0.43270297594E+03  0.68231836771E+03  0.17039324537E+03  0.82572639438E+03  0.25500000920E-02 0. -1.
       -2    1    3    3    0  502  0.43270297594E+03 -0.68231836771E+03 -0.15098263330E+03  0.82194037245E+03  0.25500000920E-02 0.  1.
</event>
<event>
 5   0  0.5083831E-04  0.1680014E+04  0.7818609E-02  0.8772846E-01
       -2   -1    0    0    0  501  0.00000000000E+00  0.00000000000E+00  0.57742170719E+03  0.57742170720E+03  0.25500000920E-02 0. -1.
        2   -1    0    0  501    0  0.00000000000E+00  0.00000000000E+00 -0.12220048654E+04  0.12220048654E+04  0.25500000920E-02 0.  1.
    10030    2    1    2    0    0  0.00000000000E+00  0.00000000000E+00 -0.64458315821E+03  0.17994265726E+04  0.16800144471E+04 0.  0.
        4    1    3    3  502    0  0.41163677466E+03  0.63204359231E+03  0.73698277111E+02  0.75786343478E+03  0.12699999809E+01 0. -1.
       -4    1    3    3    0  502 -0.41163677466E+03 -0.63204359231E+03 -0.71828143532E+03  0.10415631378E+04  0.12699999809E+01 0.  1.
</event>
<event>
 5   0  0.2689675E-04  0.1562073E+04  0.7818609E-02  0.8844193E-01
        1   -1    0    0  501    0  0.00000000000E+00  0.00000000000E+00  0.90547408330E+03  0.90547408332E+03  0.50400001928E-02 0.  1.
       -1   -1    0    0    0  501  0.00000000000E+00  0.00000000000E+00 -0.67370012074E+03  0.67370012076E+03  0.50400001928E-02 0. -1.
    10030    2    1    2    0    0  0.00000000000E+00  0.00000000000E+00  0.23177396256E+03  0.15791742041E+04  0.15620729807E+04 0.  0.
        1    1    3    3  502    0  0.14132024931E+03 -0.17856590574E+03 -0.63939372087E+03  0.67873523989E+03  0.50400001928E-02 0. -1.
       -1    1    3    3    0  502 -0.14132024931E+03  0.17856590574E+03  0.87116768343E+03  0.90043896419E+03  0.50400001928E-02 0.  1.
</event>
<event>
 5   0  0.5315984E-04  0.1609672E+04  0.7818609E-02  0.8814628E-01
       -2   -1    0    0    0  501  0.00000000000E+00  0.00000000000E+00  0.57693524435E+03  0.57693524435E+03  0.25500000920E-02 0.  1.
        2   -1    0    0  501    0  0.00000000000E+00  0.00000000000E+00 -0.11227613838E+04  0.11227613838E+04  0.25500000920E-02 0. -1.
    10030    2    1    2    0    0  0.00000000000E+00  0.00000000000E+00 -0.54582613945E+03  0.16996966282E+04  0.16096715358E+04 0.  0.
        2    1    3    3  502    0  0.40641246953E+03  0.44167721676E+03  0.29327562752E+03  0.66802728455E+03  0.25500000920E-02 0.  1.
       -2    1    3    3    0  502 -0.40641246953E+03 -0.44167721676E+03 -0.83910176697E+03  0.10316693436E+04  0.25500000920E-02 0. -1.
</event>
<event>
 5   0  0.2730707E-04  0.1596734E+04  0.7818609E-02  0.8822557E-01
        1   -1    0    0  501    0  0.00000000000E+00  0.00000000000E+00  0.65214701067E+03  0.65214701069E+03  0.50400001928E-02 0. -1.
       -1   -1    0    0    0  501  0.00000000000E+00  0.00000000000E+00 -0.97737136259E+03  0.97737136260E+03  0.50400001928E-02 0.  1.
    10030    2    1    2    0    0  0.00000000000E+00  0.00000000000E+00 -0.32522435191E+03  0.16295183733E+04  0.15967339321E+04 0.  0.
        5    1    3    3  502    0 -0.49179935161E+03  0.48751695478E+03 -0.56804527410E+03  0.89567678705E+03  0.46999998093E+01 0.  1.
       -5    1    3    3    0  502  0.49179935161E+03 -0.48751695478E+03  0.24282092219E+03  0.73384158624E+03  0.46999998093E+01 0. -1.
</event>
<event>
 5   0  0.2796994E-04  0.1598644E+04  0.7818609E-02  0.8821381E-01
       -1   -1    0    0    0  501  0.00000000000E+00  0.00000000000E+00  0.30145796549E+03  0.30145796553E+03  0.50400001928E-02 0.  1.
        1   -1    0    0  501    0  0.00000000000E+00  0.00000000000E+00 -0.21194191905E+04  0.21194191905E+04  0.50400001928E-02 0. -1.
    10030    2    1    2    0    0  0.00000000000E+00  0.00000000000E+00 -0.18179612250E+04  0.24208771560E+04  0.15986441721E+04 0.  0.
        3    1    3    3  502    0 -0.36022428126E+03 -0.45725014951E+03 -0.17385199323E+04  0.18333823380E+04  0.10100000352E+00 0. -1.
       -3    1    3    3    0  502  0.36022428126E+03  0.45725014951E+03 -0.79441292698E+02  0.58749481804E+03  0.10100000352E+00 0.  1.
</event>
<event>
 5   0  0.5381164E-04  0.1493014E+04  0.7818609E-02  0.8889112E-01
        2   -1    0    0  501    0  0.00000000000E+00  0.00000000000E+00  0.42834832638E+03  0.42834832639E+03  0.25500000920E-02 0. -1.
       -2   -1    0    0    0  501  0.00000000000E+00  0.00000000000E+00 -0.13009808840E+04  0.13009808840E+04  0.25500000920E-02 0.  1.
    10030    2    1    2    0    0  0.00000000000E+00  0.00000000000E+00 -0.87263255762E+03  0.17293292104E+04  0.14930143795E+04 0.  0.
        5    1    3    3  502    0  0.52390653668E+03  0.28236654783E+03  0.85606911067E+02  0.60129822861E+03  0.46999998093E+01 0. -1.
       -5    1    3    3    0  502 -0.52390653668E+03 -0.28236654783E+03 -0.95823946869E+03  0.11280309818E+04  0.46999998093E+01 0.  1.
</event>
<event>
 5   0  0.2730707E-04  0.1592342E+04  0.7818609E-02  0.8825267E-01
        1   -1    0    0  501    0  0.00000000000E+00  0.00000000000E+00  0.64173128034E+03  0.64173128036E+03  0.50400001928E-02 0.  1.
       -1   -1    0    0    0  501  0.00000000000E+00  0.00000000000E+00 -0.98777823388E+03  0.98777823389E+03  0.50400001928E-02 0. -1.
    10030    2    1    2    0    0  0.00000000000E+00  0.00000000000E+00 -0.34604695355E+03  0.16295095142E+04  0.15923419115E+04 0.  0.
        5    1    3    3  502    0 -0.43377894318E+03  0.23876769049E+03 -0.81102737207E+03  0.95024295304E+03  0.46999998093E+01 0. -1.
       -5    1    3    3    0  502  0.43377894318E+03 -0.23876769049E+03  0.46498041852E+03  0.67926656121E+03  0.46999998093E+01 0.  1.
</event>
<event>
 5   0  0.5264308E-04  0.1617260E+04  0.7818609E-02  0.8810014E-01
       -2   -1    0    0    0  501  0.00000000000E+00  0.00000000000E+00  0.67272814920E+03  0.67272814920E+03  0.25500000920E-02 0.  1.
        2   -1    0    0  501    0  0.00000000000E+00  0.00000000000E+00 -0.97198620547E+03  0.97198620547E+03  0.25500000920E-02 0. -1.
    10030    2    1    2    0    0  0.00000000000E+00  0.00000000000E+00 -0.29925805627E+03  0.16447143547E+04  0.16172600051E+04 0.  0.
        3    1    3    3  502    0 -0.78525643370E+03  0.49689039538E+02  0.40046654710E+02  0.78784542397E+03  0.10100000352E+00 0. -1.
       -3    1    3    3    0  502  0.78525643370E+03 -0.49689039538E+02 -0.33930471098E+03  0.85686893071E+03  0.10100000352E+00 0.  1.
</event>
<event>
 5   0  0.2689675E-04  0.1577638E+04  0.7818609E-02  0.8834405E-01
       -1   -1    0    0    0  501  0.00000000000E+00  0.00000000000E+00  0.96832482005E+03  0.96832482006E+03  0.50400001928E-02 0.  1.
        1   -1    0    0  501    0  0.00000000000E+00  0.00000000000E+00 -0.64258988755E+03  0.64258988757E+03  0.50400001928E-02 0. -1.
    10030    2    1    2    0    0  0.00000000000E+00  0.00000000000E+00  0.32573493250E+03  0.16109147076E+04  0.15776384088E+04 0.  0.
        1    1    3    3  502    0 -0.70827579872E+02  0.68710776092E+03  0.55182478578E+03  0.88410645027E+03  0.50400001928E-02 0.  1.
       -1    1    3    3    0  502  0.70827579872E+02 -0.68710776092E+03 -0.22608985328E+03  0.72680825736E+03  0.50400001928E-02 0. -1.
</event>
<event>
 5   0  0.2730707E-04  0.1616499E+04  0.7818609E-02  0.8810476E-01
        1   -1    0    0  501    0  0.00000000000E+00  0.00000000000E+00  0.15345665601E+04  0.15345665601E+04  0.50400001928E-02 0. -1.
       -1   -1    0    0    0  501  0.00000000000E+00  0.00000000000E+00 -0.42570139982E+03  0.42570139985E+03  0.50400001928E-02 0.  1.
    10030    2    1    2    0    0  0.00000000000E+00  0.00000000000E+00  0.11088651603E+04  0.19602679600E+04  0.16164988497E+04 0.  0.
        5    1    3    3  502    0 -0.35794144674E+03  0.62227496189E+03  0.10411677369E+03  0.72540374968E+03  0.46999998093E+01 0.  1.
       -5    1    3    3    0  502  0.35794144674E+03 -0.62227496189E+03  0.10047483866E+04  0.12348642103E+04  0.46999998093E+01 0. -1.
</event>
<event>
 5   0  0.5264308E-04  0.1562920E+04  0.7818609E-02  0.8843657E-01
        2   -1    0    0  501    0  0.00000000000E+00  0.00000000000E+00  0.12831089759E+04  0.12831089759E+04  0.25500000920E-02 0.  1.
       -2   -1    0    0    0  501  0.00000000000E+00  0.00000000000E+00 -0.47593743989E+03  0.47593743990E+03  0.25500000920E-02 0. -1.
    10030    2    1    2    0    0  0.00000000000E+00  0.00000000000E+00  0.80717153604E+03  0.17590464158E+04  0.15629198330E+04 0.  0.
        3    1    3    3  502    0  0.30266669200E+03  0.70952865408E+03  0.54434618323E+03  0.94411377217E+03  0.10100000352E+00 0.  1.
       -3    1    3    3    0  502 -0.30266669200E+03 -0.70952865408E+03  0.26282535281E+03  0.81493264365E+03  0.10100000352E+00 0. -1.
</event>
<event>
 5   0  0.5381164E-04  0.1604559E+04  0.7818609E-02  0.8817752E-01
       -2   -1    0    0    0  501  0.00000000000E+00  0.00000000000E+00  0.63061463751E+03  0.63061463752E+03  0.25500000920E-02 0. -1.
        2   -1    0    0  501    0  0.00000000000E+00  0.00000000000E+00 -0.10206740618E+04  0.10206740618E+04  0.25500000920E-02 0.  1.
    10030    2    1    2    0    0  0.00000000000E+00  0.00000000000E+00 -0.39005942432E+03  0.16512886994E+04  0.16045585107E+04 0.  0.
        5    1    3    3  502    0 -0.76034250301E+03  0.20718269401E+03 -0.34968789789E+03  0.86217695777E+03  0.46999998093E+01 0.  1.
       -5    1    3    3    0  502  0.76034250301E+03 -0.20718269401E+03 -0.40371526433E+02  0.78911174159E+03  0.46999998093E+01 0. -1.
</event>
<event>
 5   0  0.5381164E-04  0.1602029E+04  0.7818609E-02  0.8819303E-01
       -2   -1    0    0    0  501  0.00000000000E+00  0.00000000000E+00  0.17492349537E+04  0.17492349537E+04  0.25500000920E-02 0.  1.
        2   -1    0    0  501    0  0.00000000000E+00  0.00000000000E+00 -0.36680259095E+03  0.36680259096E+03  0.25500000920E-02 0. -1.
    10030    2    1    2    0    0  0.00000000000E+00  0.00000000000E+00  0.13824323627E+04  0.21160375447E+04  0.16020286055E+04 0.  0.
        5    1    3    3  502    0  0.63614713954E+02  0.61909538126E+03  0.25167913968E+02  0.62288155923E+03  0.46999998093E+01 0. -1.
       -5    1    3    3    0  502 -0.63614713954E+02 -0.61909538126E+03  0.13572644488E+04  0.14931559854E+04  0.46999998093E+01 0.  1.
</event>
<event>
 5   0  0.2763895E-04  0.1616410E+04  0.7818609E-02  0.8810530E-01
       -1   -1    0    0    0  501  0.00000000000E+00  0.00000000000E+00  0.80001871220E+03  0.80001871221E+03  0.50400001928E-02 0. -1.
        1   -1    0    0  501    0  0.00000000000E+00  0.00000000000E+00 -0.81647509196E+03  0.81647509198E+03  0.50400001928E-02 0.  1.
    10030    2    1    2    0    0  0.00000000000E+00  0.00000000000E+00 -0.16456379764E+02  0.16164938042E+04  0.16164100366E+04 0.  0.
        4    1    3    3  502    0 -0.42070365688E+03 -0.68013827196E+03 -0.12491372427E+03  0.80943479497E+03  0.12699999809E+01 0.  1.
       -4    1    3    3    0  502  0.42070365688E+03  0.68013827196E+03  0.10845734451E+03  0.80705900922E+03  0.12699999809E+01 0. -1.
</event>
<event>
 5   0  0.1908125E-04  0.1581894E+04  0.7818609E-02  0.8831749E-01
        3   -1    0    0  501    0  0.00000000000E+00  0.00000000000E+00  0.11546687454E+04  0.11546687498E+04  0.10100000352E+00 0. -1.
       -3   -1    0    0    0  501  0.00000000000E+00  0.00000000000E+00 -0.54179773886E+03  0.54179774827E+03  0.10100000352E+00 0.  1.
    10030    2    1    2    0    0  0.00000000000E+00  0.00000000000E+00  0.61287100654E+03  0.16964664981E+04  0.15818937096E+04 0.  0.
        4    1    3    3  502    0 -0.56970048169E+03 -0.28958611795E+03 -0.19333941761E+03  0.66768293511E+03  0.12699999809E+01 0. -1.
       -4    1    3    3    0  502  0.56970048169E+03  0.28958611795E+03  0.80621042415E+03  0.10287835630E+04  0.12699999809E+01 0.  1.
</event>
<event>
 5   0  0.2763895E-04  0.1606827E+04  0.7818609E-02  0.8816365E-01
        1   -1    0    0  501    0  0.00000000000E+00  0.00000000000E+00  0.88220637450E+03  0.88220637451E+03  0.50400001928E-02 0. -1.
       -1   -1    0    0    0  501  0.00000000000E+00  0.00000000000E+00 -0.73165759291E+03  0.73165759293E+03  0.50400001928E-02 0.  1.
    10030    2    1    2    0    0  0.00000000000E+00  0.00000000000E+00  0.15054878158E+03  0.16138639674E+04  0.16068266770E+04 0.  0.
        4    1    3    3  502    0 -0.34575709864E+03  0.13478959453E+03 -0.64041580919E+03  0.74016905340E+03  0.12699999809E+01 0.  1.
       -4    1    3    3    0  502  0.34575709864E+03 -0.13478959453E+03  0.79096459077E+03  0.87369491404E+03  0.12699999809E+01 0. -1.
</event>
<event>
 5   0  0.2796994E-04  0.1602191E+04  0.7818609E-02  0.8819203E-01
        1   -1    0    0  501    0  0.00000000000E+00  0.00000000000E+00  0.10582435300E+04  0.10582435300E+04  0.50400001928E-02 0.  1.
       -1   -1    0    0    0  501  0.00000000000E+00  0.00000000000E+00 -0.60643310756E+03  0.60643310758E+03  0.50400001928E-02 0. -1.
    10030    2    1    2    0    0  0.00000000000E+00  0.00000000000E+00  0.45181042247E+03  0.16646766376E+04  0.16021908906E+04 0.  0.
        3    1    3    3  502    0 -0.43763764503E+03  0.19561554051E+03  0.89277965700E+03  0.10133349270E+04  0.10100000352E+00 0.  1.
       -3    1    3    3    0  502  0.43763764503E+03 -0.19561554051E+03 -0.44096923453E+03  0.65134171066E+03  0.10100000352E+00 0. -1.
</event>
<event>
 5   0  0.2689675E-04  0.1627198E+04  0.7818609E-02  0.8804011E-01
       -1   -1    0    0    0  501  0.00000000000E+00  0.00000000000E+00  0.57154040292E+03  0.57154040295E+03  0.50400001928E-02 0. -1.
        1   -1    0    0  501    0  0.00000000000E+00  0.00000000000E+00 -0.11581747214E+04  0.11581747214E+04  0.50400001928E-02 0.  1.
    10030    2    1    2    0    0  0.00000000000E+00  0.00000000000E+00 -0.58663431843E+03  0.17297151243E+04  0.16271983861E+04 0.  0.
        1    1    3    3  502    0  0.41402129665E+03  0.61711088671E+03  0.58766313138E+02  0.74544816061E+03  0.50400001928E-02 0. -1.
       -1    1    3    3    0  502 -0.41402129665E+03 -0.61711088671E+03 -0.64540063157E+03  0.98426696370E+03  0.50400001928E-02 0.  1.
</event>
<event>
 5   0  0.5264308E-04  0.1606403E+04  0.7818609E-02  0.8816624E-01
       -2   -1    0    0    0  501  0.00000000000E+00  0.00000000000E+00  0.50956354954E+03  0.50956354954E+03  0.25500000920E-02 0.  1.
        2   -1    0    0  501    0  0.00000000000E+00  0.00000000000E+00 -0.12660490421E+04  0.12660490421E+04  0.25500000920E-02 0. -1.
    10030    2    1    2    0    0  0.00000000000E+00  0.00000000000E+00 -0.75648549256E+03  0.17756125916E+04  0.16064027438E+04 0.  0.
        3    1    3    3  502    0 -0.72146579541E+03  0.12399271093E+03 -0.12904404135E+02  0.73215682757E+03  0.10100000352E+00 0. -1.
       -3    1    3    3    0  502  0.72146579541E+03 -0.12399271093E+03 -0.74358108843E+03  0.10434557641E+04  0.10100000352E+00 0.  1.
</event>
<event>
 5   0  0.5381164E-04  0.1621767E+04  0.7818609E-02  0.8807286E-01
        2   -1    0    0  501    0  0.00000000000E+00  0.00000000000E+00  0.11635956517E+04  0.11635956517E+04  0.25500000920E-02 0. -1.
       -2   -1    0    0    0  501  0.00000000000E+00  0.00000000000E+00 -0.56508637547E+03  0.56508637548E+03  0.25500000920E-02 0.  1.
    10030    2    1    2    0    0  0.00000000000E+00  0.00000000000E+00  0.59850927623E+03  0.17286820272E+04  0.16217669985E+04 0.  0.
        5    1    3    3  502    0 -0.31927981182E+03 -0.43231782860E+02 -0.49391203637E+03  0.58972856040E+03  0.46999998093E+01 0.  1.
       -5    1    3    3    0  502  0.31927981182E+03  0.43231782860E+02  0.10924213126E+04  0.11389534668E+04  0.46999998093E+01 0. -1.
</event>
<event>
 5   0  0.5381164E-04  0.1593105E+04  0.7818609E-02  0.8824795E-01
        2   -1    0    0  501    0  0.00000000000E+00  0.00000000000E+00  0.70220615813E+03  0.70220615813E+03  0.25500000920E-02 0. -1.
       -2   -1    0    0    0  501  0.00000000000E+00  0.00000000000E+00 -0.90357479052E+03  0.90357479052E+03  0.25500000920E-02 0.  1.
    10030    2    1    2    0    0  0.00000000000E+00  0.00000000000E+00 -0.20136863239E+03  0.16057809487E+04  0.15931048707E+04 0.  0.
        5    1    3    3  502    0  0.68597521036E+03 -0.88159175544E+01  0.30730043376E+03  0.75172824625E+03  0.46999998093E+01 0. -1.
       -5    1    3    3    0  502 -0.68597521036E+03  0.88159175544E+01 -0.50866906615E+03  0.85405270240E+03  0.46999998093E+01 0.  1.
</event>
<event>
 5   0  0.2689675E-04  0.1585457E+04  0.7818609E-02  0.8829533E-01
        1   -1    0    0  501    0  0.00000000000E+00  0.00000000000E+00  0.11919120258E+04  0.11919120258E+04  0.50400001928E-02 0. -1.
       -1   -1    0    0    0  501  0.00000000000E+00  0.00000000000E+00 -0.52723538938E+03  0.52723538940E+03  0.50400001928E-02 0.  1.
    10030    2    1    2    0    0  0.00000000000E+00  0.00000000000E+00  0.66467663640E+03  0.17191474152E+04  0.15854566548E+04 0.  0.
        1    1    3    3  502    0 -0.68398545000E+03 -0.17370225564E+03 -0.59235440056E+02  0.70817893700E+03  0.50400001928E-02 0.  1.
       -1    1    3    3    0  502  0.68398545000E+03  0.17370225564E+03  0.72391207646E+03  0.10109684782E+04  0.50400001928E-02 0. -1.
</event>
<event>
 5   0  0.5131239E-04  0.1647480E+04  0.7818609E-02  0.8791899E-01
        2   -1    0    0  501    0  0.00000000000E+00  0.00000000000E+00  0.11677302850E+04  0.11677302850E+04  0.25500000920E-02 0.  1.
       -2   -1    0    0    0  501  0.00000000000E+00  0.00000000000E+00 -0.58108238882E+03  0.58108238883E+03  0.25500000920E-02 0. -1.
    10030    2    1    2    0    0  0.00000000000E+00  0.00000000000E+00  0.58664789617E+03  0.17488126738E+04  0.16474798979E+04 0.  0.
        1    1    3    3  502    0 -0.61261789419E+03 -0.49570029924E+03  0.38721292883E+02  0.78899861185E+03  0.50400001928E-02 0. -1.
       -1    1    3    3    0  502  0.61261789419E+03  0.49570029924E+03  0.54792660329E+03  0.95981406197E+03  0.50400001928E-02 0.  1.
</event>
<event>
 5   0  0.5131239E-04  0.1580457E+04  0.7818609E-02  0.8832645E-01
        2   -1    0    0  501    0  0.00000000000E+00  0.00000000000E+00  0.20575981651E+04  0.20575981651E+04  0.25500000920E-02 0. -1.
       -2   -1    0    0    0  501  0.00000000000E+00  0.00000000000E+00 -0.30349020022E+03  0.30349020023E+03  0.25500000920E-02 0.  1.
    10030    2    1    2    0    0  0.00000000000E+00  0.00000000000E+00  0.17541079649E+04  0.23610883654E+04  0.15804567430E+04 0.  0.
        1    1    3    3  502    0 -0.33270579184E+03  0.29891080699E+03  0.18503110834E+04  0.19035997267E+04  0.50400001928E-02 0. -1.
       -1    1    3    3    0  502  0.33270579184E+03 -0.29891080699E+03 -0.96203118432E+02  0.45748863863E+03  0.50400001928E-02 0.  1.
</event>
<event>
 5   0  0.2796994E-04  0.1621615E+04  0.7818609E-02  0.8807378E-01
       -1   -1    0    0    0  501  0.00000000000E+00  0.00000000000E+00  0.86842299141E+03  0.86842299143E+03  0.50400001928E-02 0. -1.
        1   -1    0    0  501    0  0.00000000000E+00  0.00000000000E+00 -0.75701466021E+03  0.75701466023E+03  0.50400001928E-02 0.  1.
    10030    2    1    2    0    0  0.00000000000E+00  0.00000000000E+00  0.11140833120E+03  0.16254376517E+04  0.16216151649E+04 0.  0.
        3    1    3    3  502    0  0.66937524523E+03 -0.34562023035E+03 -0.24482312564E+03  0.79212053098E+03  0.10100000352E+00 0.  1.
       -3    1    3    3    0  502 -0.66937524523E+03  0.34562023035E+03  0.35623145685E+03  0.83331712067E+03  0.10100000352E+00 0. -1.
</event>
<event>
 5   0  0.5083831E-04  0.1597279E+04  0.7818609E-02  0.8822221E-01
        2   -1    0    0  501    0  0.00000000000E+00  0.00000000000E+00  0.83065913448E+03  0.83065913449E+03  0.25500000920E-02 0.  1.
       -2   -1    0    0    0  501  0.00000000000E+00  0.00000000000E+00 -0.76785431332E+03  0.76785431333E+03  0.25500000920E-02 0. -1.
    10030    2    1    2    0    0  0.00000000000E+00  0.00000000000E+00  0.62804821163E+02  0.15985134478E+04  0.15972791858E+04 0.  0.
        4    1    3    3  502    0 -0.77911582555E+03 -0.13695185654E+03  0.14124288589E+03  0.80357230312E+03  0.12699999809E+01 0.  1.
       -4    1    3    3    0  502  0.77911582555E+03  0.13695185654E+03 -0.78438064725E+02  0.79494114469E+03  0.12699999809E+01 0. -1.
</event>
<event>
 5   0  0.2649086E-04  0.1596307E+04  0.7818609E-02  0.8822820E-01
        1   -1    0    0  501    0  0.00000000000E+00  0.00000000000E+00  0.13291587993E+04  0.13291587993E+04  0.50400001928E-02 0. -1.
       -1   -1    0    0    0  501  0.00000000000E+00  0.00000000000E+00 -0.47928744480E+03  0.47928744482E+03  0.50400001928E-02 0.  1.
    10030    2    1    2    0    0  0.00000000000E+00  0.00000000000E+00  0.84987135447E+03  0.18084462441E+04  0.15963071442E+04 0.  0.
        2    1    3    3  502    0 -0.45611489639E+03 -0.13744960994E+03 -0.30057275826E+03  0.56327362534E+03  0.25500000920E-02 0.  1.
       -2    1    3    3    0  502  0.45611489639E+03  0.13744960994E+03  0.11504441127E+04  0.12451726188E+04  0.25500000920E-02 0. -1.
</event>
<event>
 5   0  0.5315984E-04  0.1594679E+04  0.7818609E-02  0.8823824E-01
       -2   -1    0    0    0  501  0.00000000000E+00  0.00000000000E+00  0.74495901880E+03  0.74495901880E+03  0.25500000920E-02 0.  1.
        2   -1    0    0  501    0  0.00000000000E+00  0.00000000000E+00 -0.85340310344E+03  0.85340310345E+03  0.25500000920E-02 0. -1.
    10030    2    1    2    0    0  0.00000000000E+00  0.00000000000E+00 -0.10844408465E+03  0.15983621223E+04  0.15946790757E+04 0.  0.
        2    1    3    3  502    0 -0.79698916232E+00  0.32489308214E+03 -0.78404809942E+03  0.84869757407E+03  0.25500000920E-02 0. -1.
       -2    1    3    3    0  502  0.79698916232E+00 -0.32489308214E+03  0.67560401478E+03  0.74966454818E+03  0.25500000920E-02 0.  1.
</event>
<event>
 5   0  0.2689675E-04  0.1592288E+04  0.7818609E-02  0.8825300E-01
       -1   -1    0    0    0  501  0.00000000000E+00  0.00000000000E+00  0.34718979596E+03  0.34718979600E+03  0.50400001928E-02 0.  1.
        1   -1    0    0  501    0  0.00000000000E+00  0.00000000000E+00 -0.18256443223E+04  0.18256443223E+04  0.50400001928E-02 0. -1.
    10030    2    1    2    0    0  0.00000000000E+00  0.00000000000E+00 -0.14784545263E+04  0.21728341183E+04  0.15922877627E+04 0.  0.
        1    1    3    3  502    0 -0.54400294949E+03 -0.38613389441E+03 -0.14628354869E+03  0.68296227576E+03  0.50400001928E-02 0.  1.
       -1    1    3    3    0  502  0.54400294949E+03  0.38613389441E+03 -0.13321709776E+04  0.14898718425E+04  0.50400001928E-02 0. -1.
</event>
<event>
 5   0  0.5315984E-04  0.1606953E+04  0.7818609E-02  0.8816288E-01
       -2   -1    0    0    0  501  0.00000000000E+00  0.00000000000E+00  0.97598306326E+03  0.97598306327E+03  0.25500000920E-02 0. -1.
        2   -1    0    0  501    0  0.00000000000E+00  0.00000000000E+00 -0.66146077520E+03  0.66146077520E+03  0.25500000920E-02 0.  1.
    10030    2    1    2    0    0  0.00000000000E+00  0.00000000000E+00  0.31452228806E+03  0.16374438385E+04  0.16069530343E+04 0.  0.
        2    1    3    3  502    0  0.40719439424E+03  0.64605398792E+03  0.41176307333E+03  0.86760697241E+03  0.25500000920E-02 0.  1.
       -2    1    3    3    0  502 -0.40719439424E+03 -0.64605398792E+03 -0.97240785263E+02  0.76983686606E+03  0.25500000920E-02 0. -1.
</event>
<event>
 5   0  0.5381164E-04  0.1540988E+04  0.7818609E-02  0.8857645E-01
       -2   -1    0    0    0  501  0.00000000000E+00  0.00000000000E+00  0.24006572090E+03  0.24006572092E+03  0.25500000920E-02 0. -1.
        2   -1    0    0  501    0  0.00000000000E+00  0.00000000000E+00 -0.24729100436E+04  0.24729100436E+04  0.25500000920E-02 0.  1.
    10030    2    1    2    0    0  0.00000000000E+00  0.00000000000E+00 -0.22328443227E+04  0.27129757645E+04  0.15409879070E+04 0.  0.
        5    1    3    3  502    0  0.28480306694E+03  0.23663766041E+03  0.73122393279E+02  0.37746409586E+03  0.46999998093E+01 0. -1.
       -5    1    3    3    0  502 -0.28480306694E+03 -0.23663766041E+03 -0.23059667160E+04  0.23355116687E+04  0.46999998093E+01 0.  1.
</event>
<event>
 5   0  0.5381164E-04  0.1518510E+04  0.7818609E-02  0.8872237E-01
       -2   -1    0    0    0  501  0.00000000000E+00  0.00000000000E+00  0.18699806452E+03  0.18699806454E+03  0.25500000920E-02 0. -1.
        2   -1    0    0  501    0  0.00000000000E+00  0.00000000000E+00 -0.30827482847E+04  0.30827482847E+04  0.25500000920E-02 0.  1.
    10030    2    1    2    0    0  0.00000000000E+00  0.00000000000E+00 -0.28957502202E+04  0.32697463492E+04  0.15185097467E+04 0.  0.
        5    1    3    3  502    0 -0.37547401749E+03 -0.65949906386E+03 -0.13984851428E+04  0.15911324702E+04  0.46999998093E+01 0. -1.
       -5    1    3    3    0  502  0.37547401749E+03  0.65949906386E+03 -0.14972650773E+04  0.16786138790E+04  0.46999998093E+01 0.  1.
</event>
<event>
 5   0  0.1908125E-04  0.1458466E+04  0.7818609E-02  0.8912552E-01
        4   -1    0    0  501    0  0.00000000000E+00  0.00000000000E+00  0.67884920255E+03  0.67885039052E+03  0.12699999809E+01 0. -1.
       -4   -1    0    0    0  501  0.00000000000E+00  0.00000000000E+00 -0.78335420744E+03  0.78335523693E+03  0.12699999809E+01 0.  1.
    10030    2    1    2    0    0  0.00000000000E+00  0.00000000000E+00 -0.10450500489E+03  0.14622056274E+04  0.14584663180E+04 0.  0.
        4    1    3    3  502    0 -0.15226447797E+03  0.38052053038E+03  0.55245147142E+03  0.68788413739E+03  0.12699999809E+01 0. -1.
       -4    1    3    3    0  502  0.15226447797E+03 -0.38052053038E+03 -0.65695647632E+03  0.77432149006E+03  0.12699999809E+01 0.  1.
</event>
<event>
 5   0  0.2796994E-04  0.1598645E+04  0.7818609E-02  0.8821381E-01
        1   -1    0    0  501    0  0.00000000000E+00  0.00000000000E+00  0.10981931059E+04  0.10981931059E+04  0.50400001928E-02 0.  1.
       -1   -1    0    0    0  501  0.00000000000E+00  0.00000000000E+00 -0.58178847512E+03  0.58178847514E+03  0.50400001928E-02 0. -1.
    10030    2    1    2    0    0  0.00000000000E+00  0.00000000000E+00  0.51640463082E+03  0.16799815811E+04  0.15986445415E+04 0.  0.
        3    1    3    3  502    0 -0.41862260382E+03  0.52316365159E+02  0.97166633375E+03  0.10593004110E+04  0.10100000352E+00 0.  1.
       -3    1    3    3    0  502  0.41862260382E+03 -0.52316365159E+02 -0.45526170293E+03  0.62068117005E+03  0.10100000352E+00 0. -1.
</event>
<event>
 5   0  0.2796994E-04  0.1641633E+04  0.7818609E-02  0.8795371E-01
        1   -1    0    0  501    0  0.00000000000E+00  0.00000000000E+00  0.79255200988E+03  0.79255200990E+03  0.50400001928E-02 0. -1.
       -1   -1    0    0    0  501  0.00000000000E+00  0.00000000000E+00 -0.85008945915E+03  0.85008945916E+03  0.50400001928E-02 0.  1.
    10030    2    1    2    0    0  0.00000000000E+00  0.00000000000E+00 -0.57537449265E+02  0.16426414691E+04  0.16416334663E+04 0.  0.
        3    1    3    3  502    0 -0.64185787899E+03  0.32308007904E+03 -0.42572105411E+03  0.83522494001E+03  0.10100000352E+00 0.  1.
       -3    1    3    3    0  502  0.64185787899E+03 -0.32308007904E+03  0.36818360485E+03  0.80741652905E+03  0.10100000352E+00 0. -1.
</event>
<event>
 5   0  0.2796994E-04  0.1597906E+04  0.7818609E-02  0.8821835E-01
       -1   -1    0    0    0  501  0.00000000000E+00  0.00000000000E+00  0.93253699858E+03  0.93253699859E+03  0.50400001928E-02 0.  1.
        1   -1    0    0  501    0  0.00000000000E+00  0.00000000000E+00 -0.68450498868E+03  0.68450498870E+03  0.50400001928E-02 0. -1.
    10030    2    1    2    0    0  0.00000000000E+00  0.00000000000E+00  0.24803200989E+03  0.16170419873E+04  0.15979064149E+04 0.  0.
        3    1    3    3  502    0 -0.95006332987E+02 -0.34898122242E+03  0.84494611724E+03  0.91910176159E+03  0.10100000352E+00 0.  1.
       -3    1    3    3    0  502  0.95006332987E+02  0.34898122242E+03 -0.59691410735E+03  0.69794022571E+03  0.10100000352E+00 0. -1.
</event>
<event>
 5   0  0.5131239E-04  0.1484015E+04  0.7818609E-02  0.8895153E-01
       -2   -1    0    0    0  501  0.00000000000E+00  0.00000000000E+00  0.39113252051E+03  0.39113252052E+03  0.25500000920E-02 0.  1.
        2   -1    0    0  501    0  0.00000000000E+00  0.00000000000E+00 -0.14076441435E+04  0.14076441435E+04  0.25500000920E-02 0. -1.
    10030    2    1    2    0    0  0.00000000000E+00  0.00000000000E+00 -0.10165116230E+04  0.17987766641E+04  0.14840153663E+04 0.  0.
        1    1    3    3  502    0 -0.90614932090E+02  0.59675031651E+03  0.14851688190E+02  0.60377361556E+03  0.50400001928E-02 0.  1.
       -1    1    3    3    0  502  0.90614932090E+02 -0.59675031651E+03 -0.10313633112E+04  0.11950030485E+04  0.50400001928E-02 0. -1.
</event>
<event>
 5   0  0.2730707E-04  0.1595592E+04  0.7818609E-02  0.8823260E-01
       -1   -1    0    0    0  501  0.00000000000E+00  0.00000000000E+00  0.16044288139E+04  0.16044288139E+04  0.50400001928E-02 0.  1.
        1   -1    0    0  501    0  0.00000000000E+00  0.00000000000E+00 -0.39670115190E+03  0.39670115193E+03  0.50400001928E-02 0. -1.
    10030    2    1    2    0    0  0.00000000000E+00  0.00000000000E+00  0.12077276620E+04  0.20011299658E+04  0.15955923773E+04 0.  0.
        5    1    3    3  502    0 -0.22081146513E+03 -0.49119318269E+03 -0.13431226135E+03  0.55505884319E+03  0.46999998093E+01 0. -1.
       -5    1    3    3    0  502  0.22081146513E+03  0.49119318269E+03  0.13420399234E+04  0.14460711226E+04  0.46999998093E+01 0.  1.
</event>
<event>
 5   0  0.5131239E-04  0.1596545E+04  0.7818609E-02  0.8822673E-01
       -2   -1    0    0    0  501  0.00000000000E+00  0.00000000000E+00  0.77125664268E+03  0.77125664268E+03  0.25500000920E-02 0. -1.
        2   -1    0    0  501    0  0.00000000000E+00  0.00000000000E+00 -0.82623473483E+03  0.82623473483E+03  0.25500000920E-02 0.  1.
    10030    2    1    2    0    0  0.00000000000E+00  0.00000000000E+00 -0.54978092150E+02  0.15974913775E+04  0.15965450544E+04 0.  0.
        1    1    3    3  502    0 -0.51363861899E+03  0.59123230396E+03 -0.18204341041E+03  0.80406471846E+03  0.50400001928E-02 0.  1.
       -1    1    3    3    0  502  0.51363861899E+03 -0.59123230396E+03  0.12706531826E+03  0.79342665906E+03  0.50400001928E-02 0. -1.
</event>
<event>
 5   0  0.5264308E-04  0.1598593E+04  0.7818609E-02  0.8821413E-01
       -2   -1    0    0    0  501  0.00000000000E+00  0.00000000000E+00  0.39582348343E+03  0.39582348344E+03  0.25500000920E-02 0. -1.
        2   -1    0    0  501    0  0.00000000000E+00  0.00000000000E+00 -0.16140402625E+04  0.16140402625E+04  0.25500000920E-02 0.  1.
    10030    2    1    2    0    0  0.00000000000E+00  0.00000000000E+00 -0.12182167791E+04  0.20098637459E+04  0.15985931804E+04 0.  0.
        3    1    3    3  502    0 -0.85951232376E+02  0.71478070545E+03 -0.10456835482E+04  0.12695484096E+04  0.10100000352E+00 0.  1.
       -3    1    3    3    0  502  0.85951232376E+02 -0.71478070545E+03 -0.17253323087E+03  0.74031533631E+03  0.10100000352E+00 0. -1.
</event>
<event>
 5   0  0.5315984E-04  0.1575113E+04  0.7818609E-02  0.8835985E-01
        2   -1    0    0  501    0  0.00000000000E+00  0.00000000000E+00  0.10443708413E+04  0.10443708413E+04  0.25500000920E-02 0.  1.
       -2   -1    0    0    0  501  0.00000000000E+00  0.00000000000E+00 -0.59389356014E+03  0.59389356015E+03  0.25500000920E-02 0. -1.
    10030    2    1    2    0    0  0.00000000000E+00  0.00000000000E+00  0.45047728112E+03  0.16382644014E+04  0.15751128430E+04 0.  0.
        2    1    3    3  502    0  0.74730433077E+03  0.10647369573E+03  0.45884255772E+03  0.88336680006E+03  0.25500000920E-02 0. -1.
       -2    1    3    3    0  502 -0.74730433077E+03 -0.10647369573E+03 -0.83652765968E+01  0.75489760135E+03  0.25500000920E-02 0.  1.
</event>
<event>
 5   0  0.2649086E-04  0.1594543E+04  0.7818609E-02  0.8823907E-01
        1   -1    0    0  501    0  0.00000000000E+00  0.00000000000E+00  0.15214775713E+04  0.15214775713E+04  0.50400001928E-02 0.  1.
       -1   -1    0    0    0  501  0.00000000000E+00  0.00000000000E+00 -0.41777929027E+03  0.41777929030E+03  0.50400001928E-02 0. -1.
    10030    2    1    2    0    0  0.00000000000E+00  0.00000000000E+00  0.11036982811E+04  0.19392568616E+04  0.15945429689E+04 0.  0.
        2    1    3    3  502    0  0.39647801290E+03 -0.18262586353E+03 -0.25953286100E+03  0.50784281691E+03  0.25500000920E-02 0. -1.
       -2    1    3    3    0  502 -0.39647801290E+03  0.18262586353E+03  0.13632311421E+04  0.14314140447E+04  0.25500000920E-02 0.  1.
</event>
<event>
 5   0  0.5381164E-04  0.1598453E+04  0.7818609E-02  0.8821499E-01
        2   -1    0    0  501    0  0.00000000000E+00  0.00000000000E+00  0.12939159401E+04  0.12939159401E+04  0.25500000920E-02 0. -1.
       -2   -1    0    0    0  501  0.00000000000E+00  0.00000000000E+00 -0.49366682656E+03  0.49366682657E+03  0.25500000920E-02 0.  1.
    10030    2    1    2    0    0  0.00000000000E+00  0.00000000000E+00  0.80024911352E+03  0.17875827667E+04  0.15984534726E+04 0.  0.
        5    1    3    3  502    0 -0.32651285237E+03  0.56833818646E+03 -0.11128210856E+03  0.66484940749E+03  0.46999998093E+01 0.  1.
       -5    1    3    3    0  502  0.32651285237E+03 -0.56833818646E+03  0.91153122208E+03  0.11227333592E+04  0.46999998093E+01 0. -1.
</event>
<event>
 5   0  0.1908125E-04  0.1604476E+04  0.7818609E-02  0.8817803E-01
        3   -1    0    0  501    0  0.00000000000E+00  0.00000000000E+00  0.40018518235E+03  0.40018519510E+03  0.10100000352E+00 0. -1.
       -3   -1    0    0    0  501  0.00000000000E+00  0.00000000000E+00 -0.16082196455E+04  0.16082196486E+04  0.10100000352E+00 0.  1.
    10030    2    1    2    0    0  0.00000000000E+00  0.00000000000E+00 -0.12080344631E+04  0.20084048437E+04  0.16044758497E+04 0.  0.
        5    1    3    3  502    0 -0.19569452575E+02  0.79852009095E+03 -0.69723950987E+03  0.10602746452E+04  0.46999998093E+01 0. -1.
       -5    1    3    3    0  502  0.19569452575E+02 -0.79852009095E+03 -0.51079495325E+03  0.94813019854E+03  0.46999998093E+01 0.  1.
</event>
<event>
 5   0  0.5381164E-04  0.1584997E+04  0.7818609E-02  0.8829818E-01
        2   -1    0    0  501    0  0.00000000000E+00  0.00000000000E+00  0.14040729801E+04  0.14040729801E+04  0.25500000920E-02 0.  1.
       -2   -1    0    0    0  501  0.00000000000E+00  0.00000000000E+00 -0.44730841835E+03  0.44730841836E+03  0.25500000920E-02 0. -1.
    10030    2    1    2    0    0  0.00000000000E+00  0.00000000000E+00  0.95676456173E+03  0.18513813984E+04  0.15849967369E+04 0.  0.
        5    1    3    3  502    0 -0.33684723008E+03 -0.63957781084E+02  0.13129368289E+04  0.13569752617E+04  0.46999998093E+01 0.  1.
       -5    1    3    3    0  502  0.33684723008E+03  0.63957781084E+02 -0.35617226716E+03  0.49440613676E+03  0.46999998093E+01 0. -1.
</event>
<event>
 5   0  0.5131239E-04  0.1607382E+04  0.7818609E-02  0.8816026E-01
        2   -1    0    0  501    0  0.00000000000E+00  0.00000000000E+00  0.31144418910E+03  0.31144418911E+03  0.25500000920E-02 0. -1.
       -2   -1    0    0    0  501  0.00000000000E+00  0.00000000000E+00 -0.20739483214E+04  0.20739483214E+04  0.25500000920E-02 0.  1.
    10030    2    1    2    0    0  0.00000000000E+00  0.00000000000E+00 -0.17625041323E+04  0.23853925105E+04  0.16073819126E+04 0.  0.
        1    1    3    3  502    0  0.61948120687E+03 -0.49102377058E+03 -0.66590065153E+03  0.10335787279E+04  0.50400001928E-02 0.  1.
       -1    1    3    3    0  502 -0.61948120687E+03  0.49102377058E+03 -0.10966034808E+04  0.13518137827E+04  0.50400001928E-02 0. -1.
</event>
<event>
 5   0  0.5083831E-04  0.1406790E+04  0.7818609E-02  0.8948918E-01
       -2   -1    0    0    0  501  0.00000000000E+00  0.00000000000E+00  0.53730704722E+03  0.53730704723E+03  0.25500000920E-02 0.  1.
        2   -1    0    0  501    0  0.00000000000E+00  0.00000000000E+00 -0.92082259454E+03  0.92082259454E+03  0.25500000920E-02 0. -1.
    10030    2    1    2    0    0  0.00000000000E+00  0.00000000000E+00 -0.38351554731E+03  0.14581296418E+04  0.14067899193E+04 0.  0.
        4    1    3    3  502    0  0.53235478647E+02  0.12484885069E+03 -0.90712023816E+03  0.91721861685E+03  0.12699999809E+01 0. -1.
       -4    1    3    3    0  502 -0.53235478647E+02 -0.12484885069E+03  0.52360469085E+03  0.54091102492E+03  0.12699999809E+01 0.  1.
</event>
<event>
 5   0  0.2649086E-04  0.1581498E+04  0.7818609E-02  0.8831996E-01
        1   -1    0    0  501    0  0.00000000000E+00  0.00000000000E+00  0.14951545673E+04  0.14951545673E+04  0.50400001928E-02 0. -1.
       -1   -1    0    0    0  501  0.00000000000E+00  0.00000000000E+00 -0.41820694037E+03  0.41820694040E+03  0.50400001928E-02 0.  1.
    10030    2    1    2    0    0  0.00000000000E+00  0.00000000000E+00  0.10769476270E+04  0.19133615077E+04  0.15814980456E+04 0.  0.
        2    1    3    3  502    0  0.17950563051E+03 -0.38130184446E+03 -0.27100909582E+03  0.50105817826E+03  0.25500000920E-02 0.  1.
       -2    1    3    3    0  502 -0.17950563051E+03  0.38130184446E+03  0.13479567228E+04  0.14123033295E+04  0.25500000920E-02 0. -1.
</event>
<event>
 5   0  0.2649086E-04  0.1601636E+04  0.7818609E-02  0.8819544E-01
       -1   -1    0    0    0  501  0.00000000000E+00  0.00000000000E+00  0.78221198867E+03  0.78221198868E+03  0.50400001928E-02 0. -1.
        1   -1    0    0  501    0  0.00000000000E+00  0.00000000000E+00 -0.81986622073E+03  0.81986622075E+03  0.50400001928E-02 0.  1.
    10030    2    1    2    0    0  0.00000000000E+00  0.00000000000E+00 -0.37654232066E+02  0.16020782094E+04  0.16016356477E+04 0.  0.
        2    1    3    3  502    0 -0.62800491406E+03 -0.44459997005E+03 -0.24081158080E+03  0.80625648705E+03  0.25500000920E-02 0.  1.
       -2    1    3    3    0  502  0.62800491406E+03  0.44459997005E+03  0.20315734874E+03  0.79582172238E+03  0.25500000920E-02 0. -1.
</event>
<event>
 5   0  0.5381164E-04  0.1604956E+04  0.7818609E-02  0.8817509E-01
       -2   -1    0    0    0  501  0.00000000000E+00  0.00000000000E+00  0.53918264093E+03  0.53918264094E+03  0.25500000920E-02 0.  1.
        2   -1    0    0  501    0  0.00000000000E+00  0.00000000000E+00 -0.11943462191E+04  0.11943462191E+04  0.25500000920E-02 0. -1.
    10030    2    1    2    0    0  0.00000000000E+00  0.00000000000E+00 -0.65516357817E+03  0.17335288600E+04  0.16049557609E+04 0.  0.
        5    1    3    3  502    0 -0.25322178049E+03  0.10120906639E+03 -0.11427494536E+04  0.11748459256E+04  0.46999998093E+01 0. -1.
       -5    1    3    3    0  502  0.25322178049E+03 -0.10120906639E+03  0.48758587546E+03  0.55868293440E+03  0.46999998093E+01 0.  1.
</event>
<event>
 5   0  0.5264308E-04  0.1579939E+04  0.7818609E-02  0.8832968E-01
        2   -1    0    0  501    0  0.00000000000E+00  0.00000000000E+00  0.87432873000E+03  0.87432873001E+03  0.25500000920E-02 0.  1.
       -2   -1    0    0    0  501  0.00000000000E+00  0.00000000000E+00 -0.71374969608E+03  0.71374969609E+03  0.25500000920E-02 0. -1.
    10030    2    1    2    0    0  0.00000000000E+00  0.00000000000E+00  0.16057903392E+03  0.15880784261E+04  0.15799390689E+04 0.  0.
        3    1    3    3  502    0  0.56405286737E+03  0.35552799396E+03 -0.34556285607E+03  0.75097902059E+03  0.10100000352E+00 0. -1.
       -3    1    3    3    0  502 -0.56405286737E+03 -0.35552799396E+03  0.50614188999E+03  0.83709940550E+03  0.10100000352E+00 0.  1.
</event>
<event>
 5   0  0.2649086E-04  0.1585858E+04  0.7818609E-02  0.8829284E-01
        1   -1    0    0  501    0  0.00000000000E+00  0.00000000000E+00  0.66853875714E+03  0.66853875716E+03  0.50400001928E-02 0.  1.
       -1   -1    0    0    0  501  0.00000000000E+00  0.00000000000E+00 -0.94046310848E+03  0.94046310850E+03  0.50400001928E-02 0. -1.
    10030    2    1    2    0    0  0.00000000000E+00  0.00000000000E+00 -0.27192435134E+03  0.16090018657E+04  0.15858575443E+04 0.  0.
        2    1    3    3  502    0 -0.18350880722E+02  0.13055649332E+03 -0.92926473489E+03  0.93857056223E+03  0.25500000920E-02 0. -1.
       -2    1    3    3    0  502  0.18350880722E+02 -0.13055649332E+03  0.65734038354E+03  0.67043130343E+03  0.25500000920E-02 0.  1.
</event>
<event>
 5   0  0.5083831E-04  0.1598081E+04  0.7818609E-02  0.8821728E-01
       -2   -1    0    0    0  501  0.00000000000E+00  0.00000000000E+00  0.82307936238E+03  0.82307936238E+03  0.25500000920E-02 0.  1.
        2   -1    0    0  501    0  0.00000000000E+00  0.00000000000E+00 -0.77570335341E+03  0.77570335342E+03  0.25500000920E-02 0. -1.
    10030    2    1    2    0    0  0.00000000000E+00  0.00000000000E+00  0.47376008965E+02  0.15987827158E+04  0.15980806257E+04 0.  0.
        4    1    3    3  502    0  0.13957647006E+03 -0.68924379613E+03  0.40322943463E+03  0.81063813835E+03  0.12699999809E+01 0.  1.
       -4    1    3    3    0  502 -0.13957647006E+03  0.68924379613E+03 -0.35585342567E+03  0.78814457745E+03  0.12699999809E+01 0. -1.
</event>
<event>
 5   0  0.2763895E-04  0.1623417E+04  0.7818609E-02  0.8806290E-01
       -1   -1    0    0    0  501  0.00000000000E+00  0.00000000000E+00  0.18683022544E+04  0.18683022544E+04  0.50400001928E-02 0. -1.
        1   -1    0    0  501    0  0.00000000000E+00  0.00000000000E+00 -0.35265739186E+03  0.35265739190E+03  0.50400001928E-02 0.  1.
    10030    2    1    2    0    0  0.00000000000E+00  0.00000000000E+00  0.15156448626E+04  0.22209596463E+04  0.16234168908E+04 0.  0.
        4    1    3    3  502    0 -0.39460548553E+03  0.54114946977E+03  0.13852208331E+04  0.15386340069E+04  0.12699999809E+01 0. -1.
       -4    1    3    3    0  502  0.39460548553E+03 -0.54114946977E+03  0.13042402944E+03  0.68232563941E+03  0.12699999809E+01 0.  1.
</event>
<event>
 5   0  0.2796994E-04  0.1600107E+04  0.7818609E-02  0.8820483E-01
       -1   -1    0    0    0  501  0.00000000000E+00  0.00000000000E+00  0.28828739295E+03  0.28828739300E+03  0.50400001928E-02 0.  1.
        1   -1    0    0  501    0  0.00000000000E+00  0.00000000000E+00 -0.22203025236E+04  0.22203025236E+04  0.50400001928E-02 0. -1.
    10030    2    1    2    0    0  0.00000000000E+00  0.00000000000E+00 -0.19320151307E+04  0.25085899166E+04  0.16001065292E+04 0.  0.
        3    1    3    3  502    0  0.38149122236E+03  0.18304495825E+03  0.98508106329E+02  0.43444777211E+03  0.10100000352E+00 0.  1.
       -3    1    3    3    0  502 -0.38149122236E+03 -0.18304495825E+03 -0.20305232370E+04  0.20741421445E+04  0.10100000352E+00 0. -1.
</event>
<event>
 5   0  0.5131239E-04  0.1599924E+04  0.7818609E-02  0.8820595E-01
        2   -1    0    0  501    0  0.00000000000E+00  0.00000000000E+00  0.71077703060E+03  0.71077703060E+03  0.25500000920E-02 0. -1.
       -2   -1    0    0    0  501  0.00000000000E+00  0.00000000000E+00 -0.90033696752E+03  0.90033696753E+03  0.25500000920E-02 0.  1.
    10030    2    1    2    0    0  0.00000000000E+00  0.00000000000E+00 -0.18955993693E+03  0.16111139981E+04  0.15999235436E+04 0.  0.
        1    1    3    3  502    0 -0.51417798717E+03  0.27988423535E+03 -0.64377631319E+03  0.87015063589E+03  0.50400001928E-02 0.  1.
       -1    1    3    3    0  502  0.51417798717E+03 -0.27988423535E+03  0.45421637626E+03  0.74096336224E+03  0.50400001928E-02 0. -1.
</event>
<event>
 5   0  0.2649086E-04  0.1599631E+04  0.7818609E-02  0.8820775E-01
        1   -1    0    0  501    0  0.00000000000E+00  0.00000000000E+00  0.73437319125E+03  0.73437319126E+03  0.50400001928E-02 0. -1.
       -1   -1    0    0    0  501  0.00000000000E+00  0.00000000000E+00 -0.87108951073E+03  0.87108951074E+03  0.50400001928E-02 0.  1.
    10030    2    1    2    0    0  0.00000000000E+00  0.00000000000E+00 -0.13671631948E+03  0.16054627020E+04  0.15996309373E+04 0.  0.
        2    1    3    3  502    0  0.11738552508E+03 -0.52939556802E+03  0.52171872700E+03  0.75248219849E+03  0.25500000920E-02 0. -1.
       -2    1    3    3    0  502 -0.11738552508E+03  0.52939556802E+03 -0.65843504648E+03  0.85298050352E+03  0.25500000920E-02 0.  1.
</event>
<event>
 5   0  0.5131239E-04  0.1641282E+04  0.7818609E-02  0.8795581E-01
       -2   -1    0    0    0  501  0.00000000000E+00  0.00000000000E+00  0.34176630932E+03  0.34176630933E+03  0.25500000920E-02 0. -1.
        2   -1    0    0  501    0  0.00000000000E+00  0.00000000000E+00 -0.19705033748E+04  0.19705033748E+04  0.25500000920E-02 0.  1.
    10030    2    1    2    0    0  0.00000000000E+00  0.00000000000E+00 -0.16287370655E+04  0.23122696842E+04  0.16412820183E+04 0.  0.
        1    1    3    3  502    0 -0.14592987625E+03 -0.60094163012E+03 -0.54356195295E+02  0.62079059882E+03  0.50400001928E-02 0. -1.
       -1    1    3    3    0  502  0.14592987625E+03  0.60094163012E+03 -0.15743808702E+04  0.16914790853E+04  0.50400001928E-02 0.  1.
</event>
<event>
 5   0  0.5264308E-04  0.1570505E+04  0.7818609E-02  0.8838876E-01
       -2   -1    0    0    0  501  0.00000000000E+00  0.00000000000E+00  0.63593823017E+03  0.63593823018E+03  0.25500000920E-02 0.  1.
        2   -1    0    0  501    0  0.00000000000E+00  0.00000000000E+00 -0.96962502250E+03  0.96962502250E+03  0.25500000920E-02 0. -1.
    10030    2    1    2    0    0  0.00000000000E+00  0.00000000000E+00 -0.33368679233E+03  0.16055632527E+04  0.15705051681E+04 0.  0.
        3    1    3    3  502    0  0.44380825833E+03 -0.63449358883E+03 -0.33260084761E+02  0.77501879195E+03  0.10100000352E+00 0. -1.
       -3    1    3    3    0  502 -0.44380825833E+03  0.63449358883E+03 -0.30042670757E+03  0.83054446073E+03  0.10100000352E+00 0.  1.
</event>
<event>
 5   0  0.2689675E-04  0.1627838E+04  0.7818609E-02  0.8803627E-01
       -1   -1    0    0    0  501  0.00000000000E+00  0.00000000000E+00  0.56934115295E+03  0.56934115297E+03  0.50400001928E-02 0.  1.
        1   -1    0    0  501    0  0.00000000000E+00  0.00000000000E+00 -0.11635620760E+04  0.11635620760E+04  0.50400001928E-02 0. -1.
    10030    2    1    2    0    0  0.00000000000E+00  0.00000000000E+00 -0.59422092302E+03  0.17329032290E+04  0.16278375520E+04 0.  0.
        1    1    3    3  502    0  0.16594209747E+02 -0.72281518801E+03 -0.69503691330E+03  0.10029025250E+04  0.50400001928E-02 0. -1.
       -1    1    3    3    0  502 -0.16594209747E+02  0.72281518801E+03  0.10081599028E+03  0.73000070393E+03  0.50400001928E-02 0.  1.
</event>
<event>
 5   0  0.2689675E-04  0.1588201E+04  0.7818609E-02  0.8827830E-01
       -1   -1    0    0    0  501  0.00000000000E+00  0.00000000000E+00  0.34254009626E+03  0.34254009630E+03  0.50400001928E-02 0.  1.
        1   -1    0    0  501    0  0.00000000000E+00  0.00000000000E+00 -0.18409386381E+04  0.18409386381E+04  0.50400001928E-02 0. -1.
    10030    2    1    2    0    0  0.00000000000E+00  0.00000000000E+00 -0.14983985419E+04  0.21834787344E+04  0.15882006150E+04 0.  0.
        1    1    3    3  502    0  0.69497390310E+03 -0.26069451633E+03 -0.36120732942E+03  0.82548233881E+03  0.50400001928E-02 0.  1.
       -1    1    3    3    0  502 -0.69497390310E+03  0.26069451633E+03 -0.11371912125E+04  0.13579963956E+04  0.50400001928E-02 0. -1.
</event>
<event>
 5   0  0.5131239E-04  0.1604407E+04  0.7818609E-02  0.8817845E-01
        2   -1    0    0  501    0  0.00000000000E+00  0.00000000000E+00  0.71097160951E+03  0.71097160951E+03  0.25500000920E-02 0. -1.
       -2   -1    0    0    0  501  0.00000000000E+00  0.00000000000E+00 -0.90514274890E+03  0.90514274890E+03  0.25500000920E-02 0.  1.
    10030    2    1    2    0    0  0.00000000000E+00  0.00000000000E+00 -0.19417113939E+03  0.16161143584E+04  0.16044074258E+04 0.  0.
        1    1    3    3  502    0  0.58349828001E+03 -0.26960469127E+03 -0.58056057779E+03  0.86614520540E+03  0.50400001928E-02 0.  1.
       -1    1    3    3    0  502 -0.58349828001E+03  0.26960469127E+03  0.38638943840E+03  0.74996915301E+03  0.50400001928E-02 0. -1.
</event>
<event>
 5   0  0.2649086E-04  0.1623134E+04  0.7818609E-02  0.8806460E-01
       -1   -1    0    0    0  501  0.00000000000E+00  0.00000000000E+00  0.93578717449E+03  0.93578717450E+03  0.50400001928E-02 0. -1.
        1   -1    0    0  501    0  0.00000000000E+00  0.00000000000E+00 -0.70383663473E+03  0.70383663475E+03  0.50400001928E-02 0.  1.
    10030    2    1    2    0    0  0.00000000000E+00  0.00000000000E+00  0.23195053975E+03  0.16396238093E+04  0.16231343700E+04 0.  0.
        2    1    3    3  502    0  0.68032898346E+03 -0.27802535109E+03 -0.23175379301E+03  0.77062016725E+03  0.25500000920E-02 0.  1.
       -2    1    3    3    0  502 -0.68032898346E+03  0.27802535109E+03  0.46370433277E+03  0.86900364201E+03  0.25500000920E-02 0. -1.
</event>
<event>
 5   0  0.2689675E-04  0.1604454E+04  0.7818609E-02  0.8817817E-01
        1   -1    0    0  501    0  0.00000000000E+00  0.00000000000E+00  0.45183327016E+03  0.45183327019E+03  0.50400001928E-02 0.  1.
       -1   -1    0    0    0  501  0.00000000000E+00  0.00000000000E+00 -0.14243481549E+04  0.14243481549E+04  0.50400001928E-02 0. -1.
    10030    2    1    2    0    0  0.00000000000E+00  0.00000000000E+00 -0.97251488472E+03  0.18761814251E+04  0.16044536574E+04 0.  0.
        1    1    3    3  502    0  0.11210009727E+03 -0.42093091511E+03 -0.12740081621E+04  0.13464197207E+04  0.50400001928E-02 0. -1.
       -1    1    3    3    0  502 -0.11210009727E+03  0.42093091511E+03  0.30149327739E+03  0.52976170439E+03  0.50400001928E-02 0.  1.
</event>
<event>
 5   0  0.5264308E-04  0.1590263E+04  0.7818609E-02  0.8826553E-01
       -2   -1    0    0    0  501  0.00000000000E+00  0.00000000000E+00  0.10595957393E+04  0.10595957393E+04  0.25500000920E-02 0.  1.
        2   -1    0    0  501    0  0.00000000000E+00  0.00000000000E+00 -0.59667445941E+03  0.59667445941E+03  0.25500000920E-02 0. -1.
    10030    2    1    2    0    0  0.00000000000E+00  0.00000000000E+00  0.46292127986E+03  0.16562701987E+04  0.15902625128E+04 0.  0.
        3    1    3    3  502    0 -0.71201520327E+03  0.11453473247E+03 -0.11732750481E+03  0.73065012709E+03  0.10100000352E+00 0.  1.
       -3    1    3    3    0  502  0.71201520327E+03 -0.11453473247E+03  0.58024878468E+03  0.92562007160E+03  0.10100000352E+00 0. -1.
</event>
<event>
 5   0  0.2763895E-04  0.1591560E+04  0.7818609E-02  0.8825750E-01
        1   -1    0    0  501    0  0.00000000000E+00  0.00000000000E+00  0.17757464289E+04  0.17757464289E+04  0.50400001928E-02 0. -1.
       -1   -1    0    0    0  501  0.00000000000E+00  0.00000000000E+00 -0.35661928150E+03  0.35661928154E+03  0.50400001928E-02 0.  1.
    10030    2    1    2    0    0  0.00000000000E+00  0.00000000000E+00  0.14191271474E+04  0.21323657105E+04  0.15915595065E+04 0.  0.
        4    1    3    3  502    0  0.23091724937E+03  0.58940861113E+03  0.63483633068E+02  0.63620521178E+03  0.12699999809E+01 0.  1.
       -4    1    3    3    0  502 -0.23091724937E+03 -0.58940861113E+03  0.13556435144E+04  0.14961604987E+04  0.12699999809E+01 0. -1.
</event>
<event>
 5   0  0.2689675E-04  0.1557137E+04  0.7818609E-02  0.8847322E-01
        1   -1    0    0  501    0  0.00000000000E+00  0.00000000000E+00  0.69705877588E+03  0.69705877590E+03  0.50400001928E-02 0.  1.
       -1   -1    0    0    0  501  0.00000000000E+00  0.00000000000E+00 -0.86960960779E+03  0.86960960781E+03  0.50400001928E-02 0. -1.
    10030    2    1    2    0    0  0.00000000000E+00  0.00000000000E+00 -0.17255083191E+03  0.15666683837E+04  0.15571371278E+04 0.  0.
        1    1    3    3  502    0 -0.11536221268E+03  0.39529766527E+03  0.57852647525E+03  0.71011377037E+03  0.50400001928E-02 0.  1.
       -1    1    3    3    0  502  0.11536221268E+03 -0.39529766527E+03 -0.75107730716E+03  0.85655461334E+03  0.50400001928E-02 0. -1.
</event>
<event>
 5   0  0.2689675E-04  0.1609267E+04  0.7818609E-02  0.8814875E-01
        1   -1    0    0  501    0  0.00000000000E+00  0.00000000000E+00  0.92401062645E+03  0.92401062646E+03  0.50400001928E-02 0.  1.
       -1   -1    0    0    0  501  0.00000000000E+00  0.00000000000E+00 -0.70067912644E+03  0.70067912646E+03  0.50400001928E-02 0. -1.
    10030    2    1    2    0    0  0.00000000000E+00  0.00000000000E+00  0.22333150001E+03  0.16246897529E+04  0.16092668624E+04 0.  0.
        1    1    3    3  502    0 -0.12999745298E+03 -0.19109674550E+03  0.88977763566E+03  0.91930492485E+03  0.50400001928E-02 0.  1.
       -1    1    3    3    0  502  0.12999745298E+03  0.19109674550E+03 -0.66644613565E+03  0.70538482807E+03  0.50400001928E-02 0. -1.
</event>
<event>
 5   0  0.5315984E-04  0.1582021E+04  0.7818609E-02  0.8831670E-01
        2   -1    0    0  501    0  0.00000000000E+00  0.00000000000E+00  0.11333349890E+04  0.11333349890E+04  0.25500000920E-02 0. -1.
       -2   -1    0    0    0  501  0.00000000000E+00  0.00000000000E+00 -0.55208564500E+03  0.55208564500E+03  0.25500000920E-02 0.  1.
    10030    2    1    2    0    0  0.00000000000E+00  0.00000000000E+00  0.58124934397E+03  0.16854206340E+04  0.15820214643E+04 0.  0.
        2    1    3    3  502    0  0.13498863712E+03  0.36911421124E+03  0.10219535858E+04  0.10949229948E+04  0.25500000920E-02 0. -1.
       -2    1    3    3    0  502 -0.13498863712E+03 -0.36911421124E+03 -0.44070424181E+03  0.59049763915E+03  0.25500000920E-02 0.  1.
</event>
<event>
 5   0  0.5083831E-04  0.1603783E+04  0.7818609E-02  0.8818228E-01
       -2   -1    0    0    0  501  0.00000000000E+00  0.00000000000E+00  0.66435710087E+03  0.66435710088E+03  0.25500000920E-02 0.  1.
        2   -1    0    0  501    0  0.00000000000E+00  0.00000000000E+00 -0.96789754950E+03  0.96789754950E+03  0.25500000920E-02 0. -1.
    10030    2    1    2    0    0  0.00000000000E+00  0.00000000000E+00 -0.30354044862E+03  0.16322546504E+04  0.16037825413E+04 0.  0.
        4    1    3    3  502    0 -0.24706366088E+03 -0.10513065454E+03  0.61724652880E+03  0.67311796682E+03  0.12699999809E+01 0.  1.
       -4    1    3    3    0  502  0.24706366088E+03  0.10513065454E+03 -0.92078697742E+03  0.95913668355E+03  0.12699999809E+01 0. -1.
</event>
<event>
 5   0  0.5264308E-04  0.1633395E+04  0.7818609E-02  0.8800291E-01
       -2   -1    0    0    0  501  0.00000000000E+00  0.00000000000E+00  0.63713061863E+03  0.63713061863E+03  0.25500000920E-02 0. -1.
        2   -1    0    0  501    0  0.00000000000E+00  0.00000000000E+00 -0.10468725881E+04  0.10468725881E+04  0.25500000920E-02 0.  1.
    10030    2    1    2    0    0  0.00000000000E+00  0.00000000000E+00 -0.40974196950E+03  0.16840032068E+04  0.16333947223E+04 0.  0.
        3    1    3    3  502    0  0.53227332990E+03  0.61140782399E+03 -0.30724586506E+03  0.86691087013E+03  0.10100000352E+00 0. -1.
       -3    1    3    3    0  502 -0.53227332990E+03 -0.61140782399E+03 -0.10249610444E+03  0.81709233663E+03  0.10100000352E+00 0.  1.
</event>
<event>
 5   0  0.2796994E-04  0.1580299E+04  0.7818609E-02  0.8832743E-01
        1   -1    0    0  501    0  0.00000000000E+00  0.00000000000E+00  0.84075130528E+03  0.84075130529E+03  0.50400001928E-02 0. -1.
       -1   -1    0    0    0  501  0.00000000000E+00  0.00000000000E+00 -0.74259308076E+03  0.74259308078E+03  0.50400001928E-02 0.  1.
    10030    2    1    2    0    0  0.00000000000E+00  0.00000000000E+00  0.98158224512E+02  0.15833443861E+04  0.15802988350E+04 0.  0.
        3    1    3    3  502    0  0.67698244374E+03  0.38731954996E+03  0.17587112433E+03  0.79953256687E+03  0.10100000352E+00 0. -1.
       -3    1    3    3    0  502 -0.67698244374E+03 -0.38731954996E+03 -0.77712899816E+02  0.78381181920E+03  0.10100000352E+00 0.  1.
</event>
<event>
 5   0  0.5381164E-04  0.1603281E+04  0.7818609E-02  0.8818535E-01
       -2   -1    0    0    0  501  0.00000000000E+00  0.00000000000E+00  0.11312383471E+04  0.11312383471E+04  0.25500000920E-02 0. -1.
        2   -1    0    0  501    0  0.00000000000E+00  0.00000000000E+00 -0.56807413317E+03  0.56807413317E+03  0.25500000920E-02 0.  1.
    10030    2    1    2    0    0  0.00000000000E+00  0.00000000000E+00  0.56316421397E+03  0.16993124803E+04  0.16032806909E+04 0.  0.
        5    1    3    3  502    0 -0.45189384804E+03  0.17620187659E+03 -0.39488634324E+03  0.62546979566E+03  0.46999998093E+01 0.  1.
       -5    1    3    3    0  502  0.45189384804E+03 -0.17620187659E+03  0.95805055721E+03  0.10738426847E+04  0.46999998093E+01 0. -1.
</event>
<event>
 5   0  0.5315984E-04  0.1611015E+04  0.7818609E-02  0.8813809E-01
        2   -1    0    0  501    0  0.00000000000E+00  0.00000000000E+00  0.15460960636E+04  0.15460960636E+04  0.25500000920E-02 0. -1.
       -2   -1    0    0    0  501  0.00000000000E+00  0.00000000000E+00 -0.41966515795E+03  0.41966515796E+03  0.25500000920E-02 0.  1.
    10030    2    1    2    0    0  0.00000000000E+00  0.00000000000E+00  0.11264309057E+04  0.19657612216E+04  0.16110153925E+04 0.  0.
        2    1    3    3  502    0  0.11165991843E+03  0.72895149486E+03  0.95861383087E+03  0.12094538834E+04  0.25500000920E-02 0.  1.
       -2    1    3    3    0  502 -0.11165991843E+03 -0.72895149486E+03  0.16781707481E+03  0.75630733822E+03  0.25500000920E-02 0. -1.
</event>
<event>
 5   0  0.2796994E-04  0.1793751E+04  0.7818609E-02  0.8709630E-01
        1   -1    0    0  501    0  0.00000000000E+00  0.00000000000E+00  0.13373263011E+04  0.13373263011E+04  0.50400001928E-02 0. -1.
       -1   -1    0    0    0  501  0.00000000000E+00  0.00000000000E+00 -0.60148770296E+03  0.60148770298E+03  0.50400001928E-02 0.  1.
    10030    2    1    2    0    0  0.00000000000E+00  0.00000000000E+00  0.73583859815E+03  0.19388140041E+04  0.17937506237E+04 0.  0.
        3    1    3    3  502    0 -0.70001268337E+03  0.55543229947E+03  0.28516011505E+03  0.93799738677E+03  0.10100000352E+00 0. -1.
       -3    1    3    3    0  502  0.70001268337E+03 -0.55543229947E+03  0.45067848310E+03  0.10008166173E+04  0.10100000352E+00 0.  1.
</event>
<event>
 5   0  0.5381164E-04  0.1685814E+04  0.7818609E-02  0.8769497E-01
        2   -1    0    0  501    0  0.00000000000E+00  0.00000000000E+00  0.59759140421E+03  0.59759140422E+03  0.25500000920E-02 0. -1.
       -2   -1    0    0    0  501  0.00000000000E+00  0.00000000000E+00 -0.11889267097E+04  0.11889267097E+04  0.25500000920E-02 0.  1.
    10030    2    1    2    0    0  0.00000000000E+00  0.00000000000E+00 -0.59133530545E+03  0.17865181139E+04  0.16858142032E+04 0.  0.
        5    1    3    3  502    0  0.58103519168E+03 -0.59570375586E+02  0.34835181064E+03  0.68008940412E+03  0.46999998093E+01 0. -1.
       -5    1    3    3    0  502 -0.58103519168E+03  0.59570375586E+02 -0.93968711610E+03  0.11064287098E+04  0.46999998093E+01 0.  1.
</event>
<event>
 5   0  0.1908125E-04  0.1569047E+04  0.7818609E-02  0.8839793E-01
        3   -1    0    0  501    0  0.00000000000E+00  0.00000000000E+00  0.62953002308E+03  0.62953003118E+03  0.10100000352E+00 0.  1.
       -3   -1    0    0    0  501  0.00000000000E+00  0.00000000000E+00 -0.97767681783E+03  0.97767682304E+03  0.10100000352E+00 0. -1.
    10030    2    1    2    0    0  0.00000000000E+00  0.00000000000E+00 -0.34814679475E+03  0.16072068542E+04  0.15690467429E+04 0.  0.
        4    1    3    3  502    0  0.53896284651E+03 -0.47442245806E+03  0.14971187020E+03  0.73346634252E+03  0.12699999809E+01 0.  1.
       -4    1    3    3    0  502 -0.53896284651E+03  0.47442245806E+03 -0.49785866495E+03  0.87374051170E+03  0.12699999809E+01 0. -1.
</event>
<event>
 5   0  0.5381164E-04  0.1633245E+04  0.7818609E-02  0.8800381E-01
        2   -1    0    0  501    0  0.00000000000E+00  0.00000000000E+00  0.59049451304E+03  0.59049451305E+03  0.25500000920E-02 0.  1.
       -2   -1    0    0    0  501  0.00000000000E+00  0.00000000000E+00 -0.11293450673E+04  0.11293450673E+04  0.25500000920E-02 0. -1.
    10030    2    1    2    0    0  0.00000000000E+00  0.00000000000E+00 -0.53885055421E+03  0.17198395803E+04  0.16332447037E+04 0.  0.
        5    1    3    3  502    0 -0.29682710423E+01  0.53861401116E+03  0.37690619941E+03  0.65741481334E+03  0.46999998093E+01 0.  1.
       -5    1    3    3    0  502  0.29682710423E+01 -0.53861401116E+03 -0.91575675362E+03  0.10624247670E+04  0.46999998093E+01 0. -1.
</event>
<event>
 5   0  0.5131239E-04  0.1628961E+04  0.7818609E-02  0.8802951E-01
       -2   -1    0    0    0  501  0.00000000000E+00  0.00000000000E+00  0.45335829525E+03  0.45335829526E+03  0.25500000920E-02 0.  1.
        2   -1    0    0  501    0  0.00000000000E+00  0.00000000000E+00 -0.14632542896E+04  0.14632542896E+04  0.25500000920E-02 0. -1.
    10030    2    1    2    0    0  0.00000000000E+00  0.00000000000E+00 -0.10098959944E+04  0.19166125849E+04  0.16289609821E+04 0.  0.
        1    1    3    3  502    0  0.34788904485E+03  0.71351818267E+00 -0.13714387768E+04  0.14148751235E+04  0.50400001928E-02 0. -1.
       -1    1    3    3    0  502 -0.34788904485E+03 -0.71351818267E+00  0.36154278239E+03  0.50173746139E+03  0.50400001928E-02 0.  1.
</event>
<event>
 5   0  0.5083831E-04  0.1474291E+04  0.7818609E-02  0.8901731E-01
       -2   -1    0    0    0  501  0.00000000000E+00  0.00000000000E+00  0.67389349634E+03  0.67389349634E+03  0.25500000920E-02 0.  1.
        2   -1    0    0  501    0  0.00000000000E+00  0.00000000000E+00 -0.80633473939E+03  0.80633473939E+03  0.25500000920E-02 0. -1.
    10030    2    1    2    0    0  0.00000000000E+00  0.00000000000E+00 -0.13244124305E+03  0.14802282357E+04  0.14742913372E+04 0.  0.
        4    1    3    3  502    0 -0.70379124062E+03  0.43405732286E+02  0.14953062710E+03  0.72081009240E+03  0.12699999809E+01 0. -1.
       -4    1    3    3    0  502  0.70379124062E+03 -0.43405732286E+02 -0.28197187015E+03  0.75941814333E+03  0.12699999809E+01 0.  1.
</event>
<event>
 5   0  0.2796994E-04  0.1606666E+04  0.7818609E-02  0.8816463E-01
        1   -1    0    0  501    0  0.00000000000E+00  0.00000000000E+00  0.11645298944E+04  0.11645298944E+04  0.50400001928E-02 0.  1.
       -1   -1    0    0    0  501  0.00000000000E+00  0.00000000000E+00 -0.55416671368E+03  0.55416671370E+03  0.50400001928E-02 0. -1.
    10030    2    1    2    0    0  0.00000000000E+00  0.00000000000E+00  0.61036318072E+03  0.17186966081E+04  0.16066657457E+04 0.  0.
        3    1    3    3  502    0 -0.22146068201E+03  0.58776094768E+03 -0.23057627705E+03  0.66908384754E+03  0.10100000352E+00 0. -1.
       -3    1    3    3    0  502  0.22146068201E+03 -0.58776094768E+03  0.84093945776E+03  0.10496127606E+04  0.10100000352E+00 0.  1.
</event>
<event>
 5   0  0.2763895E-04  0.1596610E+04  0.7818609E-02  0.8822633E-01
       -1   -1    0    0    0  501  0.00000000000E+00  0.00000000000E+00  0.79388476226E+03  0.79388476228E+03  0.50400001928E-02 0. -1.
        1   -1    0    0  501    0  0.00000000000E+00  0.00000000000E+00 -0.80274970710E+03  0.80274970711E+03  0.50400001928E-02 0.  1.
    10030    2    1    2    0    0  0.00000000000E+00  0.00000000000E+00 -0.88649448337E+01  0.15966344694E+04  0.15966098589E+04 0.  0.
        4    1    3    3  502    0  0.19125144819E+02 -0.74345379768E+03  0.28574406491E+03  0.79670609636E+03  0.12699999809E+01 0. -1.
       -4    1    3    3    0  502 -0.19125144819E+02  0.74345379768E+03 -0.29460900975E+03  0.79992837303E+03  0.12699999809E+01 0.  1.
</event>
<event>
 5   0  0.5131239E-04  0.1606208E+04  0.7818609E-02  0.8816743E-01
       -2   -1    0    0    0  501  0.00000000000E+00  0.00000000000E+00  0.64984969798E+03  0.64984969799E+03  0.25500000920E-02 0. -1.
        2   -1    0    0  501    0  0.00000000000E+00  0.00000000000E+00 -0.99249989073E+03  0.99249989073E+03  0.25500000920E-02 0.  1.
    10030    2    1    2    0    0  0.00000000000E+00  0.00000000000E+00 -0.34265019275E+03  0.16423495887E+04  0.16062076506E+04 0.  0.
        1    1    3    3  502    0  0.35466818555E+03  0.48134333763E+03 -0.71957546293E+03  0.93555853766E+03  0.50400001928E-02 0.  1.
       -1    1    3    3    0  502 -0.35466818555E+03 -0.48134333763E+03  0.37692527018E+03  0.70679105105E+03  0.50400001928E-02 0. -1.
</event>
<event>
 5   0  0.2689675E-04  0.1589284E+04  0.7818609E-02  0.8827159E-01
       -1   -1    0    0    0  501  0.00000000000E+00  0.00000000000E+00  0.80735784759E+03  0.80735784761E+03  0.50400001928E-02 0. -1.
        1   -1    0    0  501    0  0.00000000000E+00  0.00000000000E+00 -0.78212598837E+03  0.78212598839E+03  0.50400001928E-02 0.  1.
    10030    2    1    2    0    0  0.00000000000E+00  0.00000000000E+00  0.25231859223E+02  0.15894838360E+04  0.15892835550E+04 0.  0.
        1    1    3    3  502    0 -0.25040061009E+03 -0.54077590959E+03  0.53834033612E+03  0.80308739715E+03  0.50400001928E-02 0. -1.
       -1    1    3    3    0  502  0.25040061009E+03  0.54077590959E+03 -0.51310847690E+03  0.78639643884E+03  0.50400001928E-02 0.  1.
</event>
<event>
 5   0  0.5083831E-04  0.1538520E+04  0.7818609E-02  0.8859234E-01
       -2   -1    0    0    0  501  0.00000000000E+00  0.00000000000E+00  0.32212890149E+03  0.32212890150E+03  0.25500000920E-02 0.  1.
        2   -1    0    0  501    0  0.00000000000E+00  0.00000000000E+00 -0.18370325908E+04  0.18370325908E+04  0.25500000920E-02 0. -1.
    10030    2    1    2    0    0  0.00000000000E+00  0.00000000000E+00 -0.15149036894E+04  0.21591614924E+04  0.15385204458E+04 0.  0.
        4    1    3    3  502    0 -0.19356348220E+03  0.24584359556E+02  0.28682246060E+03  0.34690048887E+03  0.12699999809E+01 0.  1.
       -4    1    3    3    0  502  0.19356348220E+03 -0.24584359556E+02 -0.18017261500E+04  0.18122610035E+04  0.12699999809E+01 0. -1.
</event>
<event>
 5   0  0.5381164E-04  0.1593588E+04  0.7818609E-02  0.8824497E-01
       -2   -1    0    0    0  501  0.00000000000E+00  0.00000000000E+00  0.67896207619E+03  0.67896207619E+03  0.25500000920E-02 0. -1.
        2   -1    0    0  501    0  0.00000000000E+00  0.00000000000E+00 -0.93507485688E+03  0.93507485688E+03  0.25500000920E-02 0.  1.
    10030    2    1    2    0    0  0.00000000000E+00  0.00000000000E+00 -0.25611278069E+03  0.16140369331E+04  0.15935876082E+04 0.  0.
        5    1    3    3  502    0 -0.30170400574E+03  0.72720239460E+03 -0.25214238187E+03  0.82670823180E+03  0.46999998093E+01 0.  1.
       -5    1    3    3    0  502  0.30170400574E+03 -0.72720239460E+03 -0.39703988198E+01  0.78732870128E+03  0.46999998093E+01 0. -1.
</event>
<event>
 5   0  0.5381164E-04  0.1615346E+04  0.7818609E-02  0.8811175E-01
        2   -1    0    0  501    0  0.00000000000E+00  0.00000000000E+00  0.14245375691E+04  0.14245375691E+04  0.25500000920E-02 0.  1.
       -2   -1    0    0    0  501  0.00000000000E+00  0.00000000000E+00 -0.45792828756E+03  0.45792828756E+03  0.25500000920E-02 0. -1.
    10030    2    1    2    0    0  0.00000000000E+00  0.00000000000E+00  0.96660928157E+03  0.18824658567E+04  0.16153464639E+04 0.  0.
        5    1    3    3  502    0  0.63105713221E+03  0.50227576447E+03  0.53274561818E+03  0.96661990016E+03  0.46999998093E+01 0.  1.
       -5    1    3    3    0  502 -0.63105713221E+03 -0.50227576447E+03  0.43386366339E+03  0.91584595654E+03  0.46999998093E+01 0. -1.
</event>
<event>
 5   0  0.2763895E-04  0.1625810E+04  0.7818609E-02  0.8804847E-01
        1   -1    0    0  501    0  0.00000000000E+00  0.00000000000E+00  0.87367324571E+03  0.87367324573E+03  0.50400001928E-02 0. -1.
       -1   -1    0    0    0  501  0.00000000000E+00  0.00000000000E+00 -0.75636334809E+03  0.75636334811E+03  0.50400001928E-02 0.  1.
    10030    2    1    2    0    0  0.00000000000E+00  0.00000000000E+00  0.11730989762E+03  0.16300365938E+04  0.16258098552E+04 0.  0.
        4    1    3    3  502    0 -0.13417367942E+03 -0.96004016874E+02 -0.73940027686E+03  0.75758414043E+03  0.12699999809E+01 0.  1.
       -4    1    3    3    0  502  0.13417367942E+03  0.96004016874E+02  0.85671017448E+03  0.87245245341E+03  0.12699999809E+01 0. -1.
</event>
<event>
 5   0  0.2763895E-04  0.1597382E+04  0.7818609E-02  0.8822158E-01
       -1   -1    0    0    0  501  0.00000000000E+00  0.00000000000E+00  0.10715109601E+04  0.10715109601E+04  0.50400001928E-02 0.  1.
        1   -1    0    0  501    0  0.00000000000E+00  0.00000000000E+00 -0.59533446607E+03  0.59533446609E+03  0.50400001928E-02 0. -1.
    10030    2    1    2    0    0  0.00000000000E+00  0.00000000000E+00  0.47617649406E+03  0.16668454262E+04  0.15973821150E+04 0.  0.
        4    1    3    3  502    0  0.76191368083E+03  0.23903734598E+03  0.25473446565E+03  0.83817812588E+03  0.12699999809E+01 0. -1.
       -4    1    3    3    0  502 -0.76191368083E+03 -0.23903734598E+03  0.22144202842E+03  0.82866730035E+03  0.12699999809E+01 0.  1.
</event>
<event>
 5   0  0.2689675E-04  0.1597224E+04  0.7818609E-02  0.8822255E-01
        1   -1    0    0  501    0  0.00000000000E+00  0.00000000000E+00  0.11014752460E+04  0.11014752460E+04  0.50400001928E-02 0. -1.
       -1   -1    0    0    0  501  0.00000000000E+00  0.00000000000E+00 -0.57902425133E+03  0.57902425135E+03  0.50400001928E-02 0.  1.
    10030    2    1    2    0    0  0.00000000000E+00  0.00000000000E+00  0.52245099467E+03  0.16804994974E+04  0.15972236909E+04 0.  0.
        1    1    3    3  502    0  0.17120181062E+03 -0.59277899511E+02 -0.55711657394E+03  0.58583513578E+03  0.50400001928E-02 0.  1.
       -1    1    3    3    0  502 -0.17120181062E+03  0.59277899511E+02  0.10795675686E+04  0.10946643616E+04  0.50400001928E-02 0. -1.
</event>
<event>
 5   0  0.5381164E-04  0.1571265E+04  0.7818609E-02  0.8838398E-01
       -2   -1    0    0    0  501  0.00000000000E+00  0.00000000000E+00  0.25441437890E+03  0.25441437891E+03  0.25500000920E-02 0. -1.
        2   -1    0    0  501    0  0.00000000000E+00  0.00000000000E+00 -0.24260348499E+04  0.24260348499E+04  0.25500000920E-02 0.  1.
    10030    2    1    2    0    0  0.00000000000E+00  0.00000000000E+00 -0.21716204710E+04  0.26804492288E+04  0.15712646493E+04 0.  0.
        5    1    3    3  502    0  0.75897255245E+03  0.71713771393E+02 -0.14095477862E+04  0.16025071769E+04  0.46999998093E+01 0.  1.
       -5    1    3    3    0  502 -0.75897255245E+03 -0.71713771393E+02 -0.76207268475E+03  0.10779420519E+04  0.46999998093E+01 0. -1.
</event>
<event>
 5   0  0.5131239E-04  0.1592930E+04  0.7818609E-02  0.8824903E-01
        2   -1    0    0  501    0  0.00000000000E+00  0.00000000000E+00  0.99704248169E+03  0.99704248169E+03  0.25500000920E-02 0.  1.
       -2   -1    0    0    0  501  0.00000000000E+00  0.00000000000E+00 -0.63623857056E+03  0.63623857056E+03  0.25500000920E-02 0. -1.
    10030    2    1    2    0    0  0.00000000000E+00  0.00000000000E+00  0.36080391113E+03  0.16332810523E+04  0.15929304860E+04 0.  0.
        1    1    3    3  502    0  0.56255168514E+03 -0.43507754916E+01  0.75848642200E+03  0.94434367689E+03  0.50400001928E-02 0.  1.
       -1    1    3    3    0  502 -0.56255168514E+03  0.43507754916E+01 -0.39768251087E+03  0.68893737537E+03  0.50400001928E-02 0. -1.
</event>
<event>
 5   0  0.5131239E-04  0.1623994E+04  0.7818609E-02  0.8805942E-01
       -2   -1    0    0    0  501  0.00000000000E+00  0.00000000000E+00  0.44538127611E+03  0.44538127612E+03  0.25500000920E-02 0.  1.
        2   -1    0    0  501    0  0.00000000000E+00  0.00000000000E+00 -0.14803920767E+04  0.14803920767E+04  0.25500000920E-02 0. -1.
    10030    2    1    2    0    0  0.00000000000E+00  0.00000000000E+00 -0.10350108006E+04  0.19257733529E+04  0.16239937343E+04 0.  0.
        1    1    3    3  502    0  0.36855383119E+03  0.27304187192E+03 -0.13120573342E+04  0.13899202274E+04  0.50400001928E-02 0. -1.
       -1    1    3    3    0  502 -0.36855383119E+03 -0.27304187192E+03  0.27704653354E+03  0.53585312548E+03  0.50400001928E-02 0.  1.
</event>
<event>
 5   0  0.5131239E-04  0.1602744E+04  0.7818609E-02  0.8818864E-01
       -2   -1    0    0    0  501  0.00000000000E+00  0.00000000000E+00  0.74173093466E+03  0.74173093466E+03  0.25500000920E-02 0. -1.
        2   -1    0    0  501    0  0.00000000000E+00  0.00000000000E+00 -0.86580843833E+03  0.86580843834E+03  0.25500000920E-02 0.  1.
    10030    2    1    2    0    0  0.00000000000E+00  0.00000000000E+00 -0.12407750368E+03  0.16075393730E+04  0.16027437752E+04 0.  0.
        1    1    3    3  502    0  0.40477550070E+02 -0.80022428769E+03 -0.47869929947E+02  0.80267606971E+03  0.50400001928E-02 0. -1.
       -1    1    3    3    0  502 -0.40477550070E+02  0.80022428769E+03 -0.76207573728E+02  0.80486330329E+03  0.50400001928E-02 0.  1.
</event>
<event>
 5   0  0.2649086E-04  0.1667924E+04  0.7818609E-02  0.8779873E-01
       -1   -1    0    0    0  501  0.00000000000E+00  0.00000000000E+00  0.49917187446E+03  0.49917187449E+03  0.50400001928E-02 0. -1.
        1   -1    0    0  501    0  0.00000000000E+00  0.00000000000E+00 -0.13932929772E+04  0.13932929772E+04  0.50400001928E-02 0.  1.
    10030    2    1    2    0    0  0.00000000000E+00  0.00000000000E+00 -0.89412110276E+03  0.18924648517E+04  0.16679240596E+04 0.  0.
        2    1    3    3  502    0 -0.96622839133E+02 -0.38851769509E+03  0.38300796212E+03  0.55405511594E+03  0.25500000920E-02 0. -1.
       -2    1    3    3    0  502  0.96622839133E+02  0.38851769509E+03 -0.12771290649E+04  0.13384097358E+04  0.25500000920E-02 0.  1.
</event>
<event>
 5   0  0.2730707E-04  0.1598911E+04  0.7818609E-02  0.8821218E-01
        1   -1    0    0  501    0  0.00000000000E+00  0.00000000000E+00  0.97709992963E+03  0.97709992964E+03  0.50400001928E-02 0.  1.
       -1   -1    0    0    0  501  0.00000000000E+00  0.00000000000E+00 -0.65410792028E+03  0.65410792030E+03  0.50400001928E-02 0. -1.
    10030    2    1    2    0    0  0.00000000000E+00  0.00000000000E+00  0.32299200934E+03  0.16312078499E+04  0.15989106328E+04 0.  0.
        5    1    3    3  502    0 -0.21851388547E+03 -0.86921082915E+02  0.94099995069E+03  0.96995184932E+03  0.46999998093E+01 0.  1.
       -5    1    3    3    0  502  0.21851388547E+03  0.86921082915E+02 -0.61800794134E+03  0.66125600062E+03  0.46999998093E+01 0. -1.
</event>
<event>
 5   0  0.5381164E-04  0.1609928E+04  0.7818609E-02  0.8814472E-01
        2   -1    0    0  501    0  0.00000000000E+00  0.00000000000E+00  0.61118091712E+03  0.61118091713E+03  0.25500000920E-02 0.  1.
       -2   -1    0    0    0  501  0.00000000000E+00  0.00000000000E+00 -0.10601887576E+04  0.10601887576E+04  0.25500000920E-02 0. -1.
    10030    2    1    2    0    0  0.00000000000E+00  0.00000000000E+00 -0.44900784048E+03  0.16713696747E+04  0.16099281191E+04 0.  0.
        5    1    3    3  502    0 -0.73412472290E+03  0.20619918822E+03  0.43189145881E+02  0.76376999570E+03  0.46999998093E+01 0.  1.
       -5    1    3    3    0  502  0.73412472290E+03 -0.20619918822E+03 -0.49219698636E+03  0.90759967903E+03  0.46999998093E+01 0. -1.
</event>
<event>
 5   0  0.2763895E-04  0.1586076E+04  0.7818609E-02  0.8829148E-01
       -1   -1    0    0    0  501  0.00000000000E+00  0.00000000000E+00  0.70973618079E+03  0.70973618081E+03  0.50400001928E-02 0.  1.
        1   -1    0    0  501    0  0.00000000000E+00  0.00000000000E+00 -0.88611704669E+03  0.88611704670E+03  0.50400001928E-02 0. -1.
    10030    2    1    2    0    0  0.00000000000E+00  0.00000000000E+00 -0.17638086589E+03  0.15958532275E+04  0.15860760744E+04 0.  0.
        4    1    3    3  502    0  0.44993919365E+03 -0.64899097157E+03 -0.16125456998E+03  0.80600199032E+03  0.12699999809E+01 0.  1.
       -4    1    3    3    0  502 -0.44993919365E+03  0.64899097157E+03 -0.15126295913E+02  0.78985123719E+03  0.12699999809E+01 0. -1.
</event>
<event>
 5   0  0.5315984E-04  0.1609781E+04  0.7818609E-02  0.8814561E-01
        2   -1    0    0  501    0  0.00000000000E+00  0.00000000000E+00  0.43130285540E+03  0.43130285540E+03  0.25500000920E-02 0.  1.
       -2   -1    0    0    0  501  0.00000000000E+00  0.00000000000E+00 -0.15020745178E+04  0.15020745179E+04  0.25500000920E-02 0. -1.
    10030    2    1    2    0    0  0.00000000000E+00  0.00000000000E+00 -0.10707716625E+04  0.19333773733E+04  0.16097813871E+04 0.  0.
        2    1    3    3  502    0 -0.70531028041E+03  0.80627513531E+02 -0.79812326997E+02  0.71437622800E+03  0.25500000920E-02 0.  1.
       -2    1    3    3    0  502  0.70531028041E+03 -0.80627513531E+02 -0.99095933546E+03  0.12190011453E+04  0.25500000920E-02 0. -1.
</event>
<event>
 5   0  0.2689675E-04  0.1603099E+04  0.7818609E-02  0.8818646E-01
       -1   -1    0    0    0  501  0.00000000000E+00  0.00000000000E+00  0.78532516751E+03  0.78532516753E+03  0.50400001928E-02 0.  1.
        1   -1    0    0  501    0  0.00000000000E+00  0.00000000000E+00 -0.81810924625E+03  0.81810924627E+03  0.50400001928E-02 0. -1.
    10030    2    1    2    0    0  0.00000000000E+00  0.00000000000E+00 -0.32784078740E+02  0.16034344138E+04  0.16030992245E+04 0.  0.
        1    1    3    3  502    0 -0.46383116150E+03 -0.62640673754E+03 -0.20339913386E+03  0.80554078413E+03  0.50400001928E-02 0. -1.
       -1    1    3    3    0  502  0.46383116150E+03  0.62640673754E+03  0.17061505512E+03  0.79789362967E+03  0.50400001928E-02 0.  1.
</event>
<event>
 5   0  0.5264308E-04  0.1581485E+04  0.7818609E-02  0.8832004E-01
       -2   -1    0    0    0  501  0.00000000000E+00  0.00000000000E+00  0.70117252784E+03  0.70117252784E+03  0.25500000920E-02 0.  1.
        2   -1    0    0  501    0  0.00000000000E+00  0.00000000000E+00 -0.89175491917E+03  0.89175491918E+03  0.25500000920E-02 0. -1.
    10030    2    1    2    0    0  0.00000000000E+00  0.00000000000E+00 -0.19058239134E+03  0.15929274470E+04  0.15814854421E+04 0.  0.
        3    1    3    3  502    0  0.76513977471E+03 -0.73110344636E+02 -0.28234979027E+03  0.81884394826E+03  0.10100000352E+00 0. -1.
       -3    1    3    3    0  502 -0.76513977471E+03  0.73110344636E+02  0.91767398934E+02  0.77408349876E+03  0.10100000352E+00 0.  1.
</event>
<event>
 5   0  0.5381164E-04  0.1594479E+04  0.7818609E-02  0.8823947E-01
       -2   -1    0    0    0  501  0.00000000000E+00  0.00000000000E+00  0.93535453908E+03  0.93535453908E+03  0.25500000920E-02 0. -1.
        2   -1    0    0  501    0  0.00000000000E+00  0.00000000000E+00 -0.67951868090E+03  0.67951868090E+03  0.25500000920E-02 0.  1.
    10030    2    1    2    0    0  0.00000000000E+00  0.00000000000E+00  0.25583585818E+03  0.16148732200E+04  0.15944790780E+04 0.  0.
        5    1    3    3  502    0  0.54943280071E+03  0.29218206083E+03 -0.37677501775E+03  0.72748076481E+03  0.46999998093E+01 0.  1.
       -5    1    3    3    0  502 -0.54943280071E+03 -0.29218206083E+03  0.63261087593E+03  0.88739245518E+03  0.46999998093E+01 0. -1.
</event>
<event>
 5   0  0.2689675E-04  0.1617838E+04  0.7818609E-02  0.8809664E-01
        1   -1    0    0  501    0  0.00000000000E+00  0.00000000000E+00  0.11930484780E+04  0.11930484780E+04  0.50400001928E-02 0.  1.
       -1   -1    0    0    0  501  0.00000000000E+00  0.00000000000E+00 -0.54846900593E+03  0.54846900595E+03  0.50400001928E-02 0. -1.
    10030    2    1    2    0    0  0.00000000000E+00  0.00000000000E+00  0.64457947207E+03  0.17415174840E+04  0.16178382030E+04 0.  0.
        1    1    3    3  502    0  0.58504455485E+03  0.20358225044E+03  0.88227746936E+03  0.10780243025E+04  0.50400001928E-02 0.  1.
       -1    1    3    3    0  502 -0.58504455485E+03 -0.20358225044E+03 -0.23769799730E+03  0.66349318143E+03  0.50400001928E-02 0. -1.
</event>
<event>
 5   0  0.2763895E-04  0.1593038E+04  0.7818609E-02  0.8824836E-01
       -1   -1    0    0    0  501  0.00000000000E+00  0.00000000000E+00  0.37399500779E+03  0.37399500782E+03  0.50400001928E-02 0.  1.
        1   -1    0    0  501    0  0.00000000000E+00  0.00000000000E+00 -0.16963935353E+04  0.16963935353E+04  0.50400001928E-02 0. -1.
    10030    2    1    2    0    0  0.00000000000E+00  0.00000000000E+00 -0.13223985275E+04  0.20703885431E+04  0.15930382462E+04 0.  0.
        4    1    3    3  502    0 -0.55798572825E+03 -0.23668110834E+03 -0.13328482092E+04  0.14641898721E+04  0.12699999809E+01 0. -1.
       -4    1    3    3    0  502  0.55798572825E+03  0.23668110834E+03  0.10449681683E+02  0.60619867100E+03  0.12699999809E+01 0.  1.
</event>
<event>
 5   0  0.1908125E-04  0.1556562E+04  0.7818609E-02  0.8847687E-01
        3   -1    0    0  501    0  0.00000000000E+00  0.00000000000E+00  0.88427002571E+03  0.88427003148E+03  0.10100000352E+00 0.  1.
       -3   -1    0    0    0  501  0.00000000000E+00  0.00000000000E+00 -0.68499585620E+03  0.68499586365E+03  0.10100000352E+00 0. -1.
    10030    2    1    2    0    0  0.00000000000E+00  0.00000000000E+00  0.19927416952E+03  0.15692658951E+04  0.15565619984E+04 0.  0.
        4    1    3    3  502    0 -0.69241215236E+03 -0.29438294103E+03 -0.10104479166E+03  0.75914923930E+03  0.12699999809E+01 0.  1.
       -4    1    3    3    0  502  0.69241215236E+03  0.29438294103E+03  0.30031896117E+03  0.81011665583E+03  0.12699999809E+01 0. -1.
</event>
<event>
 5   0  0.2730707E-04  0.1569568E+04  0.7818609E-02  0.8839465E-01
       -1   -1    0    0    0  501  0.00000000000E+00  0.00000000000E+00  0.87038082106E+03  0.87038082108E+03  0.50400001928E-02 0. -1.
        1   -1    0    0  501    0  0.00000000000E+00  0.00000000000E+00 -0.70760505979E+03  0.70760505980E+03  0.50400001928E-02 0.  1.
    10030    2    1    2    0    0  0.00000000000E+00  0.00000000000E+00  0.16277576128E+03  0.15779858809E+04  0.15695679316E+04 0.  0.
        5    1    3    3  502    0 -0.49008047944E+02 -0.16437839983E+03  0.85128985157E+03  0.86841150872E+03  0.46999998093E+01 0. -1.
       -5    1    3    3    0  502  0.49008047944E+02  0.16437839983E+03 -0.68851409029E+03  0.70957437216E+03  0.46999998093E+01 0.  1.
</event>
<event>
 5   0  0.5381164E-04  0.1601888E+04  0.7818609E-02  0.8819389E-01
        2   -1    0    0  501    0  0.00000000000E+00  0.00000000000E+00  0.10496724679E+04  0.10496724679E+04  0.25500000920E-02 0.  1.
       -2   -1    0    0    0  501  0.00000000000E+00  0.00000000000E+00 -0.61115346308E+03  0.61115346308E+03  0.25500000920E-02 0. -1.
    10030    2    1    2    0    0  0.00000000000E+00  0.00000000000E+00  0.43851900481E+03  0.16608259310E+04  0.16018875914E+04 0.  0.
        5    1    3    3  502    0  0.52114493286E+03 -0.57392322532E+03  0.42793317004E+03  0.88551047291E+03  0.46999998093E+01 0.  1.
       -5    1    3    3    0  502 -0.52114493286E+03  0.57392322532E+03  0.10585834773E+02  0.77531545806E+03  0.46999998093E+01 0. -1.
</event>
<event>
 5   0  0.5381164E-04  0.1825604E+04  0.7818609E-02  0.8692801E-01
        2   -1    0    0  501    0  0.00000000000E+00  0.00000000000E+00  0.74007376494E+03  0.74007376495E+03  0.25500000920E-02 0. -1.
       -2   -1    0    0    0  501  0.00000000000E+00  0.00000000000E+00 -0.11258444124E+04  0.11258444124E+04  0.25500000920E-02 0.  1.
    10030    2    1    2    0    0  0.00000000000E+00  0.00000000000E+00 -0.38577064748E+03  0.18659181774E+04  0.18256044621E+04 0.  0.
        5    1    3    3  502    0 -0.69402212439E+03  0.37521967274E+03 -0.66207492763E+03  0.10299620438E+04  0.46999998093E+01 0.  1.
       -5    1    3    3    0  502  0.69402212439E+03 -0.37521967274E+03  0.27630428016E+03  0.83595613353E+03  0.46999998093E+01 0. -1.
</event>
<event>
 5   0  0.5264308E-04  0.1594524E+04  0.7818609E-02  0.8823919E-01
        2   -1    0    0  501    0  0.00000000000E+00  0.00000000000E+00  0.48493949436E+03  0.48493949437E+03  0.25500000920E-02 0.  1.
       -2   -1    0    0    0  501  0.00000000000E+00  0.00000000000E+00 -0.13107334002E+04  0.13107334002E+04  0.25500000920E-02 0. -1.
    10030    2    1    2    0    0  0.00000000000E+00  0.00000000000E+00 -0.82579390587E+03  0.17956728946E+04  0.15945236183E+04 0.  0.
        3    1    3    3  502    0  0.38596641274E+03  0.23883146035E+03  0.32523909521E+03  0.55838250104E+03  0.10100000352E+00 0.  1.
       -3    1    3    3    0  502 -0.38596641274E+03 -0.23883146035E+03 -0.11510330011E+04  0.12372903936E+04  0.10100000352E+00 0. -1.
</event>
<event>
 5   0  0.5381164E-04  0.1614596E+04  0.7818609E-02  0.8811631E-01
       -2   -1    0    0    0  501  0.00000000000E+00  0.00000000000E+00  0.33964315857E+03  0.33964315858E+03  0.25500000920E-02 0.  1.
        2   -1    0    0  501    0  0.00000000000E+00  0.00000000000E+00 -0.19188664273E+04  0.19188664273E+04  0.25500000920E-02 0. -1.
    10030    2    1    2    0    0  0.00000000000E+00  0.00000000000E+00 -0.15792232687E+04  0.22585095859E+04  0.16145957442E+04 0.  0.
        5    1    3    3  502    0  0.47056327718E+02 -0.72438307681E+03 -0.29552809494E+03  0.78377553218E+03  0.46999998093E+01 0.  1.
       -5    1    3    3    0  502 -0.47056327718E+02  0.72438307681E+03 -0.12836951738E+04  0.14747340537E+04  0.46999998093E+01 0. -1.
</event>
<event>
 5   0  0.2649086E-04  0.1605374E+04  0.7818609E-02  0.8817253E-01
       -1   -1    0    0    0  501  0.00000000000E+00  0.00000000000E+00  0.24380352189E+03  0.24380352194E+03  0.50400001928E-02 0.  1.
        1   -1    0    0  501    0  0.00000000000E+00  0.00000000000E+00 -0.26427280456E+04  0.26427280456E+04  0.50400001928E-02 0. -1.
    10030    2    1    2    0    0  0.00000000000E+00  0.00000000000E+00 -0.23989245237E+04  0.28865315675E+04  0.16053739813E+04 0.  0.
        2    1    3    3  502    0  0.32681971024E+03  0.72441754902E+03 -0.14022070399E+04  0.16117619214E+04  0.25500000920E-02 0. -1.
       -2    1    3    3    0  502 -0.32681971024E+03 -0.72441754902E+03 -0.99671748379E+03  0.12747696462E+04  0.25500000920E-02 0.  1.
</event>
<event>
 5   0  0.5264308E-04  0.1601123E+04  0.7818609E-02  0.8819858E-01
        2   -1    0    0  501    0  0.00000000000E+00  0.00000000000E+00  0.44656871414E+03  0.44656871415E+03  0.25500000920E-02 0. -1.
       -2   -1    0    0    0  501  0.00000000000E+00  0.00000000000E+00 -0.14351633336E+04  0.14351633336E+04  0.25500000920E-02 0.  1.
    10030    2    1    2    0    0  0.00000000000E+00  0.00000000000E+00 -0.98859461941E+03  0.18817320477E+04  0.16011234112E+04 0.  0.
        3    1    3    3  502    0 -0.65463905881E+03 -0.31960025726E+03 -0.10415008250E+03  0.73589664468E+03  0.10100000352E+00 0. -1.
       -3    1    3    3    0  502  0.65463905881E+03  0.31960025726E+03 -0.88444453691E+03  0.11458354030E+04  0.10100000352E+00 0.  1.
</event>
<event>
 5   0  0.5083831E-04  0.1538432E+04  0.7818609E-02  0.8859291E-01
       -2   -1    0    0    0  501  0.00000000000E+00  0.00000000000E+00  0.89704777557E+03  0.89704777558E+03  0.25500000920E-02 0.  1.
        2   -1    0    0  501    0  0.00000000000E+00  0.00000000000E+00 -0.65960087857E+03  0.65960087857E+03  0.25500000920E-02 0. -1.
    10030    2    1    2    0    0  0.00000000000E+00  0.00000000000E+00  0.23744689701E+03  0.15566486541E+04  0.15384323201E+04 0.  0.
        4    1    3    3  502    0  0.75547227746E+03 -0.10764004965E+03  0.21665346842E+03  0.79326230251E+03  0.12699999809E+01 0.  1.
       -4    1    3    3    0  502 -0.75547227746E+03  0.10764004965E+03  0.20793428586E+02  0.76338635164E+03  0.12699999809E+01 0. -1.
</event>
<event>
 5   0  0.5264308E-04  0.1605500E+04  0.7818609E-02  0.8817176E-01
       -2   -1    0    0    0  501  0.00000000000E+00  0.00000000000E+00  0.50172262823E+03  0.50172262824E+03  0.25500000920E-02 0.  1.
        2   -1    0    0  501    0  0.00000000000E+00  0.00000000000E+00 -0.12843903619E+04  0.12843903619E+04  0.25500000920E-02 0. -1.
    10030    2    1    2    0    0  0.00000000000E+00  0.00000000000E+00 -0.78266773364E+03  0.17861129901E+04  0.16055001813E+04 0.  0.
        3    1    3    3  502    0 -0.32798676897E+03 -0.36342442056E+03 -0.10991080506E+04  0.12032003770E+04  0.10100000352E+00 0.  1.
       -3    1    3    3    0  502  0.32798676897E+03  0.36342442056E+03  0.31644031700E+03  0.58291261310E+03  0.10100000352E+00 0. -1.
</event>
<event>
 5   0  0.2649086E-04  0.1491640E+04  0.7818609E-02  0.8890031E-01
        1   -1    0    0  501    0  0.00000000000E+00  0.00000000000E+00  0.16913136735E+04  0.16913136735E+04  0.50400001928E-02 0.  1.
       -1   -1    0    0    0  501  0.00000000000E+00  0.00000000000E+00 -0.32888507276E+03  0.32888507280E+03  0.50400001928E-02 0. -1.
    10030    2    1    2    0    0  0.00000000000E+00  0.00000000000E+00  0.13624286007E+04  0.20201987463E+04  0.14916404669E+04 0.  0.
        2    1    3    3  502    0 -0.13272572088E+02 -0.32847973601E+03 -0.22546280714E+03  0.39863338489E+03  0.25500000920E-02 0. -1.
       -2    1    3    3    0  502  0.13272572088E+02  0.32847973601E+03  0.15878914079E+04  0.16215653614E+04  0.25500000920E-02 0.  1.
</event>
<event>
 5   0  0.5315984E-04  0.1604101E+04  0.7818609E-02  0.8818032E-01
       -2   -1    0    0    0  501  0.00000000000E+00  0.00000000000E+00  0.46203529967E+03  0.46203529967E+03  0.25500000920E-02 0. -1.
        2   -1    0    0  501    0  0.00000000000E+00  0.00000000000E+00 -0.13922856700E+04  0.13922856700E+04  0.25500000920E-02 0.  1.
    10030    2    1    2    0    0  0.00000000000E+00  0.00000000000E+00 -0.93025037035E+03  0.18543209697E+04  0.16041011524E+04 0.  0.
        2    1    3    3  502    0  0.67904663213E+02 -0.13924130285E+03  0.44457601962E+03  0.47079403238E+03  0.25500000920E-02 0. -1.
       -2    1    3    3    0  502 -0.67904663213E+02  0.13924130285E+03 -0.13748263900E+04  0.13835269373E+04  0.25500000920E-02 0.  1.
</event>
<event>
 5   0  0.2763895E-04  0.1579034E+04  0.7818609E-02  0.8833533E-01
       -1   -1    0    0    0  501  0.00000000000E+00  0.00000000000E+00  0.44500418600E+03  0.44500418603E+03  0.50400001928E-02 0. -1.
        1   -1    0    0  501    0  0.00000000000E+00  0.00000000000E+00 -0.14007441477E+04  0.14007441477E+04  0.50400001928E-02 0.  1.
    10030    2    1    2    0    0  0.00000000000E+00  0.00000000000E+00 -0.95573996166E+03  0.18457483337E+04  0.15790338936E+04 0.  0.
        4    1    3    3  502    0 -0.10859172630E+03  0.40942204597E+03 -0.12566805453E+04  0.13261471188E+04  0.12699999809E+01 0.  1.
       -4    1    3    3    0  502  0.10859172630E+03 -0.40942204597E+03  0.30094058366E+03  0.51960121492E+03  0.12699999809E+01 0. -1.
</event>
<event>
 5   0  0.2763895E-04  0.1600064E+04  0.7818609E-02  0.8820508E-01
       -1   -1    0    0    0  501  0.00000000000E+00  0.00000000000E+00  0.72739889520E+03  0.72739889522E+03  0.50400001928E-02 0.  1.
        1   -1    0    0  501    0  0.00000000000E+00  0.00000000000E+00 -0.87991819356E+03  0.87991819357E+03  0.50400001928E-02 0. -1.
    10030    2    1    2    0    0  0.00000000000E+00  0.00000000000E+00 -0.15251929836E+03  0.16073170888E+04  0.16000644011E+04 0.  0.
        4    1    3    3  502    0 -0.50592021746E+03 -0.58077306673E+03  0.14104771281E+03  0.78303811635E+03  0.12699999809E+01 0.  1.
       -4    1    3    3    0  502  0.50592021746E+03  0.58077306673E+03 -0.29356701117E+03  0.82427897244E+03  0.12699999809E+01 0. -1.
</event>
<event>
 5   0  0.5083831E-04  0.1593189E+04  0.7818609E-02  0.8824743E-01
       -2   -1    0    0    0  501  0.00000000000E+00  0.00000000000E+00  0.97876940873E+03  0.97876940873E+03  0.25500000920E-02 0. -1.
        2   -1    0    0  501    0  0.00000000000E+00  0.00000000000E+00 -0.64832694580E+03  0.64832694580E+03  0.25500000920E-02 0.  1.
    10030    2    1    2    0    0  0.00000000000E+00  0.00000000000E+00  0.33044246293E+03  0.16270963545E+04  0.15931887288E+04 0.  0.
        4    1    3    3  502    0  0.46072171592E+03 -0.41502366212E+03 -0.34547313182E+03  0.70983268264E+03  0.12699999809E+01 0.  1.
       -4    1    3    3    0  502 -0.46072171592E+03  0.41502366212E+03  0.67591559475E+03  0.91726367189E+03  0.12699999809E+01 0. -1.
</event>
<event>
 5   0  0.2796994E-04  0.1560632E+04  0.7818609E-02  0.8845105E-01
        1   -1    0    0  501    0  0.00000000000E+00  0.00000000000E+00  0.82534045694E+03  0.82534045696E+03  0.50400001928E-02 0. -1.
       -1   -1    0    0    0  501  0.00000000000E+00  0.00000000000E+00 -0.73774798303E+03  0.73774798304E+03  0.50400001928E-02 0.  1.
    10030    2    1    2    0    0  0.00000000000E+00  0.00000000000E+00  0.87592473917E+02  0.15630884400E+04  0.15606322532E+04 0.  0.
        3    1    3    3  502    0 -0.69361449648E+03  0.31832100800E+03 -0.11913712028E+03  0.77241374761E+03  0.10100000352E+00 0.  1.
       -3    1    3    3    0  502  0.69361449648E+03 -0.31832100800E+03  0.20672959420E+03  0.79067469239E+03  0.10100000352E+00 0. -1.
</event>
<event>
 5   0  0.2649086E-04  0.1599161E+04  0.7818609E-02  0.8821064E-01
        1   -1    0    0  501    0  0.00000000000E+00  0.00000000000E+00  0.10333220260E+04  0.10333220260E+04  0.50400001928E-02 0.  1.
       -1   -1    0    0    0  501  0.00000000000E+00  0.00000000000E+00 -0.61871202713E+03  0.61871202715E+03  0.50400001928E-02 0. -1.
    10030    2    1    2    0    0  0.00000000000E+00  0.00000000000E+00  0.41460999888E+03  0.16520340532E+04  0.15991607367E+04 0.  0.
        2    1    3    3  502    0  0.72921984876E+01  0.52235056476E+03  0.83265003677E+03  0.98295949683E+03  0.25500000920E-02 0.  1.
       -2    1    3    3    0  502 -0.72921984876E+01 -0.52235056476E+03 -0.41804003789E+03  0.66907455635E+03  0.25500000920E-02 0. -1.
</event>
<event>
 5   0  0.5264308E-04  0.1602164E+04  0.7818609E-02  0.8819219E-01
       -2   -1    0    0    0  501  0.00000000000E+00  0.00000000000E+00  0.48511548499E+03  0.48511548500E+03  0.25500000920E-02 0.  1.
        2   -1    0    0  501    0  0.00000000000E+00  0.00000000000E+00 -0.13228451606E+04  0.13228451606E+04  0.25500000920E-02 0. -1.
    10030    2    1    2    0    0  0.00000000000E+00  0.00000000000E+00 -0.83772967562E+03  0.18079606456E+04  0.16021643757E+04 0.  0.
        3    1    3    3  502    0  0.13292840395E+03  0.39066536664E+03  0.35594767039E+03  0.54496618567E+03  0.10100000352E+00 0.  1.
       -3    1    3    3    0  502 -0.13292840395E+03 -0.39066536664E+03 -0.11936773460E+04  0.12629944599E+04  0.10100000352E+00 0. -1.
</event>
<event>
 5   0  0.5264308E-04  0.1601362E+04  0.7818609E-02  0.8819712E-01
       -2   -1    0    0    0  501  0.00000000000E+00  0.00000000000E+00  0.75239881627E+03  0.75239881627E+03  0.25500000920E-02 0. -1.
        2   -1    0    0  501    0  0.00000000000E+00  0.00000000000E+00 -0.85206101774E+03  0.85206101775E+03  0.25500000920E-02 0.  1.
    10030    2    1    2    0    0  0.00000000000E+00  0.00000000000E+00 -0.99662201475E+02  0.16044598340E+04  0.16013615471E+04 0.  0.
        3    1    3    3  502    0  0.61609102222E+03  0.10507473664E+03  0.45161783260E+03  0.77108204807E+03  0.10100000352E+00 0. -1.
       -3    1    3    3    0  502 -0.61609102222E+03 -0.10507473664E+03 -0.55128003407E+03  0.83337778594E+03  0.10100000352E+00 0.  1.
</event>
<event>
 5   0  0.5083831E-04  0.1606522E+04  0.7818609E-02  0.8816552E-01
        2   -1    0    0  501    0  0.00000000000E+00  0.00000000000E+00  0.45286609998E+03  0.45286609999E+03  0.25500000920E-02 0.  1.
       -2   -1    0    0    0  501  0.00000000000E+00  0.00000000000E+00 -0.14247651724E+04  0.14247651724E+04  0.25500000920E-02 0. -1.
    10030    2    1    2    0    0  0.00000000000E+00  0.00000000000E+00 -0.97189907246E+03  0.18776312724E+04  0.16065215181E+04 0.  0.
        4    1    3    3  502    0  0.27911048100E+03  0.40604339835E+02 -0.13649866311E+04  0.13938226174E+04  0.12699999809E+01 0. -1.
       -4    1    3    3    0  502 -0.27911048100E+03 -0.40604339835E+02  0.39308755860E+03  0.48380865499E+03  0.12699999809E+01 0.  1.
</event>
<event>
 5   0  0.2689675E-04  0.1604382E+04  0.7818609E-02  0.8817860E-01
       -1   -1    0    0    0  501  0.00000000000E+00  0.00000000000E+00  0.79998648892E+03  0.79998648894E+03  0.50400001928E-02 0. -1.
        1   -1    0    0  501    0  0.00000000000E+00  0.00000000000E+00 -0.80440180447E+03  0.80440180449E+03  0.50400001928E-02 0.  1.
    10030    2    1    2    0    0  0.00000000000E+00  0.00000000000E+00 -0.44153155498E+01  0.16043882934E+04  0.16043822179E+04 0.  0.
        1    1    3    3  502    0  0.20313274961E+03 -0.68570760405E+03  0.36118433876E+03  0.80119408311E+03  0.50400001928E-02 0. -1.
       -1    1    3    3    0  502 -0.20313274961E+03  0.68570760405E+03 -0.36559965431E+03  0.80319421031E+03  0.50400001928E-02 0.  1.
</event>
<event>
 5   0  0.5083831E-04  0.1599284E+04  0.7818609E-02  0.8820988E-01
       -2   -1    0    0    0  501  0.00000000000E+00  0.00000000000E+00  0.10806676790E+04  0.10806676790E+04  0.25500000920E-02 0. -1.
        2   -1    0    0  501    0  0.00000000000E+00  0.00000000000E+00 -0.59169689463E+03  0.59169689463E+03  0.25500000920E-02 0.  1.
    10030    2    1    2    0    0  0.00000000000E+00  0.00000000000E+00  0.48897078434E+03  0.16723645736E+04  0.15992844772E+04 0.  0.
        4    1    3    3  502    0  0.63373488859E+02  0.61839864360E+02  0.10755243653E+04  0.10791638621E+04  0.12699999809E+01 0. -1.
       -4    1    3    3    0  502 -0.63373488859E+02 -0.61839864360E+02 -0.58655358097E+03  0.59320071153E+03  0.12699999809E+01 0.  1.
</event>
<event>
 5   0  0.2796994E-04  0.1610080E+04  0.7818609E-02  0.8814379E-01
        1   -1    0    0  501    0  0.00000000000E+00  0.00000000000E+00  0.16440993846E+04  0.16440993846E+04  0.50400001928E-02 0.  1.
       -1   -1    0    0    0  501  0.00000000000E+00  0.00000000000E+00 -0.39419131468E+03  0.39419131471E+03  0.50400001928E-02 0. -1.
    10030    2    1    2    0    0  0.00000000000E+00  0.00000000000E+00  0.12499080699E+04  0.20382906994E+04  0.16100803681E+04 0.  0.
        3    1    3    3  502    0  0.26920963446E+03 -0.57115306439E+03 -0.72639196416E+01  0.63146054903E+03  0.10100000352E+00 0. -1.
       -3    1    3    3    0  502 -0.26920963446E+03  0.57115306439E+03  0.12571719896E+04  0.14068301503E+04  0.10100000352E+00 0.  1.
</event>
<event>
 5   0  0.5264308E-04  0.1607823E+04  0.7818609E-02  0.8815756E-01
        2   -1    0    0  501    0  0.00000000000E+00  0.00000000000E+00  0.65145980413E+03  0.65145980414E+03  0.25500000920E-02 0.  1.
       -2   -1    0    0    0  501  0.00000000000E+00  0.00000000000E+00 -0.99203935569E+03  0.99203935570E+03  0.25500000920E-02 0. -1.
    10030    2    1    2    0    0  0.00000000000E+00  0.00000000000E+00 -0.34057955156E+03  0.16434991598E+04  0.16078230803E+04 0.  0.
        3    1    3    3  502    0  0.29954629643E+03 -0.68202572966E+03 -0.47929986880E+03  0.88578521893E+03  0.10100000352E+00 0. -1.
       -3    1    3    3    0  502 -0.29954629643E+03  0.68202572966E+03  0.13872031724E+03  0.75771394091E+03  0.10100000352E+00 0.  1.
</event>
<event>
 5   0  0.5264308E-04  0.1585200E+04  0.7818609E-02  0.8829692E-01
        2   -1    0    0  501    0  0.00000000000E+00  0.00000000000E+00  0.14335398986E+04  0.14335398986E+04  0.25500000920E-02 0.  1.
       -2   -1    0    0    0  501  0.00000000000E+00  0.00000000000E+00 -0.43822610399E+03  0.43822610399E+03  0.25500000920E-02 0. -1.
    10030    2    1    2    0    0  0.00000000000E+00  0.00000000000E+00  0.99531379463E+03  0.18717660026E+04  0.15851998040E+04 0.  0.
        3    1    3    3  502    0 -0.34419133714E+03  0.49057102140E+03  0.11101679020E+04  0.12615864554E+04  0.10100000352E+00 0.  1.
       -3    1    3    3    0  502  0.34419133714E+03 -0.49057102140E+03 -0.11485410742E+03  0.61017954718E+03  0.10100000352E+00 0. -1.
</event>
<event>
 5   0  0.2689675E-04  0.1596458E+04  0.7818609E-02  0.8822727E-01
       -1   -1    0    0    0  501  0.00000000000E+00  0.00000000000E+00  0.48491995020E+03  0.48491995022E+03  0.50400001928E-02 0.  1.
        1   -1    0    0  501    0  0.00000000000E+00  0.00000000000E+00 -0.13139691350E+04  0.13139691350E+04  0.50400001928E-02 0. -1.
    10030    2    1    2    0    0  0.00000000000E+00  0.00000000000E+00 -0.82904918484E+03  0.17988890853E+04  0.15964583898E+04 0.  0.
        1    1    3    3  502    0 -0.56785655565E+02  0.77610047572E+03 -0.61487102797E+03  0.99177766669E+03  0.50400001928E-02 0.  1.
       -1    1    3    3    0  502  0.56785655565E+02 -0.77610047572E+03 -0.21417815687E+03  0.80711141858E+03  0.50400001928E-02 0. -1.
</event>
<event>
 5   0  0.2689675E-04  0.1576271E+04  0.7818609E-02  0.8835260E-01
       -1   -1    0    0    0  501  0.00000000000E+00  0.00000000000E+00  0.71927102801E+03  0.71927102802E+03  0.50400001928E-02 0.  1.
        1   -1    0    0  501    0  0.00000000000E+00  0.00000000000E+00 -0.86359323594E+03  0.86359323595E+03  0.50400001928E-02 0. -1.
    10030    2    1    2    0    0  0.00000000000E+00  0.00000000000E+00 -0.14432220793E+03  0.15828642640E+04  0.15762710359E+04 0.  0.
        1    1    3    3  502    0 -0.57951432529E+03  0.20059224776E+03 -0.56929091640E+03  0.83675937438E+03  0.50400001928E-02 0. -1.
       -1    1    3    3    0  502  0.57951432529E+03 -0.20059224776E+03  0.42496870847E+03  0.74610488960E+03  0.50400001928E-02 0.  1.
</event>
<event>
 5   0  0.5131239E-04  0.1636822E+04  0.7818609E-02  0.8798241E-01
       -2   -1    0    0    0  501  0.00000000000E+00  0.00000000000E+00  0.45743665728E+03  0.45743665728E+03  0.25500000920E-02 0.  1.
        2   -1    0    0  501    0  0.00000000000E+00  0.00000000000E+00 -0.14642383041E+04  0.14642383041E+04  0.25500000920E-02 0. -1.
    10030    2    1    2    0    0  0.00000000000E+00  0.00000000000E+00 -0.10068016468E+04  0.19216749614E+04  0.16368216461E+04 0.  0.
        1    1    3    3  502    0 -0.36900174767E+03  0.28689715671E+03 -0.12921207068E+04  0.13740626584E+04  0.50400001928E-02 0. -1.
       -1    1    3    3    0  502  0.36900174767E+03 -0.28689715671E+03  0.28531906000E+03  0.54761230294E+03  0.50400001928E-02 0.  1.
</event>
<event>
 5   0  0.2763895E-04  0.1599873E+04  0.7818609E-02  0.8820626E-01
        1   -1    0    0  501    0  0.00000000000E+00  0.00000000000E+00  0.10747518593E+04  0.10747518593E+04  0.50400001928E-02 0.  1.
       -1   -1    0    0    0  501  0.00000000000E+00  0.00000000000E+00 -0.59539158605E+03  0.59539158607E+03  0.50400001928E-02 0. -1.
    10030    2    1    2    0    0  0.00000000000E+00  0.00000000000E+00  0.47936027321E+03  0.16701434453E+04  0.15998727626E+04 0.  0.
        4    1    3    3  502    0  0.36198087045E+03 -0.35395886720E+03  0.88622112568E+03  0.10206402533E+04  0.12699999809E+01 0.  1.
       -4    1    3    3    0  502 -0.36198087045E+03  0.35395886720E+03 -0.40686085247E+03  0.64950319199E+03  0.12699999809E+01 0. -1.
</event>
<event>
 5   0  0.5381164E-04  0.1604353E+04  0.7818609E-02  0.8817878E-01
        2   -1    0    0  501    0  0.00000000000E+00  0.00000000000E+00  0.57793055414E+03  0.57793055415E+03  0.25500000920E-02 0.  1.
       -2   -1    0    0    0  501  0.00000000000E+00  0.00000000000E+00 -0.11134331720E+04  0.11134331720E+04  0.25500000920E-02 0. -1.
    10030    2    1    2    0    0  0.00000000000E+00  0.00000000000E+00 -0.53550261790E+03  0.16913637262E+04  0.16043528915E+04 0.  0.
        5    1    3    3  502    0 -0.17038831458E+03  0.49944409782E+03 -0.90465919663E+03  0.10473332500E+04  0.46999998093E+01 0. -1.
       -5    1    3    3    0  502  0.17038831458E+03 -0.49944409782E+03  0.36915657873E+03  0.64403047615E+03  0.46999998093E+01 0.  1.
</event>
<event>
 5   0  0.2649086E-04  0.1407094E+04  0.7818609E-02  0.8948700E-01
       -1   -1    0    0    0  501  0.00000000000E+00  0.00000000000E+00  0.44787181008E+03  0.44787181011E+03  0.50400001928E-02 0. -1.
        1   -1    0    0  501    0  0.00000000000E+00  0.00000000000E+00 -0.11051780072E+04  0.11051780073E+04  0.50400001928E-02 0.  1.
    10030    2    1    2    0    0  0.00000000000E+00  0.00000000000E+00 -0.65730619716E+03  0.15530498174E+04  0.14070935642E+04 0.  0.
        2    1    3    3  502    0 -0.33384141016E+03  0.57718079499E+03 -0.57641581674E+03  0.88138694739E+03  0.25500000920E-02 0.  1.
       -2    1    3    3    0  502  0.33384141016E+03 -0.57718079499E+03 -0.80890380420E+02  0.67166286997E+03  0.25500000920E-02 0. -1.
</event>
<event>
 5   0  0.2730707E-04  0.1640916E+04  0.7818609E-02  0.8795798E-01
       -1   -1    0    0    0  501  0.00000000000E+00  0.00000000000E+00  0.54133346095E+03  0.54133346097E+03  0.50400001928E-02 0. -1.
        1   -1    0    0  501    0  0.00000000000E+00  0.00000000000E+00 -0.12435064520E+04  0.12435064520E+04  0.50400001928E-02 0.  1.
    10030    2    1    2    0    0  0.00000000000E+00  0.00000000000E+00 -0.70217299107E+03  0.17848399130E+04  0.16409163920E+04 0.  0.
        5    1    3    3  502    0 -0.31911354674E+03  0.67391223243E+03  0.21187307264E+02  0.74596390310E+03  0.46999998093E+01 0. -1.
       -5    1    3    3    0  502  0.31911354674E+03 -0.67391223243E+03 -0.72336029833E+03  0.10388760099E+04  0.46999998093E+01 0.  1.
</event>
<event>
 5   0  0.2689675E-04  0.1635729E+04  0.7818609E-02  0.8798894E-01
       -1   -1    0    0    0  501  0.00000000000E+00  0.00000000000E+00  0.57840344676E+03  0.57840344678E+03  0.50400001928E-02 0.  1.
        1   -1    0    0  501    0  0.00000000000E+00  0.00000000000E+00 -0.11564639297E+04  0.11564639297E+04  0.50400001928E-02 0. -1.
    10030    2    1    2    0    0  0.00000000000E+00  0.00000000000E+00 -0.57806048294E+03  0.17348673765E+04  0.16357294679E+04 0.  0.
        1    1    3    3  502    0  0.17940800902E+03 -0.20569588011E+03 -0.11067338570E+04  0.11398937929E+04  0.50400001928E-02 0. -1.
       -1    1    3    3    0  502 -0.17940800902E+03  0.20569588011E+03  0.52867337403E+03  0.59497358364E+03  0.50400001928E-02 0.  1.
</event>
<event>
 5   0  0.5381164E-04  0.1442141E+04  0.7818609E-02  0.8923867E-01
       -2   -1    0    0    0  501  0.00000000000E+00  0.00000000000E+00  0.71718404614E+03  0.71718404615E+03  0.25500000920E-02 0. -1.
        2   -1    0    0  501    0  0.00000000000E+00  0.00000000000E+00 -0.72497820542E+03  0.72497820542E+03  0.25500000920E-02 0.  1.
    10030    2    1    2    0    0  0.00000000000E+00  0.00000000000E+00 -0.77941592725E+01  0.14421622516E+04  0.14421411897E+04 0.  0.
        5    1    3    3  502    0  0.57477808184E+02 -0.70780275841E+03 -0.12892798023E+03  0.72175685471E+03  0.46999998093E+01 0.  1.
       -5    1    3    3    0  502 -0.57477808184E+02  0.70780275841E+03  0.12113382096E+03  0.72040539685E+03  0.46999998093E+01 0. -1.
</event>
<event>
 5   0  0.2649086E-04  0.1592505E+04  0.7818609E-02  0.8825166E-01
       -1   -1    0    0    0  501  0.00000000000E+00  0.00000000000E+00  0.75170439927E+03  0.75170439928E+03  0.50400001928E-02 0.  1.
        1   -1    0    0  501    0  0.00000000000E+00  0.00000000000E+00 -0.84344020916E+03  0.84344020917E+03  0.50400001928E-02 0. -1.
    10030    2    1    2    0    0  0.00000000000E+00  0.00000000000E+00 -0.91735809892E+02  0.15951446085E+04  0.15925045881E+04 0.  0.
        2    1    3    3  502    0  0.25668984238E+03 -0.75242302985E+03 -0.90524598498E+02  0.80014048390E+03  0.25500000920E-02 0.  1.
       -2    1    3    3    0  502 -0.25668984238E+03  0.75242302985E+03 -0.12112113938E+01  0.79500412456E+03  0.25500000920E-02 0. -1.
</event>
<event>
 5   0  0.2796994E-04  0.1616334E+04  0.7818609E-02  0.8810576E-01
       -1   -1    0    0    0  501  0.00000000000E+00  0.00000000000E+00  0.69177696278E+03  0.69177696280E+03  0.50400001928E-02 0. -1.
        1   -1    0    0  501    0  0.00000000000E+00  0.00000000000E+00 -0.94413895605E+03  0.94413895606E+03  0.50400001928E-02 0.  1.
    10030    2    1    2    0    0  0.00000000000E+00  0.00000000000E+00 -0.25236199326E+03  0.16359159189E+04  0.16163336035E+04 0.  0.
        3    1    3    3  502    0  0.31176505482E+03 -0.72270098702E+03 -0.31181354125E+03  0.84659427162E+03  0.10100000352E+00 0. -1.
       -3    1    3    3    0  502 -0.31176505482E+03  0.72270098702E+03  0.59451547988E+02  0.78932164724E+03  0.10100000352E+00 0.  1.
</event>
<event>
 5   0  0.5264308E-04  0.1591725E+04  0.7818609E-02  0.8825648E-01
        2   -1    0    0  501    0  0.00000000000E+00  0.00000000000E+00  0.44860954424E+03  0.44860954425E+03  0.25500000920E-02 0.  1.
       -2   -1    0    0    0  501  0.00000000000E+00  0.00000000000E+00 -0.14119113660E+04  0.14119113660E+04  0.25500000920E-02 0. -1.
    10030    2    1    2    0    0  0.00000000000E+00  0.00000000000E+00 -0.96330182175E+03  0.18605209103E+04  0.15917247431E+04 0.  0.
        3    1    3    3  502    0 -0.18377821126E+03  0.56734391840E+03  0.13436002757E+03  0.61131512323E+03  0.10100000352E+00 0.  1.
       -3    1    3    3    0  502  0.18377821126E+03 -0.56734391840E+03 -0.10976618493E+04  0.12492057870E+04  0.10100000352E+00 0. -1.
</event>
<event>
 5   0  0.5381164E-04  0.1595971E+04  0.7818609E-02  0.8823027E-01
       -2   -1    0    0    0  501  0.00000000000E+00  0.00000000000E+00  0.62719053817E+03  0.62719053818E+03  0.25500000920E-02 0. -1.
        2   -1    0    0  501    0  0.00000000000E+00  0.00000000000E+00 -0.10152902962E+04  0.10152902962E+04  0.25500000920E-02 0.  1.
    10030    2    1    2    0    0  0.00000000000E+00  0.00000000000E+00 -0.38809975800E+03  0.16424808344E+04  0.15959705101E+04 0.  0.
        5    1    3    3  502    0 -0.21573959449E+02 -0.31469995501E+03 -0.94838866946E+03  0.99948219383E+03  0.46999998093E+01 0.  1.
       -5    1    3    3    0  502  0.21573959449E+02  0.31469995501E+03  0.56028891146E+03  0.64299864052E+03  0.46999998093E+01 0. -1.
</event>
<event>
 5   0  0.5131239E-04  0.1587389E+04  0.7818609E-02  0.8828333E-01
        2   -1    0    0  501    0  0.00000000000E+00  0.00000000000E+00  0.26259686946E+04  0.26259686946E+04  0.25500000920E-02 0.  1.
       -2   -1    0    0    0  501  0.00000000000E+00  0.00000000000E+00 -0.23989266692E+03  0.23989266693E+03  0.25500000920E-02 0. -1.
    10030    2    1    2    0    0  0.00000000000E+00  0.00000000000E+00  0.23860760277E+04  0.28658613615E+04  0.15873885894E+04 0.  0.
        1    1    3    3  502    0  0.20959870887E+03  0.17928941824E+03  0.25366613486E+04  0.25516126493E+04  0.50400001928E-02 0.  1.
       -1    1    3    3    0  502 -0.20959870887E+03 -0.17928941824E+03 -0.15058532094E+03  0.31424871227E+03  0.50400001928E-02 0. -1.
</event>
<event>
 5   0  0.2763895E-04  0.1513821E+04  0.7818609E-02  0.8875314E-01
       -1   -1    0    0    0  501  0.00000000000E+00  0.00000000000E+00  0.83723238099E+03  0.83723238100E+03  0.50400001928E-02 0. -1.
        1   -1    0    0  501    0  0.00000000000E+00  0.00000000000E+00 -0.68429471313E+03  0.68429471314E+03  0.50400001928E-02 0.  1.
    10030    2    1    2    0    0  0.00000000000E+00  0.00000000000E+00  0.15293766786E+03  0.15215270941E+04  0.15138212470E+04 0.  0.
        4    1    3    3  502    0 -0.63220305590E+03 -0.33115895636E+03  0.32987345613E+03  0.78623474118E+03  0.12699999809E+01 0.  1.
       -4    1    3    3    0  502  0.63220305590E+03  0.33115895636E+03 -0.17693578826E+03  0.73529235297E+03  0.12699999809E+01 0. -1.
</event>
<event>
 5   0  0.2730707E-04  0.1570081E+04  0.7818609E-02  0.8839142E-01
        1   -1    0    0  501    0  0.00000000000E+00  0.00000000000E+00  0.14137635007E+04  0.14137635007E+04  0.50400001928E-02 0.  1.
       -1   -1    0    0    0  501  0.00000000000E+00  0.00000000000E+00 -0.43592062427E+03  0.43592062430E+03  0.50400001928E-02 0. -1.
    10030    2    1    2    0    0  0.00000000000E+00  0.00000000000E+00  0.97784287643E+03  0.18496841250E+04  0.15700811034E+04 0.  0.
        5    1    3    3  502    0  0.54459216871E+03 -0.98150398647E+02  0.11449051623E+04  0.12716304698E+04  0.46999998093E+01 0.  1.
       -5    1    3    3    0  502 -0.54459216871E+03  0.98150398647E+02 -0.16706228587E+03  0.57805365524E+03  0.46999998093E+01 0. -1.
</event>
<event>
 5   0  0.2689675E-04  0.1574920E+04  0.7818609E-02  0.8836106E-01
        1   -1    0    0  501    0  0.00000000000E+00  0.00000000000E+00  0.58578555237E+03  0.58578555239E+03  0.50400001928E-02 0. -1.
       -1   -1    0    0    0  501  0.00000000000E+00  0.00000000000E+00 -0.10585665556E+04  0.10585665556E+04  0.50400001928E-02 0.  1.
    10030    2    1    2    0    0  0.00000000000E+00  0.00000000000E+00 -0.47278100321E+03  0.16443521080E+04  0.15749196735E+04 0.  0.
        1    1    3    3  502    0  0.29288273795E+03 -0.23521121926E+03  0.48621106625E+03  0.61441502002E+03  0.50400001928E-02 0. -1.
       -1    1    3    3    0  502 -0.29288273795E+03  0.23521121926E+03 -0.95899206947E+03  0.10299370880E+04  0.50400001928E-02 0.  1.
</event>
<event>
 5   0  0.5315984E-04  0.1627728E+04  0.7818609E-02  0.8803692E-01
        2   -1    0    0  501    0  0.00000000000E+00  0.00000000000E+00  0.24054479549E+04  0.24054479549E+04  0.25500000920E-02 0.  1.
       -2   -1    0    0    0  501  0.00000000000E+00  0.00000000000E+00 -0.27536431312E+03  0.27536431313E+03  0.25500000920E-02 0. -1.
    10030    2    1    2    0    0  0.00000000000E+00  0.00000000000E+00  0.21300836418E+04  0.26808122681E+04  0.16277278936E+04 0.  0.
        2    1    3    3  502    0 -0.42375927374E+03 -0.52545270692E+03  0.18138265749E+04  0.19353654211E+04  0.25500000920E-02 0.  1.
       -2    1    3    3    0  502  0.42375927374E+03  0.52545270692E+03  0.31625706689E+03  0.74544684697E+03  0.25500000920E-02 0. -1.
</event>
<event>
 5   0  0.2796994E-04  0.1585380E+04  0.7818609E-02  0.8829580E-01
       -1   -1    0    0    0  501  0.00000000000E+00  0.00000000000E+00  0.55700227404E+03  0.55700227406E+03  0.50400001928E-02 0. -1.
        1   -1    0    0  501    0  0.00000000000E+00  0.00000000000E+00 -0.11281057889E+04  0.11281057890E+04  0.50400001928E-02 0.  1.
    10030    2    1    2    0    0  0.00000000000E+00  0.00000000000E+00 -0.57110351490E+03  0.16851080630E+04  0.15853800678E+04 0.  0.
        3    1    3    3  502    0  0.31210233411E+03 -0.28852808687E+03  0.42564287571E+03  0.60152156380E+03  0.10100000352E+00 0. -1.
       -3    1    3    3    0  502 -0.31210233411E+03  0.28852808687E+03 -0.99674639061E+03  0.10835864992E+04  0.10100000352E+00 0.  1.
</event>
<event>
 5   0  0.2649086E-04  0.1612345E+04  0.7818609E-02  0.8813000E-01
       -1   -1    0    0    0  501  0.00000000000E+00  0.00000000000E+00  0.40596632500E+03  0.40596632503E+03  0.50400001928E-02 0. -1.
        1   -1    0    0  501    0  0.00000000000E+00  0.00000000000E+00 -0.16009064561E+04  0.16009064561E+04  0.50400001928E-02 0.  1.
    10030    2    1    2    0    0  0.00000000000E+00  0.00000000000E+00 -0.11949401311E+04  0.20068727811E+04  0.16123450135E+04 0.  0.
        2    1    3    3  502    0  0.44036112850E+03 -0.39361661296E+03  0.85481559457E+02  0.59679063205E+03  0.25500000920E-02 0. -1.
       -2    1    3    3    0  502 -0.44036112850E+03  0.39361661296E+03 -0.12804216905E+04  0.14100821491E+04  0.25500000920E-02 0.  1.
</event>
<event>
 5   0  0.2763895E-04  0.1631190E+04  0.7818609E-02  0.8801613E-01
       -1   -1    0    0    0  501  0.00000000000E+00  0.00000000000E+00  0.45560082115E+03  0.45560082117E+03  0.50400001928E-02 0. -1.
        1   -1    0    0  501    0  0.00000000000E+00  0.00000000000E+00 -0.14600390905E+04  0.14600390905E+04  0.50400001928E-02 0.  1.
    10030    2    1    2    0    0  0.00000000000E+00  0.00000000000E+00 -0.10044382694E+04  0.19156399117E+04  0.16311897604E+04 0.  0.
        4    1    3    3  502    0  0.42357338055E+03  0.69493484411E+03 -0.56485399751E+03  0.99066164642E+03  0.12699999809E+01 0. -1.
       -4    1    3    3    0  502 -0.42357338055E+03 -0.69493484411E+03 -0.43958427185E+03  0.92497826528E+03  0.12699999809E+01 0.  1.
</event>
<event>
 5   0  0.5264308E-04  0.1602045E+04  0.7818609E-02  0.8819293E-01
       -2   -1    0    0    0  501  0.00000000000E+00  0.00000000000E+00  0.29616150957E+03  0.29616150958E+03  0.25500000920E-02 0.  1.
        2   -1    0    0  501    0  0.00000000000E+00  0.00000000000E+00 -0.21665105997E+04  0.21665105997E+04  0.25500000920E-02 0. -1.
    10030    2    1    2    0    0  0.00000000000E+00  0.00000000000E+00 -0.18703490901E+04  0.24626721092E+04  0.16020450052E+04 0.  0.
        3    1    3    3  502    0 -0.10019069396E+03 -0.43409310174E+03 -0.19584985401E+04  0.20085296956E+04  0.10100000352E+00 0. -1.
       -3    1    3    3    0  502  0.10019069396E+03  0.43409310174E+03  0.88149450055E+02  0.45414241365E+03  0.10100000352E+00 0.  1.
</event>
<event>
 5   0  0.5264308E-04  0.1603502E+04  0.7818609E-02  0.8818400E-01
       -2   -1    0    0    0  501  0.00000000000E+00  0.00000000000E+00  0.55183457278E+03  0.55183457279E+03  0.25500000920E-02 0.  1.
        2   -1    0    0  501    0  0.00000000000E+00  0.00000000000E+00 -0.11648500661E+04  0.11648500661E+04  0.25500000920E-02 0. -1.
    10030    2    1    2    0    0  0.00000000000E+00  0.00000000000E+00 -0.61301549328E+03  0.17166846388E+04  0.16035018411E+04 0.  0.
        3    1    3    3  502    0 -0.45397504779E+03  0.18380948874E+03  0.37306085297E+03  0.61567335689E+03  0.10100000352E+00 0.  1.
       -3    1    3    3    0  502  0.45397504779E+03 -0.18380948874E+03 -0.98607634625E+03  0.11010112820E+04  0.10100000352E+00 0. -1.
</event>
<event>
 5   0  0.2649086E-04  0.1601198E+04  0.7818609E-02  0.8819813E-01
       -1   -1    0    0    0  501  0.00000000000E+00  0.00000000000E+00  0.64152159688E+03  0.64152159690E+03  0.50400001928E-02 0. -1.
        1   -1    0    0  501    0  0.00000000000E+00  0.00000000000E+00 -0.99912238013E+03  0.99912238014E+03  0.50400001928E-02 0.  1.
    10030    2    1    2    0    0  0.00000000000E+00  0.00000000000E+00 -0.35760078325E+03  0.16406439770E+04  0.16011977827E+04 0.  0.
        2    1    3    3  502    0 -0.64798927695E+03 -0.15811285680E+03  0.27490466634E+03  0.72143076876E+03  0.25500000920E-02 0. -1.
       -2    1    3    3    0  502  0.64798927695E+03  0.15811285680E+03 -0.63250544959E+03  0.91921320829E+03  0.25500000920E-02 0.  1.
</event>
<event>
 5   0  0.2730707E-04  0.1581443E+04  0.7818609E-02  0.8832030E-01
        1   -1    0    0  501    0  0.00000000000E+00  0.00000000000E+00  0.77610311466E+03  0.77610311467E+03  0.50400001928E-02 0. -1.
       -1   -1    0    0    0  501  0.00000000000E+00  0.00000000000E+00 -0.80561536019E+03  0.80561536021E+03  0.50400001928E-02 0.  1.
    10030    2    1    2    0    0  0.00000000000E+00  0.00000000000E+00 -0.29512245532E+02  0.15817184749E+04  0.15814431261E+04 0.  0.
        5    1    3    3  502    0 -0.28370642369E+03 -0.15476166952E+02 -0.75278002139E+03  0.80462954034E+03  0.46999998093E+01 0.  1.
       -5    1    3    3    0  502  0.28370642369E+03  0.15476166952E+02  0.72326777586E+03  0.77708893454E+03  0.46999998093E+01 0. -1.
</event>
<event>
 5   0  0.5381164E-04  0.1587809E+04  0.7818609E-02  0.8828072E-01
       -2   -1    0    0    0  501  0.00000000000E+00  0.00000000000E+00  0.39746467598E+03  0.39746467599E+03  0.25500000920E-02 0.  1.
        2   -1    0    0  501    0  0.00000000000E+00  0.00000000000E+00 -0.15857623567E+04  0.15857623567E+04  0.25500000920E-02 0. -1.
    10030    2    1    2    0    0  0.00000000000E+00  0.00000000000E+00 -0.11882976807E+04  0.19832270327E+04  0.15878092093E+04 0.  0.
        5    1    3    3  502    0  0.55605117422E+03 -0.13357636011E+03 -0.12819421784E+04  0.14037212654E+04  0.46999998093E+01 0. -1.
       -5    1    3    3    0  502 -0.55605117422E+03  0.13357636011E+03  0.93644497660E+02  0.57950576725E+03  0.46999998093E+01 0.  1.
</event>
<event>
 5   0  0.5131239E-04  0.1595900E+04  0.7818609E-02  0.8823071E-01
       -2   -1    0    0    0  501  0.00000000000E+00  0.00000000000E+00  0.67354108203E+03  0.67354108204E+03  0.25500000920E-02 0.  1.
        2   -1    0    0  501    0  0.00000000000E+00  0.00000000000E+00 -0.94533798408E+03  0.94533798408E+03  0.25500000920E-02 0. -1.
    10030    2    1    2    0    0  0.00000000000E+00  0.00000000000E+00 -0.27179690205E+03  0.16188790661E+04  0.15958997070E+04 0.  0.
        1    1    3    3  502    0  0.34270072102E+03  0.44349565495E+03 -0.71204831857E+03  0.90617050722E+03  0.50400001928E-02 0. -1.
       -1    1    3    3    0  502 -0.34270072102E+03 -0.44349565495E+03  0.44025141653E+03  0.71270855890E+03  0.50400001928E-02 0.  1.
</event>
<event>
 5   0  0.1908125E-04  0.1558108E+04  0.7818609E-02  0.8846705E-01
       -3   -1    0    0    0  501  0.00000000000E+00  0.00000000000E+00  0.13888622439E+04  0.13888622476E+04  0.10100000352E+00 0. -1.
        3   -1    0    0  501    0  0.00000000000E+00  0.00000000000E+00 -0.43699446203E+03  0.43699447370E+03  0.10100000352E+00 0.  1.
    10030    2    1    2    0    0  0.00000000000E+00  0.00000000000E+00  0.95186778189E+03  0.18258567213E+04  0.15581079849E+04 0.  0.
        4    1    3    3  502    0 -0.15756386241E+03 -0.44733130100E+03 -0.24832892355E+03  0.53535084829E+03  0.12699999809E+01 0.  1.
       -4    1    3    3    0  502  0.15756386241E+03  0.44733130100E+03  0.12001967054E+04  0.12905058730E+04  0.12699999809E+01 0. -1.
</event>
<event>
 5   0  0.2763895E-04  0.1604635E+04  0.7818609E-02  0.8817706E-01
        1   -1    0    0  501    0  0.00000000000E+00  0.00000000000E+00  0.62921567978E+03  0.62921567980E+03  0.50400001928E-02 0. -1.
       -1   -1    0    0    0  501  0.00000000000E+00  0.00000000000E+00 -0.10230402893E+04  0.10230402893E+04  0.50400001928E-02 0.  1.
    10030    2    1    2    0    0  0.00000000000E+00  0.00000000000E+00 -0.39382460950E+03  0.16522559691E+04  0.16046345267E+04 0.  0.
        4    1    3    3  502    0 -0.31073628019E+02 -0.55440727727E+03 -0.79321768434E+03  0.96826076400E+03  0.12699999809E+01 0.  1.
       -4    1    3    3    0  502  0.31073628019E+02  0.55440727727E+03  0.39939307484E+03  0.68399520509E+03  0.12699999809E+01 0. -1.
</event>
<event>
 5   0  0.5083831E-04  0.1601044E+04  0.7818609E-02  0.8819907E-01
       -2   -1    0    0    0  501  0.00000000000E+00  0.00000000000E+00  0.10232406251E+04  0.10232406251E+04  0.25500000920E-02 0. -1.
        2   -1    0    0  501    0  0.00000000000E+00  0.00000000000E+00 -0.62628009844E+03  0.62628009844E+03  0.25500000920E-02 0.  1.
    10030    2    1    2    0    0  0.00000000000E+00  0.00000000000E+00  0.39696052663E+03  0.16495207235E+04  0.16010437088E+04 0.  0.
        4    1    3    3  502    0 -0.63887835286E+03 -0.17479843041E+03  0.66166297498E+03  0.93622622607E+03  0.12699999809E+01 0. -1.
       -4    1    3    3    0  502  0.63887835286E+03  0.17479843041E+03 -0.26470244835E+03  0.71329449744E+03  0.12699999809E+01 0.  1.
</event>
<event>
 5   0  0.5264308E-04  0.1598246E+04  0.7818609E-02  0.8821626E-01
        2   -1    0    0  501    0  0.00000000000E+00  0.00000000000E+00  0.79632480594E+03  0.79632480594E+03  0.25500000920E-02 0. -1.
       -2   -1    0    0    0  501  0.00000000000E+00  0.00000000000E+00 -0.80193146473E+03  0.80193146474E+03  0.25500000920E-02 0.  1.
    10030    2    1    2    0    0  0.00000000000E+00  0.00000000000E+00 -0.56066587944E+01  0.15982562707E+04  0.15982464366E+04 0.  0.
        3    1    3    3  502    0 -0.52950817079E+02  0.63017282772E+03  0.48574478818E+03  0.79741431594E+03  0.10100000352E+00 0. -1.
       -3    1    3    3    0  502  0.52950817079E+02 -0.63017282772E+03 -0.49135144697E+03  0.80084195474E+03  0.10100000352E+00 0.  1.
</event>
<event>
 5   0  0.5381164E-04  0.1575509E+04  0.7818609E-02  0.8835736E-01
       -2   -1    0    0    0  501  0.00000000000E+00  0.00000000000E+00  0.80872813290E+03  0.80872813291E+03  0.25500000920E-02 0. -1.
        2   -1    0    0  501    0  0.00000000000E+00  0.00000000000E+00 -0.76732523812E+03  0.76732523813E+03  0.25500000920E-02 0.  1.
    10030    2    1    2    0    0  0.00000000000E+00  0.00000000000E+00  0.41402894778E+02  0.15760533710E+04  0.15755094505E+04 0.  0.
        5    1    3    3  502    0 -0.53449983526E+03  0.55117876664E+03  0.19696474871E+03  0.79265711939E+03  0.46999998093E+01 0. -1.
       -5    1    3    3    0  502  0.53449983526E+03 -0.55117876664E+03 -0.15556185393E+03  0.78339625164E+03  0.46999998093E+01 0.  1.
</event>
<event>
 5   0  0.5381164E-04  0.1571935E+04  0.7818609E-02  0.8837977E-01
        2   -1    0    0  501    0  0.00000000000E+00  0.00000000000E+00  0.12190556414E+04  0.12190556414E+04  0.25500000920E-02 0.  1.
       -2   -1    0    0    0  501  0.00000000000E+00  0.00000000000E+00 -0.50674066816E+03  0.50674066816E+03  0.25500000920E-02 0. -1.
    10030    2    1    2    0    0  0.00000000000E+00  0.00000000000E+00  0.71231497324E+03  0.17257963096E+04  0.15719352025E+04 0.  0.
        5    1    3    3  502    0  0.44916487543E+03  0.62068935078E+03  0.54857995460E+03  0.94231969739E+03  0.46999998093E+01 0.  1.
       -5    1    3    3    0  502 -0.44916487543E+03 -0.62068935078E+03  0.16373501863E+03  0.78347661217E+03  0.46999998093E+01 0. -1.
</event>
<event>
 5   0  0.5381164E-04  0.1591645E+04  0.7818609E-02  0.8825697E-01
        2   -1    0    0  501    0  0.00000000000E+00  0.00000000000E+00  0.69489550204E+03  0.69489550205E+03  0.25500000920E-02 0. -1.
       -2   -1    0    0    0  501  0.00000000000E+00  0.00000000000E+00 -0.91140787825E+03  0.91140787825E+03  0.25500000920E-02 0.  1.
    10030    2    1    2    0    0  0.00000000000E+00  0.00000000000E+00 -0.21651237621E+03  0.16063033803E+04  0.15916447281E+04 0.  0.
        5    1    3    3  502    0  0.16233681116E+03  0.30371013336E+03 -0.83230215944E+03  0.90074528029E+03  0.46999998093E+01 0.  1.
       -5    1    3    3    0  502 -0.16233681116E+03 -0.30371013336E+03  0.61578978323E+03  0.70555810001E+03  0.46999998093E+01 0. -1.
</event>
<event>
 5   0  0.2730707E-04  0.1627045E+04  0.7818609E-02  0.8804104E-01
        1   -1    0    0  501    0  0.00000000000E+00  0.00000000000E+00  0.15858594313E+04  0.15858594313E+04  0.50400001928E-02 0. -1.
       -1   -1    0    0    0  501  0.00000000000E+00  0.00000000000E+00 -0.41732482625E+03  0.41732482628E+03  0.50400001928E-02 0.  1.
    10030    2    1    2    0    0  0.00000000000E+00  0.00000000000E+00  0.11685346051E+04  0.20031842576E+04  0.16270445743E+04 0.  0.
        5    1    3    3  502    0 -0.57357359147E+03 -0.52881945426E+03  0.30040162917E+03  0.83600233782E+03  0.46999998093E+01 0.  1.
       -5    1    3    3    0  502  0.57357359147E+03  0.52881945426E+03  0.86813297590E+03  0.11671819198E+04  0.46999998093E+01 0. -1.
</event>
<event>
 5   0  0.5131239E-04  0.1643633E+04  0.7818609E-02  0.8794182E-01
        2   -1    0    0  501    0  0.00000000000E+00  0.00000000000E+00  0.63853627851E+03  0.63853627851E+03  0.25500000920E-02 0.  1.
       -2   -1    0    0    0  501  0.00000000000E+00  0.00000000000E+00 -0.10577034419E+04  0.10577034420E+04  0.25500000920E-02 0. -1.
    10030    2    1    2    0    0  0.00000000000E+00  0.00000000000E+00 -0.41916716344E+03  0.16962397205E+04  0.16436325862E+04 0.  0.
        1    1    3    3  502    0  0.57591624862E+03 -0.76218720229E+02  0.39030723311E+03  0.69987752856E+03  0.50400001928E-02 0. -1.
       -1    1    3    3    0  502 -0.57591624862E+03  0.76218720229E+02 -0.80947439656E+03  0.99636219190E+03  0.50400001928E-02 0.  1.
</event>
<event>
 5   0  0.2649086E-04  0.1593732E+04  0.7818609E-02  0.8824408E-01
        1   -1    0    0  501    0  0.00000000000E+00  0.00000000000E+00  0.10990976615E+04  0.10990976615E+04  0.50400001928E-02 0. -1.
       -1   -1    0    0    0  501  0.00000000000E+00  0.00000000000E+00 -0.57774283547E+03  0.57774283549E+03  0.50400001928E-02 0.  1.
    10030    2    1    2    0    0  0.00000000000E+00  0.00000000000E+00  0.52135482606E+03  0.16768404970E+04  0.15937324737E+04 0.  0.
        2    1    3    3  502    0 -0.45102404447E+03 -0.14491674357E+03 -0.41349523312E+03  0.62880987514E+03  0.25500000920E-02 0.  1.
       -2    1    3    3    0  502  0.45102404447E+03  0.14491674357E+03  0.93485005918E+03  0.10480306219E+04  0.25500000920E-02 0. -1.
</event>
<event>
 5   0  0.2649086E-04  0.1609730E+04  0.7818609E-02  0.8814593E-01
       -1   -1    0    0    0  501  0.00000000000E+00  0.00000000000E+00  0.40322745057E+03  0.40322745060E+03  0.50400001928E-02 0. -1.
        1   -1    0    0  501    0  0.00000000000E+00  0.00000000000E+00 -0.16065557973E+04  0.16065557973E+04  0.50400001928E-02 0.  1.
    10030    2    1    2    0    0  0.00000000000E+00  0.00000000000E+00 -0.12033283467E+04  0.20097832479E+04  0.16097296647E+04 0.  0.
        2    1    3    3  502    0 -0.21820407395E+03 -0.74755982558E+03 -0.34778496258E+03  0.85288515693E+03  0.25500000920E-02 0. -1.
       -2    1    3    3    0  502  0.21820407395E+03  0.74755982558E+03 -0.85554338411E+03  0.11568980909E+04  0.25500000920E-02 0.  1.
</event>
<event>
 5   0  0.2796994E-04  0.1376854E+04  0.7818609E-02  0.8970745E-01
       -1   -1    0    0    0  501  0.00000000000E+00  0.00000000000E+00  0.31423899765E+03  0.31423899769E+03  0.50400001928E-02 0. -1.
        1   -1    0    0  501    0  0.00000000000E+00  0.00000000000E+00 -0.15081882462E+04  0.15081882462E+04  0.50400001928E-02 0.  1.
    10030    2    1    2    0    0  0.00000000000E+00  0.00000000000E+00 -0.11939492486E+04  0.18224272439E+04  0.13768537508E+04 0.  0.
        3    1    3    3  502    0  0.53069427843E+03  0.19814556671E+03 -0.11147669386E+04  0.12504412903E+04  0.10100000352E+00 0.  1.
       -3    1    3    3    0  502 -0.53069427843E+03 -0.19814556671E+03 -0.79182309955E+02  0.57198595365E+03  0.10100000352E+00 0. -1.
</event>
<event>
 5   0  0.5131239E-04  0.1595695E+04  0.7818609E-02  0.8823197E-01
        2   -1    0    0  501    0  0.00000000000E+00  0.00000000000E+00  0.24209093389E+04  0.24209093389E+04  0.25500000920E-02 0. -1.
       -2   -1    0    0    0  501  0.00000000000E+00  0.00000000000E+00 -0.26294293087E+03  0.26294293088E+03  0.25500000920E-02 0.  1.
    10030    2    1    2    0    0  0.00000000000E+00  0.00000000000E+00  0.21579664080E+04  0.26838522698E+04  0.15956954559E+04 0.  0.
        1    1    3    3  502    0 -0.65387105993E+03  0.42584912284E+03  0.79922487268E+03  0.11169848860E+04  0.50400001928E-02 0. -1.
       -1    1    3    3    0  502  0.65387105993E+03 -0.42584912284E+03  0.13587415354E+04  0.15668673838E+04  0.50400001928E-02 0.  1.
</event>
<event>
 5   0  0.2763895E-04  0.1643601E+04  0.7818609E-02  0.8794201E-01
        1   -1    0    0  501    0  0.00000000000E+00  0.00000000000E+00  0.98213760272E+03  0.98213760273E+03  0.50400001928E-02 0.  1.
       -1   -1    0    0    0  501  0.00000000000E+00  0.00000000000E+00 -0.68763866791E+03  0.68763866793E+03  0.50400001928E-02 0. -1.
    10030    2    1    2    0    0  0.00000000000E+00  0.00000000000E+00  0.29449893480E+03  0.16697762707E+04  0.16436006728E+04 0.  0.
        4    1    3    3  502    0  0.19549534027E+03 -0.74060823521E+03  0.44970746598E+03  0.88823274201E+03  0.12699999809E+01 0.  1.
       -4    1    3    3    0  502 -0.19549534027E+03  0.74060823521E+03 -0.15520853118E+03  0.78154352865E+03  0.12699999809E+01 0. -1.
</event>
<event>
 5   0  0.2763895E-04  0.1559678E+04  0.7818609E-02  0.8845710E-01
       -1   -1    0    0    0  501  0.00000000000E+00  0.00000000000E+00  0.30839636067E+03  0.30839636071E+03  0.50400001928E-02 0.  1.
        1   -1    0    0  501    0  0.00000000000E+00  0.00000000000E+00 -0.19719706853E+04  0.19719706853E+04  0.50400001928E-02 0. -1.
    10030    2    1    2    0    0  0.00000000000E+00  0.00000000000E+00 -0.16635743247E+04  0.22803670461E+04  0.15596776369E+04 0.  0.
        4    1    3    3  502    0 -0.59126231217E+03 -0.22985439386E+02 -0.15744692051E+04  0.16819852387E+04  0.12699999809E+01 0. -1.
       -4    1    3    3    0  502  0.59126231217E+03  0.22985439386E+02 -0.89105119532E+02  0.59838180741E+03  0.12699999809E+01 0.  1.
</event>
<event>
 5   0  0.2730707E-04  0.1617745E+04  0.7818609E-02  0.8809720E-01
        1   -1    0    0  501    0  0.00000000000E+00  0.00000000000E+00  0.60740612326E+03  0.60740612328E+03  0.50400001928E-02 0. -1.
       -1   -1    0    0    0  501  0.00000000000E+00  0.00000000000E+00 -0.10771622086E+04  0.10771622086E+04  0.50400001928E-02 0.  1.
    10030    2    1    2    0    0  0.00000000000E+00  0.00000000000E+00 -0.46975608535E+03  0.16845683319E+04  0.16177452473E+04 0.  0.
        5    1    3    3  502    0  0.71000513880E+03 -0.38317330679E+03 -0.29491141615E+03  0.85902497841E+03  0.46999998093E+01 0. -1.
       -5    1    3    3    0  502 -0.71000513880E+03  0.38317330679E+03 -0.17484466921E+03  0.82554335350E+03  0.46999998093E+01 0.  1.
</event>
<event>
 5   0  0.5315984E-04  0.1507362E+04  0.7818609E-02  0.8879572E-01
        2   -1    0    0  501    0  0.00000000000E+00  0.00000000000E+00  0.97158074348E+03  0.97158074348E+03  0.25500000920E-02 0. -1.
       -2   -1    0    0    0  501  0.00000000000E+00  0.00000000000E+00 -0.58465035019E+03  0.58465035020E+03  0.25500000920E-02 0.  1.
    10030    2    1    2    0    0  0.00000000000E+00  0.00000000000E+00  0.38693039329E+03  0.15562310937E+04  0.15073619631E+04 0.  0.
        2    1    3    3  502    0  0.10856945108E+03  0.68371725197E+03 -0.11415173165E+03  0.70163182952E+03  0.25500000920E-02 0.  1.
       -2    1    3    3    0  502 -0.10856945108E+03 -0.68371725197E+03  0.50108212494E+03  0.85459926415E+03  0.25500000920E-02 0. -1.
</event>
<event>
 5   0  0.5083831E-04  0.1599494E+04  0.7818609E-02  0.8820859E-01
        2   -1    0    0  501    0  0.00000000000E+00  0.00000000000E+00  0.78224095857E+03  0.78224095858E+03  0.25500000920E-02 0. -1.
       -2   -1    0    0    0  501  0.00000000000E+00  0.00000000000E+00 -0.81764490048E+03  0.81764490048E+03  0.25500000920E-02 0.  1.
    10030    2    1    2    0    0  0.00000000000E+00  0.00000000000E+00 -0.35403941901E+02  0.15998858591E+04  0.15994940834E+04 0.  0.
        4    1    3    3  502    0 -0.52019582736E+03  0.25212299048E+03 -0.57048914016E+03  0.81217558020E+03  0.12699999809E+01 0.  1.
       -4    1    3    3    0  502  0.52019582736E+03 -0.25212299048E+03  0.53508519826E+03  0.78771027886E+03  0.12699999809E+01 0. -1.
</event>
<event>
 5   0  0.5381164E-04  0.1591947E+04  0.7818609E-02  0.8825510E-01
        2   -1    0    0  501    0  0.00000000000E+00  0.00000000000E+00  0.22299231262E+04  0.22299231262E+04  0.25500000920E-02 0. -1.
       -2   -1    0    0    0  501  0.00000000000E+00  0.00000000000E+00 -0.28412371942E+03  0.28412371943E+03  0.25500000920E-02 0.  1.
    10030    2    1    2    0    0  0.00000000000E+00  0.00000000000E+00  0.19457994068E+04  0.25140468457E+04  0.15919473015E+04 0.  0.
        5    1    3    3  502    0 -0.55423604713E+03  0.39029621523E+03  0.16317295226E+04  0.17669386114E+04  0.46999998093E+01 0.  1.
       -5    1    3    3    0  502  0.55423604713E+03 -0.39029621523E+03  0.31406988424E+03  0.74710823429E+03  0.46999998093E+01 0. -1.
</event>
<event>
 5   0  0.5264308E-04  0.1591741E+04  0.7818609E-02  0.8825638E-01
       -2   -1    0    0    0  501  0.00000000000E+00  0.00000000000E+00  0.61990281546E+03  0.61990281546E+03  0.25500000920E-02 0.  1.
        2   -1    0    0  501    0  0.00000000000E+00  0.00000000000E+00 -0.10217886692E+04  0.10217886692E+04  0.25500000920E-02 0. -1.
    10030    2    1    2    0    0  0.00000000000E+00  0.00000000000E+00 -0.40188585377E+03  0.16416914847E+04  0.15917407740E+04 0.  0.
        3    1    3    3  502    0  0.19403981156E+03  0.10700500416E+03 -0.98933123267E+03  0.10138430931E+04  0.10100000352E+00 0. -1.
       -3    1    3    3    0  502 -0.19403981156E+03 -0.10700500416E+03  0.58744537889E+03  0.62784839155E+03  0.10100000352E+00 0.  1.
</event>
<event>
 5   0  0.5381164E-04  0.1595094E+04  0.7818609E-02  0.8823568E-01
        2   -1    0    0  501    0  0.00000000000E+00  0.00000000000E+00  0.61979973991E+03  0.61979973992E+03  0.25500000920E-02 0. -1.
       -2   -1    0    0    0  501  0.00000000000E+00  0.00000000000E+00 -0.10262686357E+04  0.10262686357E+04  0.25500000920E-02 0.  1.
    10030    2    1    2    0    0  0.00000000000E+00  0.00000000000E+00 -0.40646889583E+03  0.16460683757E+04  0.15950937697E+04 0.  0.
        5    1    3    3  502    0  0.16198068530E+03  0.33821578463E+03 -0.92959686639E+03  0.10023971685E+04  0.46999998093E+01 0.  1.
       -5    1    3    3    0  502 -0.16198068530E+03 -0.33821578463E+03  0.52312797055E+03  0.64367120718E+03  0.46999998093E+01 0. -1.
</event>
<event>
 5   0  0.5315984E-04  0.1581700E+04  0.7818609E-02  0.8831870E-01
        2   -1    0    0  501    0  0.00000000000E+00  0.00000000000E+00  0.14389443914E+04  0.14389443914E+04  0.25500000920E-02 0.  1.
       -2   -1    0    0    0  501  0.00000000000E+00  0.00000000000E+00 -0.43465468521E+03  0.43465468522E+03  0.25500000920E-02 0. -1.
    10030    2    1    2    0    0  0.00000000000E+00  0.00000000000E+00  0.10042897062E+04  0.18735990767E+04  0.15817002516E+04 0.  0.
        2    1    3    3  502    0 -0.43903986727E+03  0.36565823493E+03 -0.14555676313E+03  0.58961743625E+03  0.25500000920E-02 0. -1.
       -2    1    3    3    0  502  0.43903986727E+03 -0.36565823493E+03  0.11498464694E+04  0.12839816404E+04  0.25500000920E-02 0.  1.
</event>
<event>
 5   0  0.2689675E-04  0.1596265E+04  0.7818609E-02  0.8822846E-01
        1   -1    0    0  501    0  0.00000000000E+00  0.00000000000E+00  0.18151277014E+04  0.18151277014E+04  0.50400001928E-02 0.  1.
       -1   -1    0    0    0  501  0.00000000000E+00  0.00000000000E+00 -0.35094807780E+03  0.35094807784E+03  0.50400001928E-02 0. -1.
    10030    2    1    2    0    0  0.00000000000E+00  0.00000000000E+00  0.14641796236E+04  0.21660757792E+04  0.15962651131E+04 0.  0.
        1    1    3    3  502    0  0.77433007440E+03 -0.18528404086E+03  0.65655745915E+03  0.10319810740E+04  0.50400001928E-02 0. -1.
       -1    1    3    3    0  502 -0.77433007440E+03  0.18528404086E+03  0.80762216444E+03  0.11340947052E+04  0.50400001928E-02 0.  1.
</event>
<event>
 5   0  0.2763895E-04  0.1507155E+04  0.7818609E-02  0.8879709E-01
       -1   -1    0    0    0  501  0.00000000000E+00  0.00000000000E+00  0.83968157355E+03  0.83968157357E+03  0.50400001928E-02 0.  1.
        1   -1    0    0  501    0  0.00000000000E+00  0.00000000000E+00 -0.67630273920E+03  0.67630273922E+03  0.50400001928E-02 0. -1.
    10030    2    1    2    0    0  0.00000000000E+00  0.00000000000E+00  0.16337883435E+03  0.15159843128E+04  0.15071548670E+04 0.  0.
        4    1    3    3  502    0  0.55947814156E+03  0.11099276433E+03  0.57706025820E+03  0.81137866567E+03  0.12699999809E+01 0.  1.
       -4    1    3    3    0  502 -0.55947814156E+03 -0.11099276433E+03 -0.41368142385E+03  0.70460564712E+03  0.12699999809E+01 0. -1.
</event>
<event>
 5   0  0.5083831E-04  0.1590838E+04  0.7818609E-02  0.8826196E-01
       -2   -1    0    0    0  501  0.00000000000E+00  0.00000000000E+00  0.13469494661E+04  0.13469494661E+04  0.25500000920E-02 0.  1.
        2   -1    0    0  501    0  0.00000000000E+00  0.00000000000E+00 -0.46972173542E+03  0.46972173543E+03  0.25500000920E-02 0. -1.
    10030    2    1    2    0    0  0.00000000000E+00  0.00000000000E+00  0.87722773070E+03  0.18166712016E+04  0.15908380694E+04 0.  0.
        4    1    3    3  502    0 -0.26116227384E+03  0.65481201702E+03  0.85929088481E+03  0.11114706242E+04  0.12699999809E+01 0.  1.
       -4    1    3    3    0  502  0.26116227384E+03 -0.65481201702E+03  0.17936845892E+02  0.70520057732E+03  0.12699999809E+01 0. -1.
</event>
<event>
 5   0  0.5083831E-04  0.1598490E+04  0.7818609E-02  0.8821476E-01
        2   -1    0    0  501    0  0.00000000000E+00  0.00000000000E+00  0.49807749492E+03  0.49807749493E+03  0.25500000920E-02 0. -1.
       -2   -1    0    0    0  501  0.00000000000E+00  0.00000000000E+00 -0.12825159575E+04  0.12825159575E+04  0.25500000920E-02 0.  1.
    10030    2    1    2    0    0  0.00000000000E+00  0.00000000000E+00 -0.78443846259E+03  0.17805934524E+04  0.15984897064E+04 0.  0.
        4    1    3    3  502    0 -0.33337494514E+03 -0.34605026266E+02 -0.12004498364E+04  0.12463618192E+04  0.12699999809E+01 0.  1.
       -4    1    3    3    0  502  0.33337494514E+03  0.34605026266E+02  0.41601137380E+03  0.53423163320E+03  0.12699999809E+01 0. -1.
</event>
<event>
 5   0  0.2649086E-04  0.1598195E+04  0.7818609E-02  0.8821658E-01
       -1   -1    0    0    0  501  0.00000000000E+00  0.00000000000E+00  0.45259774030E+03  0.45259774033E+03  0.50400001928E-02 0. -1.
        1   -1    0    0  501    0  0.00000000000E+00  0.00000000000E+00 -0.14108704499E+04  0.14108704499E+04  0.50400001928E-02 0.  1.
    10030    2    1    2    0    0  0.00000000000E+00  0.00000000000E+00 -0.95827270963E+03  0.18634681903E+04  0.15981949537E+04 0.  0.
        2    1    3    3  502    0  0.41981673037E+03 -0.65865422256E+03 -0.67592619343E+03  0.10329316003E+04  0.25500000920E-02 0.  1.
       -2    1    3    3    0  502 -0.41981673037E+03  0.65865422256E+03 -0.28234651620E+03  0.83053658993E+03  0.25500000920E-02 0. -1.
</event>
<event>
 5   0  0.2649086E-04  0.1611892E+04  0.7818609E-02  0.8813276E-01
       -1   -1    0    0    0  501  0.00000000000E+00  0.00000000000E+00  0.34004432720E+03  0.34004432723E+03  0.50400001928E-02 0.  1.
        1   -1    0    0  501    0  0.00000000000E+00  0.00000000000E+00 -0.19101881037E+04  0.19101881037E+04  0.50400001928E-02 0. -1.
    10030    2    1    2    0    0  0.00000000000E+00  0.00000000000E+00 -0.15701437765E+04  0.22502324310E+04  0.16118915951E+04 0.  0.
        2    1    3    3  502    0 -0.37296054510E+03  0.30870801132E+03 -0.16845554806E+04  0.17527485192E+04  0.25500000920E-02 0. -1.
       -2    1    3    3    0  502  0.37296054510E+03 -0.30870801132E+03  0.11441170402E+03  0.49748391178E+03  0.25500000920E-02 0.  1.
</event>
<event>
 5   0  0.5315984E-04  0.1606165E+04  0.7818609E-02  0.8816770E-01
        2   -1    0    0  501    0  0.00000000000E+00  0.00000000000E+00  0.15219412747E+04  0.15219412747E+04  0.25500000920E-02 0.  1.
       -2   -1    0    0    0  501  0.00000000000E+00  0.00000000000E+00 -0.42376223095E+03  0.42376223096E+03  0.25500000920E-02 0. -1.
    10030    2    1    2    0    0  0.00000000000E+00  0.00000000000E+00  0.10981790438E+04  0.19457035057E+04  0.16061646615E+04 0.  0.
        2    1    3    3  502    0  0.31427325102E+03  0.67576229053E+03  0.18664301732E+03  0.76828247770E+03  0.25500000920E-02 0. -1.
       -2    1    3    3    0  502 -0.31427325102E+03 -0.67576229053E+03  0.91153602646E+03  0.11774210280E+04  0.25500000920E-02 0.  1.
</event>
<event>
 5   0  0.5264308E-04  0.1621589E+04  0.7818609E-02  0.8807394E-01
       -2   -1    0    0    0  501  0.00000000000E+00  0.00000000000E+00  0.81467043017E+03  0.81467043017E+03  0.25500000920E-02 0. -1.
        2   -1    0    0  501    0  0.00000000000E+00  0.00000000000E+00 -0.80693720401E+03  0.80693720402E+03  0.25500000920E-02 0.  1.
    10030    2    1    2    0    0  0.00000000000E+00  0.00000000000E+00  0.77332261570E+01  0.16216076342E+04  0.16215891947E+04 0.  0.
        3    1    3    3  502    0 -0.26579257917E+03  0.20460953477E+03  0.74203292494E+03  0.81432403179E+03  0.10100000352E+00 0. -1.
       -3    1    3    3    0  502  0.26579257917E+03 -0.20460953477E+03 -0.73429969878E+03  0.80728360240E+03  0.10100000352E+00 0.  1.
</event>
<event>
 5   0  0.5315984E-04  0.1588419E+04  0.7818609E-02  0.8827694E-01
       -2   -1    0    0    0  501  0.00000000000E+00  0.00000000000E+00  0.49326735520E+03  0.49326735521E+03  0.25500000920E-02 0. -1.
        2   -1    0    0  501    0  0.00000000000E+00  0.00000000000E+00 -0.12787567697E+04  0.12787567697E+04  0.25500000920E-02 0.  1.
    10030    2    1    2    0    0  0.00000000000E+00  0.00000000000E+00 -0.78548941446E+03  0.17720241249E+04  0.15884193020E+04 0.  0.
        2    1    3    3  502    0  0.74594402516E+03 -0.15204292127E+03 -0.64522172384E+03  0.99792815949E+03  0.25500000920E-02 0.  1.
       -2    1    3    3    0  502 -0.74594402516E+03  0.15204292127E+03 -0.14026769062E+03  0.77409596538E+03  0.25500000920E-02 0. -1.
</event>
<event>
 5   0  0.5131239E-04  0.1589027E+04  0.7818609E-02  0.8827318E-01
        2   -1    0    0  501    0  0.00000000000E+00  0.00000000000E+00  0.53857731053E+03  0.53857731053E+03  0.25500000920E-02 0. -1.
       -2   -1    0    0    0  501  0.00000000000E+00  0.00000000000E+00 -0.11720720329E+04  0.11720720329E+04  0.25500000920E-02 0.  1.
    10030    2    1    2    0    0  0.00000000000E+00  0.00000000000E+00 -0.63349472234E+03  0.17106493434E+04  0.15890266243E+04 0.  0.
        1    1    3    3  502    0  0.25491920362E+03 -0.24914200879E+03 -0.10811628174E+04  0.11384061571E+04  0.50400001928E-02 0.  1.
       -1    1    3    3    0  502 -0.25491920362E+03  0.24914200879E+03  0.44766809502E+03  0.57224318628E+03  0.50400001928E-02 0. -1.
</event>
<event>
 5   0  0.2730707E-04  0.1520480E+04  0.7818609E-02  0.8870947E-01
        1   -1    0    0  501    0  0.00000000000E+00  0.00000000000E+00  0.92793568799E+03  0.92793568800E+03  0.50400001928E-02 0.  1.
       -1   -1    0    0    0  501  0.00000000000E+00  0.00000000000E+00 -0.62285011157E+03  0.62285011159E+03  0.50400001928E-02 0. -1.
    10030    2    1    2    0    0  0.00000000000E+00  0.00000000000E+00  0.30508557642E+03  0.15507857996E+04  0.15204799858E+04 0.  0.
        5    1    3    3  502    0  0.16122999274E+03  0.64700991215E+03  0.52495870929E+03  0.84865816053E+03  0.46999998093E+01 0.  1.
       -5    1    3    3    0  502 -0.16122999274E+03 -0.64700991215E+03 -0.21987313287E+03  0.70212763906E+03  0.46999998093E+01 0. -1.
</event>
<event>
 5   0  0.5381164E-04  0.1604533E+04  0.7818609E-02  0.8817768E-01
        2   -1    0    0  501    0  0.00000000000E+00  0.00000000000E+00  0.55266943259E+03  0.55266943260E+03  0.25500000920E-02 0.  1.
       -2   -1    0    0    0  501  0.00000000000E+00  0.00000000000E+00 -0.11645867763E+04  0.11645867763E+04  0.25500000920E-02 0. -1.
    10030    2    1    2    0    0  0.00000000000E+00  0.00000000000E+00 -0.61191734369E+03  0.17172562089E+04  0.16045329699E+04 0.  0.
        5    1    3    3  502    0  0.59473006113E+03  0.22771315777E+03 -0.82814156038E+03  0.10446997951E+04  0.46999998093E+01 0.  1.
       -5    1    3    3    0  502 -0.59473006113E+03 -0.22771315777E+03  0.21622421669E+03  0.67255641378E+03  0.46999998093E+01 0. -1.
</event>
<event>
 5   0  0.5083831E-04  0.1736720E+04  0.7818609E-02  0.8740695E-01
       -2   -1    0    0    0  501  0.00000000000E+00  0.00000000000E+00  0.38233069994E+03  0.38233069995E+03  0.25500000920E-02 0.  1.
        2   -1    0    0  501    0  0.00000000000E+00  0.00000000000E+00 -0.19722422344E+04  0.19722422344E+04  0.25500000920E-02 0. -1.
    10030    2    1    2    0    0  0.00000000000E+00  0.00000000000E+00 -0.15899115345E+04  0.23545729343E+04  0.17367196135E+04 0.  0.
        4    1    3    3  502    0 -0.10137818030E+02 -0.10200301368E+03  0.37409813087E+03  0.38788969383E+03  0.12699999809E+01 0.  1.
       -4    1    3    3    0  502  0.10137818030E+02  0.10200301368E+03 -0.19640096653E+04  0.19666832405E+04  0.12699999809E+01 0. -1.
</event>
<event>
 5   0  0.5315984E-04  0.1608095E+04  0.7818609E-02  0.8815591E-01
        2   -1    0    0  501    0  0.00000000000E+00  0.00000000000E+00  0.16107916179E+04  0.16107916179E+04  0.25500000920E-02 0. -1.
       -2   -1    0    0    0  501  0.00000000000E+00  0.00000000000E+00 -0.40135051559E+03  0.40135051560E+03  0.25500000920E-02 0.  1.
    10030    2    1    2    0    0  0.00000000000E+00  0.00000000000E+00  0.12094411023E+04  0.20121421335E+04  0.16080945822E+04 0.  0.
        2    1    3    3  502    0  0.18870258752E+03  0.63206433821E+03  0.11799975527E+04  0.13518536232E+04  0.25500000920E-02 0. -1.
       -2    1    3    3    0  502 -0.18870258752E+03 -0.63206433821E+03  0.29443549580E+02  0.66028851027E+03  0.25500000920E-02 0.  1.
</event>
<event>
 5   0  0.2730707E-04  0.1597941E+04  0.7818609E-02  0.8821814E-01
       -1   -1    0    0    0  501  0.00000000000E+00  0.00000000000E+00  0.30043571112E+03  0.30043571116E+03  0.50400001928E-02 0. -1.
        1   -1    0    0  501    0  0.00000000000E+00  0.00000000000E+00 -0.21247603992E+04  0.21247603993E+04  0.50400001928E-02 0.  1.
    10030    2    1    2    0    0  0.00000000000E+00  0.00000000000E+00 -0.18243246881E+04  0.24251961104E+04  0.15979410522E+04 0.  0.
        5    1    3    3  502    0  0.16091339291E+03 -0.61844428261E+03 -0.18435351300E+03  0.66511259081E+03  0.46999998093E+01 0. -1.
       -5    1    3    3    0  502 -0.16091339291E+03  0.61844428261E+03 -0.16399711751E+04  0.17600835196E+04  0.46999998093E+01 0.  1.
</event>
<event>
 5   0  0.2730707E-04  0.1596154E+04  0.7818609E-02  0.8822914E-01
        1   -1    0    0  501    0  0.00000000000E+00  0.00000000000E+00  0.10217737277E+04  0.10217737277E+04  0.50400001928E-02 0.  1.
       -1   -1    0    0    0  501  0.00000000000E+00  0.00000000000E+00 -0.62335453403E+03  0.62335453405E+03  0.50400001928E-02 0. -1.
    10030    2    1    2    0    0  0.00000000000E+00  0.00000000000E+00  0.39841919370E+03  0.16451282618E+04  0.15961544862E+04 0.  0.
        5    1    3    3  502    0  0.45531858879E+03 -0.35217666148E+03 -0.37052731124E+03  0.68458454304E+03  0.46999998093E+01 0.  1.
       -5    1    3    3    0  502 -0.45531858879E+03  0.35217666148E+03  0.76894650494E+03  0.96054371876E+03  0.46999998093E+01 0. -1.
</event>
<event>
 5   0  0.5131239E-04  0.1605319E+04  0.7818609E-02  0.8817287E-01
       -2   -1    0    0    0  501  0.00000000000E+00  0.00000000000E+00  0.13987225309E+04  0.13987225309E+04  0.25500000920E-02 0.  1.
        2   -1    0    0  501    0  0.00000000000E+00  0.00000000000E+00 -0.46060777251E+03  0.46060777252E+03  0.25500000920E-02 0. -1.
    10030    2    1    2    0    0  0.00000000000E+00  0.00000000000E+00  0.93811475837E+03  0.18593303034E+04  0.16053192447E+04 0.  0.
        1    1    3    3  502    0  0.27129257778E+02 -0.77986039002E+03  0.68680553639E+03  0.10395287728E+04  0.50400001928E-02 0.  1.
       -1    1    3    3    0  502 -0.27129257778E+02  0.77986039002E+03  0.25130922197E+03  0.81980153063E+03  0.50400001928E-02 0. -1.
</event>
<event>
 5   0  0.5381164E-04  0.1600556E+04  0.7818609E-02  0.8820206E-01
       -2   -1    0    0    0  501  0.00000000000E+00  0.00000000000E+00  0.34650677956E+03  0.34650677957E+03  0.25500000920E-02 0. -1.
        2   -1    0    0  501    0  0.00000000000E+00  0.00000000000E+00 -0.18482904533E+04  0.18482904533E+04  0.25500000920E-02 0.  1.
    10030    2    1    2    0    0  0.00000000000E+00  0.00000000000E+00 -0.15017836737E+04  0.21947972328E+04  0.16005563691E+04 0.  0.
        5    1    3    3  502    0  0.16144079428E+03  0.74285442787E+03 -0.40799924697E+03  0.86277535117E+03  0.46999998093E+01 0. -1.
       -5    1    3    3    0  502 -0.16144079428E+03 -0.74285442787E+03 -0.10937844267E+04  0.13320218817E+04  0.46999998093E+01 0.  1.
</event>
<event>
 5   0  0.5381164E-04  0.1691972E+04  0.7818609E-02  0.8765956E-01
       -2   -1    0    0    0  501  0.00000000000E+00  0.00000000000E+00  0.99525052672E+03  0.99525052673E+03  0.25500000920E-02 0.  1.
        2   -1    0    0  501    0  0.00000000000E+00  0.00000000000E+00 -0.71910787464E+03  0.71910787464E+03  0.25500000920E-02 0. -1.
    10030    2    1    2    0    0  0.00000000000E+00  0.00000000000E+00  0.27614265208E+03  0.17143584014E+04  0.16919722114E+04 0.  0.
        5    1    3    3  502    0  0.37489454888E+03 -0.62005731455E+03  0.58048717541E+03  0.92844194590E+03  0.46999998093E+01 0.  1.
       -5    1    3    3    0  502 -0.37489454888E+03  0.62005731455E+03 -0.30434452332E+03  0.78591645547E+03  0.46999998093E+01 0. -1.
</event>
<event>
 5   0  0.2763895E-04  0.1593343E+04  0.7818609E-02  0.8824648E-01
        1   -1    0    0  501    0  0.00000000000E+00  0.00000000000E+00  0.40868297396E+03  0.40868297399E+03  0.50400001928E-02 0. -1.
       -1   -1    0    0    0  501  0.00000000000E+00  0.00000000000E+00 -0.15530023331E+04  0.15530023331E+04  0.50400001928E-02 0.  1.
    10030    2    1    2    0    0  0.00000000000E+00  0.00000000000E+00 -0.11443193591E+04  0.19616853071E+04  0.15933431672E+04 0.  0.
        4    1    3    3  502    0  0.41114240807E+03  0.56080569941E+03 -0.10508050621E+04  0.12600531749E+04  0.12699999809E+01 0.  1.
       -4    1    3    3    0  502 -0.41114240807E+03 -0.56080569941E+03 -0.93514297011E+02  0.70163213214E+03  0.12699999809E+01 0. -1.
</event>
<event>
 5   0  0.2763895E-04  0.1679599E+04  0.7818609E-02  0.8773086E-01
       -1   -1    0    0    0  501  0.00000000000E+00  0.00000000000E+00  0.10955842909E+04  0.10955842909E+04  0.50400001928E-02 0.  1.
        1   -1    0    0  501    0  0.00000000000E+00  0.00000000000E+00 -0.64373212463E+03  0.64373212465E+03  0.50400001928E-02 0. -1.
    10030    2    1    2    0    0  0.00000000000E+00  0.00000000000E+00  0.45185216627E+03  0.17393164156E+04  0.16795985274E+04 0.  0.
        4    1    3    3  502    0 -0.27867868229E+03  0.10081377671E+03 -0.58778282806E+03  0.65826703654E+03  0.12699999809E+01 0. -1.
       -4    1    3    3    0  502  0.27867868229E+03 -0.10081377671E+03  0.10396349943E+04  0.10810493790E+04  0.12699999809E+01 0.  1.
</event>
<event>
 5   0  0.2649086E-04  0.1581627E+04  0.7818609E-02  0.8831916E-01
       -1   -1    0    0    0  501  0.00000000000E+00  0.00000000000E+00  0.98274572606E+03  0.98274572607E+03  0.50400001928E-02 0. -1.
        1   -1    0    0  501    0  0.00000000000E+00  0.00000000000E+00 -0.63636574741E+03  0.63636574743E+03  0.50400001928E-02 0.  1.
    10030    2    1    2    0    0  0.00000000000E+00  0.00000000000E+00  0.34637997865E+03  0.16191114735E+04  0.15816266544E+04 0.  0.
        2    1    3    3  502    0  0.52870550947E+03 -0.50728660741E+03 -0.13137844681E+03  0.74439876014E+03  0.25500000920E-02 0. -1.
       -2    1    3    3    0  502 -0.52870550947E+03  0.50728660741E+03  0.47775842546E+03  0.87471271336E+03  0.25500000920E-02 0.  1.
</event>
<event>
 5   0  0.5131239E-04  0.1608839E+04  0.7818609E-02  0.8815136E-01
        2   -1    0    0  501    0  0.00000000000E+00  0.00000000000E+00  0.13330305806E+04  0.13330305806E+04  0.25500000920E-02 0.  1.
       -2   -1    0    0    0  501  0.00000000000E+00  0.00000000000E+00 -0.48542849935E+03  0.48542849935E+03  0.25500000920E-02 0. -1.
    10030    2    1    2    0    0  0.00000000000E+00  0.00000000000E+00  0.84760208123E+03  0.18184590799E+04  0.16088393758E+04 0.  0.
        1    1    3    3  502    0 -0.20691604272E+03 -0.10171903900E+03 -0.44727984768E+03  0.50320996989E+03  0.50400001928E-02 0. -1.
       -1    1    3    3    0  502  0.20691604272E+03  0.10171903900E+03  0.12948819289E+04  0.13152491100E+04  0.50400001928E-02 0.  1.
</event>
<event>
 5   0  0.5381164E-04  0.1608499E+04  0.7818609E-02  0.8815344E-01
        2   -1    0    0  501    0  0.00000000000E+00  0.00000000000E+00  0.62297991286E+03  0.62297991286E+03  0.25500000920E-02 0.  1.
       -2   -1    0    0    0  501  0.00000000000E+00  0.00000000000E+00 -0.10382635368E+04  0.10382635368E+04  0.25500000920E-02 0. -1.
    10030    2    1    2    0    0  0.00000000000E+00  0.00000000000E+00 -0.41528362390E+03  0.16612434496E+04  0.16084990863E+04 0.  0.
        5    1    3    3  502    0 -0.19780697058E+02 -0.78604261117E+03 -0.33161324288E+02  0.78700446376E+03  0.46999998093E+01 0.  1.
       -5    1    3    3    0  502  0.19780697058E+02  0.78604261117E+03 -0.38212229961E+03  0.87423898587E+03  0.46999998093E+01 0. -1.
</event>
<event>
 5   0  0.5264308E-04  0.1604389E+04  0.7818609E-02  0.8817856E-01
       -2   -1    0    0    0  501  0.00000000000E+00  0.00000000000E+00  0.10079102415E+04  0.10079102415E+04  0.25500000920E-02 0.  1.
        2   -1    0    0  501    0  0.00000000000E+00  0.00000000000E+00 -0.63846590345E+03  0.63846590346E+03  0.25500000920E-02 0. -1.
    10030    2    1    2    0    0  0.00000000000E+00  0.00000000000E+00  0.36944433803E+03  0.16463761449E+04  0.16043893828E+04 0.  0.
        3    1    3    3  502    0  0.12095175810E+03 -0.44405916356E+03  0.85895442717E+03  0.97448478012E+03  0.10100000352E+00 0.  1.
       -3    1    3    3    0  502 -0.12095175810E+03  0.44405916356E+03 -0.48951008915E+03  0.67189136481E+03  0.10100000352E+00 0. -1.
</event>
<event>
 5   0  0.2763895E-04  0.1616445E+04  0.7818609E-02  0.8810508E-01
       -1   -1    0    0    0  501  0.00000000000E+00  0.00000000000E+00  0.46301273495E+03  0.46301273498E+03  0.50400001928E-02 0. -1.
        1   -1    0    0  501    0  0.00000000000E+00  0.00000000000E+00 -0.14108115487E+04  0.14108115487E+04  0.50400001928E-02 0.  1.
    10030    2    1    2    0    0  0.00000000000E+00  0.00000000000E+00 -0.94779881371E+03  0.18738242836E+04  0.16164451289E+04 0.  0.
        4    1    3    3  502    0  0.12048964316E+03 -0.40867620099E+03 -0.12700502516E+04  0.13396130956E+04  0.12699999809E+01 0.  1.
       -4    1    3    3    0  502 -0.12048964316E+03  0.40867620099E+03  0.32225143787E+03  0.53421118809E+03  0.12699999809E+01 0. -1.
</event>
<event>
 5   0  0.5131239E-04  0.1575340E+04  0.7818609E-02  0.8835842E-01
       -2   -1    0    0    0  501  0.00000000000E+00  0.00000000000E+00  0.51812255174E+03  0.51812255174E+03  0.25500000920E-02 0. -1.
        2   -1    0    0  501    0  0.00000000000E+00  0.00000000000E+00 -0.11974466764E+04  0.11974466764E+04  0.25500000920E-02 0.  1.
    10030    2    1    2    0    0  0.00000000000E+00  0.00000000000E+00 -0.67932412470E+03  0.17155692282E+04  0.15753401253E+04 0.  0.
        1    1    3    3  502    0 -0.20508564566E+03  0.71375801375E+03 -0.53780546013E+02  0.74458241411E+03  0.50400001928E-02 0. -1.
       -1    1    3    3    0  502  0.20508564566E+03 -0.71375801375E+03 -0.62554357869E+03  0.97098681407E+03  0.50400001928E-02 0.  1.
</event>
<event>
 5   0  0.2763895E-04  0.1582533E+04  0.7818609E-02  0.8831351E-01
       -1   -1    0    0    0  501  0.00000000000E+00  0.00000000000E+00  0.35277338324E+03  0.35277338328E+03  0.50400001928E-02 0. -1.
        1   -1    0    0  501    0  0.00000000000E+00  0.00000000000E+00 -0.17748006415E+04  0.17748006415E+04  0.50400001928E-02 0.  1.
    10030    2    1    2    0    0  0.00000000000E+00  0.00000000000E+00 -0.14220272582E+04  0.21275740248E+04  0.15825326877E+04 0.  0.
        4    1    3    3  502    0 -0.13812945178E+03  0.76661104921E+03 -0.52410393461E+03  0.93886036949E+03  0.12699999809E+01 0. -1.
       -4    1    3    3    0  502  0.13812945178E+03 -0.76661104921E+03 -0.89792332363E+03  0.11887136553E+04  0.12699999809E+01 0.  1.
</event>
<event>
 5   0  0.5264308E-04  0.1487485E+04  0.7818609E-02  0.8892818E-01
        2   -1    0    0  501    0  0.00000000000E+00  0.00000000000E+00  0.10913406537E+04  0.10913406537E+04  0.25500000920E-02 0.  1.
       -2   -1    0    0    0  501  0.00000000000E+00  0.00000000000E+00 -0.50685629806E+03  0.50685629807E+03  0.25500000920E-02 0. -1.
    10030    2    1    2    0    0  0.00000000000E+00  0.00000000000E+00  0.58448435567E+03  0.15981969518E+04  0.14874849696E+04 0.  0.
        3    1    3    3  502    0 -0.12266404263E+03  0.72356857813E+03  0.42186533841E+03  0.84650359040E+03  0.10100000352E+00 0. -1.
       -3    1    3    3    0  502  0.12266404263E+03 -0.72356857813E+03  0.16261901726E+03  0.75169336141E+03  0.10100000352E+00 0.  1.
</event>
<event>
 5   0  0.5083831E-04  0.1393046E+04  0.7818609E-02  0.8958868E-01
       -2   -1    0    0    0  501  0.00000000000E+00  0.00000000000E+00  0.84481973270E+03  0.84481973270E+03  0.25500000920E-02 0. -1.
        2   -1    0    0  501    0  0.00000000000E+00  0.00000000000E+00 -0.57425756945E+03  0.57425756946E+03  0.25500000920E-02 0.  1.
    10030    2    1    2    0    0  0.00000000000E+00  0.00000000000E+00  0.27056216324E+03  0.14190773022E+04  0.13930457657E+04 0.  0.
        4    1    3    3  502    0  0.40499595496E+03 -0.52448314861E+03 -0.83293630792E+02  0.66786506013E+03  0.12699999809E+01 0.  1.
       -4    1    3    3    0  502 -0.40499595496E+03  0.52448314861E+03  0.35385579404E+03  0.75121224203E+03  0.12699999809E+01 0. -1.
</event>
<event>
 5   0  0.2689675E-04  0.1598734E+04  0.7818609E-02  0.8821326E-01
       -1   -1    0    0    0  501  0.00000000000E+00  0.00000000000E+00  0.53724968340E+03  0.53724968342E+03  0.50400001928E-02 0.  1.
        1   -1    0    0  501    0  0.00000000000E+00  0.00000000000E+00 -0.11893680656E+04  0.11893680657E+04  0.50400001928E-02 0. -1.
    10030    2    1    2    0    0  0.00000000000E+00  0.00000000000E+00 -0.65211838225E+03  0.17266177491E+04  0.15987340201E+04 0.  0.
        1    1    3    3  502    0  0.62677366088E+03  0.30271526259E+03  0.98455250005E+02  0.70297595155E+03  0.50400001928E-02 0.  1.
       -1    1    3    3    0  502 -0.62677366088E+03 -0.30271526259E+03 -0.75057363225E+03  0.10236417975E+04  0.50400001928E-02 0. -1.
</event>
<event>
 5   0  0.5131239E-04  0.1600739E+04  0.7818609E-02  0.8820094E-01
       -2   -1    0    0    0  501  0.00000000000E+00  0.00000000000E+00  0.42356038318E+03  0.42356038319E+03  0.25500000920E-02 0. -1.
        2   -1    0    0  501    0  0.00000000000E+00  0.00000000000E+00 -0.15123960197E+04  0.15123960197E+04  0.25500000920E-02 0.  1.
    10030    2    1    2    0    0  0.00000000000E+00  0.00000000000E+00 -0.10888356365E+04  0.19359564029E+04  0.16007386266E+04 0.  0.
        1    1    3    3  502    0  0.25785739006E+03  0.19582796473E+03 -0.14296497140E+04  0.14658571998E+04  0.50400001928E-02 0.  1.
       -1    1    3    3    0  502 -0.25785739006E+03 -0.19582796473E+03  0.34081407745E+03  0.47009920314E+03  0.50400001928E-02 0. -1.
</event>
<event>
 5   0  0.2730707E-04  0.1608807E+04  0.7818609E-02  0.8815156E-01
       -1   -1    0    0    0  501  0.00000000000E+00  0.00000000000E+00  0.62017312969E+03  0.62017312971E+03  0.50400001928E-02 0. -1.
        1   -1    0    0  501    0  0.00000000000E+00  0.00000000000E+00 -0.10433616877E+04  0.10433616877E+04  0.50400001928E-02 0.  1.
    10030    2    1    2    0    0  0.00000000000E+00  0.00000000000E+00 -0.42318855803E+03  0.16635348175E+04  0.16088068664E+04 0.  0.
        5    1    3    3  502    0 -0.77701722654E+03 -0.18731821511E+03 -0.30522233882E+03  0.85558555981E+03  0.46999998093E+01 0.  1.
       -5    1    3    3    0  502  0.77701722654E+03  0.18731821511E+03 -0.11796621921E+03  0.80794925764E+03  0.46999998093E+01 0. -1.
</event>
<event>
 5   0  0.2730707E-04  0.1635440E+04  0.7818609E-02  0.8799067E-01
       -1   -1    0    0    0  501  0.00000000000E+00  0.00000000000E+00  0.48171697627E+03  0.48171697630E+03  0.50400001928E-02 0. -1.
        1   -1    0    0  501    0  0.00000000000E+00  0.00000000000E+00 -0.13880888866E+04  0.13880888866E+04  0.50400001928E-02 0.  1.
    10030    2    1    2    0    0  0.00000000000E+00  0.00000000000E+00 -0.90637191029E+03  0.18698058629E+04  0.16354399790E+04 0.  0.
        5    1    3    3  502    0  0.43067648947E+03 -0.20879327902E+03 -0.12111951209E+04  0.13023411929E+04  0.46999998093E+01 0.  1.
       -5    1    3    3    0  502 -0.43067648947E+03  0.20879327902E+03  0.30482321058E+03  0.56746466996E+03  0.46999998093E+01 0. -1.
</event>
<event>
 5   0  0.2689675E-04  0.1597145E+04  0.7818609E-02  0.8822304E-01
       -1   -1    0    0    0  501  0.00000000000E+00  0.00000000000E+00  0.45655783144E+03  0.45655783147E+03  0.50400001928E-02 0.  1.
        1   -1    0    0  501    0  0.00000000000E+00  0.00000000000E+00 -0.13967954808E+04  0.13967954808E+04  0.50400001928E-02 0. -1.
    10030    2    1    2    0    0  0.00000000000E+00  0.00000000000E+00 -0.94023764934E+03  0.18533533123E+04  0.15971448472E+04 0.  0.
        1    1    3    3  502    0  0.38826954741E+03 -0.69580664457E+03 -0.40852062198E+03  0.89542684050E+03  0.50400001928E-02 0. -1.
       -1    1    3    3    0  502 -0.38826954741E+03  0.69580664457E+03 -0.53171702737E+03  0.95792647176E+03  0.50400001928E-02 0.  1.
</event>
<event>
 5   0  0.2796994E-04  0.1593791E+04  0.7818609E-02  0.8824371E-01
        1   -1    0    0  501    0  0.00000000000E+00  0.00000000000E+00  0.14153890259E+04  0.14153890259E+04  0.50400001928E-02 0. -1.
       -1   -1    0    0    0  501  0.00000000000E+00  0.00000000000E+00 -0.44866995235E+03  0.44866995238E+03  0.50400001928E-02 0.  1.
    10030    2    1    2    0    0  0.00000000000E+00  0.00000000000E+00  0.96671907359E+03  0.18640589783E+04  0.15937911116E+04 0.  0.
        3    1    3    3  502    0 -0.55895672435E+03  0.56472780274E+03  0.55442898767E+03  0.96888679599E+03  0.10100000352E+00 0.  1.
       -3    1    3    3    0  502  0.55895672435E+03 -0.56472780274E+03  0.41229008592E+03  0.89517218234E+03  0.10100000352E+00 0. -1.
</event>
<event>
 5   0  0.2796994E-04  0.1606631E+04  0.7818609E-02  0.8816485E-01
        1   -1    0    0  501    0  0.00000000000E+00  0.00000000000E+00  0.17487148291E+04  0.17487148292E+04  0.50400001928E-02 0. -1.
       -1   -1    0    0    0  501  0.00000000000E+00  0.00000000000E+00 -0.36902267496E+03  0.36902267499E+03  0.50400001928E-02 0.  1.
    10030    2    1    2    0    0  0.00000000000E+00  0.00000000000E+00  0.13796921542E+04  0.21177375041E+04  0.16066305413E+04 0.  0.
        3    1    3    3  502    0  0.75495609027E+02 -0.33300253934E+03 -0.26860751208E+03  0.43444249785E+03  0.10100000352E+00 0.  1.
       -3    1    3    3    0  502 -0.75495609027E+02  0.33300253934E+03  0.16482996663E+04  0.16832950063E+04  0.10100000352E+00 0. -1.
</event>
<event>
 5   0  0.2763895E-04  0.1592244E+04  0.7818609E-02  0.8825327E-01
       -1   -1    0    0    0  501  0.00000000000E+00  0.00000000000E+00  0.47795282492E+03  0.47795282495E+03  0.50400001928E-02 0. -1.
        1   -1    0    0  501    0  0.00000000000E+00  0.00000000000E+00 -0.13260935274E+04  0.13260935274E+04  0.50400001928E-02 0.  1.
    10030    2    1    2    0    0  0.00000000000E+00  0.00000000000E+00 -0.84814070250E+03  0.18040463524E+04  0.15922438853E+04 0.  0.
        4    1    3    3  502    0 -0.66370676392E+03 -0.26438979328E+03 -0.82208175179E+03  0.10891412446E+04  0.12699999809E+01 0.  1.
       -4    1    3    3    0  502  0.66370676392E+03  0.26438979328E+03 -0.26058950714E+02  0.71490510774E+03  0.12699999809E+01 0. -1.
</event>
<event>
 5   0  0.2796994E-04  0.1602809E+04  0.7818609E-02  0.8818824E-01
        1   -1    0    0  501    0  0.00000000000E+00  0.00000000000E+00  0.59903679972E+03  0.59903679974E+03  0.50400001928E-02 0. -1.
       -1   -1    0    0    0  501  0.00000000000E+00  0.00000000000E+00 -0.10721364794E+04  0.10721364794E+04  0.50400001928E-02 0.  1.
    10030    2    1    2    0    0  0.00000000000E+00  0.00000000000E+00 -0.47309967965E+03  0.16711732791E+04  0.16028090410E+04 0.  0.
        3    1    3    3  502    0 -0.10320541494E+01  0.39438019127E+03  0.49085452485E+03  0.62966258835E+03  0.10100000352E+00 0. -1.
       -3    1    3    3    0  502  0.10320541494E+01 -0.39438019127E+03 -0.96395420450E+03  0.10415106908E+04  0.10100000352E+00 0.  1.
</event>
<event>
 5   0  0.2689675E-04  0.1589684E+04  0.7818609E-02  0.8826911E-01
        1   -1    0    0  501    0  0.00000000000E+00  0.00000000000E+00  0.16675683597E+04  0.16675683597E+04  0.50400001928E-02 0.  1.
       -1   -1    0    0    0  501  0.00000000000E+00  0.00000000000E+00 -0.37885918379E+03  0.37885918383E+03  0.50400001928E-02 0. -1.
    10030    2    1    2    0    0  0.00000000000E+00  0.00000000000E+00  0.12887091759E+04  0.20464275435E+04  0.15896837267E+04 0.  0.
        1    1    3    3  502    0  0.54414805924E+03 -0.55336753105E+03  0.42339731475E+03  0.88406901368E+03  0.50400001928E-02 0. -1.
       -1    1    3    3    0  502 -0.54414805924E+03  0.55336753105E+03  0.86531186112E+03  0.11623585298E+04  0.50400001928E-02 0.  1.
</event>
<event>
 5   0  0.2730707E-04  0.1627581E+04  0.7818609E-02  0.8803781E-01
       -1   -1    0    0    0  501  0.00000000000E+00  0.00000000000E+00  0.11305038700E+04  0.11305038700E+04  0.50400001928E-02 0. -1.
        1   -1    0    0  501    0  0.00000000000E+00  0.00000000000E+00 -0.58580478566E+03  0.58580478569E+03  0.50400001928E-02 0.  1.
    10030    2    1    2    0    0  0.00000000000E+00  0.00000000000E+00  0.54469908437E+03  0.17163086557E+04  0.16275805078E+04 0.  0.
        5    1    3    3  502    0  0.63035208882E+03  0.20552814103E+03  0.76992763754E+03  0.10160690083E+04  0.46999998093E+01 0. -1.
       -5    1    3    3    0  502 -0.63035208882E+03 -0.20552814103E+03 -0.22522855317E+03  0.70023964740E+03  0.46999998093E+01 0.  1.
</event>
<event>
 5   0  0.5264308E-04  0.1563509E+04  0.7818609E-02  0.8843285E-01
        2   -1    0    0  501    0  0.00000000000E+00  0.00000000000E+00  0.22805163820E+04  0.22805163820E+04  0.25500000920E-02 0.  1.
       -2   -1    0    0    0  501  0.00000000000E+00  0.00000000000E+00 -0.26798308888E+03  0.26798308889E+03  0.25500000920E-02 0. -1.
    10030    2    1    2    0    0  0.00000000000E+00  0.00000000000E+00  0.20125332931E+04  0.25484994709E+04  0.15635086495E+04 0.  0.
        3    1    3    3  502    0  0.66489810355E+03 -0.29065307969E+03  0.14802851375E+04  0.16485790243E+04  0.10100000352E+00 0.  1.
       -3    1    3    3    0  502 -0.66489810355E+03  0.29065307969E+03  0.53224815559E+03  0.89992044657E+03  0.10100000352E+00 0. -1.
</event>
<event>
 5   0  0.5315984E-04  0.1581616E+04  0.7818609E-02  0.8831922E-01
        2   -1    0    0  501    0  0.00000000000E+00  0.00000000000E+00  0.11081370988E+04  0.11081370988E+04  0.25500000920E-02 0.  1.
       -2   -1    0    0    0  501  0.00000000000E+00  0.00000000000E+00 -0.56435003237E+03  0.56435003237E+03  0.25500000920E-02 0. -1.
    10030    2    1    2    0    0  0.00000000000E+00  0.00000000000E+00  0.54378706640E+03  0.16724871312E+04  0.15816158921E+04 0.  0.
        2    1    3    3  502    0 -0.17063569633E+03 -0.38646881554E+03  0.97881011219E+03  0.10660881399E+04  0.25500000920E-02 0.  1.
       -2    1    3    3    0  502  0.17063569633E+03  0.38646881554E+03 -0.43502304579E+03  0.60639899128E+03  0.25500000920E-02 0. -1.
</event>
<event>
 5   0  0.2730707E-04  0.1577974E+04  0.7818609E-02  0.8834195E-01
        1   -1    0    0  501    0  0.00000000000E+00  0.00000000000E+00  0.18360150031E+04  0.18360150031E+04  0.50400001928E-02 0.  1.
       -1   -1    0    0    0  501  0.00000000000E+00  0.00000000000E+00 -0.33904995650E+03  0.33904995653E+03  0.50400001928E-02 0. -1.
    10030    2    1    2    0    0  0.00000000000E+00  0.00000000000E+00  0.14969650466E+04  0.21750649597E+04  0.15779744066E+04 0.  0.
        5    1    3    3  502    0 -0.70856798467E+03 -0.54382733324E+02  0.27608927675E+03  0.76241291261E+03  0.46999998093E+01 0. -1.
       -5    1    3    3    0  502  0.70856798467E+03  0.54382733324E+02  0.12208757699E+04  0.14126520471E+04  0.46999998093E+01 0.  1.
</event>
<event>
 5   0  0.5264308E-04  0.1604790E+04  0.7818609E-02  0.8817611E-01
       -2   -1    0    0    0  501  0.00000000000E+00  0.00000000000E+00  0.75234236259E+03  0.75234236260E+03  0.25500000920E-02 0. -1.
        2   -1    0    0  501    0  0.00000000000E+00  0.00000000000E+00 -0.85577710098E+03  0.85577710099E+03  0.25500000920E-02 0.  1.
    10030    2    1    2    0    0  0.00000000000E+00  0.00000000000E+00 -0.10343473839E+03  0.16081194636E+04  0.16047895389E+04 0.  0.
        3    1    3    3  502    0  0.17216709925E+03  0.19006110301E+03  0.71017114196E+03  0.75505482848E+03  0.10100000352E+00 0. -1.
       -3    1    3    3    0  502 -0.17216709925E+03 -0.19006110301E+03 -0.81360588034E+03  0.85306463511E+03  0.10100000352E+00 0.  1.
</event>
<event>
 5   0  0.5131239E-04  0.1599867E+04  0.7818609E-02  0.8820630E-01
        2   -1    0    0  501    0  0.00000000000E+00  0.00000000000E+00  0.56952876699E+03  0.56952876699E+03  0.25500000920E-02 0.  1.
       -2   -1    0    0    0  501  0.00000000000E+00  0.00000000000E+00 -0.11235496338E+04  0.11235496338E+04  0.25500000920E-02 0. -1.
    10030    2    1    2    0    0  0.00000000000E+00  0.00000000000E+00 -0.55402086685E+03  0.16930784008E+04  0.15998672915E+04 0.  0.
        1    1    3    3  502    0  0.48952855529E+03  0.34918044366E+03  0.28129527129E+03  0.66384653223E+03  0.50400001928E-02 0.  1.
       -1    1    3    3    0  502 -0.48952855529E+03 -0.34918044366E+03 -0.83531613814E+03  0.10292318686E+04  0.50400001928E-02 0. -1.
</event>
<event>
 5   0  0.5083831E-04  0.1555626E+04  0.7818609E-02  0.8848282E-01
        2   -1    0    0  501    0  0.00000000000E+00  0.00000000000E+00  0.15407718183E+04  0.15407718183E+04  0.25500000920E-02 0. -1.
       -2   -1    0    0    0  501  0.00000000000E+00  0.00000000000E+00 -0.39265602932E+03  0.39265602933E+03  0.25500000920E-02 0.  1.
    10030    2    1    2    0    0  0.00000000000E+00  0.00000000000E+00  0.11481157890E+04  0.19334278476E+04  0.15556263617E+04 0.  0.
        4    1    3    3  502    0 -0.49129969184E+03  0.75462812233E+02  0.13176190526E+04  0.14082583583E+04  0.12699999809E+01 0. -1.
       -4    1    3    3    0  502  0.49129969184E+03 -0.75462812233E+02 -0.16950326358E+03  0.52516948931E+03  0.12699999809E+01 0.  1.
</event>
<event>
 5   0  0.5315984E-04  0.1654810E+04  0.7818609E-02  0.8787566E-01
        2   -1    0    0  501    0  0.00000000000E+00  0.00000000000E+00  0.87887428708E+03  0.87887428708E+03  0.25500000920E-02 0.  1.
       -2   -1    0    0    0  501  0.00000000000E+00  0.00000000000E+00 -0.77895029110E+03  0.77895029111E+03  0.25500000920E-02 0. -1.
    10030    2    1    2    0    0  0.00000000000E+00  0.00000000000E+00  0.99923995976E+02  0.16578245782E+04  0.16548104203E+04 0.  0.
        2    1    3    3  502    0  0.78374624102E+03 -0.74155283105E+02  0.30506714201E+03  0.84428853923E+03  0.25500000920E-02 0. -1.
       -2    1    3    3    0  502 -0.78374624102E+03  0.74155283105E+02 -0.20514314604E+03  0.81353603897E+03  0.25500000920E-02 0.  1.
</event>
<event>
 5   0  0.2730707E-04  0.1603680E+04  0.7818609E-02  0.8818290E-01
        1   -1    0    0  501    0  0.00000000000E+00  0.00000000000E+00  0.13007087831E+04  0.13007087831E+04  0.50400001928E-02 0. -1.
       -1   -1    0    0    0  501  0.00000000000E+00  0.00000000000E+00 -0.49430570776E+03  0.49430570778E+03  0.50400001928E-02 0.  1.
    10030    2    1    2    0    0  0.00000000000E+00  0.00000000000E+00  0.80640307532E+03  0.17950144909E+04  0.16036804864E+04 0.  0.
        5    1    3    3  502    0 -0.57247549883E+03 -0.37008393307E+03  0.87575076985E+03  0.11097980966E+04  0.46999998093E+01 0. -1.
       -5    1    3    3    0  502  0.57247549883E+03  0.37008393307E+03 -0.69347694527E+02  0.68521639429E+03  0.46999998093E+01 0.  1.
</event>
<event>
 5   0  0.5315984E-04  0.1610905E+04  0.7818609E-02  0.8813877E-01
       -2   -1    0    0    0  501  0.00000000000E+00  0.00000000000E+00  0.11045204752E+04  0.11045204752E+04  0.25500000920E-02 0.  1.
        2   -1    0    0  501    0  0.00000000000E+00  0.00000000000E+00 -0.58736202768E+03  0.58736202769E+03  0.25500000920E-02 0. -1.
    10030    2    1    2    0    0  0.00000000000E+00  0.00000000000E+00  0.51715844755E+03  0.16918825029E+04  0.16109045732E+04 0.  0.
        2    1    3    3  502    0 -0.81574834396E+02 -0.64279289929E+03  0.76108223494E+03  0.99954156158E+03  0.25500000920E-02 0.  1.
       -2    1    3    3    0  502  0.81574834396E+02  0.64279289929E+03 -0.24392378739E+03  0.69234094133E+03  0.25500000920E-02 0. -1.
</event>
<event>
 5   0  0.2730707E-04  0.1593465E+04  0.7818609E-02  0.8824573E-01
       -1   -1    0    0    0  501  0.00000000000E+00  0.00000000000E+00  0.14107358565E+04  0.14107358565E+04  0.50400001928E-02 0.  1.
        1   -1    0    0  501    0  0.00000000000E+00  0.00000000000E+00 -0.44996564284E+03  0.44996564287E+03  0.50400001928E-02 0. -1.
    10030    2    1    2    0    0  0.00000000000E+00  0.00000000000E+00  0.96077021362E+03  0.18607014993E+04  0.15934649875E+04 0.  0.
        5    1    3    3  502    0 -0.12132461206E+03 -0.41350113655E+03 -0.30211655442E+03  0.52630728085E+03  0.46999998093E+01 0. -1.
       -5    1    3    3    0  502  0.12132461206E+03  0.41350113655E+03  0.12628867680E+04  0.13343942185E+04  0.46999998093E+01 0.  1.
</event>
<event>
 5   0  0.2763895E-04  0.1597182E+04  0.7818609E-02  0.8822281E-01
       -1   -1    0    0    0  501  0.00000000000E+00  0.00000000000E+00  0.89620370108E+03  0.89620370110E+03  0.50400001928E-02 0.  1.
        1   -1    0    0  501    0  0.00000000000E+00  0.00000000000E+00 -0.71160971963E+03  0.71160971965E+03  0.50400001928E-02 0. -1.
    10030    2    1    2    0    0  0.00000000000E+00  0.00000000000E+00  0.18459398145E+03  0.16078134207E+04  0.15971815983E+04 0.  0.
        4    1    3    3  502    0 -0.40523745522E+02 -0.78384129532E+03  0.24057413193E+03  0.82093049404E+03  0.12699999809E+01 0.  1.
       -4    1    3    3    0  502  0.40523745522E+02  0.78384129532E+03 -0.55980150478E+02  0.78688292671E+03  0.12699999809E+01 0. -1.
</event>
<event>
 5   0  0.2649086E-04  0.1610973E+04  0.7818609E-02  0.8813835E-01
        1   -1    0    0  501    0  0.00000000000E+00  0.00000000000E+00  0.10753956839E+04  0.10753956839E+04  0.50400001928E-02 0.  1.
       -1   -1    0    0    0  501  0.00000000000E+00  0.00000000000E+00 -0.60332080146E+03  0.60332080149E+03  0.50400001928E-02 0. -1.
    10030    2    1    2    0    0  0.00000000000E+00  0.00000000000E+00  0.47207488243E+03  0.16787164854E+04  0.16109731046E+04 0.  0.
        2    1    3    3  502    0  0.73699278155E+03  0.29883242790E+03  0.36927910698E+03  0.87682737119E+03  0.25500000920E-02 0.  1.
       -2    1    3    3    0  502 -0.73699278155E+03 -0.29883242790E+03  0.10279577546E+03  0.80188911420E+03  0.25500000920E-02 0. -1.
</event>
<event>
 5   0  0.2763895E-04  0.1525839E+04  0.7818609E-02  0.8867450E-01
        1   -1    0    0  501    0  0.00000000000E+00  0.00000000000E+00  0.11673841601E+04  0.11673841602E+04  0.50400001928E-02 0. -1.
       -1   -1    0    0    0  501  0.00000000000E+00  0.00000000000E+00 -0.49859014328E+03  0.49859014331E+03  0.50400001928E-02 0.  1.
    10030    2    1    2    0    0  0.00000000000E+00  0.00000000000E+00  0.66879401686E+03  0.16659743035E+04  0.15258390947E+04 0.  0.
        4    1    3    3  502    0 -0.52899274137E+03 -0.32335110402E+03  0.81981275989E+03  0.10278539931E+04  0.12699999809E+01 0. -1.
       -4    1    3    3    0  502  0.52899274137E+03  0.32335110402E+03 -0.15101874303E+03  0.63812031039E+03  0.12699999809E+01 0.  1.
</event>
<event>
 5   0  0.5131239E-04  0.1594494E+04  0.7818609E-02  0.8823938E-01
        2   -1    0    0  501    0  0.00000000000E+00  0.00000000000E+00  0.93611486045E+03  0.93611486045E+03  0.25500000920E-02 0.  1.
       -2   -1    0    0    0  501  0.00000000000E+00  0.00000000000E+00 -0.67897971741E+03  0.67897971741E+03  0.25500000920E-02 0. -1.
    10030    2    1    2    0    0  0.00000000000E+00  0.00000000000E+00  0.25713514304E+03  0.16150945779E+04  0.15944942815E+04 0.  0.
        1    1    3    3  502    0 -0.15894460188E+03 -0.46052945377E+03 -0.51065795013E+03  0.70577780237E+03  0.50400001928E-02 0. -1.
       -1    1    3    3    0  502  0.15894460188E+03  0.46052945377E+03  0.76779309317E+03  0.90931677550E+03  0.50400001928E-02 0.  1.
</event>
<event>
 5   0  0.5083831E-04  0.1601209E+04  0.7818609E-02  0.8819806E-01
        2   -1    0    0  501    0  0.00000000000E+00  0.00000000000E+00  0.89494495351E+03  0.89494495351E+03  0.25500000920E-02 0.  1.
       -2   -1    0    0    0  501  0.00000000000E+00  0.00000000000E+00 -0.71620865600E+03  0.71620865601E+03  0.25500000920E-02 0. -1.
    10030    2    1    2    0    0  0.00000000000E+00  0.00000000000E+00  0.17873629751E+03  0.16111536095E+04  0.16012086964E+04 0.  0.
        4    1    3    3  502    0 -0.55235797162E+02  0.21389602656E+03  0.86366896657E+03  0.89147529421E+03  0.12699999809E+01 0.  1.
       -4    1    3    3    0  502  0.55235797162E+02 -0.21389602656E+03 -0.68493266907E+03  0.71967831531E+03  0.12699999809E+01 0. -1.
</event>
<event>
 5   0  0.2796994E-04  0.1599688E+04  0.7818609E-02  0.8820740E-01
       -1   -1    0    0    0  501  0.00000000000E+00  0.00000000000E+00  0.78400813600E+03  0.78400813602E+03  0.50400001928E-02 0. -1.
        1   -1    0    0  501    0  0.00000000000E+00  0.00000000000E+00 -0.81599929615E+03  0.81599929616E+03  0.50400001928E-02 0.  1.
    10030    2    1    2    0    0  0.00000000000E+00  0.00000000000E+00 -0.31991160146E+02  0.16000074322E+04  0.15996875785E+04 0.  0.
        3    1    3    3  502    0  0.43496074426E+03 -0.13457485142E+03 -0.67373548977E+03  0.81315481924E+03  0.10100000352E+00 0.  1.
       -3    1    3    3    0  502 -0.43496074426E+03  0.13457485142E+03  0.64174432963E+03  0.78685261294E+03  0.10100000352E+00 0. -1.
</event>
<event>
 5   0  0.5264308E-04  0.1587389E+04  0.7818609E-02  0.8828333E-01
        2   -1    0    0  501    0  0.00000000000E+00  0.00000000000E+00  0.17953035527E+04  0.17953035527E+04  0.25500000920E-02 0.  1.
       -2   -1    0    0    0  501  0.00000000000E+00  0.00000000000E+00 -0.35088844333E+03  0.35088844334E+03  0.25500000920E-02 0. -1.
    10030    2    1    2    0    0  0.00000000000E+00  0.00000000000E+00  0.14444151094E+04  0.21461919960E+04  0.15873893901E+04 0.  0.
        3    1    3    3  502    0  0.10807493803E+03  0.26339287471E+03 -0.27947437208E+03  0.39895104152E+03  0.10100000352E+00 0. -1.
       -3    1    3    3    0  502 -0.10807493803E+03 -0.26339287471E+03  0.17238894815E+04  0.17472409545E+04  0.10100000352E+00 0.  1.
</event>
<event>
 5   0  0.2796994E-04  0.1587576E+04  0.7818609E-02  0.8828217E-01
        1   -1    0    0  501    0  0.00000000000E+00  0.00000000000E+00  0.13795758794E+04  0.13795758794E+04  0.50400001928E-02 0. -1.
       -1   -1    0    0    0  501  0.00000000000E+00  0.00000000000E+00 -0.45673428917E+03  0.45673428919E+03  0.50400001928E-02 0.  1.
    10030    2    1    2    0    0  0.00000000000E+00  0.00000000000E+00  0.92284159022E+03  0.18363101686E+04  0.15875762768E+04 0.  0.
        3    1    3    3  502    0 -0.39617977361E+03  0.12758788070E+03 -0.32039457306E+03  0.52525210420E+03  0.10100000352E+00 0.  1.
       -3    1    3    3    0  502  0.39617977361E+03 -0.12758788070E+03  0.12432361633E+04  0.13110580644E+04  0.10100000352E+00 0. -1.
</event>
<event>
 5   0  0.2649086E-04  0.1589836E+04  0.7818609E-02  0.8826816E-01
        1   -1    0    0  501    0  0.00000000000E+00  0.00000000000E+00  0.10331223811E+04  0.10331223811E+04  0.50400001928E-02 0. -1.
       -1   -1    0    0    0  501  0.00000000000E+00  0.00000000000E+00 -0.61163610543E+03  0.61163610546E+03  0.50400001928E-02 0.  1.
    10030    2    1    2    0    0  0.00000000000E+00  0.00000000000E+00  0.42148627569E+03  0.16447584866E+04  0.15898364062E+04 0.  0.
        2    1    3    3  502    0 -0.42117980871E+03  0.66425960629E+03  0.32988083377E+03  0.85290950300E+03  0.25500000920E-02 0.  1.
       -2    1    3    3    0  502  0.42117980871E+03 -0.66425960629E+03  0.91605441916E+02  0.79184898359E+03  0.25500000920E-02 0. -1.
</event>
<event>
 5   0  0.5315984E-04  0.1606777E+04  0.7818609E-02  0.8816395E-01
        2   -1    0    0  501    0  0.00000000000E+00  0.00000000000E+00  0.14701358132E+04  0.14701358132E+04  0.25500000920E-02 0.  1.
       -2   -1    0    0    0  501  0.00000000000E+00  0.00000000000E+00 -0.43902983025E+03  0.43902983026E+03  0.25500000920E-02 0. -1.
    10030    2    1    2    0    0  0.00000000000E+00  0.00000000000E+00  0.10311059829E+04  0.19091656435E+04  0.16067774912E+04 0.  0.
        2    1    3    3  502    0 -0.61088526013E+03  0.10403943431E+03  0.11230782139E+04  0.12826962538E+04  0.25500000920E-02 0.  1.
       -2    1    3    3    0  502  0.61088526013E+03 -0.10403943431E+03 -0.91972230935E+02  0.62646938968E+03  0.25500000920E-02 0. -1.
</event>
<event>
 5   0  0.1908125E-04  0.1617568E+04  0.7818609E-02  0.8809827E-01
        3   -1    0    0  501    0  0.00000000000E+00  0.00000000000E+00  0.13043224512E+04  0.13043224551E+04  0.10100000352E+00 0.  1.
       -3   -1    0    0    0  501  0.00000000000E+00  0.00000000000E+00 -0.50151053865E+03  0.50151054882E+03  0.10100000352E+00 0. -1.
    10030    2    1    2    0    0  0.00000000000E+00  0.00000000000E+00  0.80281191259E+03  0.18058330040E+04  0.16175678877E+04 0.  0.
        2    1    3    3  502    0  0.14766542620E+03 -0.40526796541E+02 -0.48518024003E+03  0.50877044397E+03  0.25500000920E-02 0. -1.
       -2    1    3    3    0  502 -0.14766542620E+03  0.40526796541E+02  0.12879921526E+04  0.12970625600E+04  0.25500000920E-02 0.  1.
</event>
<event>
 5   0  0.2689675E-04  0.1559297E+04  0.7818609E-02  0.8845951E-01
       -1   -1    0    0    0  501  0.00000000000E+00  0.00000000000E+00  0.45391802806E+03  0.45391802809E+03  0.50400001928E-02 0.  1.
        1   -1    0    0  501    0  0.00000000000E+00  0.00000000000E+00 -0.13391222098E+04  0.13391222098E+04  0.50400001928E-02 0. -1.
    10030    2    1    2    0    0  0.00000000000E+00  0.00000000000E+00 -0.88520418176E+03  0.17930402379E+04  0.15592969093E+04 0.  0.
        1    1    3    3  502    0  0.93262122892E+02  0.21747298466E+02  0.44712934476E+03  0.45726952613E+03  0.50400001928E-02 0.  1.
       -1    1    3    3    0  502 -0.93262122892E+02 -0.21747298466E+02 -0.13323335265E+04  0.13357707118E+04  0.50400001928E-02 0. -1.
</event>
<event>
 5   0  0.5083831E-04  0.1596935E+04  0.7818609E-02  0.8822433E-01
        2   -1    0    0  501    0  0.00000000000E+00  0.00000000000E+00  0.95687092989E+03  0.95687092989E+03  0.25500000920E-02 0.  1.
       -2   -1    0    0    0  501  0.00000000000E+00  0.00000000000E+00 -0.66628702015E+03  0.66628702016E+03  0.25500000920E-02 0. -1.
    10030    2    1    2    0    0  0.00000000000E+00  0.00000000000E+00  0.29058390974E+03  0.16231579500E+04  0.15969354158E+04 0.  0.
        4    1    3    3  502    0 -0.63237470489E+03 -0.14889676530E+03  0.61711372527E+03  0.89604630289E+03  0.12699999809E+01 0.  1.
       -4    1    3    3    0  502  0.63237470489E+03  0.14889676530E+03 -0.32652981553E+03  0.72711164716E+03  0.12699999809E+01 0. -1.
</event>
<event>
 5   0  0.2689675E-04  0.1677561E+04  0.7818609E-02  0.8774267E-01
        1   -1    0    0  501    0  0.00000000000E+00  0.00000000000E+00  0.36533800910E+03  0.36533800914E+03  0.50400001928E-02 0.  1.
       -1   -1    0    0    0  501  0.00000000000E+00  0.00000000000E+00 -0.19257578772E+04  0.19257578772E+04  0.50400001928E-02 0. -1.
    10030    2    1    2    0    0  0.00000000000E+00  0.00000000000E+00 -0.15604198681E+04  0.22910958863E+04  0.16775607875E+04 0.  0.
        1    1    3    3  502    0 -0.70890711232E+03 -0.12982826017E+02 -0.16816349325E+03  0.72869527798E+03  0.50400001928E-02 0.  1.
       -1    1    3    3    0  502  0.70890711232E+03  0.12982826017E+02 -0.13922563748E+04  0.15624006083E+04  0.50400001928E-02 0. -1.
</event>
<event>
 5   0  0.5083831E-04  0.1582817E+04  0.7818609E-02  0.8831174E-01
       -2   -1    0    0    0  501  0.00000000000E+00  0.00000000000E+00  0.16670389392E+04  0.16670389392E+04  0.25500000920E-02 0.  1.
        2   -1    0    0  501    0  0.00000000000E+00  0.00000000000E+00 -0.37571268693E+03  0.37571268694E+03  0.25500000920E-02 0. -1.
    10030    2    1    2    0    0  0.00000000000E+00  0.00000000000E+00  0.12913262522E+04  0.20427516261E+04  0.15828173351E+04 0.  0.
        4    1    3    3  502    0 -0.55123337182E+03  0.56061164167E+03  0.52892150079E+03  0.94757754821E+03  0.12699999809E+01 0.  1.
       -4    1    3    3    0  502  0.55123337182E+03 -0.56061164167E+03  0.76240475145E+03  0.10951740779E+04  0.12699999809E+01 0. -1.
</event>
<event>
 5   0  0.5381164E-04  0.1597779E+04  0.7818609E-02  0.8821913E-01
       -2   -1    0    0    0  501  0.00000000000E+00  0.00000000000E+00  0.12002892479E+04  0.12002892479E+04  0.25500000920E-02 0. -1.
        2   -1    0    0  501    0  0.00000000000E+00  0.00000000000E+00 -0.53172570142E+03  0.53172570143E+03  0.25500000920E-02 0.  1.
    10030    2    1    2    0    0  0.00000000000E+00  0.00000000000E+00  0.66856354647E+03  0.17320149493E+04  0.15977792617E+04 0.  0.
        5    1    3    3  502    0 -0.69945519246E+03 -0.11536880176E+02 -0.83917091356E+02  0.70458131829E+03  0.46999998093E+01 0.  1.
       -5    1    3    3    0  502  0.69945519246E+03  0.11536880176E+02  0.75248063783E+03  0.10274336310E+04  0.46999998093E+01 0. -1.
</event>
<event>
 5   0  0.2763895E-04  0.1463659E+04  0.7818609E-02  0.8908985E-01
       -1   -1    0    0    0  501  0.00000000000E+00  0.00000000000E+00  0.44226288916E+03  0.44226288919E+03  0.50400001928E-02 0.  1.
        1   -1    0    0  501    0  0.00000000000E+00  0.00000000000E+00 -0.12109871238E+04  0.12109871238E+04  0.50400001928E-02 0. -1.
    10030    2    1    2    0    0  0.00000000000E+00  0.00000000000E+00 -0.76872423463E+03  0.16532500130E+04  0.14636593376E+04 0.  0.
        4    1    3    3  502    0  0.33810241130E+03  0.64904432491E+03 -0.38308669251E+03  0.82603196253E+03  0.12699999809E+01 0.  1.
       -4    1    3    3    0  502 -0.33810241130E+03 -0.64904432491E+03 -0.38563754211E+03  0.82721805047E+03  0.12699999809E+01 0. -1.
</event>
<event>
 5   0  0.5381164E-04  0.1596652E+04  0.7818609E-02  0.8822608E-01
        2   -1    0    0  501    0  0.00000000000E+00  0.00000000000E+00  0.24335948934E+04  0.24335948934E+04  0.25500000920E-02 0.  1.
       -2   -1    0    0    0  501  0.00000000000E+00  0.00000000000E+00 -0.26188592897E+03  0.26188592898E+03  0.25500000920E-02 0. -1.
    10030    2    1    2    0    0  0.00000000000E+00  0.00000000000E+00  0.21717089645E+04  0.26954808224E+04  0.15966518211E+04 0.  0.
        5    1    3    3  502    0 -0.28585562073E+03 -0.10117462651E+03 -0.16085324513E+03  0.34328646553E+03  0.46999998093E+01 0. -1.
       -5    1    3    3    0  502  0.28585562073E+03  0.10117462651E+03  0.23325622096E+04  0.23521943569E+04  0.46999998093E+01 0.  1.
</event>
<event>
 5   0  0.2649086E-04  0.1706071E+04  0.7818609E-02  0.8757910E-01
        1   -1    0    0  501    0  0.00000000000E+00  0.00000000000E+00  0.88816566751E+03  0.88816566752E+03  0.50400001928E-02 0.  1.
       -1   -1    0    0    0  501  0.00000000000E+00  0.00000000000E+00 -0.81929443510E+03  0.81929443511E+03  0.50400001928E-02 0. -1.
    10030    2    1    2    0    0  0.00000000000E+00  0.00000000000E+00  0.68871232414E+02  0.17074601026E+04  0.17060705599E+04 0.  0.
        2    1    3    3  502    0 -0.64660205988E+03  0.35886564764E+03 -0.39110524963E+03  0.83656565384E+03  0.25500000920E-02 0. -1.
       -2    1    3    3    0  502  0.64660205988E+03 -0.35886564764E+03  0.45997648204E+03  0.87089444879E+03  0.25500000920E-02 0.  1.
</event>
<event>
 5   0  0.5315984E-04  0.1598603E+04  0.7818609E-02  0.8821407E-01
       -2   -1    0    0    0  501  0.00000000000E+00  0.00000000000E+00  0.45045988849E+03  0.45045988850E+03  0.25500000920E-02 0. -1.
        2   -1    0    0  501    0  0.00000000000E+00  0.00000000000E+00 -0.14182894955E+04  0.14182894955E+04  0.25500000920E-02 0.  1.
    10030    2    1    2    0    0  0.00000000000E+00  0.00000000000E+00 -0.96782960701E+03  0.18687493840E+04  0.15986025497E+04 0.  0.
        2    1    3    3  502    0  0.20752172088E+03  0.56649667940E+03 -0.10968251658E+04  0.12518023793E+04  0.25500000920E-02 0.  1.
       -2    1    3    3    0  502 -0.20752172088E+03 -0.56649667940E+03  0.12899555882E+03  0.61694700470E+03  0.25500000920E-02 0. -1.
</event>
<event>
 5   0  0.2730707E-04  0.1551585E+04  0.7818609E-02  0.8850856E-01
       -1   -1    0    0    0  501  0.00000000000E+00  0.00000000000E+00  0.50876483155E+03  0.50876483158E+03  0.50400001928E-02 0. -1.
        1   -1    0    0  501    0  0.00000000000E+00  0.00000000000E+00 -0.11829712274E+04  0.11829712274E+04  0.50400001928E-02 0.  1.
    10030    2    1    2    0    0  0.00000000000E+00  0.00000000000E+00 -0.67420639581E+03  0.16917360589E+04  0.15515851988E+04 0.  0.
        5    1    3    3  502    0 -0.60392964963E+03 -0.43849812452E+03 -0.56793467878E+03  0.93786113912E+03  0.46999998093E+01 0.  1.
       -5    1    3    3    0  502  0.60392964963E+03  0.43849812452E+03 -0.10627171703E+03  0.75387491983E+03  0.46999998093E+01 0. -1.
</event>
</LesHouchesEvents>
