<LesHouchesEvents version="3.0">
<header>
<!--
#*********************************************************************
#                                                                    *
#                        MadGraph5_aMC@NLO                           *
#                                                                    *
#                           Going Beyond                             *
#                                                                    *
#                   http://madgraph.hep.uiuc.edu                     *
#                   http://madgraph.phys.ucl.ac.be                   *
#                   http://amcatnlo.cern.ch                          *
#                                                                    *
#                     The MadGraph5_aMC@NLO team                     *
#                                                                    *
#....................................................................*
#                                                                    *
# This file contains all the information necessary to reproduce      *
# the events generated:                                              *
#                                                                    *
# 1. software version                                                *
# 2. proc_card          : code generation info including model       *
# 3. param_card         : model primary parameters in the LH format  *
# 4. run_card           : running parameters (collider and cuts)     *
# 5. pythia_card        : present only if pythia has been run        *
# 6. pgs_card           : present only if pgs has been run           *
# 7. delphes_cards      : present only if delphes has been run       *
#                                                                    *
#                                                                    *
#*********************************************************************
-->
<MGVersion>
#5.2.2.3
</MGVersion>
<MG5ProcCard>
#************************************************************
#*                     MadGraph5_aMC@NLO                    *
#*                                                          *
#*                *                       *                 *
#*                  *        * *        *                   *
#*                    * * * * 5 * * * *                     *
#*                  *        * *        *                   *
#*                *                       *                 *
#*                                                          *
#*                                                          *
#*         VERSION 2.2.3                 2015-02-10         *
#*                                                          *
#*    The MadGraph5_aMC@NLO Development Team - Find us at   *
#*    https://server06.fynu.ucl.ac.be/projects/madgraph     *
#*                                                          *
#************************************************************
#*                                                          *
#*               Command File for MadGraph5_aMC@NLO         *
#*                                                          *
#*     run as ./bin/mg5_aMC  filename                       *
#*                                                          *
#************************************************************
set group_subprocesses Auto
set ignore_six_quark_processes False
set loop_optimized_output True
set gauge unitary
set complex_mass_scheme False
import model sm
define p = g u c d s u~ c~ d~ s~
define j = g u c d s u~ c~ d~ s~
define l+ = e+ mu+
define l- = e- mu-
define vl = ve vm vt
define vl~ = ve~ vm~ vt~
import model Zprime_UFO
generate p p > zph, zph > j j
add process p p > zph, zph > b b~
output Dijet_signal
</MG5ProcCard>
<MGProcCard>
#*********************************************************************
#                        MadGraph/MadEvent                           *
#                   http://madgraph.hep.uiuc.edu                     *
#                                                                    *
#                          proc_card.dat                             *
#*********************************************************************
#                                                                    *
#            This Files is generated by MADGRAPH 5                   *
#                                                                    *
# WARNING: This Files is generated for MADEVENT (compatibility issue)*
#          This files is NOT a valid MG4 proc_card.dat               *
#          Running this in MG4 will NEVER reproduce the result of MG5*
#                                                                    *
#*********************************************************************
#*********************************************************************
# Process(es) requested : mg2 input                                  *
#*********************************************************************
# Begin PROCESS # This is TAG. Do not modify this line
p p > zph , zph > j j           #Process
# Be carefull the coupling are here in MG5 convention
          
end_coup           # End the couplings input

done               # this tells MG there are no more procs
# End PROCESS  # This is TAG. Do not modify this line
#*********************************************************************
# Model information                                                  *
#*********************************************************************
# Begin MODEL  # This is TAG. Do not modify this line
Zprime_UFO
# End   MODEL  # This is TAG. Do not modify this line
#*********************************************************************
# Start multiparticle definitions                                    *
#*********************************************************************
# Begin MULTIPARTICLES # This is TAG. Do not modify this line

# End  MULTIPARTICLES # This is TAG. Do not modify this line
</MGProcCard>
<MGRunCard>
#*********************************************************************
#                       MadGraph5_aMC@NLO                            *
#                                                                    *
#                     run_card.dat MadEvent                          *
#                                                                    *
#  This file is used to set the parameters of the run.               *
#                                                                    *
#  Some notation/conventions:                                        *
#                                                                    *
#   Lines starting with a '# ' are info or comments                  *
#                                                                    *
#   mind the format:   value    = variable     ! comment             *
#*********************************************************************
#
#*******************                                                 
# Running parameters
#*******************                                                 
#                                                                    
#*********************************************************************
# Tag name for the run (one word)                                    *
#*********************************************************************
  tag_1     = run_tag ! name of the run 
#*********************************************************************
# Run to generate the grid pack                                      *
#*********************************************************************
  .false.     = gridpack  !True = setting up the grid pack
#*********************************************************************
# Number of events and rnd seed                                      *
# Warning: Do not generate more than 1M events in a single run       *
# If you want to run Pythia, avoid more than 50k events in a run.    *
#*********************************************************************
  2000 = nevents ! Number of unweighted events requested 
 1524 = iseed   ! rnd seed (0=assigned automatically=default))
#*********************************************************************
# Collider type and energy                                           *
# lpp: 0=No PDF, 1=proton, -1=antiproton, 2=photon from proton,      *
#                                         3=photon from electron     *
#*********************************************************************
        1     = lpp1    ! beam 1 type 
        1     = lpp2    ! beam 2 type
     4000     = ebeam1  ! beam 1 total energy in GeV
     4000     = ebeam2  ! beam 2 total energy in GeV
#*********************************************************************
# Beam polarization from -100 (left-handed) to 100 (right-handed)    *
#*********************************************************************
        0     = polbeam1 ! beam polarization for beam 1
        0     = polbeam2 ! beam polarization for beam 2
#*********************************************************************
# PDF CHOICE: this automatically fixes also alpha_s and its evol.    *
#*********************************************************************
 'nn23lo1'    = pdlabel     ! PDF set                                     
 230000    = lhaid     ! if pdlabel=lhapdf, this is the lhapdf number
#*********************************************************************
# Renormalization and factorization scales                           *
#*********************************************************************
 F        = fixed_ren_scale  ! if .true. use fixed ren scale
 F        = fixed_fac_scale  ! if .true. use fixed fac scale
 91.1880  = scale            ! fixed ren scale
 91.1880  = dsqrt_q2fact1    ! fixed fact scale for pdf1
 91.1880  = dsqrt_q2fact2    ! fixed fact scale for pdf2
 1        = scalefact        ! scale factor for event-by-event scales
#*********************************************************************
# Matching - Warning! ickkw > 1 is still beta
#*********************************************************************
 0        = ickkw            ! 0 no matching, 1 MLM, 2 CKKW matching
 1        = highestmult      ! for ickkw=2, highest mult group
 1        = ktscheme         ! for ickkw=1, 1 Durham kT, 2 Pythia pTE
 1        = alpsfact         ! scale factor for QCD emission vx
 F        = chcluster        ! cluster only according to channel diag
 T        = pdfwgt           ! for ickkw=1, perform pdf reweighting
 5        = asrwgtflavor     ! highest quark flavor for a_s reweight
 T        = clusinfo         ! include clustering tag in output
 3.0      = lhe_version       ! Change the way clustering information pass to shower.        
#*********************************************************************
#**********************************************************
#
#**********************************************************
# Automatic ptj and mjj cuts if xqcut > 0
# (turn off for VBF and single top processes)
#**********************************************************
   T  = auto_ptj_mjj  ! Automatic setting of ptj and mjj
#**********************************************************
#                                                                    
#**********************************
# BW cutoff (M+/-bwcutoff*Gamma)
#**********************************
  15  = bwcutoff      ! (M+/-bwcutoff*Gamma)
#**********************************************************
# Apply pt/E/eta/dr/mij cuts on decay products or not
# (note that etmiss/ptll/ptheavy/ht/sorted cuts always apply)
#**********************************************************
   T  = cut_decays    ! Cut decay products 
#*************************************************************
# Number of helicities to sum per event (0 = all helicities)
# 0 gives more stable result, but longer run time (needed for
# long decay chains e.g.).
# Use >=2 if most helicities contribute, e.g. pure QCD.
#*************************************************************
   0  = nhel          ! Number of helicities used per event
#*******************                                                 
# Standard Cuts
#*******************                                                 
#                                                                    
#*********************************************************************
# Minimum and maximum pt's (for max, -1 means no cut)                *
#*********************************************************************
 20  = ptj       ! minimum pt for the jets 
  0  = ptb       ! minimum pt for the b 
 10  = pta       ! minimum pt for the photons 
 10  = ptl       ! minimum pt for the charged leptons 
  0  = misset    ! minimum missing Et (sum of neutrino's momenta)
  0  = ptheavy   ! minimum pt for one heavy final state
 1.0 = ptonium   ! minimum pt for the quarkonium states
 -1  = ptjmax    ! maximum pt for the jets
 -1  = ptbmax    ! maximum pt for the b
 -1  = ptamax    ! maximum pt for the photons
 -1  = ptlmax    ! maximum pt for the charged leptons
 -1  = missetmax ! maximum missing Et (sum of neutrino's momenta)
#*********************************************************************
# Minimum and maximum E's (in the center of mass frame)              *
#*********************************************************************
  0  = ej     ! minimum E for the jets 
  0  = eb     ! minimum E for the b 
  0  = ea     ! minimum E for the photons 
  0  = el     ! minimum E for the charged leptons 
 -1   = ejmax ! maximum E for the jets
 -1   = ebmax ! maximum E for the b
 -1   = eamax ! maximum E for the photons
 -1   = elmax ! maximum E for the charged leptons
#*********************************************************************
# Maximum and minimum absolute rapidity (for max, -1 means no cut)   *
#*********************************************************************
   5  = etaj    ! max rap for the jets 
  -1  = etab    ! max rap for the b
 2.5  = etaa    ! max rap for the photons 
 2.5  = etal    ! max rap for the charged leptons 
 0.6  = etaonium ! max rap for the quarkonium states
   0  = etajmin ! min rap for the jets
   0  = etabmin ! min rap for the b
   0  = etaamin ! min rap for the photons
   0  = etalmin ! main rap for the charged leptons
#*********************************************************************
# Minimum and maximum DeltaR distance                                *
#*********************************************************************
 0.4 = drjj    ! min distance between jets 
 0   = drbb    ! min distance between b's 
 0.4 = drll    ! min distance between leptons 
 0.4 = draa    ! min distance between gammas 
 0   = drbj    ! min distance between b and jet 
 0.4 = draj    ! min distance between gamma and jet 
 0.4 = drjl    ! min distance between jet and lepton 
 0   = drab    ! min distance between gamma and b 
 0   = drbl    ! min distance between b and lepton 
 0.4 = dral    ! min distance between gamma and lepton 
 -1  = drjjmax ! max distance between jets
 -1  = drbbmax ! max distance between b's
 -1  = drllmax ! max distance between leptons
 -1  = draamax ! max distance between gammas
 -1  = drbjmax ! max distance between b and jet
 -1  = drajmax ! max distance between gamma and jet
 -1  = drjlmax ! max distance between jet and lepton
 -1  = drabmax ! max distance between gamma and b
 -1  = drblmax ! max distance between b and lepton
 -1  = dralmax ! maxdistance between gamma and lepton
#*********************************************************************
# Minimum and maximum invariant mass for pairs                       *
# WARNING: for four lepton final state mmll cut require to have      *
#          different lepton masses for each flavor!                  *           
#*********************************************************************
 0   = mmjj    ! min invariant mass of a jet pair 
 0   = mmbb    ! min invariant mass of a b pair 
 0   = mmaa    ! min invariant mass of gamma gamma pair
 0   = mmll    ! min invariant mass of l+l- (same flavour) lepton pair
 -1  = mmjjmax ! max invariant mass of a jet pair
 -1  = mmbbmax ! max invariant mass of a b pair
 -1  = mmaamax ! max invariant mass of gamma gamma pair
 -1  = mmllmax ! max invariant mass of l+l- (same flavour) lepton pair
#*********************************************************************
# Minimum and maximum invariant mass for all letpons                 *
#*********************************************************************
 0   = mmnl    ! min invariant mass for all letpons (l+- and vl) 
 -1  = mmnlmax ! max invariant mass for all letpons (l+- and vl) 
#*********************************************************************
# Minimum and maximum pt for 4-momenta sum of leptons                *
#*********************************************************************
 0   = ptllmin  ! Minimum pt for 4-momenta sum of leptons(l and vl)
 -1  = ptllmax  ! Maximum pt for 4-momenta sum of leptons(l and vl)
#*********************************************************************
# Inclusive cuts                                                     *
#*********************************************************************
 0  = xptj ! minimum pt for at least one jet  
 0  = xptb ! minimum pt for at least one b 
 0  = xpta ! minimum pt for at least one photon 
 0  = xptl ! minimum pt for at least one charged lepton 
#*********************************************************************
# Control the pt's of the jets sorted by pt                          *
#*********************************************************************
 0   = ptj1min ! minimum pt for the leading jet in pt
 0   = ptj2min ! minimum pt for the second jet in pt
 0   = ptj3min ! minimum pt for the third jet in pt
 0   = ptj4min ! minimum pt for the fourth jet in pt
 -1  = ptj1max ! maximum pt for the leading jet in pt 
 -1  = ptj2max ! maximum pt for the second jet in pt
 -1  = ptj3max ! maximum pt for the third jet in pt
 -1  = ptj4max ! maximum pt for the fourth jet in pt
 0   = cutuse  ! reject event if fails any (0) / all (1) jet pt cuts
#*********************************************************************
# Control the pt's of leptons sorted by pt                           *
#*********************************************************************
 0   = ptl1min ! minimum pt for the leading lepton in pt
 0   = ptl2min ! minimum pt for the second lepton in pt
 0   = ptl3min ! minimum pt for the third lepton in pt
 0   = ptl4min ! minimum pt for the fourth lepton in pt
 -1  = ptl1max ! maximum pt for the leading lepton in pt 
 -1  = ptl2max ! maximum pt for the second lepton in pt
 -1  = ptl3max ! maximum pt for the third lepton in pt
 -1  = ptl4max ! maximum pt for the fourth lepton in pt
#*********************************************************************
# Control the Ht(k)=Sum of k leading jets                            *
#*********************************************************************
 0   = htjmin ! minimum jet HT=Sum(jet pt)
 -1  = htjmax ! maximum jet HT=Sum(jet pt)
 0   = ihtmin  !inclusive Ht for all partons (including b)
 -1  = ihtmax  !inclusive Ht for all partons (including b)
 0   = ht2min ! minimum Ht for the two leading jets
 0   = ht3min ! minimum Ht for the three leading jets
 0   = ht4min ! minimum Ht for the four leading jets
 -1  = ht2max ! maximum Ht for the two leading jets
 -1  = ht3max ! maximum Ht for the three leading jets
 -1  = ht4max ! maximum Ht for the four leading jets
#***********************************************************************
# Photon-isolation cuts, according to hep-ph/9801442                   *
# When ptgmin=0, all the other parameters are ignored                  *
# When ptgmin>0, pta and draj are not going to be used                 *
#***********************************************************************
   0 = ptgmin ! Min photon transverse momentum
 0.4 = R0gamma ! Radius of isolation code
 1.0 = xn ! n parameter of eq.(3.4) in hep-ph/9801442
 1.0 = epsgamma ! epsilon_gamma parameter of eq.(3.4) in hep-ph/9801442
 .true. = isoEM ! isolate photons from EM energy (photons and leptons)
#*********************************************************************
# WBF cuts                                                           *
#*********************************************************************
 0   = xetamin ! minimum rapidity for two jets in the WBF case  
 0   = deltaeta ! minimum rapidity for two jets in the WBF case 
#*********************************************************************
# KT DURHAM CUT                                                      *
#*********************************************************************
 -1    =  ktdurham        
 0.4  =  dparameter 
#*********************************************************************
# maximal pdg code for quark to be considered as a light jet         *
# (otherwise b cuts are applied)                                     *
#*********************************************************************
 4 = maxjetflavor    ! Maximum jet pdg code
#*********************************************************************
# Jet measure cuts                                                   *
#*********************************************************************
 0   = xqcut   ! minimum kt jet measure between partons
#*********************************************************************
#
#*********************************************************************
# Store info for systematics studies                                 *
# WARNING: If use_syst is T, matched Pythia output is                *
#          meaningful ONLY if plotted taking matchscale              *
#          reweighting into account!                                 *
#*********************************************************************
   F  = use_syst      ! Enable systematics studies
#
#**************************************
# Parameter of the systematics study
#  will be used by SysCalc (if installed)
#**************************************                                  
#
0.5 1 2 = sys_scalefact  # factorization/renormalization scale factor
0.5 1 2 = sys_alpsfact  # \alpha_s emission scale factors
30 50 = sys_matchscale # variation of merging scale
# PDF sets and number of members (0 or none for all members).
CT10nlo.LHgrid = sys_pdf # matching scales
# MSTW2008nlo68cl.LHgrid 1  = sys_pdf
</MGRunCard>
<slha>
######################################################################
## PARAM_CARD AUTOMATICALY GENERATED BY MG5 FOLLOWING UFO MODEL   ####
######################################################################
##                                                                  ##
##  Width set on Auto will be computed following the information    ##
##        present in the decay.py files of the model.               ##
##        See  arXiv:1402.1178 for more details.                    ##
##                                                                  ##
######################################################################

###################################
## INFORMATION FOR CKMBLOCK
###################################
Block ckmblock 
    1 2.277360e-01 # cabi 

###################################
## INFORMATION FOR FRBLOCK
###################################
Block frblock 
    1 8.000000e-01 # gz 

###################################
## INFORMATION FOR MASS
###################################
Block mass 
    1 5.040000e-03 # MD 
    2 2.550000e-03 # MU 
    3 1.010000e-01 # MS 
    4 1.270000e+00 # MC 
    5 4.700000e+00 # MB 
    6 1.720000e+02 # MT 
   11 5.110000e-04 # Me 
   13 1.056600e-01 # MM 
   15 1.777000e+00 # MTA 
   23 9.118760e+01 # MZ 
   25 1.200000e+02 # MH 
  10030 1.100000e+03 # MZph 
  10031 3.000000e+02 # MZpl 
## Dependent parameters, given by model restrictions.
## Those values should be edited following the 
## analytical expression. MG5 ignores those values 
## but they are important for interfacing the output of MG5
## to external program such as Pythia.
  12 0.000000 # ve : 0.0 
  14 0.000000 # vm : 0.0 
  16 0.000000 # vt : 0.0 
  21 0.000000 # g : 0.0 
  22 0.000000 # a : 0.0 
  24 79.824360 # w+ : cmath.sqrt(MZ__exp__2/2. + cmath.sqrt(MZ__exp__4/4. - (aEW*cmath.pi*MZ__exp__2)/(Gf*sqrt__2))) 

###################################
## INFORMATION FOR SMINPUTS
###################################
Block sminputs 
    1 1.279000e+02 # aEWM1 
    2 1.166370e-05 # Gf 
    3 1.184000e-01 # aS 

###################################
## INFORMATION FOR YUKAWA
###################################
Block yukawa 
    1 5.040000e-03 # ymdo 
    2 2.550000e-03 # ymup 
    3 1.010000e-01 # yms 
    4 1.270000e+00 # ymc 
    5 4.700000e+00 # ymb 
    6 1.720000e+02 # ymt 
   11 5.110000e-04 # yme 
   13 1.056600e-01 # ymm 
   15 1.777000e+00 # ymtau 

###################################
## INFORMATION FOR DECAY
###################################
DECAY   6 1.508336e+00 # WT 
DECAY  23 2.495200e+00 # WZ 
DECAY  24 2.085000e+00 # WW 
DECAY  25 5.753088e-03 # WH 
## Dependent parameters, given by model restrictions.
## Those values should be edited following the 
## analytical expression. MG5 ignores those values 
## but they are important for interfacing the output of MG5
## to external program such as Pythia.
DECAY  1 0.000000 # d : 0.0 
DECAY  2 0.000000 # u : 0.0 
DECAY  3 0.000000 # s : 0.0 
DECAY  4 0.000000 # c : 0.0 
DECAY  5 0.000000 # b : 0.0 
DECAY  11 0.000000 # e- : 0.0 
DECAY  12 0.000000 # ve : 0.0 
DECAY  13 0.000000 # mu- : 0.0 
DECAY  14 0.000000 # vm : 0.0 
DECAY  15 0.000000 # ta- : 0.0 
DECAY  16 0.000000 # vt : 0.0 
DECAY  21 0.000000 # g : 0.0 
DECAY  22 0.000000 # a : 0.0 
DECAY  10030 0.308725 # zph : (gz__exp__2*MZph*(5 + cmath.sqrt(1 - (4*MT__exp__2)/MZph__exp__2)))/(144.*cmath.pi) 
DECAY  10031 0.132629 # zpl : (5*gz__exp__2*MZpl)/(144.*cmath.pi) 
#===========================================================
# QUANTUM NUMBERS OF NEW STATE(S) (NON SM PDG CODE)
#===========================================================

Block QNUMBERS 10030  # zph 
        1 0  # 3 times electric charge
        2 3  # number of spin states (2S+1)
        3 1  # colour rep (1: singlet, 3: triplet, 8: octet)
        4 0  # Particle/Antiparticle distinction (0=own anti)
Block QNUMBERS 10031  # zpl 
        1 0  # 3 times electric charge
        2 3  # number of spin states (2S+1)
        3 1  # colour rep (1: singlet, 3: triplet, 8: octet)
        4 0  # Particle/Antiparticle distinction (0=own anti)
</slha>
## END BANNER##
<MGGenerationInfo>
#  Number of Events        :         4032
#  Integrated weight (pb)  :  0.77054E+00
#  Max wgt                 :  0.24885E-03
#  Average wgt             :  0.19111E-03
</MGGenerationInfo>
</header>
<init>
     2212     2212  0.40000000000E+04  0.40000000000E+04 0 0  247000  247000 2   1
  0.77109206910E+00  0.14222182477E-02  0.24884720000E-03   0
</init>
<event>
 5   0  0.2467448E-03  0.1101248E+04  0.7818609E-02  0.9203976E-01
        2   -1    0    0  501    0  0.00000000000E+00  0.00000000000E+00  0.49486887727E+03  0.49486887728E+03  0.25500000920E-02 0. -1.
       -2   -1    0    0    0  501  0.00000000000E+00  0.00000000000E+00 -0.61266079733E+03  0.61266079733E+03  0.25500000920E-02 0.  1.
    10030    2    1    2    0    0  0.00000000000E+00  0.00000000000E+00 -0.11779192005E+03  0.11075296746E+04  0.11012479483E+04 0.  0.
        1    1    3    3  502    0 -0.46406491687E+02  0.11060729982E+03  0.48156990492E+03  0.49628329671E+03  0.50400001928E-02 0. -1.
       -1    1    3    3    0  502  0.46406491687E+02 -0.11060729982E+03 -0.59936182497E+03  0.61124637791E+03  0.50400001928E-02 0.  1.
</event>
<event>
 5   0  0.2467448E-03  0.1098138E+04  0.7818609E-02  0.9207008E-01
        2   -1    0    0  501    0  0.00000000000E+00  0.00000000000E+00  0.87131969016E+03  0.87131969016E+03  0.25500000920E-02 0.  1.
       -2   -1    0    0    0  501  0.00000000000E+00  0.00000000000E+00 -0.34600040289E+03  0.34600040290E+03  0.25500000920E-02 0. -1.
    10030    2    1    2    0    0  0.00000000000E+00  0.00000000000E+00  0.52531928727E+03  0.12173200931E+04  0.10981383589E+04 0.  0.
        1    1    3    3  502    0  0.21868737414E+03  0.74768872726E+02  0.81477294405E+03  0.84691764789E+03  0.50400001928E-02 0.  1.
       -1    1    3    3    0  502 -0.21868737414E+03 -0.74768872726E+02 -0.28945365678E+03  0.37040244516E+03  0.50400001928E-02 0. -1.
</event>
<event>
 5   0  0.2483036E-03  0.1099229E+04  0.7818609E-02  0.9205943E-01
        2   -1    0    0  501    0  0.00000000000E+00  0.00000000000E+00  0.11203830652E+04  0.11203830652E+04  0.25500000920E-02 0. -1.
       -2   -1    0    0    0  501  0.00000000000E+00  0.00000000000E+00 -0.26961877921E+03  0.26961877922E+03  0.25500000920E-02 0.  1.
    10030    2    1    2    0    0  0.00000000000E+00  0.00000000000E+00  0.85076428600E+03  0.13900018444E+04  0.10992293924E+04 0.  0.
        3    1    3    3  502    0 -0.49808536384E+03  0.66672949197E+02  0.70684025986E+03  0.86727012804E+03  0.10100000352E+00 0. -1.
       -3    1    3    3    0  502  0.49808536384E+03 -0.66672949197E+02  0.14392402614E+03  0.52273171640E+03  0.10100000352E+00 0.  1.
</event>
<event>
 5   0  0.2467448E-03  0.1103420E+04  0.7818609E-02  0.9201865E-01
       -2   -1    0    0    0  501  0.00000000000E+00  0.00000000000E+00  0.12084296563E+03  0.12084296565E+03  0.25500000920E-02 0.  1.
        2   -1    0    0  501    0  0.00000000000E+00  0.00000000000E+00 -0.25188366098E+04  0.25188366098E+04  0.25500000920E-02 0. -1.
    10030    2    1    2    0    0  0.00000000000E+00  0.00000000000E+00 -0.23979936442E+04  0.26396795754E+04  0.11034195682E+04 0.  0.
        1    1    3    3  502    0  0.22971631651E+03  0.48239776875E+03 -0.87005733271E+03  0.10210176079E+04  0.50400001928E-02 0.  1.
       -1    1    3    3    0  502 -0.22971631651E+03 -0.48239776875E+03 -0.15279363114E+04  0.16186619676E+04  0.50400001928E-02 0. -1.
</event>
<event>
 5   0  0.2483036E-03  0.1100816E+04  0.7818609E-02  0.9204397E-01
        2   -1    0    0  501    0  0.00000000000E+00  0.00000000000E+00  0.13682582233E+04  0.13682582233E+04  0.25500000920E-02 0. -1.
       -2   -1    0    0    0  501  0.00000000000E+00  0.00000000000E+00 -0.22141194792E+03  0.22141194793E+03  0.25500000920E-02 0.  1.
    10030    2    1    2    0    0  0.00000000000E+00  0.00000000000E+00  0.11468462754E+04  0.15896701713E+04  0.11008155495E+04 0.  0.
        3    1    3    3  502    0  0.34248376060E+03  0.17319050625E+03  0.36800402699E+01  0.38380155110E+03  0.10100000352E+00 0.  1.
       -3    1    3    3    0  502 -0.34248376060E+03 -0.17319050625E+03  0.11431662351E+04  0.12058686202E+04  0.10100000352E+00 0. -1.
</event>
<event>
 5   0  0.1480937E-03  0.1096914E+04  0.7818609E-02  0.9208205E-01
        1   -1    0    0  501    0  0.00000000000E+00  0.00000000000E+00  0.33839986557E+03  0.33839986561E+03  0.50400001928E-02 0. -1.
       -1   -1    0    0    0  501  0.00000000000E+00  0.00000000000E+00 -0.88890374628E+03  0.88890374630E+03  0.50400001928E-02 0.  1.
    10030    2    1    2    0    0  0.00000000000E+00  0.00000000000E+00 -0.55050388071E+03  0.12273036119E+04  0.10969136854E+04 0.  0.
        1    1    3    3  502    0 -0.37070965611E+03  0.22425938563E+03  0.10100617361E+03  0.44488219599E+03  0.50400001928E-02 0. -1.
       -1    1    3    3    0  502  0.37070965611E+03 -0.22425938563E+03 -0.65151005432E+03  0.78242141591E+03  0.50400001928E-02 0.  1.
</event>
<event>
 5   0  0.1509004E-03  0.1122211E+04  0.7818609E-02  0.9183809E-01
        1   -1    0    0  501    0  0.00000000000E+00  0.00000000000E+00  0.54686651358E+03  0.54686651360E+03  0.50400001928E-02 0.  1.
       -1   -1    0    0    0  501  0.00000000000E+00  0.00000000000E+00 -0.57571570083E+03  0.57571570085E+03  0.50400001928E-02 0. -1.
    10030    2    1    2    0    0  0.00000000000E+00  0.00000000000E+00 -0.28849187251E+02  0.11225822145E+04  0.11222114563E+04 0.  0.
        3    1    3    3  502    0  0.33776567582E+03  0.44713807887E+03 -0.43096139104E+02  0.56202793592E+03  0.10100000352E+00 0. -1.
       -3    1    3    3    0  502 -0.33776567582E+03 -0.44713807887E+03  0.14246951853E+02  0.56055427853E+03  0.10100000352E+00 0.  1.
</event>
<event>
 5   0  0.2467448E-03  0.1109683E+04  0.7818609E-02  0.9195805E-01
       -2   -1    0    0    0  501  0.00000000000E+00  0.00000000000E+00  0.31423907476E+03  0.31423907477E+03  0.25500000920E-02 0.  1.
        2   -1    0    0  501    0  0.00000000000E+00  0.00000000000E+00 -0.97966479676E+03  0.97966479676E+03  0.25500000920E-02 0. -1.
    10030    2    1    2    0    0  0.00000000000E+00  0.00000000000E+00 -0.66542572200E+03  0.12939038715E+04  0.11096827642E+04 0.  0.
        1    1    3    3  502    0  0.27240381823E+03 -0.81125050782E+02 -0.88833195999E+03  0.93269436860E+03  0.50400001928E-02 0. -1.
       -1    1    3    3    0  502 -0.27240381823E+03  0.81125050782E+02  0.22290623799E+03  0.36120950293E+03  0.50400001928E-02 0.  1.
</event>
<event>
 5   0  0.9631750E-04  0.1035027E+04  0.7818609E-02  0.9270940E-01
        4   -1    0    0  501    0  0.00000000000E+00  0.00000000000E+00  0.23288998514E+03  0.23289344791E+03  0.12699999809E+01 0. -1.
       -4   -1    0    0    0  501  0.00000000000E+00  0.00000000000E+00 -0.11499742626E+04  0.11499749639E+04  0.12699999809E+01 0.  1.
    10030    2    1    2    0    0  0.00000000000E+00  0.00000000000E+00 -0.91708427745E+03  0.13828684118E+04  0.10350272810E+04 0.  0.
        3    1    3    3  502    0  0.36235462979E+03  0.33719978388E+03 -0.25673023654E+03  0.55759752199E+03  0.10100000352E+00 0. -1.
       -3    1    3    3    0  502 -0.36235462979E+03 -0.33719978388E+03 -0.66035404091E+03  0.82527088978E+03  0.10100000352E+00 0.  1.
</event>
<event>
 5   0  0.2467448E-03  0.1093077E+04  0.7818609E-02  0.9211966E-01
        2   -1    0    0  501    0  0.00000000000E+00  0.00000000000E+00  0.61311723652E+03  0.61311723653E+03  0.25500000920E-02 0. -1.
       -2   -1    0    0    0  501  0.00000000000E+00  0.00000000000E+00 -0.48718923369E+03  0.48718923370E+03  0.25500000920E-02 0.  1.
    10030    2    1    2    0    0  0.00000000000E+00  0.00000000000E+00  0.12592800283E+03  0.11003064702E+04  0.10930766060E+04 0.  0.
        1    1    3    3  502    0 -0.13209915621E+03 -0.45229599052E+03  0.34171121679E+03  0.58205532882E+03  0.50400001928E-02 0. -1.
       -1    1    3    3    0  502  0.13209915621E+03  0.45229599052E+03 -0.21578321396E+03  0.51825114140E+03  0.50400001928E-02 0.  1.
</event>
<event>
 5   0  0.2392585E-03  0.1101252E+04  0.7818609E-02  0.9203972E-01
       -2   -1    0    0    0  501  0.00000000000E+00  0.00000000000E+00  0.28254848208E+03  0.28254848209E+03  0.25500000920E-02 0.  1.
        2   -1    0    0  501    0  0.00000000000E+00  0.00000000000E+00 -0.10730513063E+04  0.10730513063E+04  0.25500000920E-02 0. -1.
    10030    2    1    2    0    0  0.00000000000E+00  0.00000000000E+00 -0.79050282425E+03  0.13555997884E+04  0.11012520471E+04 0.  0.
        5    1    3    3  502    0 -0.28347019135E+03  0.42882889368E+03 -0.15241352786E+03  0.53619170351E+03  0.46999998093E+01 0. -1.
       -5    1    3    3    0  502  0.28347019135E+03 -0.42882889368E+03 -0.63808929639E+03  0.81940808491E+03  0.46999998093E+01 0.  1.
</event>
<event>
 5   0  0.2392585E-03  0.1054933E+04  0.7818609E-02  0.9250266E-01
       -2   -1    0    0    0  501  0.00000000000E+00  0.00000000000E+00  0.35083513686E+03  0.35083513687E+03  0.25500000920E-02 0.  1.
        2   -1    0    0  501    0  0.00000000000E+00  0.00000000000E+00 -0.79302469924E+03  0.79302469925E+03  0.25500000920E-02 0. -1.
    10030    2    1    2    0    0  0.00000000000E+00  0.00000000000E+00 -0.44218956238E+03  0.11438598361E+04  0.10549330384E+04 0.  0.
        5    1    3    3  502    0  0.74999458416E+02  0.13085391276E+03 -0.76912167110E+03  0.78378434547E+03  0.46999998093E+01 0. -1.
       -5    1    3    3    0  502 -0.74999458416E+02 -0.13085391276E+03  0.32693210872E+03  0.36007549064E+03  0.46999998093E+01 0.  1.
</event>
<event>
 5   0  0.1468556E-03  0.1098832E+04  0.7818609E-02  0.9206331E-01
        1   -1    0    0  501    0  0.00000000000E+00  0.00000000000E+00  0.43432288081E+03  0.43432288083E+03  0.50400001928E-02 0. -1.
       -1   -1    0    0    0  501  0.00000000000E+00  0.00000000000E+00 -0.69500802913E+03  0.69500802915E+03  0.50400001928E-02 0.  1.
    10030    2    1    2    0    0  0.00000000000E+00  0.00000000000E+00 -0.26068514832E+03  0.11293309100E+04  0.10988319060E+04 0.  0.
        5    1    3    3  502    0 -0.25029219856E+03  0.21617009809E+03  0.32053674043E+03  0.46058830633E+03  0.46999998093E+01 0. -1.
       -5    1    3    3    0  502  0.25029219856E+03 -0.21617009809E+03 -0.58122188876E+03  0.66874260365E+03  0.46999998093E+01 0.  1.
</event>
<event>
 5   0  0.9631750E-04  0.1099240E+04  0.7818609E-02  0.9205932E-01
       -3   -1    0    0    0  501  0.00000000000E+00  0.00000000000E+00  0.20696128758E+03  0.20696131223E+03  0.10100000352E+00 0. -1.
        3   -1    0    0  501    0  0.00000000000E+00  0.00000000000E+00 -0.14596081825E+04  0.14596081860E+04  0.10100000352E+00 0.  1.
    10030    2    1    2    0    0  0.00000000000E+00  0.00000000000E+00 -0.12526468949E+04  0.16665694982E+04  0.10992404874E+04 0.  0.
        1    1    3    3  502    0  0.95649617920E+02  0.47163514790E+03 -0.22378596291E+03  0.53072471147E+03  0.50400001928E-02 0. -1.
       -1    1    3    3    0  502 -0.95649617920E+02 -0.47163514790E+03 -0.10288609320E+04  0.11358447867E+04  0.50400001928E-02 0.  1.
</event>
<event>
 5   0  0.1480937E-03  0.1099932E+04  0.7818609E-02  0.9205258E-01
       -1   -1    0    0    0  501  0.00000000000E+00  0.00000000000E+00  0.18877988439E+03  0.18877988446E+03  0.50400001928E-02 0.  1.
        1   -1    0    0  501    0  0.00000000000E+00  0.00000000000E+00 -0.16021981081E+04  0.16021981081E+04  0.50400001928E-02 0. -1.
    10030    2    1    2    0    0  0.00000000000E+00  0.00000000000E+00 -0.14134182237E+04  0.17909779926E+04  0.10999323137E+04 0.  0.
        1    1    3    3  502    0  0.55447810945E+02 -0.21740919202E+03  0.11086904279E+03  0.25026618067E+03  0.50400001928E-02 0.  1.
       -1    1    3    3    0  502 -0.55447810945E+02  0.21740919202E+03 -0.15242872665E+04  0.15407118119E+04  0.50400001928E-02 0. -1.
</event>
<event>
 5   0  0.1509004E-03  0.1095800E+04  0.7818609E-02  0.9209295E-01
       -1   -1    0    0    0  501  0.00000000000E+00  0.00000000000E+00  0.18034801454E+03  0.18034801461E+03  0.50400001928E-02 0.  1.
        1   -1    0    0  501    0  0.00000000000E+00  0.00000000000E+00 -0.16645288548E+04  0.16645288549E+04  0.50400001928E-02 0. -1.
    10030    2    1    2    0    0  0.00000000000E+00  0.00000000000E+00 -0.14841808403E+04  0.18448768695E+04  0.10958001171E+04 0.  0.
        3    1    3    3  502    0  0.74513824999E+02 -0.45607538589E+03 -0.12376418564E+04  0.13211034943E+04  0.10100000352E+00 0. -1.
       -3    1    3    3    0  502 -0.74513824999E+02  0.45607538589E+03 -0.24653898390E+03  0.52377337515E+03  0.10100000352E+00 0.  1.
</event>
<event>
 5   0  0.1509004E-03  0.1121891E+04  0.7818609E-02  0.9184115E-01
        1   -1    0    0  501    0  0.00000000000E+00  0.00000000000E+00  0.81996260344E+03  0.81996260345E+03  0.50400001928E-02 0. -1.
       -1   -1    0    0    0  501  0.00000000000E+00  0.00000000000E+00 -0.38374871152E+03  0.38374871156E+03  0.50400001928E-02 0.  1.
    10030    2    1    2    0    0  0.00000000000E+00  0.00000000000E+00  0.43621389192E+03  0.12037113150E+04  0.11218905340E+04 0.  0.
        3    1    3    3  502    0 -0.48328602165E+03 -0.54306513239E+02 -0.81824826861E+02  0.49316314602E+03  0.10100000352E+00 0.  1.
       -3    1    3    3    0  502  0.48328602165E+03  0.54306513239E+02  0.51803871878E+03  0.71054816899E+03  0.10100000352E+00 0. -1.
</event>
<event>
 5   0  0.2467448E-03  0.1103557E+04  0.7818609E-02  0.9201732E-01
       -2   -1    0    0    0  501  0.00000000000E+00  0.00000000000E+00  0.51199406485E+03  0.51199406486E+03  0.25500000920E-02 0. -1.
        2   -1    0    0  501    0  0.00000000000E+00  0.00000000000E+00 -0.59465470899E+03  0.59465470899E+03  0.25500000920E-02 0.  1.
    10030    2    1    2    0    0  0.00000000000E+00  0.00000000000E+00 -0.82660644137E+02  0.11066487739E+04  0.11035573055E+04 0.  0.
        1    1    3    3  502    0  0.20496430631E+03  0.50926963693E+03  0.14446997688E+02  0.54915812452E+03  0.50400001928E-02 0.  1.
       -1    1    3    3    0  502 -0.20496430631E+03 -0.50926963693E+03 -0.97107641825E+02  0.55749064933E+03  0.50400001928E-02 0. -1.
</event>
<event>
 5   0  0.1479573E-03  0.1102668E+04  0.7818609E-02  0.9202595E-01
        1   -1    0    0  501    0  0.00000000000E+00  0.00000000000E+00  0.56757171854E+03  0.56757171857E+03  0.50400001928E-02 0. -1.
       -1   -1    0    0    0  501  0.00000000000E+00  0.00000000000E+00 -0.53556109006E+03  0.53556109008E+03  0.50400001928E-02 0.  1.
    10030    2    1    2    0    0  0.00000000000E+00  0.00000000000E+00  0.32010628483E+02  0.11031328086E+04  0.11026682698E+04 0.  0.
        4    1    3    3  502    0  0.25872660602E+03  0.46613795262E+03 -0.12456604428E+03  0.54748731476E+03  0.12699999809E+01 0.  1.
       -4    1    3    3    0  502 -0.25872660602E+03 -0.46613795262E+03  0.15657667276E+03  0.55564549389E+03  0.12699999809E+01 0. -1.
</event>
<event>
 5   0  0.1480937E-03  0.1099949E+04  0.7818609E-02  0.9205242E-01
        1   -1    0    0  501    0  0.00000000000E+00  0.00000000000E+00  0.65756248504E+03  0.65756248506E+03  0.50400001928E-02 0. -1.
       -1   -1    0    0    0  501  0.00000000000E+00  0.00000000000E+00 -0.45998942809E+03  0.45998942812E+03  0.50400001928E-02 0.  1.
    10030    2    1    2    0    0  0.00000000000E+00  0.00000000000E+00  0.19757305694E+03  0.11175519132E+04  0.10999487105E+04 0.  0.
        1    1    3    3  502    0  0.28315368525E+03 -0.24516392602E+03 -0.31038733599E+03  0.48643772311E+03  0.50400001928E-02 0.  1.
       -1    1    3    3    0  502 -0.28315368525E+03  0.24516392602E+03  0.50796039294E+03  0.63111419007E+03  0.50400001928E-02 0. -1.
</event>
<event>
 5   0  0.2488472E-03  0.1098210E+04  0.7818609E-02  0.9206938E-01
        2   -1    0    0  501    0  0.00000000000E+00  0.00000000000E+00  0.47128229905E+03  0.47128229906E+03  0.25500000920E-02 0. -1.
       -2   -1    0    0    0  501  0.00000000000E+00  0.00000000000E+00 -0.63977848598E+03  0.63977848598E+03  0.25500000920E-02 0.  1.
    10030    2    1    2    0    0  0.00000000000E+00  0.00000000000E+00 -0.16849618693E+03  0.11110607850E+04  0.10982099540E+04 0.  0.
        2    1    3    3  502    0  0.29865174455E+03  0.45754714852E+03 -0.13942079483E+03  0.56389752232E+03  0.25500000920E-02 0.  1.
       -2    1    3    3    0  502 -0.29865174455E+03 -0.45754714852E+03 -0.29075392097E+02  0.54716326272E+03  0.25500000920E-02 0. -1.
</event>
<event>
 5   0  0.1509004E-03  0.1117915E+04  0.7818609E-02  0.9187905E-01
        1   -1    0    0  501    0  0.00000000000E+00  0.00000000000E+00  0.50762478721E+03  0.50762478724E+03  0.50400001928E-02 0.  1.
       -1   -1    0    0    0  501  0.00000000000E+00  0.00000000000E+00 -0.61548087778E+03  0.61548087780E+03  0.50400001928E-02 0. -1.
    10030    2    1    2    0    0  0.00000000000E+00  0.00000000000E+00 -0.10785609057E+03  0.11231056650E+04  0.11179147546E+04 0.  0.
        3    1    3    3  502    0 -0.15387941656E+03  0.28221456759E+03 -0.51333621093E+03  0.60567153859E+03  0.10100000352E+00 0. -1.
       -3    1    3    3    0  502  0.15387941656E+03 -0.28221456759E+03  0.40548012036E+03  0.51743412645E+03  0.10100000352E+00 0.  1.
</event>
<event>
 5   0  0.9631750E-04  0.1111342E+04  0.7818609E-02  0.9194207E-01
        3   -1    0    0  501    0  0.00000000000E+00  0.00000000000E+00  0.38517113666E+03  0.38517114990E+03  0.10100000352E+00 0.  1.
       -3   -1    0    0    0  501  0.00000000000E+00  0.00000000000E+00 -0.80164497589E+03  0.80164498225E+03  0.10100000352E+00 0. -1.
    10030    2    1    2    0    0  0.00000000000E+00  0.00000000000E+00 -0.41647383923E+03  0.11868161322E+04  0.11113424642E+04 0.  0.
        3    1    3    3  502    0  0.43714466558E+03 -0.31127535241E+03 -0.36218935430E+03  0.64743257737E+03  0.10100000352E+00 0.  1.
       -3    1    3    3    0  502 -0.43714466558E+03  0.31127535241E+03 -0.54284484929E+02  0.53938355479E+03  0.10100000352E+00 0. -1.
</event>
<event>
 5   0  0.2483036E-03  0.1103336E+04  0.7818609E-02  0.9201947E-01
       -2   -1    0    0    0  501  0.00000000000E+00  0.00000000000E+00  0.14103478334E+04  0.14103478334E+04  0.25500000920E-02 0.  1.
        2   -1    0    0  501    0  0.00000000000E+00  0.00000000000E+00 -0.21578889491E+03  0.21578889492E+03  0.25500000920E-02 0. -1.
    10030    2    1    2    0    0  0.00000000000E+00  0.00000000000E+00  0.11945589385E+04  0.16261367283E+04  0.11033356704E+04 0.  0.
        3    1    3    3  502    0 -0.20510643333E+01 -0.28614652724E+03 -0.97855078999E+02  0.30242299615E+03  0.10100000352E+00 0. -1.
       -3    1    3    3    0  502  0.20510643333E+01  0.28614652724E+03  0.12924140175E+04  0.13237137321E+04  0.10100000352E+00 0.  1.
</event>
<event>
 5   0  0.1480937E-03  0.1129232E+04  0.7818609E-02  0.9177160E-01
       -1   -1    0    0    0  501  0.00000000000E+00  0.00000000000E+00  0.76359309584E+03  0.76359309586E+03  0.50400001928E-02 0. -1.
        1   -1    0    0  501    0  0.00000000000E+00  0.00000000000E+00 -0.41748810165E+03  0.41748810169E+03  0.50400001928E-02 0.  1.
    10030    2    1    2    0    0  0.00000000000E+00  0.00000000000E+00  0.34610499419E+03  0.11810811975E+04  0.11292316539E+04 0.  0.
        1    1    3    3  502    0 -0.25936117015E+03 -0.43938115097E+03 -0.79849460034E+02  0.51643000368E+03  0.50400001928E-02 0.  1.
       -1    1    3    3    0  502  0.25936117015E+03  0.43938115097E+03  0.42595445422E+03  0.66465119386E+03  0.50400001928E-02 0. -1.
</event>
<event>
 5   0  0.2488472E-03  0.1098315E+04  0.7818609E-02  0.9206836E-01
        2   -1    0    0  501    0  0.00000000000E+00  0.00000000000E+00  0.43740262157E+03  0.43740262158E+03  0.25500000920E-02 0.  1.
       -2   -1    0    0    0  501  0.00000000000E+00  0.00000000000E+00 -0.68946488371E+03  0.68946488372E+03  0.25500000920E-02 0. -1.
    10030    2    1    2    0    0  0.00000000000E+00  0.00000000000E+00 -0.25206226214E+03  0.11268675053E+04  0.10983146136E+04 0.  0.
        2    1    3    3  502    0  0.16432405822E+03 -0.22898234903E+02  0.41107317879E+03  0.44329209738E+03  0.25500000920E-02 0.  1.
       -2    1    3    3    0  502 -0.16432405822E+03  0.22898234903E+02 -0.66313544094E+03  0.68357540791E+03  0.25500000920E-02 0. -1.
</event>
<event>
 5   0  0.1415400E-03  0.1098888E+04  0.7818609E-02  0.9206276E-01
        1   -1    0    0  501    0  0.00000000000E+00  0.00000000000E+00  0.49210680311E+03  0.49210680313E+03  0.50400001928E-02 0.  1.
       -1   -1    0    0    0  501  0.00000000000E+00  0.00000000000E+00 -0.61346189614E+03  0.61346189616E+03  0.50400001928E-02 0. -1.
    10030    2    1    2    0    0  0.00000000000E+00  0.00000000000E+00 -0.12135509303E+03  0.11055686993E+04  0.10988881154E+04 0.  0.
        2    1    3    3  502    0  0.21051430094E+03  0.35543386531E+03  0.30379444471E+03  0.51277730854E+03  0.25500000920E-02 0.  1.
       -2    1    3    3    0  502 -0.21051430094E+03 -0.35543386531E+03 -0.42514953774E+03  0.59279139076E+03  0.25500000920E-02 0. -1.
</event>
<event>
 5   0  0.2483036E-03  0.1098253E+04  0.7818609E-02  0.9206896E-01
       -2   -1    0    0    0  501  0.00000000000E+00  0.00000000000E+00  0.50911524325E+03  0.50911524325E+03  0.25500000920E-02 0. -1.
        2   -1    0    0  501    0  0.00000000000E+00  0.00000000000E+00 -0.59228237614E+03  0.59228237615E+03  0.25500000920E-02 0.  1.
    10030    2    1    2    0    0  0.00000000000E+00  0.00000000000E+00 -0.83167132897E+02  0.11013976194E+04  0.10982531329E+04 0.  0.
        3    1    3    3  502    0  0.54533389158E+03  0.64417661445E+02 -0.40445684067E+02  0.55061288758E+03  0.10100000352E+00 0. -1.
       -3    1    3    3    0  502 -0.54533389158E+03 -0.64417661445E+02 -0.42721448830E+02  0.55078473182E+03  0.10100000352E+00 0.  1.
</event>
<event>
 5   0  0.2392585E-03  0.1094676E+04  0.7818609E-02  0.9210397E-01
        2   -1    0    0  501    0  0.00000000000E+00  0.00000000000E+00  0.13549959113E+04  0.13549959113E+04  0.25500000920E-02 0.  1.
       -2   -1    0    0    0  501  0.00000000000E+00  0.00000000000E+00 -0.22109211831E+03  0.22109211832E+03  0.25500000920E-02 0. -1.
    10030    2    1    2    0    0  0.00000000000E+00  0.00000000000E+00  0.11339037930E+04  0.15760880296E+04  0.10946760550E+04 0.  0.
        5    1    3    3  502    0  0.91463287089E+02 -0.24515120256E+03 -0.12517779159E+03  0.29009690538E+03  0.46999998093E+01 0. -1.
       -5    1    3    3    0  502 -0.91463287089E+02  0.24515120256E+03  0.12590815846E+04  0.12859911242E+04  0.46999998093E+01 0.  1.
</event>
<event>
 5   0  0.1415400E-03  0.1104666E+04  0.7818609E-02  0.9200656E-01
       -1   -1    0    0    0  501  0.00000000000E+00  0.00000000000E+00  0.43990773253E+03  0.43990773256E+03  0.50400001928E-02 0. -1.
        1   -1    0    0  501    0  0.00000000000E+00  0.00000000000E+00 -0.69349064880E+03  0.69349064882E+03  0.50400001928E-02 0.  1.
    10030    2    1    2    0    0  0.00000000000E+00  0.00000000000E+00 -0.25358291627E+03  0.11333983814E+04  0.11046662824E+04 0.  0.
        2    1    3    3  502    0  0.46021057556E+03  0.29061506035E+03 -0.22315454176E+03  0.58825915775E+03  0.25500000920E-02 0.  1.
       -2    1    3    3    0  502 -0.46021057556E+03 -0.29061506035E+03 -0.30428374507E+02  0.54513922363E+03  0.25500000920E-02 0. -1.
</event>
<event>
 5   0  0.2483036E-03  0.1006031E+04  0.7818609E-02  0.9301954E-01
        2   -1    0    0  501    0  0.00000000000E+00  0.00000000000E+00  0.10041779386E+04  0.10041779386E+04  0.25500000920E-02 0. -1.
       -2   -1    0    0    0  501  0.00000000000E+00  0.00000000000E+00 -0.25197202024E+03  0.25197202025E+03  0.25500000920E-02 0.  1.
    10030    2    1    2    0    0  0.00000000000E+00  0.00000000000E+00  0.75220591838E+03  0.12561499589E+04  0.10060312995E+04 0.  0.
        3    1    3    3  502    0  0.13456555682E+03 -0.23671840044E+03 -0.15199245769E+03  0.31184163863E+03  0.10100000352E+00 0.  1.
       -3    1    3    3    0  502 -0.13456555682E+03  0.23671840044E+03  0.90419837608E+03  0.94430832025E+03  0.10100000352E+00 0. -1.
</event>
<event>
 5   0  0.2467448E-03  0.1107980E+04  0.7818609E-02  0.9197449E-01
       -2   -1    0    0    0  501  0.00000000000E+00  0.00000000000E+00  0.76459611052E+03  0.76459611052E+03  0.25500000920E-02 0. -1.
        2   -1    0    0  501    0  0.00000000000E+00  0.00000000000E+00 -0.40139470945E+03  0.40139470946E+03  0.25500000920E-02 0.  1.
    10030    2    1    2    0    0  0.00000000000E+00  0.00000000000E+00  0.36320140107E+03  0.11659908200E+04  0.11079798439E+04 0.  0.
        1    1    3    3  502    0  0.23727346544E+03  0.12856711715E+03 -0.32754525921E+03  0.42439851304E+03  0.50400001928E-02 0.  1.
       -1    1    3    3    0  502 -0.23727346544E+03 -0.12856711715E+03  0.69074666028E+03  0.74159230695E+03  0.50400001928E-02 0. -1.
</event>
<event>
 5   0  0.1509004E-03  0.1106999E+04  0.7818609E-02  0.9198397E-01
        1   -1    0    0  501    0  0.00000000000E+00  0.00000000000E+00  0.15715838571E+04  0.15715838571E+04  0.50400001928E-02 0. -1.
       -1   -1    0    0    0  501  0.00000000000E+00  0.00000000000E+00 -0.19493825001E+03  0.19493825008E+03  0.50400001928E-02 0.  1.
    10030    2    1    2    0    0  0.00000000000E+00  0.00000000000E+00  0.13766456071E+04  0.17665221072E+04  0.11069991995E+04 0.  0.
        3    1    3    3  502    0 -0.27919059761E+03 -0.45270356181E+03  0.93281461672E+03  0.10737928218E+04  0.10100000352E+00 0. -1.
       -3    1    3    3    0  502  0.27919059761E+03  0.45270356181E+03  0.44383099033E+03  0.69272928540E+03  0.10100000352E+00 0.  1.
</event>
<event>
 5   0  0.2483036E-03  0.1096395E+04  0.7818609E-02  0.9208713E-01
       -2   -1    0    0    0  501  0.00000000000E+00  0.00000000000E+00  0.18806672006E+03  0.18806672008E+03  0.25500000920E-02 0. -1.
        2   -1    0    0  501    0  0.00000000000E+00  0.00000000000E+00 -0.15979466731E+04  0.15979466731E+04  0.25500000920E-02 0.  1.
    10030    2    1    2    0    0  0.00000000000E+00  0.00000000000E+00 -0.14098799531E+04  0.17860133932E+04  0.10963951654E+04 0.  0.
        3    1    3    3  502    0  0.23685545122E+03 -0.43877836333E+03 -0.10760259969E+04  0.11859422048E+04  0.10100000352E+00 0.  1.
       -3    1    3    3    0  502 -0.23685545122E+03  0.43877836333E+03 -0.33385395614E+03  0.60007118839E+03  0.10100000352E+00 0. -1.
</event>
<event>
 5   0  0.1479573E-03  0.1100947E+04  0.7818609E-02  0.9204270E-01
        1   -1    0    0  501    0  0.00000000000E+00  0.00000000000E+00  0.79624013711E+03  0.79624013713E+03  0.50400001928E-02 0. -1.
       -1   -1    0    0    0  501  0.00000000000E+00  0.00000000000E+00 -0.38056459189E+03  0.38056459193E+03  0.50400001928E-02 0.  1.
    10030    2    1    2    0    0  0.00000000000E+00  0.00000000000E+00  0.41567554522E+03  0.11768047291E+04  0.11009465071E+04 0.  0.
        4    1    3    3  502    0  0.17104158619E+03  0.17990400920E+02 -0.35110771815E+03  0.39096946348E+03  0.12699999809E+01 0.  1.
       -4    1    3    3    0  502 -0.17104158619E+03 -0.17990400920E+02  0.76678326337E+03  0.78583526557E+03  0.12699999809E+01 0. -1.
</event>
<event>
 5   0  0.1480937E-03  0.1072355E+04  0.7818609E-02  0.9232564E-01
        1   -1    0    0  501    0  0.00000000000E+00  0.00000000000E+00  0.70585277472E+03  0.70585277474E+03  0.50400001928E-02 0. -1.
       -1   -1    0    0    0  501  0.00000000000E+00  0.00000000000E+00 -0.40728908894E+03  0.40728908897E+03  0.50400001928E-02 0.  1.
    10030    2    1    2    0    0  0.00000000000E+00  0.00000000000E+00  0.29856368578E+03  0.11131418637E+04  0.10723546681E+04 0.  0.
        1    1    3    3  502    0  0.28374682835E+02  0.50587055123E+03 -0.32821588871E+02  0.50772767696E+03  0.50400001928E-02 0.  1.
       -1    1    3    3    0  502 -0.28374682835E+02 -0.50587055123E+03  0.33138527465E+03  0.60541418675E+03  0.50400001928E-02 0. -1.
</event>
<event>
 5   0  0.1509004E-03  0.1103072E+04  0.7818609E-02  0.9202203E-01
       -1   -1    0    0    0  501  0.00000000000E+00  0.00000000000E+00  0.29260954057E+03  0.29260954062E+03  0.50400001928E-02 0.  1.
        1   -1    0    0  501    0  0.00000000000E+00  0.00000000000E+00 -0.10395829902E+04  0.10395829902E+04  0.50400001928E-02 0. -1.
    10030    2    1    2    0    0  0.00000000000E+00  0.00000000000E+00 -0.74697344959E+03  0.13321925308E+04  0.11030718946E+04 0.  0.
        3    1    3    3  502    0 -0.45917526122E+03 -0.22553797690E+03 -0.12456163325E+03  0.52652151924E+03  0.10100000352E+00 0.  1.
       -3    1    3    3    0  502  0.45917526122E+03  0.22553797690E+03 -0.62241181635E+03  0.80567101156E+03  0.10100000352E+00 0. -1.
</event>
<event>
 5   0  0.2438115E-03  0.1095581E+04  0.7818609E-02  0.9209510E-01
       -2   -1    0    0    0  501  0.00000000000E+00  0.00000000000E+00  0.20960934364E+03  0.20960934365E+03  0.25500000920E-02 0. -1.
        2   -1    0    0  501    0  0.00000000000E+00  0.00000000000E+00 -0.14315884362E+04  0.14315884362E+04  0.25500000920E-02 0.  1.
    10030    2    1    2    0    0  0.00000000000E+00  0.00000000000E+00 -0.12219790925E+04  0.16411977798E+04  0.10955807820E+04 0.  0.
        4    1    3    3  502    0 -0.30361231292E+03 -0.15253056590E+03 -0.12546602701E+04  0.12998538443E+04  0.12699999809E+01 0.  1.
       -4    1    3    3    0  502  0.30361231292E+03  0.15253056590E+03  0.32681177589E+02  0.34134393558E+03  0.12699999809E+01 0. -1.
</event>
<event>
 5   0  0.2438115E-03  0.1093056E+04  0.7818609E-02  0.9211986E-01
       -2   -1    0    0    0  501  0.00000000000E+00  0.00000000000E+00  0.29645347980E+03  0.29645347981E+03  0.25500000920E-02 0. -1.
        2   -1    0    0  501    0  0.00000000000E+00  0.00000000000E+00 -0.10075540182E+04  0.10075540182E+04  0.25500000920E-02 0.  1.
    10030    2    1    2    0    0  0.00000000000E+00  0.00000000000E+00 -0.71110053839E+03  0.13040074980E+04  0.10930560732E+04 0.  0.
        4    1    3    3  502    0 -0.42549107236E+03  0.21253222873E+03 -0.34374489160E+02  0.47686037716E+03  0.12699999809E+01 0.  1.
       -4    1    3    3    0  502  0.42549107236E+03 -0.21253222873E+03 -0.67672604923E+03  0.82714712084E+03  0.12699999809E+01 0. -1.
</event>
<event>
 5   0  0.9631750E-04  0.1103339E+04  0.7818609E-02  0.9201943E-01
        4   -1    0    0  501    0  0.00000000000E+00  0.00000000000E+00  0.69327895014E+03  0.69328011338E+03  0.12699999809E+01 0.  1.
       -4   -1    0    0    0  501  0.00000000000E+00  0.00000000000E+00 -0.43898298299E+03  0.43898482007E+03  0.12699999809E+01 0. -1.
    10030    2    1    2    0    0  0.00000000000E+00  0.00000000000E+00  0.25429596716E+03  0.11322649335E+04  0.11033392228E+04 0.  0.
        4    1    3    3  502    0  0.36129092450E+03  0.41656008703E+03  0.10984446915E+03  0.56224626147E+03  0.12699999809E+01 0. -1.
       -4    1    3    3    0  502 -0.36129092450E+03 -0.41656008703E+03  0.14445149800E+03  0.57001867198E+03  0.12699999809E+01 0.  1.
</event>
<event>
 5   0  0.1509004E-03  0.1111088E+04  0.7818609E-02  0.9194452E-01
       -1   -1    0    0    0  501  0.00000000000E+00  0.00000000000E+00  0.27958701755E+03  0.27958701759E+03  0.50400001928E-02 0. -1.
        1   -1    0    0  501    0  0.00000000000E+00  0.00000000000E+00 -0.11038748316E+04  0.11038748316E+04  0.50400001928E-02 0.  1.
    10030    2    1    2    0    0  0.00000000000E+00  0.00000000000E+00 -0.82428781402E+03  0.13834618492E+04  0.11110878848E+04 0.  0.
        3    1    3    3  502    0  0.81937484493E+02 -0.22861957318E+03  0.20998899469E+03  0.32105458835E+03  0.10100000352E+00 0. -1.
       -3    1    3    3    0  502 -0.81937484493E+02  0.22861957318E+03 -0.10342768087E+04  0.10624072608E+04  0.10100000352E+00 0.  1.
</event>
<event>
 5   0  0.1468556E-03  0.1212353E+04  0.7818609E-02  0.9102112E-01
       -1   -1    0    0    0  501  0.00000000000E+00  0.00000000000E+00  0.31803069001E+03  0.31803069005E+03  0.50400001928E-02 0.  1.
        1   -1    0    0  501    0  0.00000000000E+00  0.00000000000E+00 -0.11553911578E+04  0.11553911579E+04  0.50400001928E-02 0. -1.
    10030    2    1    2    0    0  0.00000000000E+00  0.00000000000E+00 -0.83736046784E+03  0.14734218479E+04  0.12123528318E+04 0.  0.
        5    1    3    3  502    0  0.27143578094E+03  0.63041598463E+02  0.23554814481E+03  0.36490635077E+03  0.46999998093E+01 0.  1.
       -5    1    3    3    0  502 -0.27143578094E+03 -0.63041598463E+02 -0.10729086126E+04  0.11085154971E+04  0.46999998093E+01 0. -1.
</event>
<event>
 5   0  0.2488472E-03  0.1083256E+04  0.7818609E-02  0.9221667E-01
       -2   -1    0    0    0  501  0.00000000000E+00  0.00000000000E+00  0.64482745675E+03  0.64482745675E+03  0.25500000920E-02 0.  1.
        2   -1    0    0  501    0  0.00000000000E+00  0.00000000000E+00 -0.45494459658E+03  0.45494459658E+03  0.25500000920E-02 0. -1.
    10030    2    1    2    0    0  0.00000000000E+00  0.00000000000E+00  0.18988286017E+03  0.10997720533E+04  0.10832557725E+04 0.  0.
        2    1    3    3  502    0  0.25658122880E+03  0.23773962862E+03 -0.32489318429E+03  0.47739882613E+03  0.25500000920E-02 0. -1.
       -2    1    3    3    0  502 -0.25658122880E+03 -0.23773962862E+03  0.51477604445E+03  0.62237322720E+03  0.25500000920E-02 0.  1.
</event>
<event>
 5   0  0.2483036E-03  0.1089271E+04  0.7818609E-02  0.9215713E-01
       -2   -1    0    0    0  501  0.00000000000E+00  0.00000000000E+00  0.17858488846E+03  0.17858488848E+03  0.25500000920E-02 0. -1.
        2   -1    0    0  501    0  0.00000000000E+00  0.00000000000E+00 -0.16609891649E+04  0.16609891649E+04  0.25500000920E-02 0.  1.
    10030    2    1    2    0    0  0.00000000000E+00  0.00000000000E+00 -0.14824042764E+04  0.18395740533E+04  0.10892705169E+04 0.  0.
        3    1    3    3  502    0  0.13467622524E+03 -0.31783580610E+03 -0.29752225124E+02  0.34647148567E+03  0.10100000352E+00 0. -1.
       -3    1    3    3    0  502 -0.13467622524E+03  0.31783580610E+03 -0.14526520513E+04  0.14931025677E+04  0.10100000352E+00 0.  1.
</event>
<event>
 5   0  0.2467448E-03  0.1091344E+04  0.7818609E-02  0.9213670E-01
       -2   -1    0    0    0  501  0.00000000000E+00  0.00000000000E+00  0.59192471060E+03  0.59192471060E+03  0.25500000920E-02 0. -1.
        2   -1    0    0  501    0  0.00000000000E+00  0.00000000000E+00 -0.50303369895E+03  0.50303369896E+03  0.25500000920E-02 0.  1.
    10030    2    1    2    0    0  0.00000000000E+00  0.00000000000E+00  0.88891011642E+02  0.10949584096E+04  0.10913442659E+04 0.  0.
        1    1    3    3  502    0 -0.32892784364E+02  0.81628546188E+01  0.59086777138E+03  0.59183890607E+03  0.50400001928E-02 0. -1.
       -1    1    3    3    0  502  0.32892784364E+02 -0.81628546188E+01 -0.50197675973E+03  0.50311950350E+03  0.50400001928E-02 0.  1.
</event>
<event>
 5   0  0.2488472E-03  0.1104646E+04  0.7818609E-02  0.9200676E-01
       -2   -1    0    0    0  501  0.00000000000E+00  0.00000000000E+00  0.15889383351E+04  0.15889383351E+04  0.25500000920E-02 0. -1.
        2   -1    0    0  501    0  0.00000000000E+00  0.00000000000E+00 -0.19199012211E+03  0.19199012213E+03  0.25500000920E-02 0.  1.
    10030    2    1    2    0    0  0.00000000000E+00  0.00000000000E+00  0.13969482130E+04  0.17809284573E+04  0.11046455812E+04 0.  0.
        2    1    3    3  502    0  0.51914707666E+03  0.10410054941E+03  0.95190444193E+03  0.10892532663E+04  0.25500000920E-02 0. -1.
       -2    1    3    3    0  502 -0.51914707666E+03 -0.10410054941E+03  0.44504377109E+03  0.69167519095E+03  0.25500000920E-02 0.  1.
</event>
<event>
 5   0  0.2483036E-03  0.1106110E+04  0.7818609E-02  0.9199257E-01
        2   -1    0    0  501    0  0.00000000000E+00  0.00000000000E+00  0.12028876808E+04  0.12028876808E+04  0.25500000920E-02 0. -1.
       -2   -1    0    0    0  501  0.00000000000E+00  0.00000000000E+00 -0.25427956731E+03  0.25427956732E+03  0.25500000920E-02 0.  1.
    10030    2    1    2    0    0  0.00000000000E+00  0.00000000000E+00  0.94860811349E+03  0.14571672481E+04  0.11061098662E+04 0.  0.
        3    1    3    3  502    0 -0.53871389905E+03 -0.11527585490E+03  0.53841813853E+03  0.77032154965E+03  0.10100000352E+00 0.  1.
       -3    1    3    3    0  502  0.53871389905E+03  0.11527585490E+03  0.41018997496E+03  0.68684569848E+03  0.10100000352E+00 0. -1.
</event>
<event>
 5   0  0.1509004E-03  0.1089910E+04  0.7818609E-02  0.9215082E-01
        1   -1    0    0  501    0  0.00000000000E+00  0.00000000000E+00  0.11420913850E+04  0.11420913850E+04  0.50400001928E-02 0. -1.
       -1   -1    0    0    0  501  0.00000000000E+00  0.00000000000E+00 -0.26002826833E+03  0.26002826838E+03  0.50400001928E-02 0.  1.
    10030    2    1    2    0    0  0.00000000000E+00  0.00000000000E+00  0.88206311671E+03  0.14021196534E+04  0.10899101709E+04 0.  0.
        3    1    3    3  502    0  0.66524135372E+02  0.10542470081E+03  0.11235028004E+04  0.11303974438E+04  0.10100000352E+00 0. -1.
       -3    1    3    3    0  502 -0.66524135372E+02 -0.10542470081E+03 -0.24143968373E+03  0.27172220964E+03  0.10100000352E+00 0.  1.
</event>
<event>
 5   0  0.2392585E-03  0.1091965E+04  0.7818609E-02  0.9213059E-01
       -2   -1    0    0    0  501  0.00000000000E+00  0.00000000000E+00  0.35921855910E+03  0.35921855911E+03  0.25500000920E-02 0. -1.
        2   -1    0    0  501    0  0.00000000000E+00  0.00000000000E+00 -0.82984800920E+03  0.82984800920E+03  0.25500000920E-02 0.  1.
    10030    2    1    2    0    0  0.00000000000E+00  0.00000000000E+00 -0.47062945010E+03  0.11890665683E+04  0.10919648458E+04 0.  0.
        5    1    3    3  502    0  0.16911658620E+03 -0.29766692559E+03  0.22779000573E+03  0.41123763815E+03  0.46999998093E+01 0. -1.
       -5    1    3    3    0  502 -0.16911658620E+03  0.29766692559E+03 -0.69841945583E+03  0.77782893016E+03  0.46999998093E+01 0.  1.
</event>
<event>
 5   0  0.1468556E-03  0.1098517E+04  0.7818609E-02  0.9206638E-01
       -1   -1    0    0    0  501  0.00000000000E+00  0.00000000000E+00  0.23276958962E+03  0.23276958967E+03  0.50400001928E-02 0. -1.
        1   -1    0    0  501    0  0.00000000000E+00  0.00000000000E+00 -0.12960673921E+04  0.12960673921E+04  0.50400001928E-02 0.  1.
    10030    2    1    2    0    0  0.00000000000E+00  0.00000000000E+00 -0.10632978025E+04  0.15288369818E+04  0.10985173190E+04 0.  0.
        5    1    3    3  502    0 -0.64989324264E+02  0.42553561964E+03 -0.10063868022E+04  0.10945961180E+04  0.46999998093E+01 0.  1.
       -5    1    3    3    0  502  0.64989324264E+02 -0.42553561964E+03 -0.56911000297E+02  0.43424086382E+03  0.46999998093E+01 0. -1.
</event>
<event>
 5   0  0.1509004E-03  0.1095973E+04  0.7818609E-02  0.9209125E-01
       -1   -1    0    0    0  501  0.00000000000E+00  0.00000000000E+00  0.89147264699E+03  0.89147264700E+03  0.50400001928E-02 0. -1.
        1   -1    0    0  501    0  0.00000000000E+00  0.00000000000E+00 -0.33684642914E+03  0.33684642918E+03  0.50400001928E-02 0.  1.
    10030    2    1    2    0    0  0.00000000000E+00  0.00000000000E+00  0.55462621785E+03  0.12283190762E+04  0.10959733169E+04 0.  0.
        3    1    3    3  502    0  0.15542677616E+03  0.10579611222E+03  0.85419142870E+03  0.87463895819E+03  0.10100000352E+00 0. -1.
       -3    1    3    3    0  502 -0.15542677616E+03 -0.10579611222E+03 -0.29956521086E+03  0.35368011799E+03  0.10100000352E+00 0.  1.
</event>
<event>
 5   0  0.2483036E-03  0.1102302E+04  0.7818609E-02  0.9202951E-01
        2   -1    0    0  501    0  0.00000000000E+00  0.00000000000E+00  0.10780304539E+04  0.10780304539E+04  0.25500000920E-02 0. -1.
       -2   -1    0    0    0  501  0.00000000000E+00  0.00000000000E+00 -0.28177988139E+03  0.28177988141E+03  0.25500000920E-02 0.  1.
    10030    2    1    2    0    0  0.00000000000E+00  0.00000000000E+00  0.79625057250E+03  0.13598103353E+04  0.11023017617E+04 0.  0.
        3    1    3    3  502    0 -0.11805467127E+02 -0.42944521116E+03  0.82404189021E+03  0.92930490447E+03  0.10100000352E+00 0. -1.
       -3    1    3    3    0  502  0.11805467127E+02  0.42944521116E+03 -0.27791317710E+02  0.43050543084E+03  0.10100000352E+00 0.  1.
</event>
<event>
 5   0  0.1480937E-03  0.1097091E+04  0.7818609E-02  0.9208032E-01
       -1   -1    0    0    0  501  0.00000000000E+00  0.00000000000E+00  0.35603372831E+03  0.35603372835E+03  0.50400001928E-02 0. -1.
        1   -1    0    0  501    0  0.00000000000E+00  0.00000000000E+00 -0.84515005611E+03  0.84515005612E+03  0.50400001928E-02 0.  1.
    10030    2    1    2    0    0  0.00000000000E+00  0.00000000000E+00 -0.48911632779E+03  0.12011837845E+04  0.10970905623E+04 0.  0.
        1    1    3    3  502    0  0.24029362706E+03  0.47262993740E+02  0.29285687463E+03  0.38175904289E+03  0.50400001928E-02 0. -1.
       -1    1    3    3    0  502 -0.24029362706E+03 -0.47262993740E+02 -0.78197320242E+03  0.81942474158E+03  0.50400001928E-02 0.  1.
</event>
<event>
 5   0  0.1509004E-03  0.1054656E+04  0.7818609E-02  0.9250550E-01
        1   -1    0    0  501    0  0.00000000000E+00  0.00000000000E+00  0.72276545063E+03  0.72276545065E+03  0.50400001928E-02 0.  1.
       -1   -1    0    0    0  501  0.00000000000E+00  0.00000000000E+00 -0.38473743686E+03  0.38473743689E+03  0.50400001928E-02 0. -1.
    10030    2    1    2    0    0  0.00000000000E+00  0.00000000000E+00  0.33802801377E+03  0.11075028875E+04  0.10546562036E+04 0.  0.
        3    1    3    3  502    0 -0.12245567943E+03  0.35219461598E+03  0.56057683333E+03  0.67326282923E+03  0.10100000352E+00 0.  1.
       -3    1    3    3    0  502  0.12245567943E+03 -0.35219461598E+03 -0.22254881957E+03  0.43424005831E+03  0.10100000352E+00 0. -1.
</event>
<event>
 5   0  0.1415400E-03  0.1092506E+04  0.7818609E-02  0.9212527E-01
        1   -1    0    0  501    0  0.00000000000E+00  0.00000000000E+00  0.31449468543E+03  0.31449468547E+03  0.50400001928E-02 0. -1.
       -1   -1    0    0    0  501  0.00000000000E+00  0.00000000000E+00 -0.94879932517E+03  0.94879932518E+03  0.50400001928E-02 0.  1.
    10030    2    1    2    0    0  0.00000000000E+00  0.00000000000E+00 -0.63430463974E+03  0.12632940107E+04  0.10925060098E+04 0.  0.
        2    1    3    3  502    0  0.16849012566E+03 -0.71024473235E+02  0.27805723886E+03  0.33279006345E+03  0.25500000920E-02 0. -1.
       -2    1    3    3    0  502 -0.16849012566E+03  0.71024473235E+02 -0.91236187860E+03  0.93050394720E+03  0.25500000920E-02 0.  1.
</event>
<event>
 5   0  0.1468556E-03  0.1096815E+04  0.7818609E-02  0.9208302E-01
        1   -1    0    0  501    0  0.00000000000E+00  0.00000000000E+00  0.16155241378E+04  0.16155241378E+04  0.50400001928E-02 0.  1.
       -1   -1    0    0    0  501  0.00000000000E+00  0.00000000000E+00 -0.18616283885E+03  0.18616283892E+03  0.50400001928E-02 0. -1.
    10030    2    1    2    0    0  0.00000000000E+00  0.00000000000E+00  0.14293612989E+04  0.18016869767E+04  0.10968145874E+04 0.  0.
        5    1    3    3  502    0  0.35274974681E+03  0.29246532958E+03  0.21980778030E+03  0.50823803789E+03  0.46999998093E+01 0. -1.
       -5    1    3    3    0  502 -0.35274974681E+03 -0.29246532958E+03  0.12095535186E+04  0.12934489388E+04  0.46999998093E+01 0.  1.
</event>
<event>
 5   0  0.2438115E-03  0.1047945E+04  0.7818609E-02  0.9257469E-01
       -2   -1    0    0    0  501  0.00000000000E+00  0.00000000000E+00  0.25743620791E+03  0.25743620792E+03  0.25500000920E-02 0. -1.
        2   -1    0    0  501    0  0.00000000000E+00  0.00000000000E+00 -0.10664659162E+04  0.10664659162E+04  0.25500000920E-02 0.  1.
    10030    2    1    2    0    0  0.00000000000E+00  0.00000000000E+00 -0.80902970826E+03  0.13239021241E+04  0.10479445431E+04 0.  0.
        4    1    3    3  502    0  0.19543262586E+03  0.47083683138E+02  0.20677941644E+03  0.28839230994E+03  0.12699999809E+01 0. -1.
       -4    1    3    3    0  502 -0.19543262586E+03 -0.47083683138E+02 -0.10158091247E+04  0.10355098142E+04  0.12699999809E+01 0.  1.
</event>
<event>
 5   0  0.2467448E-03  0.1102453E+04  0.7818609E-02  0.9202805E-01
       -2   -1    0    0    0  501  0.00000000000E+00  0.00000000000E+00  0.36374864556E+03  0.36374864557E+03  0.25500000920E-02 0. -1.
        2   -1    0    0  501    0  0.00000000000E+00  0.00000000000E+00 -0.83533067527E+03  0.83533067527E+03  0.25500000920E-02 0.  1.
    10030    2    1    2    0    0  0.00000000000E+00  0.00000000000E+00 -0.47158202970E+03  0.11990793208E+04  0.11024525418E+04 0.  0.
        1    1    3    3  502    0 -0.11613078942E+03 -0.33279136465E+03  0.22516346590E+03  0.41825236286E+03  0.50400001928E-02 0. -1.
       -1    1    3    3    0  502  0.11613078942E+03  0.33279136465E+03 -0.69674549561E+03  0.78082695798E+03  0.50400001928E-02 0.  1.
</event>
<event>
 5   0  0.1479573E-03  0.1088479E+04  0.7818609E-02  0.9216495E-01
        1   -1    0    0  501    0  0.00000000000E+00  0.00000000000E+00  0.66124427478E+03  0.66124427480E+03  0.50400001928E-02 0. -1.
       -1   -1    0    0    0  501  0.00000000000E+00  0.00000000000E+00 -0.44793802263E+03  0.44793802266E+03  0.50400001928E-02 0.  1.
    10030    2    1    2    0    0  0.00000000000E+00  0.00000000000E+00  0.21330625215E+03  0.11091822975E+04  0.10884786685E+04 0.  0.
        4    1    3    3  502    0 -0.28831428482E+03  0.42009965128E+03 -0.88259714067E+02  0.51710756508E+03  0.12699999809E+01 0. -1.
       -4    1    3    3    0  502  0.28831428482E+03 -0.42009965128E+03  0.30156596622E+03  0.59207473238E+03  0.12699999809E+01 0.  1.
</event>
<event>
 5   0  0.2488472E-03  0.1097192E+04  0.7818609E-02  0.9207933E-01
       -2   -1    0    0    0  501  0.00000000000E+00  0.00000000000E+00  0.22983720097E+03  0.22983720098E+03  0.25500000920E-02 0.  1.
        2   -1    0    0  501    0  0.00000000000E+00  0.00000000000E+00 -0.13094380416E+04  0.13094380416E+04  0.25500000920E-02 0. -1.
    10030    2    1    2    0    0  0.00000000000E+00  0.00000000000E+00 -0.10796008407E+04  0.15392752426E+04  0.10971920057E+04 0.  0.
        2    1    3    3  502    0 -0.32684146108E+03  0.28825132494E+03 -0.72302116555E+02  0.44174852923E+03  0.25500000920E-02 0.  1.
       -2    1    3    3    0  502  0.32684146108E+03 -0.28825132494E+03 -0.10072987241E+04  0.10975267134E+04  0.25500000920E-02 0. -1.
</event>
<event>
 5   0  0.1468556E-03  0.1098220E+04  0.7818609E-02  0.9206928E-01
       -1   -1    0    0    0  501  0.00000000000E+00  0.00000000000E+00  0.26488988964E+03  0.26488988969E+03  0.50400001928E-02 0.  1.
        1   -1    0    0  501    0  0.00000000000E+00  0.00000000000E+00 -0.11382919132E+04  0.11382919132E+04  0.50400001928E-02 0. -1.
    10030    2    1    2    0    0  0.00000000000E+00  0.00000000000E+00 -0.87340202356E+03  0.14031818029E+04  0.10982204138E+04 0.  0.
        5    1    3    3  502    0  0.31696001121E+03  0.35522974463E+03 -0.87146551142E+02  0.48401284234E+03  0.46999998093E+01 0.  1.
       -5    1    3    3    0  502 -0.31696001121E+03 -0.35522974463E+03 -0.78625547242E+03  0.91916896058E+03  0.46999998093E+01 0. -1.
</event>
<event>
 5   0  0.2488472E-03  0.1100563E+04  0.7818609E-02  0.9204643E-01
       -2   -1    0    0    0  501  0.00000000000E+00  0.00000000000E+00  0.16217054610E+03  0.16217054612E+03  0.25500000920E-02 0. -1.
        2   -1    0    0  501    0  0.00000000000E+00  0.00000000000E+00 -0.18672296599E+04  0.18672296599E+04  0.25500000920E-02 0.  1.
    10030    2    1    2    0    0  0.00000000000E+00  0.00000000000E+00 -0.17050591138E+04  0.20294002060E+04  0.11005628626E+04 0.  0.
        2    1    3    3  502    0 -0.26303475875E+03 -0.25478603731E+03 -0.95141098733E+02  0.37835834575E+03  0.25500000920E-02 0. -1.
       -2    1    3    3    0  502  0.26303475875E+03  0.25478603731E+03 -0.16099180150E+04  0.16510418602E+04  0.25500000920E-02 0.  1.
</event>
<event>
 5   0  0.1415400E-03  0.1098936E+04  0.7818609E-02  0.9206230E-01
       -1   -1    0    0    0  501  0.00000000000E+00  0.00000000000E+00  0.62345568351E+03  0.62345568353E+03  0.50400001928E-02 0. -1.
        1   -1    0    0  501    0  0.00000000000E+00  0.00000000000E+00 -0.48426062136E+03  0.48426062139E+03  0.50400001928E-02 0.  1.
    10030    2    1    2    0    0  0.00000000000E+00  0.00000000000E+00  0.13919506215E+03  0.11077163049E+04  0.10989359157E+04 0.  0.
        2    1    3    3  502    0  0.22140029708E+03  0.71757924771E+02  0.57131709534E+03  0.61690397531E+03  0.25500000920E-02 0. -1.
       -2    1    3    3    0  502 -0.22140029708E+03 -0.71757924771E+02 -0.43212203320E+03  0.49081232961E+03  0.25500000920E-02 0.  1.
</event>
<event>
 5   0  0.1415400E-03  0.1058493E+04  0.7818609E-02  0.9246619E-01
       -1   -1    0    0    0  501  0.00000000000E+00  0.00000000000E+00  0.52262487788E+03  0.52262487791E+03  0.50400001928E-02 0.  1.
        1   -1    0    0  501    0  0.00000000000E+00  0.00000000000E+00 -0.53595188965E+03  0.53595188967E+03  0.50400001928E-02 0. -1.
    10030    2    1    2    0    0  0.00000000000E+00  0.00000000000E+00 -0.13327011768E+02  0.10585767676E+04  0.10584928737E+04 0.  0.
        2    1    3    3  502    0  0.10760778166E+03 -0.20292011546E+03  0.47018219483E+03  0.52328510801E+03  0.25500000920E-02 0.  1.
       -2    1    3    3    0  502 -0.10760778166E+03  0.20292011546E+03 -0.48350920660E+03  0.53529165956E+03  0.25500000920E-02 0. -1.
</event>
<event>
 5   0  0.1415400E-03  0.1086625E+04  0.7818609E-02  0.9218326E-01
        1   -1    0    0  501    0  0.00000000000E+00  0.00000000000E+00  0.18621399774E+04  0.18621399774E+04  0.50400001928E-02 0.  1.
       -1   -1    0    0    0  501  0.00000000000E+00  0.00000000000E+00 -0.15852123647E+03  0.15852123655E+03  0.50400001928E-02 0. -1.
    10030    2    1    2    0    0  0.00000000000E+00  0.00000000000E+00  0.17036187410E+04  0.20206612140E+04  0.10866254769E+04 0.  0.
        2    1    3    3  502    0  0.27881244032E+03 -0.42886012997E+03  0.11923266081E+04  0.12974205672E+04  0.25500000920E-02 0. -1.
       -2    1    3    3    0  502 -0.27881244032E+03  0.42886012997E+03  0.51129213290E+03  0.72324064676E+03  0.25500000920E-02 0.  1.
</event>
<event>
 5   0  0.2488472E-03  0.1098536E+04  0.7818609E-02  0.9206620E-01
       -2   -1    0    0    0  501  0.00000000000E+00  0.00000000000E+00  0.32116234110E+03  0.32116234111E+03  0.25500000920E-02 0. -1.
        2   -1    0    0  501    0  0.00000000000E+00  0.00000000000E+00 -0.93938510545E+03  0.93938510545E+03  0.25500000920E-02 0.  1.
    10030    2    1    2    0    0  0.00000000000E+00  0.00000000000E+00 -0.61822276435E+03  0.12605474466E+04  0.10985356065E+04 0.  0.
        2    1    3    3  502    0 -0.50565509011E+03 -0.32298502144E+02 -0.55243354249E+03  0.74960861939E+03  0.25500000920E-02 0.  1.
       -2    1    3    3    0  502  0.50565509011E+03  0.32298502144E+02 -0.65789221853E+02  0.51093882717E+03  0.25500000920E-02 0. -1.
</event>
<event>
 5   0  0.1468556E-03  0.1103679E+04  0.7818609E-02  0.9201613E-01
        1   -1    0    0  501    0  0.00000000000E+00  0.00000000000E+00  0.26838300582E+03  0.26838300587E+03  0.50400001928E-02 0. -1.
       -1   -1    0    0    0  501  0.00000000000E+00  0.00000000000E+00 -0.11346731763E+04  0.11346731763E+04  0.50400001928E-02 0.  1.
    10030    2    1    2    0    0  0.00000000000E+00  0.00000000000E+00 -0.86629017044E+03  0.14030561821E+04  0.11036792971E+04 0.  0.
        5    1    3    3  502    0  0.43922362671E+03 -0.11246853984E+03 -0.83301108449E+03  0.94841769469E+03  0.46999998093E+01 0.  1.
       -5    1    3    3    0  502 -0.43922362671E+03  0.11246853984E+03 -0.33279085946E+02  0.45463848745E+03  0.46999998093E+01 0. -1.
</event>
<event>
 5   0  0.2392585E-03  0.1087291E+04  0.7818609E-02  0.9217669E-01
       -2   -1    0    0    0  501  0.00000000000E+00  0.00000000000E+00  0.62329776926E+03  0.62329776927E+03  0.25500000920E-02 0.  1.
        2   -1    0    0  501    0  0.00000000000E+00  0.00000000000E+00 -0.47417170958E+03  0.47417170959E+03  0.25500000920E-02 0. -1.
    10030    2    1    2    0    0  0.00000000000E+00  0.00000000000E+00  0.14912605968E+03  0.10974694789E+04  0.10872905202E+04 0.  0.
        5    1    3    3  502    0  0.10253906368E+03  0.35133666243E+03  0.48029176921E+03  0.60386586550E+03  0.46999998093E+01 0.  1.
       -5    1    3    3    0  502 -0.10253906368E+03 -0.35133666243E+03 -0.33116570953E+03  0.49360361336E+03  0.46999998093E+01 0. -1.
</event>
<event>
 5   0  0.2392585E-03  0.1097498E+04  0.7818609E-02  0.9207634E-01
        2   -1    0    0  501    0  0.00000000000E+00  0.00000000000E+00  0.27105797376E+04  0.27105797376E+04  0.25500000920E-02 0. -1.
       -2   -1    0    0    0  501  0.00000000000E+00  0.00000000000E+00 -0.11109266180E+03  0.11109266183E+03  0.25500000920E-02 0.  1.
    10030    2    1    2    0    0  0.00000000000E+00  0.00000000000E+00  0.25994870758E+04  0.28216723995E+04  0.10974980968E+04 0.  0.
        5    1    3    3  502    0 -0.25805068250E+03  0.28675634483E+03  0.29644528736E+03  0.48654008513E+03  0.46999998093E+01 0.  1.
       -5    1    3    3    0  502  0.25805068250E+03 -0.28675634483E+03  0.23030417885E+04  0.23351323143E+04  0.46999998093E+01 0. -1.
</event>
<event>
 5   0  0.2438115E-03  0.1104914E+04  0.7818609E-02  0.9200416E-01
       -2   -1    0    0    0  501  0.00000000000E+00  0.00000000000E+00  0.72853077358E+03  0.72853077358E+03  0.25500000920E-02 0. -1.
        2   -1    0    0  501    0  0.00000000000E+00  0.00000000000E+00 -0.41893720804E+03  0.41893720804E+03  0.25500000920E-02 0.  1.
    10030    2    1    2    0    0  0.00000000000E+00  0.00000000000E+00  0.30959356554E+03  0.11474679816E+04  0.11049138396E+04 0.  0.
        4    1    3    3  502    0 -0.11353533120E+03  0.12026821901E+03 -0.39262134616E+03  0.42603738133E+03  0.12699999809E+01 0.  1.
       -4    1    3    3    0  502  0.11353533120E+03 -0.12026821901E+03  0.70221491170E+03  0.72143060029E+03  0.12699999809E+01 0. -1.
</event>
<event>
 5   0  0.1479573E-03  0.1109149E+04  0.7818609E-02  0.9196320E-01
       -1   -1    0    0    0  501  0.00000000000E+00  0.00000000000E+00  0.38541017513E+03  0.38541017517E+03  0.50400001928E-02 0.  1.
        1   -1    0    0  501    0  0.00000000000E+00  0.00000000000E+00 -0.79798887657E+03  0.79798887658E+03  0.50400001928E-02 0. -1.
    10030    2    1    2    0    0  0.00000000000E+00  0.00000000000E+00 -0.41257870143E+03  0.11833990518E+04  0.11091492825E+04 0.  0.
        4    1    3    3  502    0 -0.27281878266E+03 -0.28043373343E+03  0.21305895118E+03  0.44549848102E+03  0.12699999809E+01 0.  1.
       -4    1    3    3    0  502  0.27281878266E+03  0.28043373343E+03 -0.62563765261E+03  0.73790057073E+03  0.12699999809E+01 0. -1.
</event>
<event>
 5   0  0.1415400E-03  0.1091266E+04  0.7818609E-02  0.9213746E-01
       -1   -1    0    0    0  501  0.00000000000E+00  0.00000000000E+00  0.78935054946E+03  0.78935054948E+03  0.50400001928E-02 0. -1.
        1   -1    0    0  501    0  0.00000000000E+00  0.00000000000E+00 -0.37716527109E+03  0.37716527113E+03  0.50400001928E-02 0.  1.
    10030    2    1    2    0    0  0.00000000000E+00  0.00000000000E+00  0.41218527837E+03  0.11665158206E+04  0.10912664459E+04 0.  0.
        2    1    3    3  502    0  0.86137168806E+02 -0.53809702499E+03  0.23532020785E+03  0.59358539435E+03  0.25500000920E-02 0.  1.
       -2    1    3    3    0  502 -0.86137168806E+02  0.53809702499E+03  0.17686507051E+03  0.57293042626E+03  0.25500000920E-02 0. -1.
</event>
<event>
 5   0  0.9631750E-04  0.1077983E+04  0.7818609E-02  0.9226921E-01
        3   -1    0    0  501    0  0.00000000000E+00  0.00000000000E+00  0.27650153964E+03  0.27650155809E+03  0.10100000352E+00 0. -1.
       -3   -1    0    0    0  501  0.00000000000E+00  0.00000000000E+00 -0.10506693716E+04  0.10506693765E+04  0.10100000352E+00 0.  1.
    10030    2    1    2    0    0  0.00000000000E+00  0.00000000000E+00 -0.77416783195E+03  0.13271709345E+04  0.10779827723E+04 0.  0.
        5    1    3    3  502    0 -0.12437053372E+02 -0.54092786543E+02  0.27294833805E+03  0.27857421829E+03  0.46999998093E+01 0. -1.
       -5    1    3    3    0  502  0.12437053372E+02  0.54092786543E+02 -0.10471161700E+04  0.10485967163E+04  0.46999998093E+01 0.  1.
</event>
<event>
 5   0  0.2488472E-03  0.1097905E+04  0.7818609E-02  0.9207236E-01
        2   -1    0    0  501    0  0.00000000000E+00  0.00000000000E+00  0.17785381947E+04  0.17785381947E+04  0.25500000920E-02 0.  1.
       -2   -1    0    0    0  501  0.00000000000E+00  0.00000000000E+00 -0.16943619983E+03  0.16943619985E+03  0.25500000920E-02 0. -1.
    10030    2    1    2    0    0  0.00000000000E+00  0.00000000000E+00  0.16091019949E+04  0.19479743946E+04  0.10979048283E+04 0.  0.
        2    1    3    3  502    0 -0.24012992654E+03  0.19373909908E+03 -0.10348596785E+01  0.30854220306E+03  0.25500000920E-02 0. -1.
       -2    1    3    3    0  502  0.24012992654E+03 -0.19373909908E+03  0.16101368545E+04  0.16394321915E+04  0.25500000920E-02 0.  1.
</event>
<event>
 5   0  0.1415400E-03  0.1100379E+04  0.7818609E-02  0.9204823E-01
        1   -1    0    0  501    0  0.00000000000E+00  0.00000000000E+00  0.99415093366E+03  0.99415093367E+03  0.50400001928E-02 0. -1.
       -1   -1    0    0    0  501  0.00000000000E+00  0.00000000000E+00 -0.30448934282E+03  0.30448934286E+03  0.50400001928E-02 0.  1.
    10030    2    1    2    0    0  0.00000000000E+00  0.00000000000E+00  0.68966159084E+03  0.12986402765E+04  0.11003787793E+04 0.  0.
        2    1    3    3  502    0 -0.45538572371E+03 -0.28188363995E+01 -0.19544048316E+02  0.45581363848E+03  0.25500000920E-02 0.  1.
       -2    1    3    3    0  502  0.45538572371E+03  0.28188363995E+01  0.70920563915E+03  0.84282663805E+03  0.25500000920E-02 0. -1.
</event>
<event>
 5   0  0.2483036E-03  0.1095608E+04  0.7818609E-02  0.9209483E-01
        2   -1    0    0  501    0  0.00000000000E+00  0.00000000000E+00  0.13904845134E+04  0.13904845134E+04  0.25500000920E-02 0.  1.
       -2   -1    0    0    0  501  0.00000000000E+00  0.00000000000E+00 -0.21581646087E+03  0.21581646088E+03  0.25500000920E-02 0. -1.
    10030    2    1    2    0    0  0.00000000000E+00  0.00000000000E+00  0.11746680526E+04  0.16063009743E+04  0.10956084092E+04 0.  0.
        3    1    3    3  502    0 -0.10869233743E+03  0.30657911509E+03 -0.58901485840E+02  0.33056644303E+03  0.10100000352E+00 0. -1.
       -3    1    3    3    0  502  0.10869233743E+03 -0.30657911509E+03  0.12335695384E+04  0.12757345313E+04  0.10100000352E+00 0.  1.
</event>
<event>
 5   0  0.2392585E-03  0.1079210E+04  0.7818609E-02  0.9225696E-01
       -2   -1    0    0    0  501  0.00000000000E+00  0.00000000000E+00  0.83038041902E+03  0.83038041903E+03  0.25500000920E-02 0. -1.
        2   -1    0    0  501    0  0.00000000000E+00  0.00000000000E+00 -0.35065057522E+03  0.35065057523E+03  0.25500000920E-02 0.  1.
    10030    2    1    2    0    0  0.00000000000E+00  0.00000000000E+00  0.47972984381E+03  0.11810309943E+04  0.10792096582E+04 0.  0.
        5    1    3    3  502    0 -0.24181828245E+02  0.68573234462E+02  0.82497203985E+03  0.82818355806E+03  0.46999998093E+01 0. -1.
       -5    1    3    3    0  502  0.24181828245E+02 -0.68573234462E+02 -0.34524219604E+03  0.35284743620E+03  0.46999998093E+01 0.  1.
</event>
<event>
 5   0  0.1468556E-03  0.1096661E+04  0.7818609E-02  0.9208452E-01
        1   -1    0    0  501    0  0.00000000000E+00  0.00000000000E+00  0.40036447387E+03  0.40036447391E+03  0.50400001928E-02 0.  1.
       -1   -1    0    0    0  501  0.00000000000E+00  0.00000000000E+00 -0.75098147161E+03  0.75098147163E+03  0.50400001928E-02 0. -1.
    10030    2    1    2    0    0  0.00000000000E+00  0.00000000000E+00 -0.35061699774E+03  0.11513459455E+04  0.10966609354E+04 0.  0.
        5    1    3    3  502    0 -0.90823596653E+02  0.45473942231E+03 -0.48248569623E+03  0.66921700888E+03  0.46999998093E+01 0.  1.
       -5    1    3    3    0  502  0.90823596653E+02 -0.45473942231E+03  0.13186869850E+03  0.48212893665E+03  0.46999998093E+01 0. -1.
</event>
<event>
 5   0  0.1509004E-03  0.1097620E+04  0.7818609E-02  0.9207514E-01
       -1   -1    0    0    0  501  0.00000000000E+00  0.00000000000E+00  0.26916084302E+03  0.26916084307E+03  0.50400001928E-02 0. -1.
        1   -1    0    0  501    0  0.00000000000E+00  0.00000000000E+00 -0.11190059652E+04  0.11190059652E+04  0.50400001928E-02 0.  1.
    10030    2    1    2    0    0  0.00000000000E+00  0.00000000000E+00 -0.84984512218E+03  0.13881668083E+04  0.10976203150E+04 0.  0.
        3    1    3    3  502    0  0.32827121749E+03  0.55586283861E+02 -0.97668916315E+03  0.10318786551E+04  0.10100000352E+00 0.  1.
       -3    1    3    3    0  502 -0.32827121749E+03 -0.55586283861E+02  0.12684404097E+03  0.35628815321E+03  0.10100000352E+00 0. -1.
</event>
<event>
 5   0  0.2483036E-03  0.1099731E+04  0.7818609E-02  0.9205454E-01
        2   -1    0    0  501    0  0.00000000000E+00  0.00000000000E+00  0.63849553243E+03  0.63849553243E+03  0.25500000920E-02 0. -1.
       -2   -1    0    0    0  501  0.00000000000E+00  0.00000000000E+00 -0.47353800054E+03  0.47353800054E+03  0.25500000920E-02 0.  1.
    10030    2    1    2    0    0  0.00000000000E+00  0.00000000000E+00  0.16495753189E+03  0.11120335330E+04  0.10997306903E+04 0.  0.
        3    1    3    3  502    0  0.25569574310E+03  0.21954728073E+03  0.52181667363E+03  0.62118755025E+03  0.10100000352E+00 0. -1.
       -3    1    3    3    0  502 -0.25569574310E+03 -0.21954728073E+03 -0.35685914173E+03  0.49084598272E+03  0.10100000352E+00 0.  1.
</event>
<event>
 5   0  0.2467448E-03  0.1097842E+04  0.7818609E-02  0.9207298E-01
       -2   -1    0    0    0  501  0.00000000000E+00  0.00000000000E+00  0.29084713303E+03  0.29084713304E+03  0.25500000920E-02 0. -1.
        2   -1    0    0  501    0  0.00000000000E+00  0.00000000000E+00 -0.10359878548E+04  0.10359878548E+04  0.25500000920E-02 0.  1.
    10030    2    1    2    0    0  0.00000000000E+00  0.00000000000E+00 -0.74514072172E+03  0.13268349878E+04  0.10978416961E+04 0.  0.
        1    1    3    3  502    0  0.96913754896E+02 -0.36984995782E+02  0.27889386483E+03  0.29756000011E+03  0.50400001928E-02 0. -1.
       -1    1    3    3    0  502 -0.96913754896E+02  0.36984995782E+02 -0.10240345866E+04  0.10292749877E+04  0.50400001928E-02 0.  1.
</event>
<event>
 5   0  0.2467448E-03  0.1115003E+04  0.7818609E-02  0.9190691E-01
       -2   -1    0    0    0  501  0.00000000000E+00  0.00000000000E+00  0.37117969619E+03  0.37117969620E+03  0.25500000920E-02 0.  1.
        2   -1    0    0  501    0  0.00000000000E+00  0.00000000000E+00 -0.83735146170E+03  0.83735146170E+03  0.25500000920E-02 0. -1.
    10030    2    1    2    0    0  0.00000000000E+00  0.00000000000E+00 -0.46617176551E+03  0.12085311579E+04  0.11150028900E+04 0.  0.
        1    1    3    3  502    0  0.45646751146E+03  0.24270063939E+03 -0.45925557572E+03  0.69150695820E+03  0.50400001928E-02 0. -1.
       -1    1    3    3    0  502 -0.45646751146E+03 -0.24270063939E+03 -0.69161897902E+01  0.51702419971E+03  0.50400001928E-02 0.  1.
</event>
<event>
 5   0  0.2488472E-03  0.1095008E+04  0.7818609E-02  0.9210071E-01
       -2   -1    0    0    0  501  0.00000000000E+00  0.00000000000E+00  0.63630776519E+03  0.63630776520E+03  0.25500000920E-02 0.  1.
        2   -1    0    0  501    0  0.00000000000E+00  0.00000000000E+00 -0.47109403361E+03  0.47109403362E+03  0.25500000920E-02 0. -1.
    10030    2    1    2    0    0  0.00000000000E+00  0.00000000000E+00  0.16521373158E+03  0.11074017988E+04  0.10950082954E+04 0.  0.
        2    1    3    3  502    0  0.22826424761E+03 -0.45477723501E+03  0.28696795121E+03  0.58418961412E+03  0.25500000920E-02 0. -1.
       -2    1    3    3    0  502 -0.22826424761E+03  0.45477723501E+03 -0.12175421963E+03  0.52321218470E+03  0.25500000920E-02 0.  1.
</event>
<event>
 5   0  0.1480937E-03  0.1097919E+04  0.7818609E-02  0.9207223E-01
       -1   -1    0    0    0  501  0.00000000000E+00  0.00000000000E+00  0.27113296777E+03  0.27113296782E+03  0.50400001928E-02 0.  1.
        1   -1    0    0  501    0  0.00000000000E+00  0.00000000000E+00 -0.11114707384E+04  0.11114707384E+04  0.50400001928E-02 0. -1.
    10030    2    1    2    0    0  0.00000000000E+00  0.00000000000E+00 -0.84033777062E+03  0.13826037062E+04  0.10979186854E+04 0.  0.
        1    1    3    3  502    0 -0.36353708654E+03  0.37051175802E+03 -0.64515029099E+03  0.82804412571E+03  0.50400001928E-02 0.  1.
       -1    1    3    3    0  502  0.36353708654E+03 -0.37051175802E+03 -0.19518747963E+03  0.55455958052E+03  0.50400001928E-02 0. -1.
</event>
<event>
 5   0  0.2467448E-03  0.1082813E+04  0.7818609E-02  0.9222107E-01
       -2   -1    0    0    0  501  0.00000000000E+00  0.00000000000E+00  0.21367215144E+03  0.21367215146E+03  0.25500000920E-02 0. -1.
        2   -1    0    0  501    0  0.00000000000E+00  0.00000000000E+00 -0.13718269785E+04  0.13718269785E+04  0.25500000920E-02 0.  1.
    10030    2    1    2    0    0  0.00000000000E+00  0.00000000000E+00 -0.11581548271E+04  0.15854991300E+04  0.10828134131E+04 0.  0.
        1    1    3    3  502    0 -0.49758633053E+03  0.18382858467E+03 -0.42045133176E+03  0.67687844350E+03  0.50400001928E-02 0. -1.
       -1    1    3    3    0  502  0.49758633053E+03 -0.18382858467E+03 -0.73770349531E+03  0.90862068648E+03  0.50400001928E-02 0.  1.
</event>
<event>
 5   0  0.2438115E-03  0.1157973E+04  0.7818609E-02  0.9150460E-01
       -2   -1    0    0    0  501  0.00000000000E+00  0.00000000000E+00  0.39614394967E+03  0.39614394968E+03  0.25500000920E-02 0. -1.
        2   -1    0    0  501    0  0.00000000000E+00  0.00000000000E+00 -0.84622043240E+03  0.84622043241E+03  0.25500000920E-02 0.  1.
    10030    2    1    2    0    0  0.00000000000E+00  0.00000000000E+00 -0.45007648273E+03  0.12423643821E+04  0.11579725461E+04 0.  0.
        4    1    3    3  502    0 -0.52779602479E+03 -0.23540208757E+03 -0.26282894455E+03  0.63487278537E+03  0.12699999809E+01 0. -1.
       -4    1    3    3    0  502  0.52779602479E+03  0.23540208757E+03 -0.18724753818E+03  0.60749159671E+03  0.12699999809E+01 0.  1.
</event>
<event>
 5   0  0.2483036E-03  0.1005301E+04  0.7818609E-02  0.9302749E-01
       -2   -1    0    0    0  501  0.00000000000E+00  0.00000000000E+00  0.22499810088E+03  0.22499810090E+03  0.25500000920E-02 0.  1.
        2   -1    0    0  501    0  0.00000000000E+00  0.00000000000E+00 -0.11229325805E+04  0.11229325805E+04  0.25500000920E-02 0. -1.
    10030    2    1    2    0    0  0.00000000000E+00  0.00000000000E+00 -0.89793447959E+03  0.13479306814E+04  0.10053013440E+04 0.  0.
        3    1    3    3  502    0 -0.37091609681E+03  0.24801146965E+03 -0.13863344642E+03  0.46723407691E+03  0.10100000352E+00 0.  1.
       -3    1    3    3    0  502  0.37091609681E+03 -0.24801146965E+03 -0.75930103316E+03  0.88069660447E+03  0.10100000352E+00 0. -1.
</event>
<event>
 5   0  0.1509004E-03  0.1105794E+04  0.7818609E-02  0.9199563E-01
       -1   -1    0    0    0  501  0.00000000000E+00  0.00000000000E+00  0.31365750318E+03  0.31365750322E+03  0.50400001928E-02 0. -1.
        1   -1    0    0  501    0  0.00000000000E+00  0.00000000000E+00 -0.97461383756E+03  0.97461383757E+03  0.50400001928E-02 0.  1.
    10030    2    1    2    0    0  0.00000000000E+00  0.00000000000E+00 -0.66095633438E+03  0.12882713408E+04  0.11057937292E+04 0.  0.
        3    1    3    3  502    0 -0.49576147210E+03  0.20980102671E+02 -0.46358265541E+02  0.49836603106E+03  0.10100000352E+00 0. -1.
       -3    1    3    3    0  502  0.49576147210E+03 -0.20980102671E+02 -0.61459806884E+03  0.78990530973E+03  0.10100000352E+00 0.  1.
</event>
<event>
 5   0  0.9631750E-04  0.1102532E+04  0.7818609E-02  0.9202728E-01
       -4   -1    0    0    0  501  0.00000000000E+00  0.00000000000E+00  0.80139794059E+03  0.80139894689E+03  0.12699999809E+01 0. -1.
        4   -1    0    0  501    0  0.00000000000E+00  0.00000000000E+00 -0.37920260100E+03  0.37920472769E+03  0.12699999809E+01 0.  1.
    10030    2    1    2    0    0  0.00000000000E+00  0.00000000000E+00  0.42219533959E+03  0.11806036746E+04  0.11025316919E+04 0.  0.
        4    1    3    3  502    0  0.35389922467E+03 -0.41807137367E+03  0.14453413120E+03  0.56649806945E+03  0.12699999809E+01 0.  1.
       -4    1    3    3    0  502 -0.35389922467E+03  0.41807137367E+03  0.27766120839E+03  0.61410560513E+03  0.12699999809E+01 0. -1.
</event>
<event>
 5   0  0.2467448E-03  0.1075966E+04  0.7818609E-02  0.9228938E-01
        2   -1    0    0  501    0  0.00000000000E+00  0.00000000000E+00  0.49818672882E+03  0.49818672883E+03  0.25500000920E-02 0.  1.
       -2   -1    0    0    0  501  0.00000000000E+00  0.00000000000E+00 -0.58095871367E+03  0.58095871368E+03  0.25500000920E-02 0. -1.
    10030    2    1    2    0    0  0.00000000000E+00  0.00000000000E+00 -0.82771984852E+02  0.10791454425E+04  0.10759663957E+04 0.  0.
        1    1    3    3  502    0  0.20551199095E+03 -0.24834926484E+03  0.39059923802E+03  0.50643884185E+03  0.50400001928E-02 0.  1.
       -1    1    3    3    0  502 -0.20551199095E+03  0.24834926484E+03 -0.47337122287E+03  0.57270660066E+03  0.50400001928E-02 0. -1.
</event>
<event>
 5   0  0.2438115E-03  0.1100506E+04  0.7818609E-02  0.9204699E-01
       -2   -1    0    0    0  501  0.00000000000E+00  0.00000000000E+00  0.23463383342E+03  0.23463383343E+03  0.25500000920E-02 0. -1.
        2   -1    0    0  501    0  0.00000000000E+00  0.00000000000E+00 -0.12904294082E+04  0.12904294082E+04  0.25500000920E-02 0.  1.
    10030    2    1    2    0    0  0.00000000000E+00  0.00000000000E+00 -0.10557955748E+04  0.15250632417E+04  0.11005060633E+04 0.  0.
        4    1    3    3  502    0 -0.39134650136E+03  0.37441383632E+03 -0.66253278565E+03  0.85573892626E+03  0.12699999809E+01 0.  1.
       -4    1    3    3    0  502  0.39134650136E+03 -0.37441383632E+03 -0.39326278916E+03  0.66932431541E+03  0.12699999809E+01 0. -1.
</event>
<event>
 5   0  0.2483036E-03  0.1189275E+04  0.7818609E-02  0.9122296E-01
        2   -1    0    0  501    0  0.00000000000E+00  0.00000000000E+00  0.40474812606E+03  0.40474812607E+03  0.25500000920E-02 0. -1.
       -2   -1    0    0    0  501  0.00000000000E+00  0.00000000000E+00 -0.87361442696E+03  0.87361442697E+03  0.25500000920E-02 0.  1.
    10030    2    1    2    0    0  0.00000000000E+00  0.00000000000E+00 -0.46886630090E+03  0.12783625530E+04  0.11892750770E+04 0.  0.
        3    1    3    3  502    0  0.39339539525E+03  0.39995943255E+03 -0.22519778055E+02  0.56145759884E+03  0.10100000352E+00 0. -1.
       -3    1    3    3    0  502 -0.39339539525E+03 -0.39995943255E+03 -0.44634652285E+03  0.71690495420E+03  0.10100000352E+00 0.  1.
</event>
<event>
 5   0  0.1480937E-03  0.1104723E+04  0.7818609E-02  0.9200601E-01
       -1   -1    0    0    0  501  0.00000000000E+00  0.00000000000E+00  0.90574531030E+03  0.90574531031E+03  0.50400001928E-02 0.  1.
        1   -1    0    0  501    0  0.00000000000E+00  0.00000000000E+00 -0.33685315205E+03  0.33685315209E+03  0.50400001928E-02 0. -1.
    10030    2    1    2    0    0  0.00000000000E+00  0.00000000000E+00  0.56889215825E+03  0.12425984624E+04  0.11047228843E+04 0.  0.
        1    1    3    3  502    0  0.33364161630E+02 -0.15360982283E+03  0.88005587685E+03  0.89398405543E+03  0.50400001928E-02 0.  1.
       -1    1    3    3    0  502 -0.33364161630E+02  0.15360982283E+03 -0.31116371860E+03  0.34861440697E+03  0.50400001928E-02 0. -1.
</event>
<event>
 5   0  0.2488472E-03  0.1103442E+04  0.7818609E-02  0.9201843E-01
       -2   -1    0    0    0  501  0.00000000000E+00  0.00000000000E+00  0.20651276344E+03  0.20651276346E+03  0.25500000920E-02 0. -1.
        2   -1    0    0  501    0  0.00000000000E+00  0.00000000000E+00 -0.14739831271E+04  0.14739831271E+04  0.25500000920E-02 0.  1.
    10030    2    1    2    0    0  0.00000000000E+00  0.00000000000E+00 -0.12674703636E+04  0.16804958905E+04  0.11034424840E+04 0.  0.
        2    1    3    3  502    0 -0.31930671482E+03 -0.31436267075E+03 -0.14350453594E+03  0.47050421754E+03  0.25500000920E-02 0. -1.
       -2    1    3    3    0  502  0.31930671482E+03  0.31436267075E+03 -0.11239658277E+04  0.12099916730E+04  0.25500000920E-02 0.  1.
</event>
<event>
 5   0  0.1479573E-03  0.1100821E+04  0.7818609E-02  0.9204392E-01
        1   -1    0    0  501    0  0.00000000000E+00  0.00000000000E+00  0.63002253153E+03  0.63002253155E+03  0.50400001928E-02 0. -1.
       -1   -1    0    0    0  501  0.00000000000E+00  0.00000000000E+00 -0.48085823305E+03  0.48085823308E+03  0.50400001928E-02 0.  1.
    10030    2    1    2    0    0  0.00000000000E+00  0.00000000000E+00  0.14916429848E+03  0.11108807646E+04  0.11008206417E+04 0.  0.
        4    1    3    3  502    0  0.49510640497E+03  0.21879256778E+03 -0.26075930159E+02  0.54192444768E+03  0.12699999809E+01 0.  1.
       -4    1    3    3    0  502 -0.49510640497E+03 -0.21879256778E+03  0.17524022864E+03  0.56895631695E+03  0.12699999809E+01 0. -1.
</event>
<event>
 5   0  0.1415400E-03  0.1128446E+04  0.7818609E-02  0.9177901E-01
        1   -1    0    0  501    0  0.00000000000E+00  0.00000000000E+00  0.86568319180E+03  0.86568319181E+03  0.50400001928E-02 0.  1.
       -1   -1    0    0    0  501  0.00000000000E+00  0.00000000000E+00 -0.36774177195E+03  0.36774177198E+03  0.50400001928E-02 0. -1.
    10030    2    1    2    0    0  0.00000000000E+00  0.00000000000E+00  0.49794141985E+03  0.12334249638E+04  0.11284464913E+04 0.  0.
        2    1    3    3  502    0  0.31991271590E+03  0.53827956843E+02  0.75355053711E+03  0.82041453346E+03  0.25500000920E-02 0.  1.
       -2    1    3    3    0  502 -0.31991271590E+03 -0.53827956843E+02 -0.25560911725E+03  0.41301043033E+03  0.25500000920E-02 0. -1.
</event>
<event>
 5   0  0.2392585E-03  0.1099371E+04  0.7818609E-02  0.9205805E-01
       -2   -1    0    0    0  501  0.00000000000E+00  0.00000000000E+00  0.24457090785E+03  0.24457090787E+03  0.25500000920E-02 0.  1.
        2   -1    0    0  501    0  0.00000000000E+00  0.00000000000E+00 -0.12354453942E+04  0.12354453942E+04  0.25500000920E-02 0. -1.
    10030    2    1    2    0    0  0.00000000000E+00  0.00000000000E+00 -0.99087448636E+03  0.14800163021E+04  0.10993707322E+04 0.  0.
        5    1    3    3  502    0 -0.11906026181E+03 -0.30904577298E+03  0.95142045362E+02  0.34461389196E+03  0.46999998093E+01 0.  1.
       -5    1    3    3    0  502  0.11906026181E+03  0.30904577298E+03 -0.10860165317E+04  0.11354024101E+04  0.46999998093E+01 0. -1.
</event>
<event>
 5   0  0.1480937E-03  0.1100381E+04  0.7818609E-02  0.9204820E-01
       -1   -1    0    0    0  501  0.00000000000E+00  0.00000000000E+00  0.50396732872E+03  0.50396732875E+03  0.50400001928E-02 0.  1.
        1   -1    0    0  501    0  0.00000000000E+00  0.00000000000E+00 -0.60065360805E+03  0.60065360807E+03  0.50400001928E-02 0. -1.
    10030    2    1    2    0    0  0.00000000000E+00  0.00000000000E+00 -0.96686279326E+02  0.11046209368E+04  0.11003813782E+04 0.  0.
        1    1    3    3  502    0 -0.30347497326E+03  0.45890062878E+03 -0.43534292131E+02  0.55188955517E+03  0.50400001928E-02 0. -1.
       -1    1    3    3    0  502  0.30347497326E+03 -0.45890062878E+03 -0.53151987195E+02  0.55273138165E+03  0.50400001928E-02 0.  1.
</event>
<event>
 5   0  0.2438115E-03  0.1096147E+04  0.7818609E-02  0.9208956E-01
        2   -1    0    0  501    0  0.00000000000E+00  0.00000000000E+00  0.50930387644E+03  0.50930387645E+03  0.25500000920E-02 0.  1.
       -2   -1    0    0    0  501  0.00000000000E+00  0.00000000000E+00 -0.58979395490E+03  0.58979395491E+03  0.25500000920E-02 0. -1.
    10030    2    1    2    0    0  0.00000000000E+00  0.00000000000E+00 -0.80490078460E+02  0.10990978314E+04  0.10961466098E+04 0.  0.
        4    1    3    3  502    0  0.42462936846E+02 -0.30440935312E+03 -0.49524489028E+03  0.58286985642E+03  0.12699999809E+01 0. -1.
       -4    1    3    3    0  502 -0.42462936846E+02  0.30440935312E+03  0.41475481182E+03  0.51622797494E+03  0.12699999809E+01 0.  1.
</event>
<event>
 5   0  0.1468556E-03  0.1099745E+04  0.7818609E-02  0.9205440E-01
        1   -1    0    0  501    0  0.00000000000E+00  0.00000000000E+00  0.65326574689E+03  0.65326574691E+03  0.50400001928E-02 0. -1.
       -1   -1    0    0    0  501  0.00000000000E+00  0.00000000000E+00 -0.46284349775E+03  0.46284349778E+03  0.50400001928E-02 0.  1.
    10030    2    1    2    0    0  0.00000000000E+00  0.00000000000E+00  0.19042224914E+03  0.11161092447E+04  0.10997450673E+04 0.  0.
        5    1    3    3  502    0  0.47330711866E+03 -0.11326675088E+03 -0.16450442946E+03  0.51374388827E+03  0.46999998093E+01 0.  1.
       -5    1    3    3    0  502 -0.47330711866E+03  0.11326675088E+03  0.35492667860E+03  0.60236535641E+03  0.46999998093E+01 0. -1.
</event>
<event>
 5   0  0.2483036E-03  0.1112583E+04  0.7818609E-02  0.9193014E-01
       -2   -1    0    0    0  501  0.00000000000E+00  0.00000000000E+00  0.45550867362E+03  0.45550867363E+03  0.25500000920E-02 0.  1.
        2   -1    0    0  501    0  0.00000000000E+00  0.00000000000E+00 -0.67937284687E+03  0.67937284688E+03  0.25500000920E-02 0. -1.
    10030    2    1    2    0    0  0.00000000000E+00  0.00000000000E+00 -0.22386417325E+03  0.11348815205E+04  0.11125829846E+04 0.  0.
        3    1    3    3  502    0 -0.36767718494E+03  0.31176414058E+02 -0.53657077874E+03  0.65120403247E+03  0.10100000352E+00 0. -1.
       -3    1    3    3    0  502  0.36767718494E+03 -0.31176414058E+02  0.31270660548E+03  0.48367748803E+03  0.10100000352E+00 0.  1.
</event>
<event>
 5   0  0.2483036E-03  0.1096883E+04  0.7818609E-02  0.9208235E-01
        2   -1    0    0  501    0  0.00000000000E+00  0.00000000000E+00  0.11095256336E+04  0.11095256336E+04  0.25500000920E-02 0. -1.
       -2   -1    0    0    0  501  0.00000000000E+00  0.00000000000E+00 -0.27109606143E+03  0.27109606144E+03  0.25500000920E-02 0.  1.
    10030    2    1    2    0    0  0.00000000000E+00  0.00000000000E+00  0.83842957217E+03  0.13806216950E+04  0.10968829096E+04 0.  0.
        3    1    3    3  502    0  0.66054662313E+02 -0.16724387917E+03  0.10713679333E+04  0.10863530698E+04  0.10100000352E+00 0. -1.
       -3    1    3    3    0  502 -0.66054662313E+02  0.16724387917E+03 -0.23293836112E+03  0.29426862526E+03  0.10100000352E+00 0.  1.
</event>
<event>
 5   0  0.1509004E-03  0.1117301E+04  0.7818609E-02  0.9188491E-01
        1   -1    0    0  501    0  0.00000000000E+00  0.00000000000E+00  0.15489950465E+04  0.15489950465E+04  0.50400001928E-02 0.  1.
       -1   -1    0    0    0  501  0.00000000000E+00  0.00000000000E+00 -0.20147922946E+03  0.20147922953E+03  0.50400001928E-02 0. -1.
    10030    2    1    2    0    0  0.00000000000E+00  0.00000000000E+00  0.13475158170E+04  0.17504742760E+04  0.11173009057E+04 0.  0.
        3    1    3    3  502    0 -0.67510290596E+02  0.55376391582E+03  0.72018627511E+03  0.91097771370E+03  0.10100000352E+00 0. -1.
       -3    1    3    3    0  502  0.67510290596E+02 -0.55376391582E+03  0.62732954191E+03  0.83949656232E+03  0.10100000352E+00 0.  1.
</event>
<event>
 5   0  0.2488472E-03  0.1096092E+04  0.7818609E-02  0.9209009E-01
        2   -1    0    0  501    0  0.00000000000E+00  0.00000000000E+00  0.24682043374E+04  0.24682043374E+04  0.25500000920E-02 0.  1.
       -2   -1    0    0    0  501  0.00000000000E+00  0.00000000000E+00 -0.12168942303E+03  0.12168942306E+03  0.25500000920E-02 0. -1.
    10030    2    1    2    0    0  0.00000000000E+00  0.00000000000E+00  0.23465149144E+04  0.25898937604E+04  0.10960918972E+04 0.  0.
        2    1    3    3  502    0  0.42855467835E+03  0.33895316275E+03  0.10728434723E+04  0.12039690506E+04  0.25500000920E-02 0. -1.
       -2    1    3    3    0  502 -0.42855467835E+03 -0.33895316275E+03  0.12736714421E+04  0.13859247098E+04  0.25500000920E-02 0.  1.
</event>
<event>
 5   0  0.2438115E-03  0.1101790E+04  0.7818609E-02  0.9203449E-01
        2   -1    0    0  501    0  0.00000000000E+00  0.00000000000E+00  0.84437652654E+03  0.84437652654E+03  0.25500000920E-02 0.  1.
       -2   -1    0    0    0  501  0.00000000000E+00  0.00000000000E+00 -0.35941929569E+03  0.35941929570E+03  0.25500000920E-02 0. -1.
    10030    2    1    2    0    0  0.00000000000E+00  0.00000000000E+00  0.48495723085E+03  0.12037958222E+04  0.11017898465E+04 0.  0.
        4    1    3    3  502    0 -0.39709134924E+03 -0.72269325199E+02 -0.16717294447E+03  0.43686702928E+03  0.12699999809E+01 0. -1.
       -4    1    3    3    0  502  0.39709134924E+03  0.72269325199E+02  0.65213017532E+03  0.76692879296E+03  0.12699999809E+01 0.  1.
</event>
<event>
 5   0  0.2438115E-03  0.1138764E+04  0.7818609E-02  0.9168212E-01
        2   -1    0    0  501    0  0.00000000000E+00  0.00000000000E+00  0.89550990549E+03  0.89550990549E+03  0.25500000920E-02 0.  1.
       -2   -1    0    0    0  501  0.00000000000E+00  0.00000000000E+00 -0.36202384577E+03  0.36202384577E+03  0.25500000920E-02 0. -1.
    10030    2    1    2    0    0  0.00000000000E+00  0.00000000000E+00  0.53348605972E+03  0.12575337513E+04  0.11387641370E+04 0.  0.
        4    1    3    3  502    0 -0.60339348599E+02 -0.47370540259E+03  0.60917602315E+03  0.77403790961E+03  0.12699999809E+01 0. -1.
       -4    1    3    3    0  502  0.60339348599E+02  0.47370540259E+03 -0.75689963433E+02  0.48349584165E+03  0.12699999809E+01 0.  1.
</event>
<event>
 5   0  0.1415400E-03  0.1099545E+04  0.7818609E-02  0.9205636E-01
        1   -1    0    0  501    0  0.00000000000E+00  0.00000000000E+00  0.13842918937E+04  0.13842918937E+04  0.50400001928E-02 0.  1.
       -1   -1    0    0    0  501  0.00000000000E+00  0.00000000000E+00 -0.21834243510E+03  0.21834243516E+03  0.50400001928E-02 0. -1.
    10030    2    1    2    0    0  0.00000000000E+00  0.00000000000E+00  0.11659494586E+04  0.16026343289E+04  0.10995447477E+04 0.  0.
        2    1    3    3  502    0 -0.26981765835E+03 -0.35346029139E+02  0.12792455030E+04  0.13078684825E+04  0.25500000920E-02 0.  1.
       -2    1    3    3    0  502  0.26981765835E+03  0.35346029139E+02 -0.11329604437E+03  0.29476584641E+03  0.25500000920E-02 0. -1.
</event>
<event>
 5   0  0.1509004E-03  0.1054423E+04  0.7818609E-02  0.9250790E-01
       -1   -1    0    0    0  501  0.00000000000E+00  0.00000000000E+00  0.23253879906E+03  0.23253879912E+03  0.50400001928E-02 0.  1.
        1   -1    0    0  501    0  0.00000000000E+00  0.00000000000E+00 -0.11952926261E+04  0.11952926261E+04  0.50400001928E-02 0. -1.
    10030    2    1    2    0    0  0.00000000000E+00  0.00000000000E+00 -0.96275382701E+03  0.14278314252E+04  0.10544228978E+04 0.  0.
        3    1    3    3  502    0 -0.94203208611E+02 -0.10091492934E+03 -0.11703828461E+04  0.11784965355E+04  0.10100000352E+00 0. -1.
       -3    1    3    3    0  502  0.94203208611E+02  0.10091492934E+03  0.20762901908E+03  0.24933488974E+03  0.10100000352E+00 0.  1.
</event>
<event>
 5   0  0.1480937E-03  0.1107057E+04  0.7818609E-02  0.9198341E-01
       -1   -1    0    0    0  501  0.00000000000E+00  0.00000000000E+00  0.43242801486E+03  0.43242801489E+03  0.50400001928E-02 0.  1.
        1   -1    0    0  501    0  0.00000000000E+00  0.00000000000E+00 -0.70854231119E+03  0.70854231121E+03  0.50400001928E-02 0. -1.
    10030    2    1    2    0    0  0.00000000000E+00  0.00000000000E+00 -0.27611429633E+03  0.11409703261E+04  0.11070565389E+04 0.  0.
        1    1    3    3  502    0 -0.41977930840E+03  0.22589585251E+02 -0.50918362509E+03  0.66029760048E+03  0.50400001928E-02 0. -1.
       -1    1    3    3    0  502  0.41977930840E+03 -0.22589585251E+02  0.23306932876E+03  0.48067272562E+03  0.50400001928E-02 0.  1.
</event>
<event>
 5   0  0.1415400E-03  0.1104003E+04  0.7818609E-02  0.9201299E-01
       -1   -1    0    0    0  501  0.00000000000E+00  0.00000000000E+00  0.33001010681E+03  0.33001010685E+03  0.50400001928E-02 0.  1.
        1   -1    0    0  501    0  0.00000000000E+00  0.00000000000E+00 -0.92332141180E+03  0.92332141182E+03  0.50400001928E-02 0. -1.
    10030    2    1    2    0    0  0.00000000000E+00  0.00000000000E+00 -0.59331130500E+03  0.12533315187E+04  0.11040025322E+04 0.  0.
        2    1    3    3  502    0  0.31574172743E+03  0.10532485237E+03 -0.79658235730E+03  0.86332474477E+03  0.25500000920E-02 0. -1.
       -2    1    3    3    0  502 -0.31574172743E+03 -0.10532485237E+03  0.20327105231E+03  0.39000677389E+03  0.25500000920E-02 0.  1.
</event>
<event>
 5   0  0.1480937E-03  0.1099398E+04  0.7818609E-02  0.9205779E-01
       -1   -1    0    0    0  501  0.00000000000E+00  0.00000000000E+00  0.64322118822E+03  0.64322118824E+03  0.50400001928E-02 0. -1.
        1   -1    0    0  501    0  0.00000000000E+00  0.00000000000E+00 -0.46977434585E+03  0.46977434588E+03  0.50400001928E-02 0.  1.
    10030    2    1    2    0    0  0.00000000000E+00  0.00000000000E+00  0.17344684237E+03  0.11129955341E+04  0.10993976768E+04 0.  0.
        1    1    3    3  502    0 -0.11874857188E+03 -0.19373627748E+03 -0.42000096834E+03  0.47753092252E+03  0.50400001928E-02 0.  1.
       -1    1    3    3    0  502  0.11874857188E+03  0.19373627748E+03  0.59344781071E+03  0.63546461160E+03  0.50400001928E-02 0. -1.
</event>
<event>
 5   0  0.2488472E-03  0.1126433E+04  0.7818609E-02  0.9179804E-01
       -2   -1    0    0    0  501  0.00000000000E+00  0.00000000000E+00  0.39288643673E+03  0.39288643673E+03  0.25500000920E-02 0.  1.
        2   -1    0    0  501    0  0.00000000000E+00  0.00000000000E+00 -0.80739124486E+03  0.80739124486E+03  0.25500000920E-02 0. -1.
    10030    2    1    2    0    0  0.00000000000E+00  0.00000000000E+00 -0.41450480813E+03  0.12002776816E+04  0.11264334321E+04 0.  0.
        2    1    3    3  502    0 -0.39052394531E+03 -0.15601403061E+03  0.19195966660E+03  0.46227464046E+03  0.25500000920E-02 0.  1.
       -2    1    3    3    0  502  0.39052394531E+03  0.15601403061E+03 -0.60646447473E+03  0.73800304114E+03  0.25500000920E-02 0. -1.
</event>
<event>
 5   0  0.1479573E-03  0.9952379E+03  0.7818609E-02  0.9313783E-01
        1   -1    0    0  501    0  0.00000000000E+00  0.00000000000E+00  0.10516213594E+04  0.10516213594E+04  0.50400001928E-02 0.  1.
       -1   -1    0    0    0  501  0.00000000000E+00  0.00000000000E+00 -0.23546935470E+03  0.23546935476E+03  0.50400001928E-02 0. -1.
    10030    2    1    2    0    0  0.00000000000E+00  0.00000000000E+00  0.81615200467E+03  0.12870907141E+04  0.99523786690E+03 0.  0.
        4    1    3    3  502    0 -0.49376679944E+03  0.40287813777E+02  0.46865517329E+03  0.68195897569E+03  0.12699999809E+01 0. -1.
       -4    1    3    3    0  502  0.49376679944E+03 -0.40287813777E+02  0.34749683138E+03  0.60513173846E+03  0.12699999809E+01 0.  1.
</event>
<event>
 5   0  0.2488472E-03  0.1099239E+04  0.7818609E-02  0.9205934E-01
        2   -1    0    0  501    0  0.00000000000E+00  0.00000000000E+00  0.53468997261E+03  0.53468997262E+03  0.25500000920E-02 0.  1.
       -2   -1    0    0    0  501  0.00000000000E+00  0.00000000000E+00 -0.56496604929E+03  0.56496604930E+03  0.25500000920E-02 0. -1.
    10030    2    1    2    0    0  0.00000000000E+00  0.00000000000E+00 -0.30276076681E+02  0.10996560219E+04  0.10992391577E+04 0.  0.
        2    1    3    3  502    0  0.43193025777E+03  0.98156473378E+02 -0.34065848927E+03  0.55879034276E+03  0.25500000920E-02 0. -1.
       -2    1    3    3    0  502 -0.43193025777E+03 -0.98156473378E+02  0.31038241259E+03  0.54086567916E+03  0.25500000920E-02 0.  1.
</event>
<event>
 5   0  0.1479573E-03  0.1051531E+04  0.7818609E-02  0.9253765E-01
       -1   -1    0    0    0  501  0.00000000000E+00  0.00000000000E+00  0.23776322694E+03  0.23776322699E+03  0.50400001928E-02 0. -1.
        1   -1    0    0  501    0  0.00000000000E+00  0.00000000000E+00 -0.11626251403E+04  0.11626251403E+04  0.50400001928E-02 0.  1.
    10030    2    1    2    0    0  0.00000000000E+00  0.00000000000E+00 -0.92486191337E+03  0.14003883673E+04  0.10515312741E+04 0.  0.
        4    1    3    3  502    0 -0.13634842355E+03 -0.48404683275E+03 -0.66674090890E+03  0.83512710493E+03  0.12699999809E+01 0.  1.
       -4    1    3    3    0  502  0.13634842355E+03  0.48404683275E+03 -0.25812100448E+03  0.56526126238E+03  0.12699999809E+01 0. -1.
</event>
<event>
 5   0  0.1509004E-03  0.1101051E+04  0.7818609E-02  0.9204168E-01
       -1   -1    0    0    0  501  0.00000000000E+00  0.00000000000E+00  0.34897790549E+03  0.34897790553E+03  0.50400001928E-02 0. -1.
        1   -1    0    0  501    0  0.00000000000E+00  0.00000000000E+00 -0.86847478336E+03  0.86847478338E+03  0.50400001928E-02 0.  1.
    10030    2    1    2    0    0  0.00000000000E+00  0.00000000000E+00 -0.51949687787E+03  0.12174526889E+04  0.11010513356E+04 0.  0.
        3    1    3    3  502    0  0.15658394282E+03 -0.49967734977E+03 -0.71833185493E+02  0.52854139077E+03  0.10100000352E+00 0. -1.
       -3    1    3    3    0  502 -0.15658394282E+03  0.49967734977E+03 -0.44766369237E+03  0.68891129813E+03  0.10100000352E+00 0.  1.
</event>
<event>
 5   0  0.2488472E-03  0.1098002E+04  0.7818609E-02  0.9207142E-01
       -2   -1    0    0    0  501  0.00000000000E+00  0.00000000000E+00  0.88291455533E+03  0.88291455533E+03  0.25500000920E-02 0. -1.
        2   -1    0    0  501    0  0.00000000000E+00  0.00000000000E+00 -0.34137156796E+03  0.34137156797E+03  0.25500000920E-02 0.  1.
    10030    2    1    2    0    0  0.00000000000E+00  0.00000000000E+00  0.54154298737E+03  0.12242861233E+04  0.10980016869E+04 0.  0.
        2    1    3    3  502    0 -0.36091068641E+02 -0.43302918658E+03  0.64489961110E+03  0.77763252895E+03  0.25500000920E-02 0. -1.
       -2    1    3    3    0  502  0.36091068641E+02  0.43302918658E+03 -0.10335662374E+03  0.44665359435E+03  0.25500000920E-02 0.  1.
</event>
<event>
 5   0  0.2467448E-03  0.1115133E+04  0.7818609E-02  0.9190566E-01
       -2   -1    0    0    0  501  0.00000000000E+00  0.00000000000E+00  0.34151544287E+03  0.34151544288E+03  0.25500000920E-02 0. -1.
        2   -1    0    0  501    0  0.00000000000E+00  0.00000000000E+00 -0.91029741808E+03  0.91029741809E+03  0.25500000920E-02 0.  1.
    10030    2    1    2    0    0  0.00000000000E+00  0.00000000000E+00 -0.56878197521E+03  0.12518128610E+04  0.11151334017E+04 0.  0.
        1    1    3    3  502    0 -0.18822324438E+03  0.44039553558E+01 -0.87353404082E+03  0.89359336672E+03  0.50400001928E-02 0.  1.
       -1    1    3    3    0  502  0.18822324438E+03 -0.44039553558E+01  0.30475206560E+03  0.35821949425E+03  0.50400001928E-02 0. -1.
</event>
<event>
 5   0  0.2392585E-03  0.1099367E+04  0.7818609E-02  0.9205809E-01
       -2   -1    0    0    0  501  0.00000000000E+00  0.00000000000E+00  0.88568555577E+03  0.88568555577E+03  0.25500000920E-02 0.  1.
        2   -1    0    0  501    0  0.00000000000E+00  0.00000000000E+00 -0.34115022611E+03  0.34115022612E+03  0.25500000920E-02 0. -1.
    10030    2    1    2    0    0  0.00000000000E+00  0.00000000000E+00  0.54453532966E+03  0.12268357819E+04  0.10993667770E+04 0.  0.
        5    1    3    3  502    0  0.19042924050E+03  0.24221553394E+03  0.78023605284E+03  0.83888142706E+03  0.46999998093E+01 0.  1.
       -5    1    3    3    0  502 -0.19042924050E+03 -0.24221553394E+03 -0.23570072318E+03  0.38795435482E+03  0.46999998093E+01 0. -1.
</event>
<event>
 5   0  0.1479573E-03  0.1103190E+04  0.7818609E-02  0.9202088E-01
        1   -1    0    0  501    0  0.00000000000E+00  0.00000000000E+00  0.61210800430E+03  0.61210800432E+03  0.50400001928E-02 0. -1.
       -1   -1    0    0    0  501  0.00000000000E+00  0.00000000000E+00 -0.49706440557E+03  0.49706440560E+03  0.50400001928E-02 0.  1.
    10030    2    1    2    0    0  0.00000000000E+00  0.00000000000E+00  0.11504359873E+03  0.11091724099E+04  0.11031901039E+04 0.  0.
        4    1    3    3  502    0 -0.47931655077E+03  0.18075317189E+03  0.26317787602E+03  0.57591689706E+03  0.12699999809E+01 0. -1.
       -4    1    3    3    0  502  0.47931655077E+03 -0.18075317189E+03 -0.14813427729E+03  0.53325551286E+03  0.12699999809E+01 0.  1.
</event>
<event>
 5   0  0.1480937E-03  0.1087659E+04  0.7818609E-02  0.9217304E-01
        1   -1    0    0  501    0  0.00000000000E+00  0.00000000000E+00  0.65561477107E+03  0.65561477109E+03  0.50400001928E-02 0. -1.
       -1   -1    0    0    0  501  0.00000000000E+00  0.00000000000E+00 -0.45110443928E+03  0.45110443931E+03  0.50400001928E-02 0.  1.
    10030    2    1    2    0    0  0.00000000000E+00  0.00000000000E+00  0.20451033179E+03  0.11067192104E+04  0.10876593837E+04 0.  0.
        1    1    3    3  502    0  0.42943099782E+03  0.15567430335E+03 -0.19805271945E+03  0.49786579549E+03  0.50400001928E-02 0.  1.
       -1    1    3    3    0  502 -0.42943099782E+03 -0.15567430335E+03  0.40256305124E+03  0.60885341492E+03  0.50400001928E-02 0. -1.
</event>
<event>
 5   0  0.1509004E-03  0.1094038E+04  0.7818609E-02  0.9211022E-01
        1   -1    0    0  501    0  0.00000000000E+00  0.00000000000E+00  0.82418579144E+03  0.82418579146E+03  0.50400001928E-02 0. -1.
       -1   -1    0    0    0  501  0.00000000000E+00  0.00000000000E+00 -0.36306117640E+03  0.36306117643E+03  0.50400001928E-02 0.  1.
    10030    2    1    2    0    0  0.00000000000E+00  0.00000000000E+00  0.46112461505E+03  0.11872469679E+04  0.10940381402E+04 0.  0.
        3    1    3    3  502    0  0.40702347934E+03 -0.21712152080E+03 -0.88456069028E+02  0.46971731273E+03  0.10100000352E+00 0.  1.
       -3    1    3    3    0  502 -0.40702347934E+03  0.21712152080E+03  0.54958068408E+03  0.71752965516E+03  0.10100000352E+00 0. -1.
</event>
<event>
 5   0  0.2483036E-03  0.1109299E+04  0.7818609E-02  0.9196176E-01
       -2   -1    0    0    0  501  0.00000000000E+00  0.00000000000E+00  0.24665765669E+03  0.24665765671E+03  0.25500000920E-02 0. -1.
        2   -1    0    0  501    0  0.00000000000E+00  0.00000000000E+00 -0.12472177318E+04  0.12472177318E+04  0.25500000920E-02 0.  1.
    10030    2    1    2    0    0  0.00000000000E+00  0.00000000000E+00 -0.10005600751E+04  0.14938753885E+04  0.11092985227E+04 0.  0.
        3    1    3    3  502    0  0.28746070527E+03 -0.17246236486E+03 -0.10953545123E+04  0.11455035758E+04  0.10100000352E+00 0.  1.
       -3    1    3    3    0  502 -0.28746070527E+03  0.17246236486E+03  0.94794437189E+02  0.34837181271E+03  0.10100000352E+00 0. -1.
</event>
<event>
 5   0  0.2488472E-03  0.1105313E+04  0.7818609E-02  0.9200029E-01
        2   -1    0    0  501    0  0.00000000000E+00  0.00000000000E+00  0.12171360341E+04  0.12171360341E+04  0.25500000920E-02 0. -1.
       -2   -1    0    0    0  501  0.00000000000E+00  0.00000000000E+00 -0.25094067908E+03  0.25094067909E+03  0.25500000920E-02 0.  1.
    10030    2    1    2    0    0  0.00000000000E+00  0.00000000000E+00  0.96619535505E+03  0.14680767132E+04  0.11053125222E+04 0.  0.
        2    1    3    3  502    0 -0.51546600445E+03 -0.18508610011E+03  0.58130260987E+03  0.79867063953E+03  0.25500000920E-02 0. -1.
       -2    1    3    3    0  502  0.51546600445E+03  0.18508610011E+03  0.38489274518E+03  0.66940607370E+03  0.25500000920E-02 0.  1.
</event>
<event>
 5   0  0.9631750E-04  0.1112084E+04  0.7818609E-02  0.9193494E-01
        4   -1    0    0  501    0  0.00000000000E+00  0.00000000000E+00  0.11106569151E+04  0.11106576412E+04  0.12699999809E+01 0.  1.
       -4   -1    0    0    0  501  0.00000000000E+00  0.00000000000E+00 -0.27837576146E+03  0.27837865843E+03  0.12699999809E+01 0. -1.
    10030    2    1    2    0    0  0.00000000000E+00  0.00000000000E+00  0.83228115362E+03  0.13890362996E+04  0.11120835953E+04 0.  0.
        4    1    3    3  502    0 -0.22938898309E+03 -0.18006246664E+02 -0.21612184031E+03  0.31567989046E+03  0.12699999809E+01 0. -1.
       -4    1    3    3    0  502  0.22938898309E+03  0.18006246664E+02  0.10484029939E+04  0.10733564092E+04  0.12699999809E+01 0.  1.
</event>
<event>
 5   0  0.1415400E-03  0.1098364E+04  0.7818609E-02  0.9206788E-01
       -1   -1    0    0    0  501  0.00000000000E+00  0.00000000000E+00  0.25010154924E+03  0.25010154930E+03  0.50400001928E-02 0. -1.
        1   -1    0    0  501    0  0.00000000000E+00  0.00000000000E+00 -0.12059126923E+04  0.12059126923E+04  0.50400001928E-02 0.  1.
    10030    2    1    2    0    0  0.00000000000E+00  0.00000000000E+00 -0.95581114304E+03  0.14560142416E+04  0.10983635694E+04 0.  0.
        2    1    3    3  502    0  0.17819543933E+03 -0.30229540740E+03  0.82103972627E+02  0.36038478084E+03  0.25500000920E-02 0. -1.
       -2    1    3    3    0  502 -0.17819543933E+03  0.30229540740E+03 -0.10379151157E+04  0.10956294608E+04  0.25500000920E-02 0.  1.
</event>
<event>
 5   0  0.2438115E-03  0.1096045E+04  0.7818609E-02  0.9209055E-01
        2   -1    0    0  501    0  0.00000000000E+00  0.00000000000E+00  0.15440373336E+04  0.15440373336E+04  0.25500000920E-02 0.  1.
       -2   -1    0    0    0  501  0.00000000000E+00  0.00000000000E+00 -0.19450869632E+03  0.19450869634E+03  0.25500000920E-02 0. -1.
    10030    2    1    2    0    0  0.00000000000E+00  0.00000000000E+00  0.13495286373E+04  0.17385460299E+04  0.10960450517E+04 0.  0.
        4    1    3    3  502    0 -0.18224141327E+03  0.24490735255E+03  0.13966776965E+04  0.14296509171E+04  0.12699999809E+01 0.  1.
       -4    1    3    3    0  502  0.18224141327E+03 -0.24490735255E+03 -0.47149059208E+02  0.30889511283E+03  0.12699999809E+01 0. -1.
</event>
<event>
 5   0  0.1509004E-03  0.1095314E+04  0.7818609E-02  0.9209771E-01
        1   -1    0    0  501    0  0.00000000000E+00  0.00000000000E+00  0.32013656346E+03  0.32013656350E+03  0.50400001928E-02 0. -1.
       -1   -1    0    0    0  501  0.00000000000E+00  0.00000000000E+00 -0.93687530598E+03  0.93687530599E+03  0.50400001928E-02 0.  1.
    10030    2    1    2    0    0  0.00000000000E+00  0.00000000000E+00 -0.61673874251E+03  0.12570118695E+04  0.10953137284E+04 0.  0.
        3    1    3    3  502    0 -0.39881719363E+03 -0.11977486528E+03  0.99848684535E+02  0.42821833484E+03  0.10100000352E+00 0. -1.
       -3    1    3    3    0  502  0.39881719363E+03  0.11977486528E+03 -0.71658742705E+03  0.82879353466E+03  0.10100000352E+00 0.  1.
</event>
<event>
 5   0  0.2467448E-03  0.1099878E+04  0.7818609E-02  0.9205311E-01
       -2   -1    0    0    0  501  0.00000000000E+00  0.00000000000E+00  0.32055836475E+03  0.32055836476E+03  0.25500000920E-02 0. -1.
        2   -1    0    0  501    0  0.00000000000E+00  0.00000000000E+00 -0.94345638019E+03  0.94345638020E+03  0.25500000920E-02 0.  1.
    10030    2    1    2    0    0  0.00000000000E+00  0.00000000000E+00 -0.62289801545E+03  0.12640147450E+04  0.10998778740E+04 0.  0.
        1    1    3    3  502    0  0.46310036916E+03  0.26321941432E+03 -0.46854704378E+03  0.70942423433E+03  0.50400001928E-02 0.  1.
       -1    1    3    3    0  502 -0.46310036916E+03 -0.26321941432E+03 -0.15435097166E+03  0.55459051062E+03  0.50400001928E-02 0. -1.
</event>
<event>
 5   0  0.9631750E-04  0.1104947E+04  0.7818609E-02  0.9200383E-01
       -4   -1    0    0    0  501  0.00000000000E+00  0.00000000000E+00  0.73609366716E+03  0.73609476274E+03  0.12699999809E+01 0.  1.
        4   -1    0    0  501    0  0.00000000000E+00  0.00000000000E+00 -0.41465546299E+03  0.41465740786E+03  0.12699999809E+01 0. -1.
    10030    2    1    2    0    0  0.00000000000E+00  0.00000000000E+00  0.32143820417E+03  0.11507521706E+04  0.11049470752E+04 0.  0.
        1    1    3    3  502    0  0.75405912012E+02  0.47144499194E+03 -0.12879885536E+03  0.49450538638E+03  0.50400001928E-02 0. -1.
       -1    1    3    3    0  502 -0.75405912012E+02 -0.47144499194E+03  0.45023705953E+03  0.65624678421E+03  0.50400001928E-02 0.  1.
</event>
<event>
 5   0  0.1479573E-03  0.1082342E+04  0.7818609E-02  0.9222575E-01
       -1   -1    0    0    0  501  0.00000000000E+00  0.00000000000E+00  0.28182680669E+03  0.28182680674E+03  0.50400001928E-02 0.  1.
        1   -1    0    0  501    0  0.00000000000E+00  0.00000000000E+00 -0.10391707809E+04  0.10391707809E+04  0.50400001928E-02 0. -1.
    10030    2    1    2    0    0  0.00000000000E+00  0.00000000000E+00 -0.75734397416E+03  0.13209975876E+04  0.10823422431E+04 0.  0.
        4    1    3    3  502    0 -0.50722236597E+03  0.11514931670E+03 -0.19628730816E+03  0.55593544042E+03  0.12699999809E+01 0.  1.
       -4    1    3    3    0  502  0.50722236597E+03 -0.11514931670E+03 -0.56105666600E+03  0.76506214717E+03  0.12699999809E+01 0. -1.
</event>
<event>
 5   0  0.2438115E-03  0.1091936E+04  0.7818609E-02  0.9213087E-01
        2   -1    0    0  501    0  0.00000000000E+00  0.00000000000E+00  0.13511545043E+04  0.13511545043E+04  0.25500000920E-02 0. -1.
       -2   -1    0    0    0  501  0.00000000000E+00  0.00000000000E+00 -0.22061224942E+03  0.22061224944E+03  0.25500000920E-02 0.  1.
    10030    2    1    2    0    0  0.00000000000E+00  0.00000000000E+00  0.11305422549E+04  0.15717667538E+04  0.10919363251E+04 0.  0.
        4    1    3    3  502    0 -0.40853759479E+03  0.11313461818E+03  0.70020720803E+02  0.42965907698E+03  0.12699999809E+01 0.  1.
       -4    1    3    3    0  502  0.40853759479E+03 -0.11313461818E+03  0.10605215341E+04  0.11421076768E+04  0.12699999809E+01 0. -1.
</event>
<event>
 5   0  0.2488472E-03  0.1090391E+04  0.7818609E-02  0.9214608E-01
        2   -1    0    0  501    0  0.00000000000E+00  0.00000000000E+00  0.14763790321E+04  0.14763790321E+04  0.25500000920E-02 0.  1.
       -2   -1    0    0    0  501  0.00000000000E+00  0.00000000000E+00 -0.20132912711E+03  0.20132912713E+03  0.25500000920E-02 0. -1.
    10030    2    1    2    0    0  0.00000000000E+00  0.00000000000E+00  0.12750499050E+04  0.16777081592E+04  0.10903909424E+04 0.  0.
        2    1    3    3  502    0 -0.24424432294E+03  0.29219128997E+03  0.37248117899E+02  0.38264665360E+03  0.25500000920E-02 0. -1.
       -2    1    3    3    0  502  0.24424432294E+03 -0.29219128997E+03  0.12378017871E+04  0.12950615056E+04  0.25500000920E-02 0.  1.
</event>
<event>
 5   0  0.1468556E-03  0.1093655E+04  0.7818609E-02  0.9211398E-01
        1   -1    0    0  501    0  0.00000000000E+00  0.00000000000E+00  0.58933954744E+03  0.58933954746E+03  0.50400001928E-02 0. -1.
       -1   -1    0    0    0  501  0.00000000000E+00  0.00000000000E+00 -0.50738224370E+03  0.50738224373E+03  0.50400001928E-02 0.  1.
    10030    2    1    2    0    0  0.00000000000E+00  0.00000000000E+00  0.81957303738E+02  0.10967217912E+04  0.10936551959E+04 0.  0.
        5    1    3    3  502    0 -0.33517840942E+03 -0.43141470753E+03  0.17781216338E+02  0.54662736637E+03  0.46999998093E+01 0.  1.
       -5    1    3    3    0  502  0.33517840942E+03  0.43141470753E+03  0.64176087400E+02  0.55009442481E+03  0.46999998093E+01 0. -1.
</event>
<event>
 5   0  0.2392585E-03  0.1107283E+04  0.7818609E-02  0.9198123E-01
        2   -1    0    0  501    0  0.00000000000E+00  0.00000000000E+00  0.58816606920E+03  0.58816606921E+03  0.25500000920E-02 0.  1.
       -2   -1    0    0    0  501  0.00000000000E+00  0.00000000000E+00 -0.52114304510E+03  0.52114304511E+03  0.25500000920E-02 0. -1.
    10030    2    1    2    0    0  0.00000000000E+00  0.00000000000E+00  0.67023024100E+02  0.11093091143E+04  0.11072825409E+04 0.  0.
        5    1    3    3  502    0  0.34957686516E+03 -0.17976257210E+03  0.42406857004E+03  0.57825151023E+03  0.46999998093E+01 0.  1.
       -5    1    3    3    0  502 -0.34957686516E+03  0.17976257210E+03 -0.35704554594E+03  0.53105760409E+03  0.46999998093E+01 0. -1.
</event>
<event>
 5   0  0.2488472E-03  0.1097810E+04  0.7818609E-02  0.9207329E-01
       -2   -1    0    0    0  501  0.00000000000E+00  0.00000000000E+00  0.18481256985E+03  0.18481256986E+03  0.25500000920E-02 0.  1.
        2   -1    0    0  501    0  0.00000000000E+00  0.00000000000E+00 -0.16302830325E+04  0.16302830325E+04  0.25500000920E-02 0. -1.
    10030    2    1    2    0    0  0.00000000000E+00  0.00000000000E+00 -0.14454704627E+04  0.18150956024E+04  0.10978101782E+04 0.  0.
        2    1    3    3  502    0 -0.49785207837E+03  0.39370582602E+02 -0.10993647428E+04  0.12074806717E+04  0.25500000920E-02 0. -1.
       -2    1    3    3    0  502  0.49785207837E+03 -0.39370582602E+02 -0.34610571989E+03  0.60761493074E+03  0.25500000920E-02 0.  1.
</event>
<event>
 5   0  0.2392585E-03  0.1097323E+04  0.7818609E-02  0.9207805E-01
       -2   -1    0    0    0  501  0.00000000000E+00  0.00000000000E+00  0.82043086640E+03  0.82043086640E+03  0.25500000920E-02 0.  1.
        2   -1    0    0  501    0  0.00000000000E+00  0.00000000000E+00 -0.36691648601E+03  0.36691648602E+03  0.25500000920E-02 0. -1.
    10030    2    1    2    0    0  0.00000000000E+00  0.00000000000E+00  0.45351438039E+03  0.11873473524E+04  0.10973233079E+04 0.  0.
        5    1    3    3  502    0  0.76595766103E+02  0.48635955281E+03 -0.35165693279E+02  0.49363067366E+03  0.46999998093E+01 0. -1.
       -5    1    3    3    0  502 -0.76595766103E+02 -0.48635955281E+03  0.48868007367E+03  0.69371667876E+03  0.46999998093E+01 0.  1.
</event>
<event>
 5   0  0.1509004E-03  0.1099500E+04  0.7818609E-02  0.9205679E-01
       -1   -1    0    0    0  501  0.00000000000E+00  0.00000000000E+00  0.67844668239E+03  0.67844668241E+03  0.50400001928E-02 0. -1.
        1   -1    0    0  501    0  0.00000000000E+00  0.00000000000E+00 -0.44546613999E+03  0.44546614001E+03  0.50400001928E-02 0.  1.
    10030    2    1    2    0    0  0.00000000000E+00  0.00000000000E+00  0.23298054240E+03  0.11239128224E+04  0.10994999315E+04 0.  0.
        3    1    3    3  502    0  0.48287414746E+03  0.25940299288E+03  0.15946733479E+03  0.57086530466E+03  0.10100000352E+00 0. -1.
       -3    1    3    3    0  502 -0.48287414746E+03 -0.25940299288E+03  0.73513207612E+02  0.55304751776E+03  0.10100000352E+00 0.  1.
</event>
<event>
 5   0  0.2467448E-03  0.1102203E+04  0.7818609E-02  0.9203047E-01
       -2   -1    0    0    0  501  0.00000000000E+00  0.00000000000E+00  0.77466272290E+03  0.77466272290E+03  0.25500000920E-02 0. -1.
        2   -1    0    0  501    0  0.00000000000E+00  0.00000000000E+00 -0.39205809785E+03  0.39205809786E+03  0.25500000920E-02 0.  1.
    10030    2    1    2    0    0  0.00000000000E+00  0.00000000000E+00  0.38260462505E+03  0.11667208208E+04  0.11022028736E+04 0.  0.
        1    1    3    3  502    0  0.49210974959E+03  0.18589769515E+03  0.36518213862E+03  0.64038109989E+03  0.50400001928E-02 0.  1.
       -1    1    3    3    0  502 -0.49210974959E+03 -0.18589769515E+03  0.17422486432E+02  0.52633972087E+03  0.50400001928E-02 0. -1.
</event>
<event>
 5   0  0.1509004E-03  0.1097827E+04  0.7818609E-02  0.9207312E-01
        1   -1    0    0  501    0  0.00000000000E+00  0.00000000000E+00  0.78826292687E+03  0.78826292689E+03  0.50400001928E-02 0.  1.
       -1   -1    0    0    0  501  0.00000000000E+00  0.00000000000E+00 -0.38224051198E+03  0.38224051202E+03  0.50400001928E-02 0. -1.
    10030    2    1    2    0    0  0.00000000000E+00  0.00000000000E+00  0.40602241489E+03  0.11705034389E+04  0.10978269896E+04 0.  0.
        3    1    3    3  502    0 -0.22751141112E+02  0.12996691147E+03  0.77110388790E+03  0.78231082610E+03  0.10100000352E+00 0.  1.
       -3    1    3    3    0  502  0.22751141112E+02 -0.12996691147E+03 -0.36508147301E+03  0.38819261280E+03  0.10100000352E+00 0. -1.
</event>
<event>
 5   0  0.2488472E-03  0.1146552E+04  0.7818609E-02  0.9160970E-01
       -2   -1    0    0    0  501  0.00000000000E+00  0.00000000000E+00  0.29376155506E+03  0.29376155507E+03  0.25500000920E-02 0.  1.
        2   -1    0    0  501    0  0.00000000000E+00  0.00000000000E+00 -0.11187485362E+04  0.11187485362E+04  0.25500000920E-02 0. -1.
    10030    2    1    2    0    0  0.00000000000E+00  0.00000000000E+00 -0.82498698112E+03  0.14125100912E+04  0.11465518910E+04 0.  0.
        2    1    3    3  502    0  0.26884090446E+03 -0.20929032342E+03 -0.98049071518E+03  0.10379980318E+04  0.25500000920E-02 0. -1.
       -2    1    3    3    0  502 -0.26884090446E+03  0.20929032342E+03  0.15550373406E+03  0.37451205948E+03  0.25500000920E-02 0.  1.
</event>
<event>
 5   0  0.2483036E-03  0.1174968E+04  0.7818609E-02  0.9135053E-01
        2   -1    0    0  501    0  0.00000000000E+00  0.00000000000E+00  0.13785293211E+04  0.13785293211E+04  0.25500000920E-02 0. -1.
       -2   -1    0    0    0  501  0.00000000000E+00  0.00000000000E+00 -0.25036663082E+03  0.25036663084E+03  0.25500000920E-02 0.  1.
    10030    2    1    2    0    0  0.00000000000E+00  0.00000000000E+00  0.11281626903E+04  0.16288959520E+04  0.11749684960E+04 0.  0.
        3    1    3    3  502    0 -0.12299871096E+03 -0.49183288658E+03  0.15257324136E+03  0.52944015280E+03  0.10100000352E+00 0.  1.
       -3    1    3    3    0  502  0.12299871096E+03  0.49183288658E+03  0.97558944895E+03  0.10994557992E+04  0.10100000352E+00 0. -1.
</event>
<event>
 5   0  0.2467448E-03  0.1131468E+04  0.7818609E-02  0.9175053E-01
        2   -1    0    0  501    0  0.00000000000E+00  0.00000000000E+00  0.10502674204E+04  0.10502674204E+04  0.25500000920E-02 0. -1.
       -2   -1    0    0    0  501  0.00000000000E+00  0.00000000000E+00 -0.30473653517E+03  0.30473653518E+03  0.25500000920E-02 0.  1.
    10030    2    1    2    0    0  0.00000000000E+00  0.00000000000E+00  0.74553088522E+03  0.13550039556E+04  0.11314678161E+04 0.  0.
        1    1    3    3  502    0 -0.51896512447E+03  0.63163934103E+02  0.63167282780E+03  0.81995429409E+03  0.50400001928E-02 0. -1.
       -1    1    3    3    0  502  0.51896512447E+03 -0.63163934103E+02  0.11385805742E+03  0.53504966149E+03  0.50400001928E-02 0.  1.
</event>
<event>
 5   0  0.2392585E-03  0.1104219E+04  0.7818609E-02  0.9201090E-01
        2   -1    0    0  501    0  0.00000000000E+00  0.00000000000E+00  0.98970310113E+03  0.98970310114E+03  0.25500000920E-02 0.  1.
       -2   -1    0    0    0  501  0.00000000000E+00  0.00000000000E+00 -0.30799618898E+03  0.30799618899E+03  0.25500000920E-02 0. -1.
    10030    2    1    2    0    0  0.00000000000E+00  0.00000000000E+00  0.68170691215E+03  0.12976992901E+04  0.11042187888E+04 0.  0.
        5    1    3    3  502    0 -0.26701281327E+03 -0.28803122271E+03 -0.11513296378E+03  0.40931102728E+03  0.46999998093E+01 0. -1.
       -5    1    3    3    0  502  0.26701281327E+03  0.28803122271E+03  0.79683987593E+03  0.88838826285E+03  0.46999998093E+01 0.  1.
</event>
<event>
 5   0  0.1479573E-03  0.1084102E+04  0.7818609E-02  0.9220827E-01
        1   -1    0    0  501    0  0.00000000000E+00  0.00000000000E+00  0.96683386656E+03  0.96683386658E+03  0.50400001928E-02 0. -1.
       -1   -1    0    0    0  501  0.00000000000E+00  0.00000000000E+00 -0.30389839714E+03  0.30389839718E+03  0.50400001928E-02 0.  1.
    10030    2    1    2    0    0  0.00000000000E+00  0.00000000000E+00  0.66293546942E+03  0.12707322638E+04  0.10841019553E+04 0.  0.
        4    1    3    3  502    0  0.17411714978E+03  0.47248345477E+03  0.96275934268E+02  0.51266759728E+03  0.12699999809E+01 0.  1.
       -4    1    3    3    0  502 -0.17411714978E+03 -0.47248345477E+03  0.56665953516E+03  0.75806466648E+03  0.12699999809E+01 0. -1.
</event>
<event>
 5   0  0.1468556E-03  0.1102259E+04  0.7818609E-02  0.9202993E-01
        1   -1    0    0  501    0  0.00000000000E+00  0.00000000000E+00  0.27328239881E+03  0.27328239885E+03  0.50400001928E-02 0.  1.
       -1   -1    0    0    0  501  0.00000000000E+00  0.00000000000E+00 -0.11114644612E+04  0.11114644612E+04  0.50400001928E-02 0. -1.
    10030    2    1    2    0    0  0.00000000000E+00  0.00000000000E+00 -0.83818206242E+03  0.13847468601E+04  0.11022589064E+04 0.  0.
        5    1    3    3  502    0  0.43895985390E+03 -0.12069115959E+03 -0.28896004633E+02  0.45618984910E+03  0.46999998093E+01 0.  1.
       -5    1    3    3    0  502 -0.43895985390E+03  0.12069115959E+03 -0.80928605779E+03  0.92855701099E+03  0.46999998093E+01 0. -1.
</event>
<event>
 5   0  0.9631750E-04  0.1099886E+04  0.7818609E-02  0.9205303E-01
       -3   -1    0    0    0  501  0.00000000000E+00  0.00000000000E+00  0.11017705918E+04  0.11017705965E+04  0.10100000352E+00 0. -1.
        3   -1    0    0  501    0  0.00000000000E+00  0.00000000000E+00 -0.27450125070E+03  0.27450126928E+03  0.10100000352E+00 0.  1.
    10030    2    1    2    0    0  0.00000000000E+00  0.00000000000E+00  0.82726934113E+03  0.13762718657E+04  0.10998862149E+04 0.  0.
        3    1    3    3  502    0 -0.25748685005E+03  0.19525242209E+03  0.97044192822E+03  0.10228296694E+04  0.10100000352E+00 0. -1.
       -3    1    3    3    0  502  0.25748685005E+03 -0.19525242209E+03 -0.14317258709E+03  0.35344219638E+03  0.10100000352E+00 0.  1.
</event>
<event>
 5   0  0.2438115E-03  0.1098826E+04  0.7818609E-02  0.9206337E-01
        2   -1    0    0  501    0  0.00000000000E+00  0.00000000000E+00  0.12866687524E+04  0.12866687524E+04  0.25500000920E-02 0. -1.
       -2   -1    0    0    0  501  0.00000000000E+00  0.00000000000E+00 -0.23460180247E+03  0.23460180248E+03  0.25500000920E-02 0.  1.
    10030    2    1    2    0    0  0.00000000000E+00  0.00000000000E+00  0.10520669499E+04  0.15212705549E+04  0.10988262984E+04 0.  0.
        4    1    3    3  502    0  0.42690742998E+03  0.34184469218E+03  0.45349239007E+03  0.71046795008E+03  0.12699999809E+01 0.  1.
       -4    1    3    3    0  502 -0.42690742998E+03 -0.34184469218E+03  0.59857455984E+03  0.81080260479E+03  0.12699999809E+01 0. -1.
</event>
<event>
 5   0  0.1479573E-03  0.1120663E+04  0.7818609E-02  0.9185283E-01
       -1   -1    0    0    0  501  0.00000000000E+00  0.00000000000E+00  0.33796677653E+03  0.33796677656E+03  0.50400001928E-02 0.  1.
        1   -1    0    0  501    0  0.00000000000E+00  0.00000000000E+00 -0.92900045456E+03  0.92900045457E+03  0.50400001928E-02 0. -1.
    10030    2    1    2    0    0  0.00000000000E+00  0.00000000000E+00 -0.59103367803E+03  0.12669672311E+04  0.11206628200E+04 0.  0.
        4    1    3    3  502    0  0.78982317699E+02 -0.55115793645E+03 -0.36662843826E+03  0.66665680981E+03  0.12699999809E+01 0.  1.
       -4    1    3    3    0  502 -0.78982317699E+02  0.55115793645E+03 -0.22440523977E+03  0.60031042133E+03  0.12699999809E+01 0. -1.
</event>
<event>
 5   0  0.9631750E-04  0.1083597E+04  0.7818609E-02  0.9221328E-01
       -3   -1    0    0    0  501  0.00000000000E+00  0.00000000000E+00  0.12593217250E+04  0.12593217290E+04  0.10100000352E+00 0.  1.
        3   -1    0    0  501    0  0.00000000000E+00  0.00000000000E+00 -0.23309824671E+03  0.23309826859E+03  0.10100000352E+00 0. -1.
    10030    2    1    2    0    0  0.00000000000E+00  0.00000000000E+00  0.10262234783E+04  0.14924199976E+04  0.10835971677E+04 0.  0.
        5    1    3    3  502    0 -0.22314487204E+03 -0.36762944293E+03  0.59279581552E+02  0.43414421568E+03  0.46999998093E+01 0. -1.
       -5    1    3    3    0  502  0.22314487204E+03  0.36762944293E+03  0.96694389670E+03  0.10582757819E+04  0.46999998093E+01 0.  1.
</event>
<event>
 5   0  0.1480937E-03  0.1101527E+04  0.7818609E-02  0.9203705E-01
       -1   -1    0    0    0  501  0.00000000000E+00  0.00000000000E+00  0.33061493103E+03  0.33061493107E+03  0.50400001928E-02 0.  1.
        1   -1    0    0  501    0  0.00000000000E+00  0.00000000000E+00 -0.91750305778E+03  0.91750305779E+03  0.50400001928E-02 0. -1.
    10030    2    1    2    0    0  0.00000000000E+00  0.00000000000E+00 -0.58688812675E+03  0.12481179889E+04  0.11015265956E+04 0.  0.
        1    1    3    3  502    0 -0.44123211242E+03  0.30184306247E+03 -0.14335819517E+03  0.55348584764E+03  0.50400001928E-02 0. -1.
       -1    1    3    3    0  502  0.44123211242E+03 -0.30184306247E+03 -0.44352993157E+03  0.69463214122E+03  0.50400001928E-02 0.  1.
</event>
<event>
 5   0  0.2467448E-03  0.1098922E+04  0.7818609E-02  0.9206243E-01
       -2   -1    0    0    0  501  0.00000000000E+00  0.00000000000E+00  0.34985127746E+03  0.34985127747E+03  0.25500000920E-02 0. -1.
        2   -1    0    0  501    0  0.00000000000E+00  0.00000000000E+00 -0.86295994317E+03  0.86295994318E+03  0.25500000920E-02 0.  1.
    10030    2    1    2    0    0  0.00000000000E+00  0.00000000000E+00 -0.51310866572E+03  0.12128112206E+04  0.10989224514E+04 0.  0.
        1    1    3    3  502    0  0.48121463764E+02 -0.85076064595E+02 -0.85328821820E+03  0.85886808963E+03  0.50400001928E-02 0.  1.
       -1    1    3    3    0  502 -0.48121463764E+02  0.85076064595E+02  0.34017955248E+03  0.35394313101E+03  0.50400001928E-02 0. -1.
</event>
<event>
 5   0  0.1468556E-03  0.1095337E+04  0.7818609E-02  0.9209748E-01
        1   -1    0    0  501    0  0.00000000000E+00  0.00000000000E+00  0.49034611276E+03  0.49034611279E+03  0.50400001928E-02 0.  1.
       -1   -1    0    0    0  501  0.00000000000E+00  0.00000000000E+00 -0.61169233572E+03  0.61169233574E+03  0.50400001928E-02 0. -1.
    10030    2    1    2    0    0  0.00000000000E+00  0.00000000000E+00 -0.12134622296E+03  0.11020384485E+04  0.10953373162E+04 0.  0.
        5    1    3    3  502    0 -0.80518572257E+02  0.49754479939E+03  0.15484476052E+03  0.52728840091E+03  0.46999998093E+01 0.  1.
       -5    1    3    3    0  502  0.80518572257E+02 -0.49754479939E+03 -0.27619098348E+03  0.57475004761E+03  0.46999998093E+01 0. -1.
</event>
<event>
 5   0  0.2438115E-03  0.1097006E+04  0.7818609E-02  0.9208115E-01
        2   -1    0    0  501    0  0.00000000000E+00  0.00000000000E+00  0.11260938715E+04  0.11260938715E+04  0.25500000920E-02 0.  1.
       -2   -1    0    0    0  501  0.00000000000E+00  0.00000000000E+00 -0.26716726767E+03  0.26716726769E+03  0.25500000920E-02 0. -1.
    10030    2    1    2    0    0  0.00000000000E+00  0.00000000000E+00  0.85892660387E+03  0.13932611392E+04  0.10970057845E+04 0.  0.
        4    1    3    3  502    0 -0.41086554890E+03 -0.23189433916E+03  0.74145776157E+02  0.47758213202E+03  0.12699999809E+01 0. -1.
       -4    1    3    3    0  502  0.41086554890E+03  0.23189433916E+03  0.78478082771E+03  0.91567900721E+03  0.12699999809E+01 0.  1.
</event>
<event>
 5   0  0.2467448E-03  0.1095999E+04  0.7818609E-02  0.9209100E-01
       -2   -1    0    0    0  501  0.00000000000E+00  0.00000000000E+00  0.54280593478E+03  0.54280593478E+03  0.25500000920E-02 0. -1.
        2   -1    0    0  501    0  0.00000000000E+00  0.00000000000E+00 -0.55324296151E+03  0.55324296151E+03  0.25500000920E-02 0.  1.
    10030    2    1    2    0    0  0.00000000000E+00  0.00000000000E+00 -0.10437026729E+02  0.10960488963E+04  0.10959992023E+04 0.  0.
        1    1    3    3  502    0 -0.55148987558E+02  0.20874459015E+03  0.49847867114E+03  0.54322803715E+03  0.50400001928E-02 0. -1.
       -1    1    3    3    0  502  0.55148987558E+02 -0.20874459015E+03 -0.50891569787E+03  0.55282085914E+03  0.50400001928E-02 0.  1.
</event>
<event>
 5   0  0.2483036E-03  0.1113355E+04  0.7818609E-02  0.9192272E-01
        2   -1    0    0  501    0  0.00000000000E+00  0.00000000000E+00  0.16395546458E+04  0.16395546458E+04  0.25500000920E-02 0. -1.
       -2   -1    0    0    0  501  0.00000000000E+00  0.00000000000E+00 -0.18900841262E+03  0.18900841264E+03  0.25500000920E-02 0.  1.
    10030    2    1    2    0    0  0.00000000000E+00  0.00000000000E+00  0.14505462332E+04  0.18285630585E+04  0.11133546084E+04 0.  0.
        3    1    3    3  502    0  0.53087728418E+03  0.15106783033E+03  0.60641315874E+03  0.81999335943E+03  0.10100000352E+00 0.  1.
       -3    1    3    3    0  502 -0.53087728418E+03 -0.15106783033E+03  0.84413307448E+03  0.10085696991E+04  0.10100000352E+00 0. -1.
</event>
<event>
 5   0  0.2488472E-03  0.1105420E+04  0.7818609E-02  0.9199925E-01
        2   -1    0    0  501    0  0.00000000000E+00  0.00000000000E+00  0.30525293414E+03  0.30525293416E+03  0.25500000920E-02 0.  1.
       -2   -1    0    0    0  501  0.00000000000E+00  0.00000000000E+00 -0.10007707152E+04  0.10007707152E+04  0.25500000920E-02 0. -1.
    10030    2    1    2    0    0  0.00000000000E+00  0.00000000000E+00 -0.69551778101E+03  0.13060236493E+04  0.11054197342E+04 0.  0.
        2    1    3    3  502    0 -0.32228764156E+03 -0.29403383781E+02 -0.87712516752E+03  0.93492376287E+03  0.25500000920E-02 0. -1.
       -2    1    3    3    0  502  0.32228764156E+03  0.29403383781E+02  0.18160738651E+03  0.37109988644E+03  0.25500000920E-02 0.  1.
</event>
<event>
 5   0  0.2467448E-03  0.1093297E+04  0.7818609E-02  0.9211749E-01
        2   -1    0    0  501    0  0.00000000000E+00  0.00000000000E+00  0.14149214776E+04  0.14149214776E+04  0.25500000920E-02 0.  1.
       -2   -1    0    0    0  501  0.00000000000E+00  0.00000000000E+00 -0.21119529801E+03  0.21119529803E+03  0.25500000920E-02 0. -1.
    10030    2    1    2    0    0  0.00000000000E+00  0.00000000000E+00  0.12037261796E+04  0.16261167756E+04  0.10932973304E+04 0.  0.
        1    1    3    3  502    0 -0.64781979825E+02 -0.18821062045E+03  0.13591055880E+04  0.13736039974E+04  0.50400001928E-02 0.  1.
       -1    1    3    3    0  502  0.64781979825E+02  0.18821062045E+03 -0.15537940839E+03  0.25251277817E+03  0.50400001928E-02 0. -1.
</event>
<event>
 5   0  0.2392585E-03  0.1098149E+04  0.7818609E-02  0.9206998E-01
       -2   -1    0    0    0  501  0.00000000000E+00  0.00000000000E+00  0.86230960881E+03  0.86230960881E+03  0.25500000920E-02 0.  1.
        2   -1    0    0  501    0  0.00000000000E+00  0.00000000000E+00 -0.34962251311E+03  0.34962251312E+03  0.25500000920E-02 0. -1.
    10030    2    1    2    0    0  0.00000000000E+00  0.00000000000E+00  0.51268709570E+03  0.12119321219E+04  0.10981490837E+04 0.  0.
        5    1    3    3  502    0  0.25891124504E+03  0.20103839305E+03  0.74244650250E+03  0.81160357772E+03  0.46999998093E+01 0.  1.
       -5    1    3    3    0  502 -0.25891124504E+03 -0.20103839305E+03 -0.22975940681E+03  0.40032854421E+03  0.46999998093E+01 0. -1.
</event>
<event>
 5   0  0.2488472E-03  0.1102158E+04  0.7818609E-02  0.9203091E-01
       -2   -1    0    0    0  501  0.00000000000E+00  0.00000000000E+00  0.17909784039E+03  0.17909784041E+03  0.25500000920E-02 0. -1.
        2   -1    0    0  501    0  0.00000000000E+00  0.00000000000E+00 -0.16956533875E+04  0.16956533875E+04  0.25500000920E-02 0.  1.
    10030    2    1    2    0    0  0.00000000000E+00  0.00000000000E+00 -0.15165555471E+04  0.18747512279E+04  0.11021576290E+04 0.  0.
        2    1    3    3  502    0  0.31420830271E+02  0.39105673067E+03 -0.14165718169E+04  0.14698939920E+04  0.25500000920E-02 0.  1.
       -2    1    3    3    0  502 -0.31420830271E+02 -0.39105673067E+03 -0.99983730195E+02  0.40485723593E+03  0.25500000920E-02 0. -1.
</event>
<event>
 5   0  0.1509004E-03  0.1101062E+04  0.7818609E-02  0.9204157E-01
       -1   -1    0    0    0  501  0.00000000000E+00  0.00000000000E+00  0.70794036904E+03  0.70794036906E+03  0.50400001928E-02 0.  1.
        1   -1    0    0  501    0  0.00000000000E+00  0.00000000000E+00 -0.42812172736E+03  0.42812172739E+03  0.50400001928E-02 0. -1.
    10030    2    1    2    0    0  0.00000000000E+00  0.00000000000E+00  0.27981864168E+03  0.11360620965E+04  0.11010624936E+04 0.  0.
        3    1    3    3  502    0  0.27599707442E+03  0.35659341422E+03  0.46578323032E+03  0.64829567020E+03  0.10100000352E+00 0.  1.
       -3    1    3    3    0  502 -0.27599707442E+03 -0.35659341422E+03 -0.18596458864E+03  0.48776642625E+03  0.10100000352E+00 0. -1.
</event>
<event>
 5   0  0.1480937E-03  0.1112155E+04  0.7818609E-02  0.9193425E-01
        1   -1    0    0  501    0  0.00000000000E+00  0.00000000000E+00  0.25131933630E+04  0.25131933630E+04  0.50400001928E-02 0. -1.
       -1   -1    0    0    0  501  0.00000000000E+00  0.00000000000E+00 -0.12303960407E+03  0.12303960417E+03  0.50400001928E-02 0.  1.
    10030    2    1    2    0    0  0.00000000000E+00  0.00000000000E+00  0.23901537589E+04  0.26362329671E+04  0.11121552346E+04 0.  0.
        1    1    3    3  502    0 -0.32744499707E+03  0.44690229734E+03  0.13082716754E+04  0.14207451095E+04  0.50400001928E-02 0.  1.
       -1    1    3    3    0  502  0.32744499707E+03 -0.44690229734E+03  0.10818820835E+04  0.12154878577E+04  0.50400001928E-02 0. -1.
</event>
<event>
 5   0  0.2488472E-03  0.1099993E+04  0.7818609E-02  0.9205198E-01
        2   -1    0    0  501    0  0.00000000000E+00  0.00000000000E+00  0.22005050955E+04  0.22005050955E+04  0.25500000920E-02 0.  1.
       -2   -1    0    0    0  501  0.00000000000E+00  0.00000000000E+00 -0.13746675546E+03  0.13746675549E+03  0.25500000920E-02 0. -1.
    10030    2    1    2    0    0  0.00000000000E+00  0.00000000000E+00  0.20630383400E+04  0.23379718510E+04  0.10999932652E+04 0.  0.
        2    1    3    3  502    0 -0.22930493401E+03  0.29594224877E+03  0.17516457248E+03  0.41333424105E+03  0.25500000920E-02 0. -1.
       -2    1    3    3    0  502  0.22930493401E+03 -0.29594224877E+03  0.18878737675E+04  0.19246376099E+04  0.25500000920E-02 0.  1.
</event>
<event>
 5   0  0.2392585E-03  0.1103942E+04  0.7818609E-02  0.9201358E-01
       -2   -1    0    0    0  501  0.00000000000E+00  0.00000000000E+00  0.45742482325E+03  0.45742482326E+03  0.25500000920E-02 0.  1.
        2   -1    0    0  501    0  0.00000000000E+00  0.00000000000E+00 -0.66605914577E+03  0.66605914578E+03  0.25500000920E-02 0. -1.
    10030    2    1    2    0    0  0.00000000000E+00  0.00000000000E+00 -0.20863432252E+03  0.11234839690E+04  0.11039420040E+04 0.  0.
        5    1    3    3  502    0  0.15358697769E+03 -0.91632931248E+02 -0.63573336892E+03  0.66042755861E+03  0.46999998093E+01 0. -1.
       -5    1    3    3    0  502 -0.15358697769E+03  0.91632931248E+02  0.42709904640E+03  0.46305641043E+03  0.46999998093E+01 0.  1.
</event>
<event>
 5   0  0.2392585E-03  0.1059573E+04  0.7818609E-02  0.9245516E-01
       -2   -1    0    0    0  501  0.00000000000E+00  0.00000000000E+00  0.30058360033E+03  0.30058360034E+03  0.25500000920E-02 0.  1.
        2   -1    0    0  501    0  0.00000000000E+00  0.00000000000E+00 -0.93376299439E+03  0.93376299439E+03  0.25500000920E-02 0. -1.
    10030    2    1    2    0    0  0.00000000000E+00  0.00000000000E+00 -0.63317939406E+03  0.12343465947E+04  0.10595732022E+04 0.  0.
        5    1    3    3  502    0 -0.29292390696E+03  0.28614433306E+03  0.74958595593E+02  0.41632184144E+03  0.46999998093E+01 0.  1.
       -5    1    3    3    0  502  0.29292390696E+03 -0.28614433306E+03 -0.70813798966E+03  0.81802475329E+03  0.46999998093E+01 0. -1.
</event>
<event>
 5   0  0.1479573E-03  0.1085472E+04  0.7818609E-02  0.9219469E-01
       -1   -1    0    0    0  501  0.00000000000E+00  0.00000000000E+00  0.59400184791E+03  0.59400184793E+03  0.50400001928E-02 0.  1.
        1   -1    0    0  501    0  0.00000000000E+00  0.00000000000E+00 -0.49589478989E+03  0.49589478992E+03  0.50400001928E-02 0. -1.
    10030    2    1    2    0    0  0.00000000000E+00  0.00000000000E+00  0.98107058021E+02  0.10898966378E+04  0.10854721030E+04 0.  0.
        4    1    3    3  502    0  0.35290351020E+03 -0.35936986678E+03 -0.15394181320E+03  0.52667569093E+03  0.12699999809E+01 0. -1.
       -4    1    3    3    0  502 -0.35290351020E+03  0.35936986678E+03  0.25204887122E+03  0.56322094692E+03  0.12699999809E+01 0.  1.
</event>
<event>
 5   0  0.1468556E-03  0.1108282E+04  0.7818609E-02  0.9197157E-01
        1   -1    0    0  501    0  0.00000000000E+00  0.00000000000E+00  0.45394896413E+03  0.45394896415E+03  0.50400001928E-02 0. -1.
       -1   -1    0    0    0  501  0.00000000000E+00  0.00000000000E+00 -0.67644698892E+03  0.67644698894E+03  0.50400001928E-02 0.  1.
    10030    2    1    2    0    0  0.00000000000E+00  0.00000000000E+00 -0.22249802480E+03  0.11303959531E+04  0.11082822924E+04 0.  0.
        5    1    3    3  502    0 -0.22973829224E+03 -0.26495063663E+03  0.32634747369E+03  0.47906501265E+03  0.46999998093E+01 0. -1.
       -5    1    3    3    0  502  0.22973829224E+03  0.26495063663E+03 -0.54884549849E+03  0.65133094044E+03  0.46999998093E+01 0.  1.
</event>
<event>
 5   0  0.2467448E-03  0.1099950E+04  0.7818609E-02  0.9205241E-01
       -2   -1    0    0    0  501  0.00000000000E+00  0.00000000000E+00  0.51807577152E+03  0.51807577153E+03  0.25500000920E-02 0.  1.
        2   -1    0    0  501    0  0.00000000000E+00  0.00000000000E+00 -0.58383836578E+03  0.58383836578E+03  0.25500000920E-02 0. -1.
    10030    2    1    2    0    0  0.00000000000E+00  0.00000000000E+00 -0.65762594257E+02  0.11019141373E+04  0.10999500203E+04 0.  0.
        1    1    3    3  502    0  0.52107506004E+03  0.14461224656E+03 -0.13326297647E+03  0.55694787994E+03  0.50400001928E-02 0.  1.
       -1    1    3    3    0  502 -0.52107506004E+03 -0.14461224656E+03  0.67500382209E+02  0.54496625737E+03  0.50400001928E-02 0. -1.
</event>
<event>
 5   0  0.2438115E-03  0.1092478E+04  0.7818609E-02  0.9212555E-01
       -2   -1    0    0    0  501  0.00000000000E+00  0.00000000000E+00  0.57769310204E+03  0.57769310205E+03  0.25500000920E-02 0.  1.
        2   -1    0    0  501    0  0.00000000000E+00  0.00000000000E+00 -0.51649718030E+03  0.51649718031E+03  0.25500000920E-02 0. -1.
    10030    2    1    2    0    0  0.00000000000E+00  0.00000000000E+00  0.61195921736E+02  0.10941902824E+04  0.10924776580E+04 0.  0.
        4    1    3    3  502    0  0.36357402781E+03  0.39524138397E+03 -0.69425607812E+02  0.54150101868E+03  0.12699999809E+01 0. -1.
       -4    1    3    3    0  502 -0.36357402781E+03 -0.39524138397E+03  0.13062152955E+03  0.55268926368E+03  0.12699999809E+01 0.  1.
</event>
<event>
 5   0  0.2488472E-03  0.1058019E+04  0.7818609E-02  0.9247104E-01
        2   -1    0    0  501    0  0.00000000000E+00  0.00000000000E+00  0.96687866784E+03  0.96687866784E+03  0.25500000920E-02 0. -1.
       -2   -1    0    0    0  501  0.00000000000E+00  0.00000000000E+00 -0.28943736876E+03  0.28943736877E+03  0.25500000920E-02 0.  1.
    10030    2    1    2    0    0  0.00000000000E+00  0.00000000000E+00  0.67744129908E+03  0.12563160366E+04  0.10580185585E+04 0.  0.
        2    1    3    3  502    0 -0.39376912077E+03  0.23175160440E+03  0.65531519817E+03  0.79887479343E+03  0.25500000920E-02 0. -1.
       -2    1    3    3    0  502  0.39376912077E+03 -0.23175160440E+03  0.22126100912E+02  0.45744124318E+03  0.25500000920E-02 0.  1.
</event>
<event>
 5   0  0.2488472E-03  0.1083646E+04  0.7818609E-02  0.9221279E-01
       -2   -1    0    0    0  501  0.00000000000E+00  0.00000000000E+00  0.47458681281E+03  0.47458681282E+03  0.25500000920E-02 0.  1.
        2   -1    0    0  501    0  0.00000000000E+00  0.00000000000E+00 -0.61858508127E+03  0.61858508127E+03  0.25500000920E-02 0. -1.
    10030    2    1    2    0    0  0.00000000000E+00  0.00000000000E+00 -0.14399826846E+03  0.10931718941E+04  0.10836462932E+04 0.  0.
        2    1    3    3  502    0 -0.33081911469E+03  0.12628970249E+03 -0.48570396767E+03  0.60108129219E+03  0.25500000920E-02 0. -1.
       -2    1    3    3    0  502  0.33081911469E+03 -0.12628970249E+03  0.34170569921E+03  0.49209060190E+03  0.25500000920E-02 0.  1.
</event>
<event>
 5   0  0.9631750E-04  0.1093079E+04  0.7818609E-02  0.9211964E-01
        4   -1    0    0  501    0  0.00000000000E+00  0.00000000000E+00  0.11609189786E+04  0.11609196732E+04  0.12699999809E+01 0. -1.
       -4   -1    0    0    0  501  0.00000000000E+00  0.00000000000E+00 -0.25729841043E+03  0.25730154471E+03  0.12699999809E+01 0.  1.
    10030    2    1    2    0    0  0.00000000000E+00  0.00000000000E+00  0.90362056815E+03  0.14182212180E+04  0.10930788132E+04 0.  0.
        4    1    3    3  502    0 -0.29963865277E+03 -0.20705301723E+03  0.98051258958E+03  0.10459736256E+04  0.12699999809E+01 0. -1.
       -4    1    3    3    0  502  0.29963865277E+03  0.20705301723E+03 -0.76892021425E+02  0.37224759238E+03  0.12699999809E+01 0.  1.
</event>
<event>
 5   0  0.1480937E-03  0.9943153E+03  0.7818609E-02  0.9314802E-01
        1   -1    0    0  501    0  0.00000000000E+00  0.00000000000E+00  0.13055665640E+04  0.13055665640E+04  0.50400001928E-02 0. -1.
       -1   -1    0    0    0  501  0.00000000000E+00  0.00000000000E+00 -0.18931681763E+03  0.18931681770E+03  0.50400001928E-02 0.  1.
    10030    2    1    2    0    0  0.00000000000E+00  0.00000000000E+00  0.11162497464E+04  0.14948833817E+04  0.99431525618E+03 0.  0.
        1    1    3    3  502    0 -0.46370006780E+02 -0.42152779353E+03  0.16801492009E+03  0.45614128474E+03  0.50400001928E-02 0.  1.
       -1    1    3    3    0  502  0.46370006780E+02  0.42152779353E+03  0.94823482629E+03  0.10387420970E+04  0.50400001928E-02 0. -1.
</event>
<event>
 5   0  0.2392585E-03  0.1106182E+04  0.7818609E-02  0.9199187E-01
        2   -1    0    0  501    0  0.00000000000E+00  0.00000000000E+00  0.18093172759E+04  0.18093172759E+04  0.25500000920E-02 0.  1.
       -2   -1    0    0    0  501  0.00000000000E+00  0.00000000000E+00 -0.16907467049E+03  0.16907467051E+03  0.25500000920E-02 0. -1.
    10030    2    1    2    0    0  0.00000000000E+00  0.00000000000E+00  0.16402426054E+04  0.19783919464E+04  0.11061821229E+04 0.  0.
        5    1    3    3  502    0  0.44333779089E+03  0.26635941849E+03  0.46968791428E+03  0.69865911822E+03  0.46999998093E+01 0. -1.
       -5    1    3    3    0  502 -0.44333779089E+03 -0.26635941849E+03  0.11705546912E+04  0.12797328282E+04  0.46999998093E+01 0.  1.
</event>
<event>
 5   0  0.2467448E-03  0.1098561E+04  0.7818609E-02  0.9206596E-01
       -2   -1    0    0    0  501  0.00000000000E+00  0.00000000000E+00  0.44122913509E+03  0.44122913510E+03  0.25500000920E-02 0.  1.
        2   -1    0    0  501    0  0.00000000000E+00  0.00000000000E+00 -0.68379230946E+03  0.68379230947E+03  0.25500000920E-02 0. -1.
    10030    2    1    2    0    0  0.00000000000E+00  0.00000000000E+00 -0.24256317437E+03  0.11250214446E+04  0.10985610393E+04 0.  0.
        1    1    3    3  502    0  0.66018688888E+02  0.22884046483E+03  0.38559739598E+03  0.45322376089E+03  0.50400001928E-02 0.  1.
       -1    1    3    3    0  502 -0.66018688888E+02 -0.22884046483E+03 -0.62816057035E+03  0.67179768368E+03  0.50400001928E-02 0. -1.
</event>
<event>
 5   0  0.1479573E-03  0.1102063E+04  0.7818609E-02  0.9203184E-01
        1   -1    0    0  501    0  0.00000000000E+00  0.00000000000E+00  0.11451278592E+04  0.11451278592E+04  0.50400001928E-02 0.  1.
       -1   -1    0    0    0  501  0.00000000000E+00  0.00000000000E+00 -0.26515419472E+03  0.26515419476E+03  0.50400001928E-02 0. -1.
    10030    2    1    2    0    0  0.00000000000E+00  0.00000000000E+00  0.87997366452E+03  0.14102820540E+04  0.11020625307E+04 0.  0.
        4    1    3    3  502    0 -0.31505450628E+02 -0.42391431134E+03 -0.86993010339E+01  0.42517434955E+03  0.12699999809E+01 0. -1.
       -4    1    3    3    0  502  0.31505450628E+02  0.42391431134E+03  0.88867296556E+03  0.98510770446E+03  0.12699999809E+01 0.  1.
</event>
<event>
 5   0  0.1509004E-03  0.1110075E+04  0.7818609E-02  0.9195427E-01
       -1   -1    0    0    0  501  0.00000000000E+00  0.00000000000E+00  0.30802945345E+03  0.30802945349E+03  0.50400001928E-02 0. -1.
        1   -1    0    0  501    0  0.00000000000E+00  0.00000000000E+00 -0.10001206844E+04  0.10001206844E+04  0.50400001928E-02 0.  1.
    10030    2    1    2    0    0  0.00000000000E+00  0.00000000000E+00 -0.69209123093E+03  0.13081501379E+04  0.11100750026E+04 0.  0.
        3    1    3    3  502    0 -0.35415664322E+03  0.34599368953E+03 -0.50429961553E+02  0.49767635302E+03  0.10100000352E+00 0. -1.
       -3    1    3    3    0  502  0.35415664322E+03 -0.34599368953E+03 -0.64166126937E+03  0.81047378486E+03  0.10100000352E+00 0.  1.
</event>
<event>
 5   0  0.2392585E-03  0.1179162E+04  0.7818609E-02  0.9131294E-01
       -2   -1    0    0    0  501  0.00000000000E+00  0.00000000000E+00  0.28363753893E+03  0.28363753894E+03  0.25500000920E-02 0. -1.
        2   -1    0    0  501    0  0.00000000000E+00  0.00000000000E+00 -0.12255279800E+04  0.12255279800E+04  0.25500000920E-02 0.  1.
    10030    2    1    2    0    0  0.00000000000E+00  0.00000000000E+00 -0.94189044110E+03  0.15091655190E+04  0.11791619739E+04 0.  0.
        5    1    3    3  502    0 -0.87703395360E+02 -0.38007595904E+03  0.94855507985E+02  0.40145893637E+03  0.46999998093E+01 0. -1.
       -5    1    3    3    0  502  0.87703395360E+02  0.38007595904E+03 -0.10367459491E+04  0.11077065826E+04  0.46999998093E+01 0.  1.
</event>
<event>
 5   0  0.2392585E-03  0.1100378E+04  0.7818609E-02  0.9204823E-01
       -2   -1    0    0    0  501  0.00000000000E+00  0.00000000000E+00  0.23688393598E+03  0.23688393599E+03  0.25500000920E-02 0.  1.
        2   -1    0    0  501    0  0.00000000000E+00  0.00000000000E+00 -0.12778754497E+04  0.12778754497E+04  0.25500000920E-02 0. -1.
    10030    2    1    2    0    0  0.00000000000E+00  0.00000000000E+00 -0.10409915137E+04  0.15147593857E+04  0.11003784189E+04 0.  0.
        5    1    3    3  502    0  0.20266939447E+03 -0.48560161471E+03 -0.74161701651E+03  0.90934135551E+03  0.46999998093E+01 0. -1.
       -5    1    3    3    0  502 -0.20266939447E+03  0.48560161471E+03 -0.29937449717E+03  0.60541803014E+03  0.46999998093E+01 0.  1.
</event>
<event>
 5   0  0.2488472E-03  0.1098688E+04  0.7818609E-02  0.9206471E-01
        2   -1    0    0  501    0  0.00000000000E+00  0.00000000000E+00  0.11076442143E+04  0.11076442143E+04  0.25500000920E-02 0.  1.
       -2   -1    0    0    0  501  0.00000000000E+00  0.00000000000E+00 -0.27245118521E+03  0.27245118522E+03  0.25500000920E-02 0. -1.
    10030    2    1    2    0    0  0.00000000000E+00  0.00000000000E+00  0.83519302906E+03  0.13800953995E+04  0.10986882706E+04 0.  0.
        2    1    3    3  502    0  0.27625698649E+03 -0.10359183944E+03  0.99967395397E+03  0.10423037974E+04  0.25500000920E-02 0.  1.
       -2    1    3    3    0  502 -0.27625698649E+03  0.10359183944E+03 -0.16448092491E+03  0.33779160210E+03  0.25500000920E-02 0. -1.
</event>
<event>
 5   0  0.2438115E-03  0.1094441E+04  0.7818609E-02  0.9210627E-01
        2   -1    0    0  501    0  0.00000000000E+00  0.00000000000E+00  0.99043893393E+03  0.99043893393E+03  0.25500000920E-02 0. -1.
       -2   -1    0    0    0  501  0.00000000000E+00  0.00000000000E+00 -0.30234114618E+03  0.30234114619E+03  0.25500000920E-02 0.  1.
    10030    2    1    2    0    0  0.00000000000E+00  0.00000000000E+00  0.68809778775E+03  0.12927800801E+04  0.10944413050E+04 0.  0.
        4    1    3    3  502    0  0.21046110334E+03  0.11187090990E+02 -0.25247472478E+03  0.32888315033E+03  0.12699999809E+01 0.  1.
       -4    1    3    3    0  502 -0.21046110334E+03 -0.11187090990E+02  0.94057251253E+03  0.96389692978E+03  0.12699999809E+01 0. -1.
</event>
<event>
 5   0  0.1480937E-03  0.1084994E+04  0.7818609E-02  0.9219943E-01
        1   -1    0    0  501    0  0.00000000000E+00  0.00000000000E+00  0.11891345125E+04  0.11891345125E+04  0.50400001928E-02 0. -1.
       -1   -1    0    0    0  501  0.00000000000E+00  0.00000000000E+00 -0.24749328419E+03  0.24749328424E+03  0.50400001928E-02 0.  1.
    10030    2    1    2    0    0  0.00000000000E+00  0.00000000000E+00  0.94164122828E+03  0.14366277967E+04  0.10849936514E+04 0.  0.
        1    1    3    3  502    0 -0.18453120456E+03  0.14475127100E+02  0.11460299037E+04  0.11608814905E+04  0.50400001928E-02 0. -1.
       -1    1    3    3    0  502  0.18453120456E+03 -0.14475127100E+02 -0.20438867539E+03  0.27574630626E+03  0.50400001928E-02 0.  1.
</event>
<event>
 5   0  0.1480937E-03  0.1089526E+04  0.7818609E-02  0.9215461E-01
       -1   -1    0    0    0  501  0.00000000000E+00  0.00000000000E+00  0.33210027048E+03  0.33210027052E+03  0.50400001928E-02 0.  1.
        1   -1    0    0  501    0  0.00000000000E+00  0.00000000000E+00 -0.89360614488E+03  0.89360614490E+03  0.50400001928E-02 0. -1.
    10030    2    1    2    0    0  0.00000000000E+00  0.00000000000E+00 -0.56150587440E+03  0.12257064154E+04  0.10895262135E+04 0.  0.
        1    1    3    3  502    0  0.40722626171E+03  0.33983060320E+02 -0.68602866603E+03  0.79851324802E+03  0.50400001928E-02 0. -1.
       -1    1    3    3    0  502 -0.40722626171E+03 -0.33983060320E+02  0.12452279163E+03  0.42719316740E+03  0.50400001928E-02 0.  1.
</event>
<event>
 5   0  0.1509004E-03  0.1105164E+04  0.7818609E-02  0.9200173E-01
       -1   -1    0    0    0  501  0.00000000000E+00  0.00000000000E+00  0.10915992358E+04  0.10915992358E+04  0.50400001928E-02 0. -1.
        1   -1    0    0  501    0  0.00000000000E+00  0.00000000000E+00 -0.27972431485E+03  0.27972431489E+03  0.50400001928E-02 0.  1.
    10030    2    1    2    0    0  0.00000000000E+00  0.00000000000E+00  0.81187492093E+03  0.13713235507E+04  0.11051639668E+04 0.  0.
        3    1    3    3  502    0  0.45974288047E+03 -0.27047423983E+03  0.58500903642E+03  0.79167885752E+03  0.10100000352E+00 0.  1.
       -3    1    3    3    0  502 -0.45974288047E+03  0.27047423983E+03  0.22686588451E+03  0.57964469316E+03  0.10100000352E+00 0. -1.
</event>
<event>
 5   0  0.2467448E-03  0.1099324E+04  0.7818609E-02  0.9205851E-01
       -2   -1    0    0    0  501  0.00000000000E+00  0.00000000000E+00  0.83504335565E+03  0.83504335566E+03  0.25500000920E-02 0.  1.
        2   -1    0    0  501    0  0.00000000000E+00  0.00000000000E+00 -0.36181141396E+03  0.36181141396E+03  0.25500000920E-02 0. -1.
    10030    2    1    2    0    0  0.00000000000E+00  0.00000000000E+00  0.47323194170E+03  0.11968547696E+04  0.10993238235E+04 0.  0.
        1    1    3    3  502    0  0.14664165744E+03  0.22761085522E+03 -0.28417166041E+03  0.39250988487E+03  0.50400001928E-02 0. -1.
       -1    1    3    3    0  502 -0.14664165744E+03 -0.22761085522E+03  0.75740360211E+03  0.80434488475E+03  0.50400001928E-02 0.  1.
</event>
<event>
 5   0  0.9631750E-04  0.1092847E+04  0.7818609E-02  0.9212191E-01
        3   -1    0    0  501    0  0.00000000000E+00  0.00000000000E+00  0.80159168820E+03  0.80159169456E+03  0.10100000352E+00 0.  1.
       -3   -1    0    0    0  501  0.00000000000E+00  0.00000000000E+00 -0.37248250900E+03  0.37248252269E+03  0.10100000352E+00 0. -1.
    10030    2    1    2    0    0  0.00000000000E+00  0.00000000000E+00  0.42910917920E+03  0.11740742173E+04  0.10928474642E+04 0.  0.
        4    1    3    3  502    0  0.30951393310E+03 -0.28817384769E+03  0.58629963123E+03  0.72290518864E+03  0.12699999809E+01 0.  1.
       -4    1    3    3    0  502 -0.30951393310E+03  0.28817384769E+03 -0.15719045204E+03  0.45116902862E+03  0.12699999809E+01 0. -1.
</event>
<event>
 5   0  0.2438115E-03  0.1105213E+04  0.7818609E-02  0.9200126E-01
       -2   -1    0    0    0  501  0.00000000000E+00  0.00000000000E+00  0.19967269695E+03  0.19967269697E+03  0.25500000920E-02 0.  1.
        2   -1    0    0  501    0  0.00000000000E+00  0.00000000000E+00 -0.15293728675E+04  0.15293728675E+04  0.25500000920E-02 0. -1.
    10030    2    1    2    0    0  0.00000000000E+00  0.00000000000E+00 -0.13297001705E+04  0.17290455645E+04  0.11052131109E+04 0.  0.
        4    1    3    3  502    0 -0.12198455308E+03  0.52537766518E+03 -0.85304233227E+03  0.10092496004E+04  0.12699999809E+01 0. -1.
       -4    1    3    3    0  502  0.12198455308E+03 -0.52537766518E+03 -0.47665783827E+03  0.71979596411E+03  0.12699999809E+01 0.  1.
</event>
<event>
 5   0  0.1479573E-03  0.1099190E+04  0.7818609E-02  0.9205982E-01
        1   -1    0    0  501    0  0.00000000000E+00  0.00000000000E+00  0.10640560742E+04  0.10640560743E+04  0.50400001928E-02 0. -1.
       -1   -1    0    0    0  501  0.00000000000E+00  0.00000000000E+00 -0.28387079013E+03  0.28387079017E+03  0.50400001928E-02 0.  1.
    10030    2    1    2    0    0  0.00000000000E+00  0.00000000000E+00  0.78018528411E+03  0.13479268644E+04  0.10991895898E+04 0.  0.
        4    1    3    3  502    0 -0.48873250675E+03  0.67781749277E+02  0.68694384526E+03  0.84578205711E+03  0.12699999809E+01 0. -1.
       -4    1    3    3    0  502  0.48873250675E+03 -0.67781749277E+02  0.93241438858E+02  0.50214480731E+03  0.12699999809E+01 0.  1.
</event>
<event>
 5   0  0.1468556E-03  0.1100787E+04  0.7818609E-02  0.9204426E-01
       -1   -1    0    0    0  501  0.00000000000E+00  0.00000000000E+00  0.21354866057E+03  0.21354866063E+03  0.50400001928E-02 0.  1.
        1   -1    0    0  501    0  0.00000000000E+00  0.00000000000E+00 -0.14185654011E+04  0.14185654011E+04  0.50400001928E-02 0. -1.
    10030    2    1    2    0    0  0.00000000000E+00  0.00000000000E+00 -0.12050167405E+04  0.16321140617E+04  0.11007865213E+04 0.  0.
        5    1    3    3  502    0  0.46225664969E+03  0.11291140679E+03 -0.10125449819E+04  0.11187938266E+04  0.46999998093E+01 0. -1.
       -5    1    3    3    0  502 -0.46225664969E+03 -0.11291140679E+03 -0.19247175861E+03  0.51332023516E+03  0.46999998093E+01 0.  1.
</event>
<event>
 5   0  0.2467448E-03  0.1095150E+04  0.7818609E-02  0.9209932E-01
       -2   -1    0    0    0  501  0.00000000000E+00  0.00000000000E+00  0.68742506908E+03  0.68742506909E+03  0.25500000920E-02 0.  1.
        2   -1    0    0  501    0  0.00000000000E+00  0.00000000000E+00 -0.43617600900E+03  0.43617600900E+03  0.25500000920E-02 0. -1.
    10030    2    1    2    0    0  0.00000000000E+00  0.00000000000E+00  0.25124906009E+03  0.11236010781E+04  0.10951498950E+04 0.  0.
        1    1    3    3  502    0 -0.14818927207E+03  0.51677399748E+03  0.18888666151E+02  0.53793327334E+03  0.50400001928E-02 0. -1.
       -1    1    3    3    0  502  0.14818927207E+03 -0.51677399748E+03  0.23236039394E+03  0.58566780475E+03  0.50400001928E-02 0.  1.
</event>
<event>
 5   0  0.1509004E-03  0.1097778E+04  0.7818609E-02  0.9207360E-01
        1   -1    0    0  501    0  0.00000000000E+00  0.00000000000E+00  0.16716931371E+04  0.16716931371E+04  0.50400001928E-02 0.  1.
       -1   -1    0    0    0  501  0.00000000000E+00  0.00000000000E+00 -0.18022403533E+03  0.18022403540E+03  0.50400001928E-02 0. -1.
    10030    2    1    2    0    0  0.00000000000E+00  0.00000000000E+00  0.14914691017E+04  0.18519171725E+04  0.10977782710E+04 0.  0.
        3    1    3    3  502    0  0.13847169104E+02  0.85903014660E+02 -0.16851544077E+03  0.18965372657E+03  0.10100000352E+00 0. -1.
       -3    1    3    3    0  502 -0.13847169104E+02 -0.85903014660E+02  0.16599845425E+04  0.16622634459E+04  0.10100000352E+00 0.  1.
</event>
<event>
 5   0  0.2488472E-03  0.1107957E+04  0.7818609E-02  0.9197471E-01
       -2   -1    0    0    0  501  0.00000000000E+00  0.00000000000E+00  0.48557690272E+03  0.48557690273E+03  0.25500000920E-02 0. -1.
        2   -1    0    0  501    0  0.00000000000E+00  0.00000000000E+00 -0.63201552859E+03  0.63201552859E+03  0.25500000920E-02 0.  1.
    10030    2    1    2    0    0  0.00000000000E+00  0.00000000000E+00 -0.14643862586E+03  0.11175924313E+04  0.11079569357E+04 0.  0.
        2    1    3    3  502    0  0.41227223156E+03  0.35771669514E+03 -0.16871319354E+03  0.57130882067E+03  0.25500000920E-02 0.  1.
       -2    1    3    3    0  502 -0.41227223156E+03 -0.35771669514E+03  0.22274567671E+02  0.54628361065E+03  0.25500000920E-02 0. -1.
</event>
<event>
 5   0  0.2488472E-03  0.1097636E+04  0.7818609E-02  0.9207500E-01
        2   -1    0    0  501    0  0.00000000000E+00  0.00000000000E+00  0.12648304532E+04  0.12648304532E+04  0.25500000920E-02 0.  1.
       -2   -1    0    0    0  501  0.00000000000E+00  0.00000000000E+00 -0.23813542111E+03  0.23813542112E+03  0.25500000920E-02 0. -1.
    10030    2    1    2    0    0  0.00000000000E+00  0.00000000000E+00  0.10266950321E+04  0.15029658743E+04  0.10976355180E+04 0.  0.
        2    1    3    3  502    0  0.17065978851E+03 -0.39620513326E+03  0.48806336753E+02  0.43414897161E+03  0.25500000920E-02 0. -1.
       -2    1    3    3    0  502 -0.17065978851E+03  0.39620513326E+03  0.97788869531E+03  0.10688169027E+04  0.25500000920E-02 0.  1.
</event>
<event>
 5   0  0.2438115E-03  0.1112834E+04  0.7818609E-02  0.9192773E-01
       -2   -1    0    0    0  501  0.00000000000E+00  0.00000000000E+00  0.10609444664E+03  0.10609444667E+03  0.25500000920E-02 0. -1.
        2   -1    0    0  501    0  0.00000000000E+00  0.00000000000E+00 -0.29181512403E+04  0.29181512403E+04  0.25500000920E-02 0.  1.
    10030    2    1    2    0    0  0.00000000000E+00  0.00000000000E+00 -0.28120567937E+04  0.30242456870E+04  0.11128335744E+04 0.  0.
        4    1    3    3  502    0  0.21576014385E+03  0.25718980189E+03 -0.26119209104E+04  0.26334068218E+04  0.12699999809E+01 0.  1.
       -4    1    3    3    0  502 -0.21576014385E+03 -0.25718980189E+03 -0.20013588325E+03  0.39083886518E+03  0.12699999809E+01 0. -1.
</event>
<event>
 5   0  0.2483036E-03  0.1091541E+04  0.7818609E-02  0.9213476E-01
       -2   -1    0    0    0  501  0.00000000000E+00  0.00000000000E+00  0.19912564665E+03  0.19912564667E+03  0.25500000920E-02 0. -1.
        2   -1    0    0  501    0  0.00000000000E+00  0.00000000000E+00 -0.14958654374E+04  0.14958654374E+04  0.25500000920E-02 0.  1.
    10030    2    1    2    0    0  0.00000000000E+00  0.00000000000E+00 -0.12967397908E+04  0.16949910841E+04  0.10915405124E+04 0.  0.
        3    1    3    3  502    0 -0.19404198204E+03  0.28589799219E+03 -0.13043890336E+04  0.13493778988E+04  0.10100000352E+00 0.  1.
       -3    1    3    3    0  502  0.19404198204E+03 -0.28589799219E+03  0.76492427769E+01  0.34561318529E+03  0.10100000352E+00 0. -1.
</event>
<event>
 5   0  0.2467448E-03  0.1101551E+04  0.7818609E-02  0.9203681E-01
       -2   -1    0    0    0  501  0.00000000000E+00  0.00000000000E+00  0.45280254900E+03  0.45280254900E+03  0.25500000920E-02 0.  1.
        2   -1    0    0  501    0  0.00000000000E+00  0.00000000000E+00 -0.66994694396E+03  0.66994694397E+03  0.25500000920E-02 0. -1.
    10030    2    1    2    0    0  0.00000000000E+00  0.00000000000E+00 -0.21714439497E+03  0.11227494930E+04  0.11015510591E+04 0.  0.
        1    1    3    3  502    0  0.41221301067E+03 -0.31390109498E+03  0.81838927742E+02  0.52454844744E+03  0.50400001928E-02 0.  1.
       -1    1    3    3    0  502 -0.41221301067E+03  0.31390109498E+03 -0.29898332271E+03  0.59820104553E+03  0.50400001928E-02 0. -1.
</event>
<event>
 5   0  0.2392585E-03  0.1121897E+04  0.7818609E-02  0.9184109E-01
        2   -1    0    0  501    0  0.00000000000E+00  0.00000000000E+00  0.13745888796E+04  0.13745888796E+04  0.25500000920E-02 0.  1.
       -2   -1    0    0    0  501  0.00000000000E+00  0.00000000000E+00 -0.22891441687E+03  0.22891441688E+03  0.25500000920E-02 0. -1.
    10030    2    1    2    0    0  0.00000000000E+00  0.00000000000E+00  0.11456744627E+04  0.16035032964E+04  0.11218969860E+04 0.  0.
        5    1    3    3  502    0  0.36197945597E+03  0.91581504711E+02 -0.25456828656E+02  0.37428122939E+03  0.46999998093E+01 0. -1.
       -5    1    3    3    0  502 -0.36197945597E+03 -0.91581504711E+02  0.11711312913E+04  0.12292220670E+04  0.46999998093E+01 0.  1.
</event>
<event>
 5   0  0.1479573E-03  0.1133003E+04  0.7818609E-02  0.9173609E-01
        1   -1    0    0  501    0  0.00000000000E+00  0.00000000000E+00  0.48540292777E+03  0.48540292780E+03  0.50400001928E-02 0. -1.
       -1   -1    0    0    0  501  0.00000000000E+00  0.00000000000E+00 -0.66114936044E+03  0.66114936046E+03  0.50400001928E-02 0.  1.
    10030    2    1    2    0    0  0.00000000000E+00  0.00000000000E+00 -0.17574643267E+03  0.11465522883E+04  0.11330027984E+04 0.  0.
        4    1    3    3  502    0 -0.25218707694E+03  0.46581199686E+03 -0.29113111490E+03  0.60443202856E+03  0.12699999809E+01 0.  1.
       -4    1    3    3    0  502  0.25218707694E+03 -0.46581199686E+03  0.11538468223E+03  0.54212025970E+03  0.12699999809E+01 0. -1.
</event>
<event>
 5   0  0.1468556E-03  0.1097502E+04  0.7818609E-02  0.9207630E-01
       -1   -1    0    0    0  501  0.00000000000E+00  0.00000000000E+00  0.35683933457E+03  0.35683933460E+03  0.50400001928E-02 0. -1.
        1   -1    0    0  501    0  0.00000000000E+00  0.00000000000E+00 -0.84387524660E+03  0.84387524661E+03  0.50400001928E-02 0.  1.
    10030    2    1    2    0    0  0.00000000000E+00  0.00000000000E+00 -0.48703591203E+03  0.12007145812E+04  0.10975024036E+04 0.  0.
        5    1    3    3  502    0 -0.23274193679E+03  0.45810780156E+03 -0.32863649390E+02  0.51491132872E+03  0.46999998093E+01 0. -1.
       -5    1    3    3    0  502  0.23274193679E+03 -0.45810780156E+03 -0.45417226264E+03  0.68580325250E+03  0.46999998093E+01 0.  1.
</event>
<event>
 5   0  0.2438115E-03  0.1089997E+04  0.7818609E-02  0.9214996E-01
        2   -1    0    0  501    0  0.00000000000E+00  0.00000000000E+00  0.36898798984E+03  0.36898798985E+03  0.25500000920E-02 0.  1.
       -2   -1    0    0    0  501  0.00000000000E+00  0.00000000000E+00 -0.80496804584E+03  0.80496804584E+03  0.25500000920E-02 0. -1.
    10030    2    1    2    0    0  0.00000000000E+00  0.00000000000E+00 -0.43598005600E+03  0.11739560357E+04  0.10899973232E+04 0.  0.
        4    1    3    3  502    0  0.47346439794E+03  0.25219283799E+03 -0.11439281401E+03  0.54850441425E+03  0.12699999809E+01 0.  1.
       -4    1    3    3    0  502 -0.47346439794E+03 -0.25219283799E+03 -0.32158724199E+03  0.62545162144E+03  0.12699999809E+01 0. -1.
</event>
<event>
 5   0  0.2488472E-03  0.1091687E+04  0.7818609E-02  0.9213332E-01
       -2   -1    0    0    0  501  0.00000000000E+00  0.00000000000E+00  0.62951014607E+03  0.62951014608E+03  0.25500000920E-02 0.  1.
        2   -1    0    0  501    0  0.00000000000E+00  0.00000000000E+00 -0.47329705074E+03  0.47329705075E+03  0.25500000920E-02 0. -1.
    10030    2    1    2    0    0  0.00000000000E+00  0.00000000000E+00  0.15621309533E+03  0.11028071968E+04  0.10916873097E+04 0.  0.
        2    1    3    3  502    0  0.11203517258E+02  0.51951966222E+03  0.24689860864E+03  0.57531306363E+03  0.25500000920E-02 0.  1.
       -2    1    3    3    0  502 -0.11203517258E+02 -0.51951966222E+03 -0.90685513309E+02  0.52749413320E+03  0.25500000920E-02 0. -1.
</event>
<event>
 5   0  0.1468556E-03  0.1086428E+04  0.7818609E-02  0.9218522E-01
        1   -1    0    0  501    0  0.00000000000E+00  0.00000000000E+00  0.76925820067E+03  0.76925820068E+03  0.50400001928E-02 0. -1.
       -1   -1    0    0    0  501  0.00000000000E+00  0.00000000000E+00 -0.38359215480E+03  0.38359215483E+03  0.50400001928E-02 0.  1.
    10030    2    1    2    0    0  0.00000000000E+00  0.00000000000E+00  0.38566604587E+03  0.11528503555E+04  0.10864279283E+04 0.  0.
        5    1    3    3  502    0 -0.27638226216E+02 -0.27114282412E+03  0.69142920464E+03  0.74322186300E+03  0.46999998093E+01 0. -1.
       -5    1    3    3    0  502  0.27638226216E+02  0.27114282412E+03 -0.30576315877E+03  0.40962849251E+03  0.46999998093E+01 0.  1.
</event>
<event>
 5   0  0.1415400E-03  0.1086082E+04  0.7818609E-02  0.9218864E-01
       -1   -1    0    0    0  501  0.00000000000E+00  0.00000000000E+00  0.69527627233E+03  0.69527627235E+03  0.50400001928E-02 0. -1.
        1   -1    0    0  501    0  0.00000000000E+00  0.00000000000E+00 -0.42413879829E+03  0.42413879832E+03  0.50400001928E-02 0.  1.
    10030    2    1    2    0    0  0.00000000000E+00  0.00000000000E+00  0.27113747404E+03  0.11194150707E+04  0.10860822117E+04 0.  0.
        2    1    3    3  502    0 -0.11581433567E+03  0.12173081843E+03 -0.39667339621E+03  0.43079129027E+03  0.25500000920E-02 0.  1.
       -2    1    3    3    0  502  0.11581433567E+03 -0.12173081843E+03  0.66781087025E+03  0.68862378040E+03  0.25500000920E-02 0. -1.
</event>
<event>
 5   0  0.2392585E-03  0.1096106E+04  0.7818609E-02  0.9208995E-01
        2   -1    0    0  501    0  0.00000000000E+00  0.00000000000E+00  0.14944029341E+04  0.14944029341E+04  0.25500000920E-02 0. -1.
       -2   -1    0    0    0  501  0.00000000000E+00  0.00000000000E+00 -0.20099152799E+03  0.20099152801E+03  0.25500000920E-02 0.  1.
    10030    2    1    2    0    0  0.00000000000E+00  0.00000000000E+00  0.12934114061E+04  0.16953944621E+04  0.10961064349E+04 0.  0.
        5    1    3    3  502    0  0.33277675874E+03  0.26396858082E+03  0.11823354265E+04  0.12563275583E+04  0.46999998093E+01 0. -1.
       -5    1    3    3    0  502 -0.33277675874E+03 -0.26396858082E+03  0.11107597957E+03  0.43906690385E+03  0.46999998093E+01 0.  1.
</event>
<event>
 5   0  0.1415400E-03  0.1100588E+04  0.7818609E-02  0.9204619E-01
       -1   -1    0    0    0  501  0.00000000000E+00  0.00000000000E+00  0.36129575901E+03  0.36129575905E+03  0.50400001928E-02 0. -1.
        1   -1    0    0  501    0  0.00000000000E+00  0.00000000000E+00 -0.83815930149E+03  0.83815930150E+03  0.50400001928E-02 0.  1.
    10030    2    1    2    0    0  0.00000000000E+00  0.00000000000E+00 -0.47686354248E+03  0.11994550606E+04  0.11005878448E+04 0.  0.
        2    1    3    3  502    0  0.20667211004E+03  0.46947629723E+03 -0.21278830629E+02  0.51339472472E+03  0.25500000920E-02 0. -1.
       -2    1    3    3    0  502 -0.20667211004E+03 -0.46947629723E+03 -0.45558471185E+03  0.68606033583E+03  0.25500000920E-02 0.  1.
</event>
<event>
 5   0  0.1509004E-03  0.1101712E+04  0.7818609E-02  0.9203525E-01
       -1   -1    0    0    0  501  0.00000000000E+00  0.00000000000E+00  0.18460810003E+04  0.18460810003E+04  0.50400001928E-02 0. -1.
        1   -1    0    0  501    0  0.00000000000E+00  0.00000000000E+00 -0.16437116464E+03  0.16437116472E+03  0.50400001928E-02 0.  1.
    10030    2    1    2    0    0  0.00000000000E+00  0.00000000000E+00  0.16817098356E+04  0.20104521650E+04  0.11017122748E+04 0.  0.
        3    1    3    3  502    0  0.26119905133E+03 -0.64561776974E+02 -0.36303207609E+02  0.27149788314E+03  0.10100000352E+00 0.  1.
       -3    1    3    3    0  502 -0.26119905133E+03  0.64561776974E+02  0.17180130432E+04  0.17389542819E+04  0.10100000352E+00 0. -1.
</event>
<event>
 5   0  0.1480937E-03  0.1096635E+04  0.7818609E-02  0.9208478E-01
       -1   -1    0    0    0  501  0.00000000000E+00  0.00000000000E+00  0.34995282336E+03  0.34995282340E+03  0.50400001928E-02 0. -1.
        1   -1    0    0  501    0  0.00000000000E+00  0.00000000000E+00 -0.85912172308E+03  0.85912172310E+03  0.50400001928E-02 0.  1.
    10030    2    1    2    0    0  0.00000000000E+00  0.00000000000E+00 -0.50916889972E+03  0.12090745465E+04  0.10966349851E+04 0.  0.
        1    1    3    3  502    0 -0.43294579925E+03  0.25190558769E+03 -0.86591780103E+01  0.50097252578E+03  0.50400001928E-02 0.  1.
       -1    1    3    3    0  502  0.43294579925E+03 -0.25190558769E+03 -0.50050972171E+03  0.70810202072E+03  0.50400001928E-02 0. -1.
</event>
<event>
 5   0  0.2467448E-03  0.1108428E+04  0.7818609E-02  0.9197016E-01
        2   -1    0    0  501    0  0.00000000000E+00  0.00000000000E+00  0.63999502182E+03  0.63999502183E+03  0.25500000920E-02 0. -1.
       -2   -1    0    0    0  501  0.00000000000E+00  0.00000000000E+00 -0.47993061511E+03  0.47993061512E+03  0.25500000920E-02 0.  1.
    10030    2    1    2    0    0  0.00000000000E+00  0.00000000000E+00  0.16006440671E+03  0.11199256369E+04  0.11084280843E+04 0.  0.
        1    1    3    3  502    0  0.21780602267E+03  0.28444304423E+03  0.50727286856E+03  0.62102582243E+03  0.50400001928E-02 0.  1.
       -1    1    3    3    0  502 -0.21780602267E+03 -0.28444304423E+03 -0.34720846185E+03  0.49889981452E+03  0.50400001928E-02 0. -1.
</event>
<event>
 5   0  0.9631750E-04  0.1098569E+04  0.7818609E-02  0.9206588E-01
        3   -1    0    0  501    0  0.00000000000E+00  0.00000000000E+00  0.63270430635E+03  0.63270431441E+03  0.10100000352E+00 0. -1.
       -3   -1    0    0    0  501  0.00000000000E+00  0.00000000000E+00 -0.47686336856E+03  0.47686337926E+03  0.10100000352E+00 0.  1.
    10030    2    1    2    0    0  0.00000000000E+00  0.00000000000E+00  0.15584093778E+03  0.11095676937E+04  0.10985691007E+04 0.  0.
        1    1    3    3  502    0 -0.42007525177E+03 -0.32134672878E+03  0.22768372149E+03  0.57581838656E+03  0.50400001928E-02 0.  1.
       -1    1    3    3    0  502  0.42007525177E+03  0.32134672878E+03 -0.71842783705E+02  0.53374930711E+03  0.50400001928E-02 0. -1.
</event>
<event>
 5   0  0.2483036E-03  0.1098575E+04  0.7818609E-02  0.9206582E-01
       -2   -1    0    0    0  501  0.00000000000E+00  0.00000000000E+00  0.41331967347E+03  0.41331967348E+03  0.25500000920E-02 0. -1.
        2   -1    0    0  501    0  0.00000000000E+00  0.00000000000E+00 -0.72998356720E+03  0.72998356721E+03  0.25500000920E-02 0.  1.
    10030    2    1    2    0    0  0.00000000000E+00  0.00000000000E+00 -0.31666389373E+03  0.11433032407E+04  0.10985746577E+04 0.  0.
        3    1    3    3  502    0 -0.28145925743E+03  0.42803172001E+03 -0.36460916966E+03  0.62878479922E+03  0.10100000352E+00 0. -1.
       -3    1    3    3    0  502  0.28145925743E+03 -0.42803172001E+03  0.47945275925E+02  0.51451844147E+03  0.10100000352E+00 0.  1.
</event>
<event>
 5   0  0.2392585E-03  0.9857598E+03  0.7818609E-02  0.9324303E-01
        2   -1    0    0  501    0  0.00000000000E+00  0.00000000000E+00  0.18420803717E+03  0.18420803719E+03  0.25500000920E-02 0.  1.
       -2   -1    0    0    0  501  0.00000000000E+00  0.00000000000E+00 -0.13187838922E+04  0.13187838922E+04  0.25500000920E-02 0. -1.
    10030    2    1    2    0    0  0.00000000000E+00  0.00000000000E+00 -0.11345758550E+04  0.15029919293E+04  0.98575979273E+03 0.  0.
        5    1    3    3  502    0  0.28308149030E+03 -0.29132261962E+03 -0.99285383619E+03  0.10727463954E+04  0.46999998093E+01 0. -1.
       -5    1    3    3    0  502 -0.28308149030E+03  0.29132261962E+03 -0.14172201880E+03  0.43024553393E+03  0.46999998093E+01 0.  1.
</event>
<event>
 5   0  0.2438115E-03  0.1093978E+04  0.7818609E-02  0.9211081E-01
        2   -1    0    0  501    0  0.00000000000E+00  0.00000000000E+00  0.10600076713E+04  0.10600076713E+04  0.25500000920E-02 0. -1.
       -2   -1    0    0    0  501  0.00000000000E+00  0.00000000000E+00 -0.28225917283E+03  0.28225917284E+03  0.25500000920E-02 0.  1.
    10030    2    1    2    0    0  0.00000000000E+00  0.00000000000E+00  0.77774849851E+03  0.13422668442E+04  0.10939778581E+04 0.  0.
        4    1    3    3  502    0  0.52823671800E+03 -0.32665705472E+02  0.55841770495E+03  0.76937183771E+03  0.12699999809E+01 0. -1.
       -4    1    3    3    0  502 -0.52823671800E+03  0.32665705472E+02  0.21933079356E+03  0.57289500649E+03  0.12699999809E+01 0.  1.
</event>
<event>
 5   0  0.2467448E-03  0.1095674E+04  0.7818609E-02  0.9209418E-01
        2   -1    0    0  501    0  0.00000000000E+00  0.00000000000E+00  0.36364161591E+04  0.36364161591E+04  0.25500000920E-02 0. -1.
       -2   -1    0    0    0  501  0.00000000000E+00  0.00000000000E+00 -0.82533325396E+02  0.82533325436E+02  0.25500000920E-02 0.  1.
    10030    2    1    2    0    0  0.00000000000E+00  0.00000000000E+00  0.35538828337E+04  0.37189494845E+04  0.10956742549E+04 0.  0.
        1    1    3    3  502    0  0.49414616439E+03  0.22571677688E+03  0.15370059232E+04  0.16301888550E+04  0.50400001928E-02 0.  1.
       -1    1    3    3    0  502 -0.49414616439E+03 -0.22571677688E+03  0.20168769105E+04  0.20887606295E+04  0.50400001928E-02 0. -1.
</event>
<event>
 5   0  0.1415400E-03  0.1101331E+04  0.7818609E-02  0.9203896E-01
       -1   -1    0    0    0  501  0.00000000000E+00  0.00000000000E+00  0.38741586145E+03  0.38741586148E+03  0.50400001928E-02 0.  1.
        1   -1    0    0  501    0  0.00000000000E+00  0.00000000000E+00 -0.78270522436E+03  0.78270522438E+03  0.50400001928E-02 0. -1.
    10030    2    1    2    0    0  0.00000000000E+00  0.00000000000E+00 -0.39528936291E+03  0.11701210859E+04  0.11013308654E+04 0.  0.
        2    1    3    3  502    0 -0.14452954918E+03 -0.27051821142E+03  0.28826546904E+03  0.42091076720E+03  0.25500000920E-02 0.  1.
       -2    1    3    3    0  502  0.14452954918E+03  0.27051821142E+03 -0.68355483195E+03  0.74921031866E+03  0.25500000920E-02 0. -1.
</event>
<event>
 5   0  0.1509004E-03  0.1104625E+04  0.7818609E-02  0.9200696E-01
       -1   -1    0    0    0  501  0.00000000000E+00  0.00000000000E+00  0.51516732138E+03  0.51516732140E+03  0.50400001928E-02 0.  1.
        1   -1    0    0  501    0  0.00000000000E+00  0.00000000000E+00 -0.59213603772E+03  0.59213603774E+03  0.50400001928E-02 0. -1.
    10030    2    1    2    0    0  0.00000000000E+00  0.00000000000E+00 -0.76968716346E+02  0.11073033591E+04  0.11046250703E+04 0.  0.
        3    1    3    3  502    0 -0.38129951286E+03  0.19268981069E+02  0.36159298025E+03  0.52584228216E+03  0.10100000352E+00 0.  1.
       -3    1    3    3    0  502  0.38129951286E+03 -0.19268981069E+02 -0.43856169659E+03  0.58146107699E+03  0.10100000352E+00 0. -1.
</event>
<event>
 5   0  0.9631750E-04  0.1041988E+04  0.7818609E-02  0.9263655E-01
       -3   -1    0    0    0  501  0.00000000000E+00  0.00000000000E+00  0.14317505350E+03  0.14317508913E+03  0.10100000352E+00 0. -1.
        3   -1    0    0  501    0  0.00000000000E+00  0.00000000000E+00 -0.18958230907E+04  0.18958230934E+04  0.10100000352E+00 0.  1.
    10030    2    1    2    0    0  0.00000000000E+00  0.00000000000E+00 -0.17526480372E+04  0.20389981825E+04  0.10419877379E+04 0.  0.
        5    1    3    3  502    0 -0.18873272365E+03  0.30220329119E+03 -0.13255766074E+03  0.38018481506E+03  0.46999998093E+01 0. -1.
       -5    1    3    3    0  502  0.18873272365E+03 -0.30220329119E+03 -0.16200903765E+04  0.16588133675E+04  0.46999998093E+01 0.  1.
</event>
<event>
 5   0  0.2483036E-03  0.1068289E+04  0.7818609E-02  0.9236663E-01
        2   -1    0    0  501    0  0.00000000000E+00  0.00000000000E+00  0.72817377968E+03  0.72817377968E+03  0.25500000920E-02 0.  1.
       -2   -1    0    0    0  501  0.00000000000E+00  0.00000000000E+00 -0.39181648869E+03  0.39181648870E+03  0.25500000920E-02 0. -1.
    10030    2    1    2    0    0  0.00000000000E+00  0.00000000000E+00  0.33635729099E+03  0.11199902684E+04  0.10682892745E+04 0.  0.
        3    1    3    3  502    0  0.52079578799E+03  0.11462429592E+03  0.13597562293E+03  0.55032387031E+03  0.10100000352E+00 0. -1.
       -3    1    3    3    0  502 -0.52079578799E+03 -0.11462429592E+03  0.20038166806E+03  0.56966639807E+03  0.10100000352E+00 0.  1.
</event>
<event>
 5   0  0.2483036E-03  0.1110038E+04  0.7818609E-02  0.9195463E-01
        2   -1    0    0  501    0  0.00000000000E+00  0.00000000000E+00  0.60684362884E+03  0.60684362884E+03  0.25500000920E-02 0.  1.
       -2   -1    0    0    0  501  0.00000000000E+00  0.00000000000E+00 -0.50761995416E+03  0.50761995416E+03  0.25500000920E-02 0. -1.
    10030    2    1    2    0    0  0.00000000000E+00  0.00000000000E+00  0.99223674679E+02  0.11144635830E+04  0.11100377202E+04 0.  0.
        3    1    3    3  502    0 -0.44028764678E+03 -0.33614433768E+03  0.14837091254E+02  0.55413570281E+03  0.10100000352E+00 0.  1.
       -3    1    3    3    0  502  0.44028764678E+03  0.33614433768E+03  0.84386583425E+02  0.56032788019E+03  0.10100000352E+00 0. -1.
</event>
<event>
 5   0  0.1415400E-03  0.1090372E+04  0.7818609E-02  0.9214627E-01
       -1   -1    0    0    0  501  0.00000000000E+00  0.00000000000E+00  0.64881829409E+03  0.64881829411E+03  0.50400001928E-02 0. -1.
        1   -1    0    0  501    0  0.00000000000E+00  0.00000000000E+00 -0.45810601616E+03  0.45810601619E+03  0.50400001928E-02 0.  1.
    10030    2    1    2    0    0  0.00000000000E+00  0.00000000000E+00  0.19071227793E+03  0.11069243103E+04  0.10903716136E+04 0.  0.
        2    1    3    3  502    0 -0.50834793509E+02  0.12442037803E+03 -0.44102350044E+03  0.46104916728E+03  0.25500000920E-02 0.  1.
       -2    1    3    3    0  502  0.50834793509E+02 -0.12442037803E+03  0.63173577837E+03  0.64587514302E+03  0.25500000920E-02 0. -1.
</event>
<event>
 5   0  0.1480937E-03  0.1103022E+04  0.7818609E-02  0.9202251E-01
       -1   -1    0    0    0  501  0.00000000000E+00  0.00000000000E+00  0.24041330149E+03  0.24041330154E+03  0.50400001928E-02 0.  1.
        1   -1    0    0  501    0  0.00000000000E+00  0.00000000000E+00 -0.12651729745E+04  0.12651729745E+04  0.50400001928E-02 0. -1.
    10030    2    1    2    0    0  0.00000000000E+00  0.00000000000E+00 -0.10247596730E+04  0.15055862761E+04  0.11030220520E+04 0.  0.
        1    1    3    3  502    0  0.33410727913E+03  0.38308368323E+02 -0.11090259315E+04  0.11588933177E+04  0.50400001928E-02 0. -1.
       -1    1    3    3    0  502 -0.33410727913E+03 -0.38308368323E+02  0.84266258453E+02  0.34669295838E+03  0.50400001928E-02 0.  1.
</event>
<event>
 5   0  0.2392585E-03  0.1114015E+04  0.7818609E-02  0.9191639E-01
        2   -1    0    0  501    0  0.00000000000E+00  0.00000000000E+00  0.26884200322E+04  0.26884200322E+04  0.25500000920E-02 0. -1.
       -2   -1    0    0    0  501  0.00000000000E+00  0.00000000000E+00 -0.11540510271E+03  0.11540510274E+03  0.25500000920E-02 0.  1.
    10030    2    1    2    0    0  0.00000000000E+00  0.00000000000E+00  0.25730149295E+04  0.28038251349E+04  0.11140150627E+04 0.  0.
        5    1    3    3  502    0  0.19754518756E+03  0.34964882475E+03  0.31512519597E+03  0.51049425159E+03  0.46999998093E+01 0.  1.
       -5    1    3    3    0  502 -0.19754518756E+03 -0.34964882475E+03  0.22578897335E+04  0.22933308834E+04  0.46999998093E+01 0. -1.
</event>
<event>
 5   0  0.1479573E-03  0.1109614E+04  0.7818609E-02  0.9195872E-01
       -1   -1    0    0    0  501  0.00000000000E+00  0.00000000000E+00  0.23118861115E+03  0.23118861120E+03  0.50400001928E-02 0.  1.
        1   -1    0    0  501    0  0.00000000000E+00  0.00000000000E+00 -0.13314275625E+04  0.13314275625E+04  0.50400001928E-02 0. -1.
    10030    2    1    2    0    0  0.00000000000E+00  0.00000000000E+00 -0.11002389514E+04  0.15626161737E+04  0.11096141475E+04 0.  0.
        4    1    3    3  502    0 -0.34979377843E+03 -0.32496157361E+02  0.54605559412E+02  0.35552084002E+03  0.12699999809E+01 0.  1.
       -4    1    3    3    0  502  0.34979377843E+03  0.32496157361E+02 -0.11548445108E+04  0.12070953337E+04  0.12699999809E+01 0. -1.
</event>
<event>
 5   0  0.1480937E-03  0.1110376E+04  0.7818609E-02  0.9195137E-01
        1   -1    0    0  501    0  0.00000000000E+00  0.00000000000E+00  0.16421263570E+04  0.16421263571E+04  0.50400001928E-02 0.  1.
       -1   -1    0    0    0  501  0.00000000000E+00  0.00000000000E+00 -0.18770399280E+03  0.18770399286E+03  0.50400001928E-02 0. -1.
    10030    2    1    2    0    0  0.00000000000E+00  0.00000000000E+00  0.14544223643E+04  0.18298303499E+04  0.11103759255E+04 0.  0.
        1    1    3    3  502    0  0.29261043462E+03 -0.31071856929E+03  0.13123260268E+04  0.13799878609E+04  0.50400001928E-02 0.  1.
       -1    1    3    3    0  502 -0.29261043462E+03  0.31071856929E+03  0.14209633747E+03  0.44984248898E+03  0.50400001928E-02 0. -1.
</event>
<event>
 5   0  0.2438115E-03  0.1094000E+04  0.7818609E-02  0.9211059E-01
       -2   -1    0    0    0  501  0.00000000000E+00  0.00000000000E+00  0.22497845809E+03  0.22497845811E+03  0.25500000920E-02 0.  1.
        2   -1    0    0  501    0  0.00000000000E+00  0.00000000000E+00 -0.13299455842E+04  0.13299455842E+04  0.25500000920E-02 0. -1.
    10030    2    1    2    0    0  0.00000000000E+00  0.00000000000E+00 -0.11049671261E+04  0.15549240423E+04  0.10940001954E+04 0.  0.
        4    1    3    3  502    0  0.40735676691E+03  0.35841295870E+03 -0.65103862914E+03  0.84749766610E+03  0.12699999809E+01 0. -1.
       -4    1    3    3    0  502 -0.40735676691E+03 -0.35841295870E+03 -0.45392849700E+03  0.70742637624E+03  0.12699999809E+01 0.  1.
</event>
<event>
 5   0  0.1480937E-03  0.1104455E+04  0.7818609E-02  0.9200861E-01
       -1   -1    0    0    0  501  0.00000000000E+00  0.00000000000E+00  0.40894768950E+03  0.40894768953E+03  0.50400001928E-02 0.  1.
        1   -1    0    0  501    0  0.00000000000E+00  0.00000000000E+00 -0.74570666161E+03  0.74570666163E+03  0.50400001928E-02 0. -1.
    10030    2    1    2    0    0  0.00000000000E+00  0.00000000000E+00 -0.33675897211E+03  0.11546543512E+04  0.11044546461E+04 0.  0.
        1    1    3    3  502    0 -0.93894340014E+02 -0.14739854254E+03  0.37927428937E+03  0.41760204026E+03  0.50400001928E-02 0.  1.
       -1    1    3    3    0  502  0.93894340014E+02  0.14739854254E+03 -0.71603326148E+03  0.73705231090E+03  0.50400001928E-02 0. -1.
</event>
<event>
 5   0  0.1480937E-03  0.1099565E+04  0.7818609E-02  0.9205616E-01
        1   -1    0    0  501    0  0.00000000000E+00  0.00000000000E+00  0.84576826203E+03  0.84576826204E+03  0.50400001928E-02 0. -1.
       -1   -1    0    0    0  501  0.00000000000E+00  0.00000000000E+00 -0.35738017217E+03  0.35738017220E+03  0.50400001928E-02 0.  1.
    10030    2    1    2    0    0  0.00000000000E+00  0.00000000000E+00  0.48838808986E+03  0.12031484342E+04  0.10995650179E+04 0.  0.
        1    1    3    3  502    0  0.30252330466E+03 -0.45701438684E+03  0.19677185149E+03  0.58232436082E+03  0.50400001928E-02 0.  1.
       -1    1    3    3    0  502 -0.30252330466E+03  0.45701438684E+03  0.29161623837E+03  0.62082407343E+03  0.50400001928E-02 0. -1.
</event>
<event>
 5   0  0.1480937E-03  0.1095574E+04  0.7818609E-02  0.9209516E-01
        1   -1    0    0  501    0  0.00000000000E+00  0.00000000000E+00  0.79084245730E+03  0.79084245732E+03  0.50400001928E-02 0. -1.
       -1   -1    0    0    0  501  0.00000000000E+00  0.00000000000E+00 -0.37943180515E+03  0.37943180518E+03  0.50400001928E-02 0.  1.
    10030    2    1    2    0    0  0.00000000000E+00  0.00000000000E+00  0.41141065215E+03  0.11702742625E+04  0.10955743356E+04 0.  0.
        1    1    3    3  502    0  0.35575396036E+03  0.34506826275E+03 -0.43522234242E+02  0.49752102585E+03  0.50400001928E-02 0.  1.
       -1    1    3    3    0  502 -0.35575396036E+03 -0.34506826275E+03  0.45493288640E+03  0.67275323665E+03  0.50400001928E-02 0. -1.
</event>
<event>
 5   0  0.1468556E-03  0.1113479E+04  0.7818609E-02  0.9192153E-01
        1   -1    0    0  501    0  0.00000000000E+00  0.00000000000E+00  0.71518354298E+03  0.71518354300E+03  0.50400001928E-02 0. -1.
       -1   -1    0    0    0  501  0.00000000000E+00  0.00000000000E+00 -0.43339796907E+03  0.43339796910E+03  0.50400001928E-02 0.  1.
    10030    2    1    2    0    0  0.00000000000E+00  0.00000000000E+00  0.28178557391E+03  0.11485815121E+04  0.11134794027E+04 0.  0.
        5    1    3    3  502    0 -0.85535737636E+02  0.18720017402E+03  0.67447803077E+03  0.70519711539E+03  0.46999998093E+01 0. -1.
       -5    1    3    3    0  502  0.85535737636E+02 -0.18720017402E+03 -0.39269245686E+03  0.44338439670E+03  0.46999998093E+01 0.  1.
</event>
<event>
 5   0  0.1468556E-03  0.1118937E+04  0.7818609E-02  0.9186928E-01
        1   -1    0    0  501    0  0.00000000000E+00  0.00000000000E+00  0.36143816625E+03  0.36143816628E+03  0.50400001928E-02 0. -1.
       -1   -1    0    0    0  501  0.00000000000E+00  0.00000000000E+00 -0.86599916383E+03  0.86599916384E+03  0.50400001928E-02 0.  1.
    10030    2    1    2    0    0  0.00000000000E+00  0.00000000000E+00 -0.50456099758E+03  0.12274373301E+04  0.11189372633E+04 0.  0.
        5    1    3    3  502    0  0.16746765862E+03  0.52339278644E+03 -0.36731900278E+03  0.66100738678E+03  0.46999998093E+01 0.  1.
       -5    1    3    3    0  502 -0.16746765862E+03 -0.52339278644E+03 -0.13724199480E+03  0.56642994334E+03  0.46999998093E+01 0. -1.
</event>
<event>
 5   0  0.1415400E-03  0.1089796E+04  0.7818609E-02  0.9215194E-01
        1   -1    0    0  501    0  0.00000000000E+00  0.00000000000E+00  0.58329067172E+03  0.58329067174E+03  0.50400001928E-02 0. -1.
       -1   -1    0    0    0  501  0.00000000000E+00  0.00000000000E+00 -0.50903276026E+03  0.50903276029E+03  0.50400001928E-02 0.  1.
    10030    2    1    2    0    0  0.00000000000E+00  0.00000000000E+00  0.74257911458E+02  0.10923234320E+04  0.10897964226E+04 0.  0.
        2    1    3    3  502    0 -0.16890370012E+03  0.43521437158E+03 -0.24454590062E+03  0.52701300426E+03  0.25500000920E-02 0.  1.
       -2    1    3    3    0  502  0.16890370012E+03 -0.43521437158E+03  0.31880381208E+03  0.56531042777E+03  0.25500000920E-02 0. -1.
</event>
<event>
 5   0  0.1415400E-03  0.1104163E+04  0.7818609E-02  0.9201144E-01
       -1   -1    0    0    0  501  0.00000000000E+00  0.00000000000E+00  0.16927613240E+03  0.16927613248E+03  0.50400001928E-02 0. -1.
        1   -1    0    0  501    0  0.00000000000E+00  0.00000000000E+00 -0.18005727126E+04  0.18005727126E+04  0.50400001928E-02 0.  1.
    10030    2    1    2    0    0  0.00000000000E+00  0.00000000000E+00 -0.16312965802E+04  0.19698488451E+04  0.11041630042E+04 0.  0.
        2    1    3    3  502    0 -0.23961142179E+03  0.57141670745E+02 -0.16970971178E+04  0.17148811712E+04  0.25500000920E-02 0.  1.
       -2    1    3    3    0  502  0.23961142179E+03 -0.57141670745E+02  0.65800537597E+02  0.25496767392E+03  0.25500000920E-02 0. -1.
</event>
<event>
 5   0  0.1415400E-03  0.1097623E+04  0.7818609E-02  0.9207511E-01
       -1   -1    0    0    0  501  0.00000000000E+00  0.00000000000E+00  0.45924902585E+03  0.45924902588E+03  0.50400001928E-02 0. -1.
        1   -1    0    0  501    0  0.00000000000E+00  0.00000000000E+00 -0.65584071094E+03  0.65584071096E+03  0.50400001928E-02 0.  1.
    10030    2    1    2    0    0  0.00000000000E+00  0.00000000000E+00 -0.19659168509E+03  0.11150897368E+04  0.10976232644E+04 0.  0.
        2    1    3    3  502    0  0.38829831660E+03 -0.61380348116E+01 -0.49225656617E+03  0.62700062607E+03  0.25500000920E-02 0.  1.
       -2    1    3    3    0  502 -0.38829831660E+03  0.61380348116E+01  0.29566488108E+03  0.48808911077E+03  0.25500000920E-02 0. -1.
</event>
<event>
 5   0  0.2392585E-03  0.1104012E+04  0.7818609E-02  0.9201291E-01
       -2   -1    0    0    0  501  0.00000000000E+00  0.00000000000E+00  0.18482480980E+03  0.18482480982E+03  0.25500000920E-02 0.  1.
        2   -1    0    0  501    0  0.00000000000E+00  0.00000000000E+00 -0.16486442886E+04  0.16486442886E+04  0.25500000920E-02 0. -1.
    10030    2    1    2    0    0  0.00000000000E+00  0.00000000000E+00 -0.14638194788E+04  0.18334690984E+04  0.11040115345E+04 0.  0.
        5    1    3    3  502    0  0.22836271944E+03  0.41048485175E+03 -0.25046614398E+03  0.53235582501E+03  0.46999998093E+01 0.  1.
       -5    1    3    3    0  502 -0.22836271944E+03 -0.41048485175E+03 -0.12133533348E+04  0.13011132734E+04  0.46999998093E+01 0. -1.
</event>
<event>
 5   0  0.1480937E-03  0.1102537E+04  0.7818609E-02  0.9202722E-01
       -1   -1    0    0    0  501  0.00000000000E+00  0.00000000000E+00  0.22034088143E+03  0.22034088148E+03  0.50400001928E-02 0.  1.
        1   -1    0    0  501    0  0.00000000000E+00  0.00000000000E+00 -0.13792132683E+04  0.13792132683E+04  0.50400001928E-02 0. -1.
    10030    2    1    2    0    0  0.00000000000E+00  0.00000000000E+00 -0.11588723869E+04  0.15995541498E+04  0.11025371962E+04 0.  0.
        1    1    3    3  502    0 -0.23007801330E+03 -0.42414432961E+02  0.14474420789E+03  0.27511045431E+03  0.50400001928E-02 0.  1.
       -1    1    3    3    0  502  0.23007801330E+03  0.42414432961E+02 -0.13036165947E+04  0.13244436955E+04  0.50400001928E-02 0. -1.
</event>
<event>
 5   0  0.9631750E-04  0.1097252E+04  0.7818609E-02  0.9207875E-01
        3   -1    0    0  501    0  0.00000000000E+00  0.00000000000E+00  0.44738201781E+03  0.44738202921E+03  0.10100000352E+00 0. -1.
       -3   -1    0    0    0  501  0.00000000000E+00  0.00000000000E+00 -0.67278148318E+03  0.67278149076E+03  0.10100000352E+00 0.  1.
    10030    2    1    2    0    0  0.00000000000E+00  0.00000000000E+00 -0.22539946537E+03  0.11201635200E+04  0.10972517453E+04 0.  0.
        2    1    3    3  502    0  0.37357135879E+03 -0.14910852906E+03  0.26818801293E+03  0.48343947277E+03  0.25500000920E-02 0. -1.
       -2    1    3    3    0  502 -0.37357135879E+03  0.14910852906E+03 -0.49358747830E+03  0.63672404720E+03  0.25500000920E-02 0.  1.
</event>
<event>
 5   0  0.2483036E-03  0.1059706E+04  0.7818609E-02  0.9245380E-01
        2   -1    0    0  501    0  0.00000000000E+00  0.00000000000E+00  0.68795260406E+03  0.68795260406E+03  0.25500000920E-02 0. -1.
       -2   -1    0    0    0  501  0.00000000000E+00  0.00000000000E+00 -0.40808656064E+03  0.40808656065E+03  0.25500000920E-02 0.  1.
    10030    2    1    2    0    0  0.00000000000E+00  0.00000000000E+00  0.27986604342E+03  0.10960391647E+04  0.10597060198E+04 0.  0.
        3    1    3    3  502    0  0.28986795125E+03 -0.12958048409E+03  0.57865770023E+03  0.66004490397E+03  0.10100000352E+00 0. -1.
       -3    1    3    3    0  502 -0.28986795125E+03  0.12958048409E+03 -0.29879165681E+03  0.43599426074E+03  0.10100000352E+00 0.  1.
</event>
<event>
 5   0  0.1479573E-03  0.1094124E+04  0.7818609E-02  0.9210938E-01
       -1   -1    0    0    0  501  0.00000000000E+00  0.00000000000E+00  0.25506834352E+03  0.25506834357E+03  0.50400001928E-02 0. -1.
        1   -1    0    0  501    0  0.00000000000E+00  0.00000000000E+00 -0.11733201359E+04  0.11733201359E+04  0.50400001928E-02 0.  1.
    10030    2    1    2    0    0  0.00000000000E+00  0.00000000000E+00 -0.91825179235E+03  0.14283884795E+04  0.10941239848E+04 0.  0.
        4    1    3    3  502    0  0.31298620031E+03 -0.10925497478E+03  0.10900026983E+03  0.34896945829E+03  0.12699999809E+01 0. -1.
       -4    1    3    3    0  502 -0.31298620031E+03  0.10925497478E+03 -0.10272520622E+04  0.10794190212E+04  0.12699999809E+01 0.  1.
</event>
<event>
 5   0  0.2438115E-03  0.1105062E+04  0.7818609E-02  0.9200273E-01
        2   -1    0    0  501    0  0.00000000000E+00  0.00000000000E+00  0.12463105700E+04  0.12463105700E+04  0.25500000920E-02 0. -1.
       -2   -1    0    0    0  501  0.00000000000E+00  0.00000000000E+00 -0.24495521525E+03  0.24495521526E+03  0.25500000920E-02 0.  1.
    10030    2    1    2    0    0  0.00000000000E+00  0.00000000000E+00  0.10013553548E+04  0.14912657853E+04  0.11050615801E+04 0.  0.
        4    1    3    3  502    0 -0.22678645124E+02  0.46078160219E+03  0.91100738944E+03  0.10211611442E+04  0.12699999809E+01 0. -1.
       -4    1    3    3    0  502  0.22678645124E+02 -0.46078160219E+03  0.90347965342E+02  0.47010464112E+03  0.12699999809E+01 0.  1.
</event>
<event>
 5   0  0.2467448E-03  0.1096522E+04  0.7818609E-02  0.9208589E-01
       -2   -1    0    0    0  501  0.00000000000E+00  0.00000000000E+00  0.10625589355E+04  0.10625589355E+04  0.25500000920E-02 0. -1.
        2   -1    0    0  501    0  0.00000000000E+00  0.00000000000E+00 -0.28289258878E+03  0.28289258879E+03  0.25500000920E-02 0.  1.
    10030    2    1    2    0    0  0.00000000000E+00  0.00000000000E+00  0.77966634669E+03  0.13454515243E+04  0.10965218611E+04 0.  0.
        1    1    3    3  502    0 -0.25876540722E+03 -0.48298808664E+03  0.41288739729E+03  0.68608529403E+03  0.50400001928E-02 0. -1.
       -1    1    3    3    0  502  0.25876540722E+03  0.48298808664E+03  0.36677894940E+03  0.65936623023E+03  0.50400001928E-02 0.  1.
</event>
<event>
 5   0  0.1509004E-03  0.1121729E+04  0.7818609E-02  0.9184269E-01
        1   -1    0    0  501    0  0.00000000000E+00  0.00000000000E+00  0.15697178523E+04  0.15697178523E+04  0.50400001928E-02 0. -1.
       -1   -1    0    0    0  501  0.00000000000E+00  0.00000000000E+00 -0.20039825556E+03  0.20039825562E+03  0.50400001928E-02 0.  1.
    10030    2    1    2    0    0  0.00000000000E+00  0.00000000000E+00  0.13693195968E+04  0.17701161080E+04  0.11217285222E+04 0.  0.
        3    1    3    3  502    0 -0.46640494416E+03  0.23777556874E+03  0.10022231156E+04  0.11307174610E+04  0.10100000352E+00 0. -1.
       -3    1    3    3    0  502  0.46640494416E+03 -0.23777556874E+03  0.36709648120E+03  0.63939864696E+03  0.10100000352E+00 0.  1.
</event>
<event>
 5   0  0.2483036E-03  0.1106164E+04  0.7818609E-02  0.9199204E-01
        2   -1    0    0  501    0  0.00000000000E+00  0.00000000000E+00  0.30962661570E+03  0.30962661571E+03  0.25500000920E-02 0. -1.
       -2   -1    0    0    0  501  0.00000000000E+00  0.00000000000E+00 -0.98796386287E+03  0.98796386287E+03  0.25500000920E-02 0.  1.
    10030    2    1    2    0    0  0.00000000000E+00  0.00000000000E+00 -0.67833724716E+03  0.12975904786E+04  0.11061643771E+04 0.  0.
        3    1    3    3  502    0 -0.37093565906E+03  0.13693534432E+03 -0.79281657276E+03  0.88594733474E+03  0.10100000352E+00 0.  1.
       -3    1    3    3    0  502  0.37093565906E+03 -0.13693534432E+03  0.11447932560E+03  0.41164314385E+03  0.10100000352E+00 0. -1.
</event>
<event>
 5   0  0.1479573E-03  0.1106141E+04  0.7818609E-02  0.9199227E-01
       -1   -1    0    0    0  501  0.00000000000E+00  0.00000000000E+00  0.17113020055E+03  0.17113020063E+03  0.50400001928E-02 0. -1.
        1   -1    0    0  501    0  0.00000000000E+00  0.00000000000E+00 -0.17874513537E+04  0.17874513537E+04  0.50400001928E-02 0.  1.
    10030    2    1    2    0    0  0.00000000000E+00  0.00000000000E+00 -0.16163211531E+04  0.19585815543E+04  0.11061408748E+04 0.  0.
        4    1    3    3  502    0 -0.31664162625E+03  0.43848321568E+03 -0.10127894526E+04  0.11481609374E+04  0.12699999809E+01 0.  1.
       -4    1    3    3    0  502  0.31664162625E+03 -0.43848321568E+03 -0.60353170047E+03  0.81042061689E+03  0.12699999809E+01 0. -1.
</event>
<event>
 5   0  0.2488472E-03  0.1131894E+04  0.7818609E-02  0.9174652E-01
       -2   -1    0    0    0  501  0.00000000000E+00  0.00000000000E+00  0.98032029720E+03  0.98032029721E+03  0.25500000920E-02 0.  1.
        2   -1    0    0  501    0  0.00000000000E+00  0.00000000000E+00 -0.32672570440E+03  0.32672570441E+03  0.25500000920E-02 0. -1.
    10030    2    1    2    0    0  0.00000000000E+00  0.00000000000E+00  0.65359459281E+03  0.13070460016E+04  0.11318937046E+04 0.  0.
        2    1    3    3  502    0 -0.32463110142E+03  0.99426446471E+02 -0.19606641386E+03  0.39206250639E+03  0.25500000920E-02 0. -1.
       -2    1    3    3    0  502  0.32463110142E+03 -0.99426446471E+02  0.84966100667E+03  0.91498349522E+03  0.25500000920E-02 0.  1.
</event>
<event>
 5   0  0.1479573E-03  0.1097014E+04  0.7818609E-02  0.9208107E-01
       -1   -1    0    0    0  501  0.00000000000E+00  0.00000000000E+00  0.24603091983E+03  0.24603091989E+03  0.50400001928E-02 0. -1.
        1   -1    0    0  501    0  0.00000000000E+00  0.00000000000E+00 -0.12228543712E+04  0.12228543712E+04  0.50400001928E-02 0.  1.
    10030    2    1    2    0    0  0.00000000000E+00  0.00000000000E+00 -0.97682345135E+03  0.14688852911E+04  0.10970141035E+04 0.  0.
        4    1    3    3  502    0 -0.46099127400E+03  0.29084154354E+03 -0.57047975433E+03  0.78901870773E+03  0.12699999809E+01 0.  1.
       -4    1    3    3    0  502  0.46099127400E+03 -0.29084154354E+03 -0.40634369702E+03  0.67986658335E+03  0.12699999809E+01 0. -1.
</event>
<event>
 5   0  0.1479573E-03  0.1092341E+04  0.7818609E-02  0.9212689E-01
       -1   -1    0    0    0  501  0.00000000000E+00  0.00000000000E+00  0.48366717198E+03  0.48366717201E+03  0.50400001928E-02 0. -1.
        1   -1    0    0  501    0  0.00000000000E+00  0.00000000000E+00 -0.61675094054E+03  0.61675094056E+03  0.50400001928E-02 0.  1.
    10030    2    1    2    0    0  0.00000000000E+00  0.00000000000E+00 -0.13308376856E+03  0.11004181126E+04  0.10923409417E+04 0.  0.
        4    1    3    3  502    0 -0.26961471018E+03  0.38647026914E+03 -0.34471630428E+03  0.58385126892E+03  0.12699999809E+01 0.  1.
       -4    1    3    3    0  502  0.26961471018E+03 -0.38647026914E+03  0.21163253572E+03  0.51656684365E+03  0.12699999809E+01 0. -1.
</event>
<event>
 5   0  0.1415400E-03  0.1118195E+04  0.7818609E-02  0.9187637E-01
       -1   -1    0    0    0  501  0.00000000000E+00  0.00000000000E+00  0.25190193446E+03  0.25190193451E+03  0.50400001928E-02 0. -1.
        1   -1    0    0  501    0  0.00000000000E+00  0.00000000000E+00 -0.12409198536E+04  0.12409198536E+04  0.50400001928E-02 0.  1.
    10030    2    1    2    0    0  0.00000000000E+00  0.00000000000E+00 -0.98901791909E+03  0.14928217881E+04  0.11181951738E+04 0.  0.
        2    1    3    3  502    0  0.31956524004E+03  0.30034341046E+03 -0.95748079443E+03  0.10531370179E+04  0.25500000920E-02 0.  1.
       -2    1    3    3    0  502 -0.31956524004E+03 -0.30034341046E+03 -0.31537124660E+02  0.43968477013E+03  0.25500000920E-02 0. -1.
</event>
<event>
 5   0  0.2488472E-03  0.1102351E+04  0.7818609E-02  0.9202904E-01
       -2   -1    0    0    0  501  0.00000000000E+00  0.00000000000E+00  0.52450016167E+03  0.52450016168E+03  0.25500000920E-02 0. -1.
        2   -1    0    0  501    0  0.00000000000E+00  0.00000000000E+00 -0.57920724132E+03  0.57920724133E+03  0.25500000920E-02 0.  1.
    10030    2    1    2    0    0  0.00000000000E+00  0.00000000000E+00 -0.54707079651E+02  0.11037074030E+04  0.11023507459E+04 0.  0.
        2    1    3    3  502    0  0.16366087685E+03 -0.10463731201E+03 -0.54379881605E+03  0.57745216427E+03  0.25500000920E-02 0.  1.
       -2    1    3    3    0  502 -0.16366087685E+03  0.10463731201E+03  0.48909173640E+03  0.52625523874E+03  0.25500000920E-02 0. -1.
</event>
<event>
 5   0  0.2467448E-03  0.1069264E+04  0.7818609E-02  0.9235678E-01
        2   -1    0    0  501    0  0.00000000000E+00  0.00000000000E+00  0.10855565827E+04  0.10855565827E+04  0.25500000920E-02 0.  1.
       -2   -1    0    0    0  501  0.00000000000E+00  0.00000000000E+00 -0.26330397066E+03  0.26330397068E+03  0.25500000920E-02 0. -1.
    10030    2    1    2    0    0  0.00000000000E+00  0.00000000000E+00  0.82225261201E+03  0.13488605534E+04  0.10692639685E+04 0.  0.
        1    1    3    3  502    0  0.53268307285E+03 -0.44080586811E+02  0.42589184484E+03  0.68343120924E+03  0.50400001928E-02 0.  1.
       -1    1    3    3    0  502 -0.53268307285E+03  0.44080586811E+02  0.39636076717E+03  0.66542934412E+03  0.50400001928E-02 0. -1.
</event>
<event>
 5   0  0.2392585E-03  0.1106327E+04  0.7818609E-02  0.9199047E-01
        2   -1    0    0  501    0  0.00000000000E+00  0.00000000000E+00  0.15807772310E+04  0.15807772310E+04  0.25500000920E-02 0.  1.
       -2   -1    0    0    0  501  0.00000000000E+00  0.00000000000E+00 -0.19356924940E+03  0.19356924942E+03  0.25500000920E-02 0. -1.
    10030    2    1    2    0    0  0.00000000000E+00  0.00000000000E+00  0.13872079816E+04  0.17743464804E+04  0.11063270079E+04 0.  0.
        5    1    3    3  502    0  0.38665364727E+03  0.37837495021E+03  0.87855915771E+03  0.10317736813E+04  0.46999998093E+01 0. -1.
       -5    1    3    3    0  502 -0.38665364727E+03 -0.37837495021E+03  0.50864882386E+03  0.74257279906E+03  0.46999998093E+01 0.  1.
</event>
<event>
 5   0  0.2467448E-03  0.1103676E+04  0.7818609E-02  0.9201617E-01
        2   -1    0    0  501    0  0.00000000000E+00  0.00000000000E+00  0.18370133750E+04  0.18370133750E+04  0.25500000920E-02 0.  1.
       -2   -1    0    0    0  501  0.00000000000E+00  0.00000000000E+00 -0.16577174488E+03  0.16577174490E+03  0.25500000920E-02 0. -1.
    10030    2    1    2    0    0  0.00000000000E+00  0.00000000000E+00  0.16712416301E+04  0.20027851199E+04  0.11036755186E+04 0.  0.
        1    1    3    3  502    0  0.54147334273E+03  0.10562254130E+03  0.81158711424E+03  0.98133742726E+03  0.50400001928E-02 0.  1.
       -1    1    3    3    0  502 -0.54147334273E+03 -0.10562254130E+03  0.85965451589E+03  0.10214476927E+04  0.50400001928E-02 0. -1.
</event>
<event>
 5   0  0.1480937E-03  0.1177629E+04  0.7818609E-02  0.9132666E-01
       -1   -1    0    0    0  501  0.00000000000E+00  0.00000000000E+00  0.36106201750E+03  0.36106201754E+03  0.50400001928E-02 0. -1.
        1   -1    0    0  501    0  0.00000000000E+00  0.00000000000E+00 -0.96023007549E+03  0.96023007551E+03  0.50400001928E-02 0.  1.
    10030    2    1    2    0    0  0.00000000000E+00  0.00000000000E+00 -0.59916805799E+03  0.13212920930E+04  0.11776291579E+04 0.  0.
        1    1    3    3  502    0 -0.48981628493E+02 -0.55884929256E+03 -0.50026368885E+03  0.75164851502E+03  0.50400001928E-02 0.  1.
       -1    1    3    3    0  502  0.48981628493E+02  0.55884929256E+03 -0.98904369140E+02  0.56964357803E+03  0.50400001928E-02 0. -1.
</event>
<event>
 5   0  0.2392585E-03  0.1098346E+04  0.7818609E-02  0.9206806E-01
        2   -1    0    0  501    0  0.00000000000E+00  0.00000000000E+00  0.75796695189E+03  0.75796695190E+03  0.25500000920E-02 0. -1.
       -2   -1    0    0    0  501  0.00000000000E+00  0.00000000000E+00 -0.39789439963E+03  0.39789439964E+03  0.25500000920E-02 0.  1.
    10030    2    1    2    0    0  0.00000000000E+00  0.00000000000E+00  0.36007255226E+03  0.11558613515E+04  0.10983456747E+04 0.  0.
        5    1    3    3  502    0 -0.30449879487E+03  0.37250870437E+03 -0.98565431673E+02  0.49114100340E+03  0.46999998093E+01 0.  1.
       -5    1    3    3    0  502  0.30449879487E+03 -0.37250870437E+03  0.45863798394E+03  0.66472034813E+03  0.46999998093E+01 0. -1.
</event>
<event>
 5   0  0.9631750E-04  0.1108619E+04  0.7818609E-02  0.9196832E-01
       -3   -1    0    0    0  501  0.00000000000E+00  0.00000000000E+00  0.17921244368E+03  0.17921247215E+03  0.10100000352E+00 0. -1.
        3   -1    0    0  501    0  0.00000000000E+00  0.00000000000E+00 -0.17144954347E+04  0.17144954377E+04  0.10100000352E+00 0.  1.
    10030    2    1    2    0    0  0.00000000000E+00  0.00000000000E+00 -0.15352829910E+04  0.18937079098E+04  0.11086188638E+04 0.  0.
        4    1    3    3  502    0  0.34449879480E+03  0.33770437187E+03 -0.12339861308E+04  0.13249328460E+04  0.12699999809E+01 0.  1.
       -4    1    3    3    0  502 -0.34449879480E+03 -0.33770437187E+03 -0.30129686021E+03  0.56877506385E+03  0.12699999809E+01 0. -1.
</event>
<event>
 5   0  0.2438115E-03  0.1096981E+04  0.7818609E-02  0.9208140E-01
        2   -1    0    0  501    0  0.00000000000E+00  0.00000000000E+00  0.38141549024E+03  0.38141549025E+03  0.25500000920E-02 0. -1.
       -2   -1    0    0    0  501  0.00000000000E+00  0.00000000000E+00 -0.78875051830E+03  0.78875051830E+03  0.25500000920E-02 0.  1.
    10030    2    1    2    0    0  0.00000000000E+00  0.00000000000E+00 -0.40733502806E+03  0.11701660085E+04  0.10969807029E+04 0.  0.
        4    1    3    3  502    0 -0.62792302872E+02 -0.54313962517E+03 -0.25012203690E+03  0.60125383323E+03  0.12699999809E+01 0.  1.
       -4    1    3    3    0  502  0.62792302872E+02  0.54313962517E+03 -0.15721299116E+03  0.56891217532E+03  0.12699999809E+01 0. -1.
</event>
<event>
 5   0  0.2438115E-03  0.1101169E+04  0.7818609E-02  0.9204053E-01
        2   -1    0    0  501    0  0.00000000000E+00  0.00000000000E+00  0.62676529035E+03  0.62676529035E+03  0.25500000920E-02 0. -1.
       -2   -1    0    0    0  501  0.00000000000E+00  0.00000000000E+00 -0.48366343401E+03  0.48366343402E+03  0.25500000920E-02 0.  1.
    10030    2    1    2    0    0  0.00000000000E+00  0.00000000000E+00  0.14310185634E+03  0.11104287244E+04  0.11011692924E+04 0.  0.
        4    1    3    3  502    0  0.37392696821E+03  0.26154337137E+03 -0.23912329954E+03  0.51517752081E+03  0.12699999809E+01 0.  1.
       -4    1    3    3    0  502 -0.37392696821E+03 -0.26154337137E+03  0.38222515587E+03  0.59525120356E+03  0.12699999809E+01 0. -1.
</event>
<event>
 5   0  0.9631750E-04  0.1098409E+04  0.7818609E-02  0.9206744E-01
        4   -1    0    0  501    0  0.00000000000E+00  0.00000000000E+00  0.92791289273E+03  0.92791376183E+03  0.12699999809E+01 0. -1.
       -4   -1    0    0    0  501  0.00000000000E+00  0.00000000000E+00 -0.32505600271E+03  0.32505848365E+03  0.12699999809E+01 0.  1.
    10030    2    1    2    0    0  0.00000000000E+00  0.00000000000E+00  0.60285689002E+03  0.12529722455E+04  0.10984093126E+04 0.  0.
        5    1    3    3  502    0 -0.22454476882E+02  0.33805106242E+03  0.79447737590E+03  0.86371240304E+03  0.46999998093E+01 0. -1.
       -5    1    3    3    0  502  0.22454476882E+02 -0.33805106242E+03 -0.19162048588E+03  0.38925984245E+03  0.46999998093E+01 0.  1.
</event>
<event>
 5   0  0.1480937E-03  0.1098882E+04  0.7818609E-02  0.9206283E-01
        1   -1    0    0  501    0  0.00000000000E+00  0.00000000000E+00  0.72709680128E+03  0.72709680130E+03  0.50400001928E-02 0.  1.
       -1   -1    0    0    0  501  0.00000000000E+00  0.00000000000E+00 -0.41519256615E+03  0.41519256618E+03  0.50400001928E-02 0. -1.
    10030    2    1    2    0    0  0.00000000000E+00  0.00000000000E+00  0.31190423513E+03  0.11422893675E+04  0.10988815892E+04 0.  0.
        1    1    3    3  502    0  0.26778892906E+03  0.24995265221E+03  0.58163786657E+03  0.68737896879E+03  0.50400001928E-02 0.  1.
       -1    1    3    3    0  502 -0.26778892906E+03 -0.24995265221E+03 -0.26973363145E+03  0.45491039869E+03  0.50400001928E-02 0. -1.
</event>
<event>
 5   0  0.1468556E-03  0.1103002E+04  0.7818609E-02  0.9202271E-01
       -1   -1    0    0    0  501  0.00000000000E+00  0.00000000000E+00  0.20230384735E+03  0.20230384741E+03  0.50400001928E-02 0. -1.
        1   -1    0    0  501    0  0.00000000000E+00  0.00000000000E+00 -0.15034487324E+04  0.15034487324E+04  0.50400001928E-02 0.  1.
    10030    2    1    2    0    0  0.00000000000E+00  0.00000000000E+00 -0.13011448851E+04  0.17057525798E+04  0.11030021993E+04 0.  0.
        5    1    3    3  502    0 -0.17400224241E+03  0.23891371554E+03 -0.13705916544E+04  0.14021056013E+04  0.46999998093E+01 0.  1.
       -5    1    3    3    0  502  0.17400224241E+03 -0.23891371554E+03  0.69446769371E+02  0.30364697859E+03  0.46999998093E+01 0. -1.
</event>
<event>
 5   0  0.2438115E-03  0.1100687E+04  0.7818609E-02  0.9204523E-01
        2   -1    0    0  501    0  0.00000000000E+00  0.00000000000E+00  0.11587229350E+04  0.11587229350E+04  0.25500000920E-02 0.  1.
       -2   -1    0    0    0  501  0.00000000000E+00  0.00000000000E+00 -0.26138945789E+03  0.26138945790E+03  0.25500000920E-02 0. -1.
    10030    2    1    2    0    0  0.00000000000E+00  0.00000000000E+00  0.89733347707E+03  0.14201123929E+04  0.11006869852E+04 0.  0.
        4    1    3    3  502    0 -0.66766461061E+02 -0.20952626939E+03 -0.20223819698E+03  0.29876565918E+03  0.12699999809E+01 0. -1.
       -4    1    3    3    0  502  0.66766461061E+02  0.20952626939E+03  0.10995716741E+04  0.11213467337E+04  0.12699999809E+01 0.  1.
</event>
<event>
 5   0  0.2392585E-03  0.1132122E+04  0.7818609E-02  0.9174437E-01
        2   -1    0    0  501    0  0.00000000000E+00  0.00000000000E+00  0.30909405949E+03  0.30909405950E+03  0.25500000920E-02 0. -1.
       -2   -1    0    0    0  501  0.00000000000E+00  0.00000000000E+00 -0.10366590168E+04  0.10366590169E+04  0.25500000920E-02 0.  1.
    10030    2    1    2    0    0  0.00000000000E+00  0.00000000000E+00 -0.72756495736E+03  0.13457530764E+04  0.11321221557E+04 0.  0.
        5    1    3    3  502    0 -0.69843341500E+02 -0.15006913360E+03  0.27965896010E+03  0.32500778633E+03  0.46999998093E+01 0. -1.
       -5    1    3    3    0  502  0.69843341500E+02  0.15006913360E+03 -0.10072239175E+04  0.10207452900E+04  0.46999998093E+01 0.  1.
</event>
<event>
 5   0  0.2467448E-03  0.1099713E+04  0.7818609E-02  0.9205471E-01
       -2   -1    0    0    0  501  0.00000000000E+00  0.00000000000E+00  0.11575312616E+04  0.11575312616E+04  0.25500000920E-02 0.  1.
        2   -1    0    0  501    0  0.00000000000E+00  0.00000000000E+00 -0.26119591254E+03  0.26119591255E+03  0.25500000920E-02 0. -1.
    10030    2    1    2    0    0  0.00000000000E+00  0.00000000000E+00  0.89633534905E+03  0.14187271742E+04  0.10997134794E+04 0.  0.
        1    1    3    3  502    0  0.27288360707E+03  0.13043461888E+03  0.10405748825E+04  0.10836395798E+04  0.50400001928E-02 0.  1.
       -1    1    3    3    0  502 -0.27288360707E+03 -0.13043461888E+03 -0.14423953349E+03  0.33508759431E+03  0.50400001928E-02 0. -1.
</event>
<event>
 5   0  0.2467448E-03  0.1098029E+04  0.7818609E-02  0.9207115E-01
       -2   -1    0    0    0  501  0.00000000000E+00  0.00000000000E+00  0.54373240392E+03  0.54373240393E+03  0.25500000920E-02 0. -1.
        2   -1    0    0  501    0  0.00000000000E+00  0.00000000000E+00 -0.55434833924E+03  0.55434833925E+03  0.25500000920E-02 0.  1.
    10030    2    1    2    0    0  0.00000000000E+00  0.00000000000E+00 -0.10615935322E+02  0.10980807432E+04  0.10980294260E+04 0.  0.
        1    1    3    3  502    0  0.41506772397E+03 -0.14322230926E+03 -0.33490387652E+03  0.55222681199E+03  0.50400001928E-02 0.  1.
       -1    1    3    3    0  502 -0.41506772397E+03  0.14322230926E+03  0.32428794120E+03  0.54585393118E+03  0.50400001928E-02 0. -1.
</event>
<event>
 5   0  0.1468556E-03  0.1106133E+04  0.7818609E-02  0.9199235E-01
        1   -1    0    0  501    0  0.00000000000E+00  0.00000000000E+00  0.10234407204E+04  0.10234407204E+04  0.50400001928E-02 0.  1.
       -1   -1    0    0    0  501  0.00000000000E+00  0.00000000000E+00 -0.29887657693E+03  0.29887657698E+03  0.50400001928E-02 0. -1.
    10030    2    1    2    0    0  0.00000000000E+00  0.00000000000E+00  0.72456414344E+03  0.13223172974E+04  0.11061328297E+04 0.  0.
        5    1    3    3  502    0 -0.21147847017E+02  0.21141870471E+03 -0.24811385976E+03  0.32669202245E+03  0.46999998093E+01 0. -1.
       -5    1    3    3    0  502  0.21147847017E+02 -0.21141870471E+03  0.97267800320E+03  0.99562527491E+03  0.46999998093E+01 0.  1.
</event>
<event>
 5   0  0.1468556E-03  0.1096446E+04  0.7818609E-02  0.9208663E-01
        1   -1    0    0  501    0  0.00000000000E+00  0.00000000000E+00  0.54542584289E+03  0.54542584292E+03  0.50400001928E-02 0. -1.
       -1   -1    0    0    0  501  0.00000000000E+00  0.00000000000E+00 -0.55103476285E+03  0.55103476287E+03  0.50400001928E-02 0.  1.
    10030    2    1    2    0    0  0.00000000000E+00  0.00000000000E+00 -0.56089199509E+01  0.10964606058E+04  0.10964462595E+04 0.  0.
        5    1    3    3  502    0  0.10618195450E+02 -0.25315993697E+03 -0.48894229492E+03  0.55071713022E+03  0.46999998093E+01 0.  1.
       -5    1    3    3    0  502 -0.10618195450E+02  0.25315993697E+03  0.48333337497E+03  0.54574347556E+03  0.46999998093E+01 0. -1.
</event>
<event>
 5   0  0.2438115E-03  0.1112577E+04  0.7818609E-02  0.9193020E-01
       -2   -1    0    0    0  501  0.00000000000E+00  0.00000000000E+00  0.16191489292E+03  0.16191489294E+03  0.25500000920E-02 0. -1.
        2   -1    0    0  501    0  0.00000000000E+00  0.00000000000E+00 -0.19112303463E+04  0.19112303463E+04  0.25500000920E-02 0.  1.
    10030    2    1    2    0    0  0.00000000000E+00  0.00000000000E+00 -0.17493154534E+04  0.20731452393E+04  0.11125765715E+04 0.  0.
        4    1    3    3  502    0 -0.31133001471E+03 -0.25897128541E+03 -0.15853398653E+04  0.16362446658E+04  0.12699999809E+01 0.  1.
       -4    1    3    3    0  502  0.31133001471E+03  0.25897128541E+03 -0.16397558805E+03  0.43690057348E+03  0.12699999809E+01 0. -1.
</event>
<event>
 5   0  0.1479573E-03  0.1095278E+04  0.7818609E-02  0.9209807E-01
        1   -1    0    0  501    0  0.00000000000E+00  0.00000000000E+00  0.14841069613E+04  0.14841069613E+04  0.50400001928E-02 0. -1.
       -1   -1    0    0    0  501  0.00000000000E+00  0.00000000000E+00 -0.20208002005E+03  0.20208002012E+03  0.50400001928E-02 0.  1.
    10030    2    1    2    0    0  0.00000000000E+00  0.00000000000E+00  0.12820269413E+04  0.16861869814E+04  0.10952777996E+04 0.  0.
        4    1    3    3  502    0 -0.37366326761E+02  0.43785288083E+03  0.11441173281E+04  0.12256090163E+04  0.12699999809E+01 0. -1.
       -4    1    3    3    0  502  0.37366326761E+02 -0.43785288083E+03  0.13790961319E+03  0.46057796510E+03  0.12699999809E+01 0.  1.
</event>
<event>
 5   0  0.2438115E-03  0.1095625E+04  0.7818609E-02  0.9209466E-01
        2   -1    0    0  501    0  0.00000000000E+00  0.00000000000E+00  0.61734073217E+03  0.61734073217E+03  0.25500000920E-02 0. -1.
       -2   -1    0    0    0  501  0.00000000000E+00  0.00000000000E+00 -0.48611524027E+03  0.48611524027E+03  0.25500000920E-02 0.  1.
    10030    2    1    2    0    0  0.00000000000E+00  0.00000000000E+00  0.13122549190E+03  0.11034559724E+04  0.10956253709E+04 0.  0.
        4    1    3    3  502    0  0.49319892603E+03 -0.23785579149E+03  0.48863574965E+02  0.54973613675E+03  0.12699999809E+01 0.  1.
       -4    1    3    3    0  502 -0.49319892603E+03  0.23785579149E+03  0.82361916937E+02  0.55371983570E+03  0.12699999809E+01 0. -1.
</event>
<event>
 5   0  0.1509004E-03  0.1099870E+04  0.7818609E-02  0.9205319E-01
        1   -1    0    0  501    0  0.00000000000E+00  0.00000000000E+00  0.97190360636E+03  0.97190360637E+03  0.50400001928E-02 0. -1.
       -1   -1    0    0    0  501  0.00000000000E+00  0.00000000000E+00 -0.31117110800E+03  0.31117110804E+03  0.50400001928E-02 0.  1.
    10030    2    1    2    0    0  0.00000000000E+00  0.00000000000E+00  0.66073249836E+03  0.12830747144E+04  0.10998696688E+04 0.  0.
        3    1    3    3  502    0 -0.21283580251E+03 -0.67372389258E+02 -0.25593249533E+03  0.33961679881E+03  0.10100000352E+00 0.  1.
       -3    1    3    3    0  502  0.21283580251E+03  0.67372389258E+02  0.91666499369E+03  0.94345791561E+03  0.10100000352E+00 0. -1.
</event>
<event>
 5   0  0.1479573E-03  0.1096103E+04  0.7818609E-02  0.9208999E-01
        1   -1    0    0  501    0  0.00000000000E+00  0.00000000000E+00  0.14986952036E+04  0.14986952036E+04  0.50400001928E-02 0. -1.
       -1   -1    0    0    0  501  0.00000000000E+00  0.00000000000E+00 -0.20041458276E+03  0.20041458282E+03  0.50400001928E-02 0.  1.
    10030    2    1    2    0    0  0.00000000000E+00  0.00000000000E+00  0.12982806208E+04  0.16991097864E+04  0.10961028674E+04 0.  0.
        4    1    3    3  502    0 -0.32108672957E+02  0.54096498284E+03  0.52240124854E+03  0.75271425981E+03  0.12699999809E+01 0.  1.
       -4    1    3    3    0  502  0.32108672957E+02 -0.54096498284E+03  0.77587937230E+03  0.94639552661E+03  0.12699999809E+01 0. -1.
</event>
<event>
 5   0  0.1415400E-03  0.1092513E+04  0.7818609E-02  0.9212520E-01
       -1   -1    0    0    0  501  0.00000000000E+00  0.00000000000E+00  0.67089850641E+03  0.67089850643E+03  0.50400001928E-02 0.  1.
        1   -1    0    0  501    0  0.00000000000E+00  0.00000000000E+00 -0.44477122103E+03  0.44477122106E+03  0.50400001928E-02 0. -1.
    10030    2    1    2    0    0  0.00000000000E+00  0.00000000000E+00  0.22612728538E+03  0.11156697275E+04  0.10925133371E+04 0.  0.
        2    1    3    3  502    0  0.23498353717E+02  0.28372120718E+03  0.58914938895E+03  0.65432935020E+03  0.25500000920E-02 0.  1.
       -2    1    3    3    0  502 -0.23498353717E+02 -0.28372120718E+03 -0.36302210357E+03  0.46134037729E+03  0.25500000920E-02 0. -1.
</event>
<event>
 5   0  0.2467448E-03  0.1109821E+04  0.7818609E-02  0.9195672E-01
       -2   -1    0    0    0  501  0.00000000000E+00  0.00000000000E+00  0.99345379101E+03  0.99345379101E+03  0.25500000920E-02 0.  1.
        2   -1    0    0  501    0  0.00000000000E+00  0.00000000000E+00 -0.30995470841E+03  0.30995470842E+03  0.25500000920E-02 0. -1.
    10030    2    1    2    0    0  0.00000000000E+00  0.00000000000E+00  0.68349908260E+03  0.13034084994E+04  0.11098210308E+04 0.  0.
        1    1    3    3  502    0 -0.30207771446E+03 -0.18041048678E+03 -0.16219888135E+03  0.38743691932E+03  0.50400001928E-02 0. -1.
       -1    1    3    3    0  502  0.30207771446E+03  0.18041048678E+03  0.84569796395E+03  0.91597158011E+03  0.50400001928E-02 0.  1.
</event>
<event>
 5   0  0.1480937E-03  0.1098177E+04  0.7818609E-02  0.9206971E-01
        1   -1    0    0  501    0  0.00000000000E+00  0.00000000000E+00  0.25884001618E+04  0.25884001618E+04  0.50400001928E-02 0.  1.
       -1   -1    0    0    0  501  0.00000000000E+00  0.00000000000E+00 -0.11648044918E+03  0.11648044929E+03  0.50400001928E-02 0. -1.
    10030    2    1    2    0    0  0.00000000000E+00  0.00000000000E+00  0.24719197126E+04  0.27048806111E+04  0.10981766956E+04 0.  0.
        1    1    3    3  502    0  0.14411377570E+03  0.44455392275E+03  0.52592590601E+03  0.70355883138E+03  0.50400001928E-02 0. -1.
       -1    1    3    3    0  502 -0.14411377570E+03 -0.44455392275E+03  0.19459938066E+04  0.20013217797E+04  0.50400001928E-02 0.  1.
</event>
<event>
 5   0  0.2467448E-03  0.1097700E+04  0.7818609E-02  0.9207436E-01
        2   -1    0    0  501    0  0.00000000000E+00  0.00000000000E+00  0.10004985179E+04  0.10004985179E+04  0.25500000920E-02 0. -1.
       -2   -1    0    0    0  501  0.00000000000E+00  0.00000000000E+00 -0.30108634353E+03  0.30108634354E+03  0.25500000920E-02 0.  1.
    10030    2    1    2    0    0  0.00000000000E+00  0.00000000000E+00  0.69941217437E+03  0.13015848614E+04  0.10977002149E+04 0.  0.
        1    1    3    3  502    0  0.15705051625E+03  0.48862629606E+03  0.11912373418E+03  0.52688802029E+03  0.50400001928E-02 0.  1.
       -1    1    3    3    0  502 -0.15705051625E+03 -0.48862629606E+03  0.58028844019E+03  0.77469684115E+03  0.50400001928E-02 0. -1.
</event>
<event>
 5   0  0.2488472E-03  0.1105100E+04  0.7818609E-02  0.9200236E-01
       -2   -1    0    0    0  501  0.00000000000E+00  0.00000000000E+00  0.59048354334E+03  0.59048354335E+03  0.25500000920E-02 0.  1.
        2   -1    0    0  501    0  0.00000000000E+00  0.00000000000E+00 -0.51705293844E+03  0.51705293844E+03  0.25500000920E-02 0. -1.
    10030    2    1    2    0    0  0.00000000000E+00  0.00000000000E+00  0.73430604906E+02  0.11075364818E+04  0.11050995452E+04 0.  0.
        2    1    3    3  502    0 -0.25226556015E+03  0.48541633858E+03 -0.41201342188E+02  0.54860230150E+03  0.25500000920E-02 0.  1.
       -2    1    3    3    0  502  0.25226556015E+03 -0.48541633858E+03  0.11463194709E+03  0.55893418030E+03  0.25500000920E-02 0. -1.
</event>
<event>
 5   0  0.2438115E-03  0.1091945E+04  0.7818609E-02  0.9213078E-01
       -2   -1    0    0    0  501  0.00000000000E+00  0.00000000000E+00  0.89574577391E+03  0.89574577391E+03  0.25500000920E-02 0.  1.
        2   -1    0    0  501    0  0.00000000000E+00  0.00000000000E+00 -0.33277981322E+03  0.33277981323E+03  0.25500000920E-02 0. -1.
    10030    2    1    2    0    0  0.00000000000E+00  0.00000000000E+00  0.56296596069E+03  0.12285255871E+04  0.10919452575E+04 0.  0.
        4    1    3    3  502    0 -0.67547603288E+02  0.17056632847E+03 -0.29706294312E+03  0.34914689773E+03  0.12699999809E+01 0. -1.
       -4    1    3    3    0  502  0.67547603288E+02 -0.17056632847E+03  0.86002890380E+03  0.87937868941E+03  0.12699999809E+01 0.  1.
</event>
<event>
 5   0  0.1415400E-03  0.1108987E+04  0.7818609E-02  0.9196477E-01
       -1   -1    0    0    0  501  0.00000000000E+00  0.00000000000E+00  0.34489075791E+03  0.34489075794E+03  0.50400001928E-02 0.  1.
        1   -1    0    0  501    0  0.00000000000E+00  0.00000000000E+00 -0.89147876204E+03  0.89147876206E+03  0.50400001928E-02 0. -1.
    10030    2    1    2    0    0  0.00000000000E+00  0.00000000000E+00 -0.54658800413E+03  0.12363695200E+04  0.11089865390E+04 0.  0.
        2    1    3    3  502    0  0.53498232575E+03 -0.43813630356E+02 -0.11826345853E+03  0.54964713108E+03  0.25500000920E-02 0.  1.
       -2    1    3    3    0  502 -0.53498232575E+03  0.43813630356E+02 -0.42832454561E+03  0.68672238892E+03  0.25500000920E-02 0. -1.
</event>
<event>
 5   0  0.1480937E-03  0.1076868E+04  0.7818609E-02  0.9228036E-01
       -1   -1    0    0    0  501  0.00000000000E+00  0.00000000000E+00  0.19888567622E+03  0.19888567628E+03  0.50400001928E-02 0. -1.
        1   -1    0    0  501    0  0.00000000000E+00  0.00000000000E+00 -0.14576764691E+04  0.14576764691E+04  0.50400001928E-02 0.  1.
    10030    2    1    2    0    0  0.00000000000E+00  0.00000000000E+00 -0.12587907929E+04  0.16565621454E+04  0.10768676248E+04 0.  0.
        1    1    3    3  502    0  0.20654704682E+03 -0.31344960331E+03 -0.35600369731E+02  0.37706726550E+03  0.50400001928E-02 0. -1.
       -1    1    3    3    0  502 -0.20654704682E+03  0.31344960331E+03 -0.12231904231E+04  0.12794948799E+04  0.50400001928E-02 0.  1.
</event>
<event>
 5   0  0.2438115E-03  0.1094677E+04  0.7818609E-02  0.9210396E-01
        2   -1    0    0  501    0  0.00000000000E+00  0.00000000000E+00  0.14329798901E+04  0.14329798901E+04  0.25500000920E-02 0. -1.
       -2   -1    0    0    0  501  0.00000000000E+00  0.00000000000E+00 -0.20906036094E+03  0.20906036096E+03  0.25500000920E-02 0.  1.
    10030    2    1    2    0    0  0.00000000000E+00  0.00000000000E+00  0.12239195292E+04  0.16420402511E+04  0.10946767433E+04 0.  0.
        4    1    3    3  502    0  0.22526626893E+03  0.36334782562E+03  0.11246322965E+04  0.12031483489E+04  0.12699999809E+01 0. -1.
       -4    1    3    3    0  502 -0.22526626893E+03 -0.36334782562E+03  0.99287232671E+02  0.43889190215E+03  0.12699999809E+01 0.  1.
</event>
<event>
 5   0  0.2392585E-03  0.1101035E+04  0.7818609E-02  0.9204184E-01
        2   -1    0    0  501    0  0.00000000000E+00  0.00000000000E+00  0.16215493915E+04  0.16215493915E+04  0.25500000920E-02 0. -1.
       -2   -1    0    0    0  501  0.00000000000E+00  0.00000000000E+00 -0.18690109019E+03  0.18690109021E+03  0.25500000920E-02 0.  1.
    10030    2    1    2    0    0  0.00000000000E+00  0.00000000000E+00  0.14346483014E+04  0.18084504818E+04  0.11010346935E+04 0.  0.
        5    1    3    3  502    0  0.43120163423E+03 -0.21399011158E+03  0.11559692073E+04  0.12522034641E+04  0.46999998093E+01 0.  1.
       -5    1    3    3    0  502 -0.43120163423E+03  0.21399011158E+03  0.27867909405E+03  0.55624701768E+03  0.46999998093E+01 0. -1.
</event>
<event>
 5   0  0.9631750E-04  0.1105352E+04  0.7818609E-02  0.9199991E-01
        4   -1    0    0  501    0  0.00000000000E+00  0.00000000000E+00  0.32680511153E+03  0.32680757920E+03  0.12699999809E+01 0.  1.
       -4   -1    0    0    0  501  0.00000000000E+00  0.00000000000E+00 -0.93465038959E+03  0.93465125242E+03  0.12699999809E+01 0. -1.
    10030    2    1    2    0    0  0.00000000000E+00  0.00000000000E+00 -0.60784527806E+03  0.12614588316E+04  0.11053517548E+04 0.  0.
        3    1    3    3  502    0  0.16933743872E+02  0.96640577967E+02  0.31678861343E+03  0.33163411886E+03  0.10100000352E+00 0.  1.
       -3    1    3    3    0  502 -0.16933743872E+02 -0.96640577967E+02 -0.92463389148E+03  0.92982471277E+03  0.10100000352E+00 0. -1.
</event>
<event>
 5   0  0.9631750E-04  0.1099839E+04  0.7818609E-02  0.9205349E-01
       -3   -1    0    0    0  501  0.00000000000E+00  0.00000000000E+00  0.21535915136E+03  0.21535917505E+03  0.10100000352E+00 0.  1.
        3   -1    0    0  501    0  0.00000000000E+00  0.00000000000E+00 -0.14042180016E+04  0.14042180053E+04  0.10100000352E+00 0. -1.
    10030    2    1    2    0    0  0.00000000000E+00  0.00000000000E+00 -0.11888588503E+04  0.16195771803E+04  0.10998385687E+04 0.  0.
        1    1    3    3  502    0  0.17078970721E+03 -0.52039131810E+03 -0.52176537188E+03  0.75644917302E+03  0.50400001928E-02 0.  1.
       -1    1    3    3    0  502 -0.17078970721E+03  0.52039131810E+03 -0.66709347838E+03  0.86312800729E+03  0.50400001928E-02 0. -1.
</event>
<event>
 5   0  0.1509004E-03  0.1094040E+04  0.7818609E-02  0.9211020E-01
        1   -1    0    0  501    0  0.00000000000E+00  0.00000000000E+00  0.20485190811E+04  0.20485190811E+04  0.50400001928E-02 0. -1.
       -1   -1    0    0    0  501  0.00000000000E+00  0.00000000000E+00 -0.14607181952E+03  0.14607181961E+03  0.50400001928E-02 0.  1.
    10030    2    1    2    0    0  0.00000000000E+00  0.00000000000E+00  0.19024472616E+04  0.21945909007E+04  0.10940400534E+04 0.  0.
        3    1    3    3  502    0 -0.47367394794E+03  0.18847127441E+03  0.55334450167E+03  0.75238193623E+03  0.10100000352E+00 0.  1.
       -3    1    3    3    0  502  0.47367394794E+03 -0.18847127441E+03  0.13491027599E+04  0.14422089645E+04  0.10100000352E+00 0. -1.
</event>
<event>
 5   0  0.2488472E-03  0.1096756E+04  0.7818609E-02  0.9208360E-01
       -2   -1    0    0    0  501  0.00000000000E+00  0.00000000000E+00  0.46757674312E+03  0.46757674313E+03  0.25500000920E-02 0. -1.
        2   -1    0    0  501    0  0.00000000000E+00  0.00000000000E+00 -0.64314198082E+03  0.64314198083E+03  0.25500000920E-02 0.  1.
    10030    2    1    2    0    0  0.00000000000E+00  0.00000000000E+00 -0.17556523770E+03  0.11107187240E+04  0.10967556387E+04 0.  0.
        2    1    3    3  502    0  0.17051878243E+03  0.48668642218E+03  0.10107996180E+03  0.52550688614E+03  0.25500000920E-02 0. -1.
       -2    1    3    3    0  502 -0.17051878243E+03 -0.48668642218E+03 -0.27664519951E+03  0.58521183781E+03  0.25500000920E-02 0.  1.
</event>
<event>
 5   0  0.2438115E-03  0.1100707E+04  0.7818609E-02  0.9204503E-01
        2   -1    0    0  501    0  0.00000000000E+00  0.00000000000E+00  0.60908493930E+03  0.60908493930E+03  0.25500000920E-02 0. -1.
       -2   -1    0    0    0  501  0.00000000000E+00  0.00000000000E+00 -0.49728524522E+03  0.49728524523E+03  0.25500000920E-02 0.  1.
    10030    2    1    2    0    0  0.00000000000E+00  0.00000000000E+00  0.11179969407E+03  0.11063701845E+04  0.11007069608E+04 0.  0.
        4    1    3    3  502    0  0.11150246864E+03 -0.20691139215E+03 -0.44429716276E+03  0.50263973823E+03  0.12699999809E+01 0.  1.
       -4    1    3    3    0  502 -0.11150246864E+03  0.20691139215E+03  0.55609685684E+03  0.60373044630E+03  0.12699999809E+01 0. -1.
</event>
<event>
 5   0  0.1480937E-03  0.1100882E+04  0.7818609E-02  0.9204333E-01
       -1   -1    0    0    0  501  0.00000000000E+00  0.00000000000E+00  0.57875462531E+03  0.57875462533E+03  0.50400001928E-02 0. -1.
        1   -1    0    0  501    0  0.00000000000E+00  0.00000000000E+00 -0.52351237419E+03  0.52351237422E+03  0.50400001928E-02 0.  1.
    10030    2    1    2    0    0  0.00000000000E+00  0.00000000000E+00  0.55242251117E+02  0.11022669995E+04  0.11008818429E+04 0.  0.
        1    1    3    3  502    0  0.39500349641E+03  0.15602741953E+03  0.37822294156E+03  0.56870459060E+03  0.50400001928E-02 0. -1.
       -1    1    3    3    0  502 -0.39500349641E+03 -0.15602741953E+03 -0.32298069044E+03  0.53356240895E+03  0.50400001928E-02 0.  1.
</event>
<event>
 5   0  0.1480937E-03  0.1100108E+04  0.7818609E-02  0.9205087E-01
        1   -1    0    0  501    0  0.00000000000E+00  0.00000000000E+00  0.11736989710E+04  0.11736989710E+04  0.50400001928E-02 0. -1.
       -1   -1    0    0    0  501  0.00000000000E+00  0.00000000000E+00 -0.25778258637E+03  0.25778258642E+03  0.50400001928E-02 0.  1.
    10030    2    1    2    0    0  0.00000000000E+00  0.00000000000E+00  0.91591638465E+03  0.14314815575E+04  0.11001075519E+04 0.  0.
        1    1    3    3  502    0  0.42353623489E+03 -0.95231213389E+02  0.18409297111E+02  0.43450066573E+03  0.50400001928E-02 0. -1.
       -1    1    3    3    0  502 -0.42353623489E+03  0.95231213389E+02  0.89750708753E+03  0.99698089173E+03  0.50400001928E-02 0.  1.
</event>
<event>
 5   0  0.2483036E-03  0.1102342E+04  0.7818609E-02  0.9202912E-01
       -2   -1    0    0    0  501  0.00000000000E+00  0.00000000000E+00  0.13634979099E+04  0.13634979099E+04  0.25500000920E-02 0. -1.
        2   -1    0    0  501    0  0.00000000000E+00  0.00000000000E+00 -0.22280163709E+03  0.22280163710E+03  0.25500000920E-02 0.  1.
    10030    2    1    2    0    0  0.00000000000E+00  0.00000000000E+00  0.11406962728E+04  0.15862995470E+04  0.11023421729E+04 0.  0.
        3    1    3    3  502    0 -0.29425402585E+02  0.99637873909E+02  0.13492802699E+04  0.13532741101E+04  0.10100000352E+00 0. -1.
       -3    1    3    3    0  502  0.29425402585E+02 -0.99637873909E+02 -0.20858399703E+03  0.23302543692E+03  0.10100000352E+00 0.  1.
</event>
<event>
 5   0  0.1479573E-03  0.1107937E+04  0.7818609E-02  0.9197491E-01
       -1   -1    0    0    0  501  0.00000000000E+00  0.00000000000E+00  0.10345264715E+04  0.10345264715E+04  0.50400001928E-02 0.  1.
        1   -1    0    0  501    0  0.00000000000E+00  0.00000000000E+00 -0.29663894680E+03  0.29663894684E+03  0.50400001928E-02 0. -1.
    10030    2    1    2    0    0  0.00000000000E+00  0.00000000000E+00  0.73788752467E+03  0.13311654183E+04  0.11079365378E+04 0.  0.
        4    1    3    3  502    0  0.49033377951E+03 -0.20527693906E+03  0.55628782211E+03  0.76943069276E+03  0.12699999809E+01 0.  1.
       -4    1    3    3    0  502 -0.49033377951E+03  0.20527693906E+03  0.18159970256E+03  0.56173472556E+03  0.12699999809E+01 0. -1.
</event>
<event>
 5   0  0.1480937E-03  0.1098009E+04  0.7818609E-02  0.9207135E-01
        1   -1    0    0  501    0  0.00000000000E+00  0.00000000000E+00  0.56950637675E+03  0.56950637678E+03  0.50400001928E-02 0.  1.
       -1   -1    0    0    0  501  0.00000000000E+00  0.00000000000E+00 -0.52924027823E+03  0.52924027825E+03  0.50400001928E-02 0. -1.
    10030    2    1    2    0    0  0.00000000000E+00  0.00000000000E+00  0.40266098526E+02  0.10987466550E+04  0.10980085852E+04 0.  0.
        1    1    3    3  502    0  0.36116416401E+03  0.41052199082E+03  0.69540877302E+02  0.55118399102E+03  0.50400001928E-02 0. -1.
       -1    1    3    3    0  502 -0.36116416401E+03 -0.41052199082E+03 -0.29274778777E+02  0.54756266401E+03  0.50400001928E-02 0.  1.
</event>
<event>
 5   0  0.9631750E-04  0.1105602E+04  0.7818609E-02  0.9199749E-01
       -3   -1    0    0    0  501  0.00000000000E+00  0.00000000000E+00  0.86118434995E+03  0.86118435587E+03  0.10100000352E+00 0.  1.
        3   -1    0    0  501    0  0.00000000000E+00  0.00000000000E+00 -0.35484747513E+03  0.35484748950E+03  0.10100000352E+00 0. -1.
    10030    2    1    2    0    0  0.00000000000E+00  0.00000000000E+00  0.50633687482E+03  0.12160318454E+04  0.11056022875E+04 0.  0.
        3    1    3    3  502    0 -0.44421479174E+03 -0.16254898256E+03 -0.61482627073E+02  0.47700008025E+03  0.10100000352E+00 0. -1.
       -3    1    3    3    0  502  0.44421479174E+03  0.16254898256E+03  0.56781950189E+03  0.73903176512E+03  0.10100000352E+00 0.  1.
</event>
<event>
 5   0  0.1480937E-03  0.1092847E+04  0.7818609E-02  0.9212192E-01
        1   -1    0    0  501    0  0.00000000000E+00  0.00000000000E+00  0.11828299149E+04  0.11828299149E+04  0.50400001928E-02 0.  1.
       -1   -1    0    0    0  501  0.00000000000E+00  0.00000000000E+00 -0.25242736943E+03  0.25242736948E+03  0.50400001928E-02 0. -1.
    10030    2    1    2    0    0  0.00000000000E+00  0.00000000000E+00  0.93040254545E+03  0.14352572844E+04  0.10928470047E+04 0.  0.
        1    1    3    3  502    0  0.41804669264E+03 -0.17569827611E+03  0.86559300137E+03  0.97718174641E+03  0.50400001928E-02 0.  1.
       -1    1    3    3    0  502 -0.41804669264E+03  0.17569827611E+03  0.64809544082E+02  0.45807553797E+03  0.50400001928E-02 0. -1.
</event>
<event>
 5   0  0.1509004E-03  0.1109856E+04  0.7818609E-02  0.9195638E-01
        1   -1    0    0  501    0  0.00000000000E+00  0.00000000000E+00  0.52226942850E+03  0.52226942853E+03  0.50400001928E-02 0. -1.
       -1   -1    0    0    0  501  0.00000000000E+00  0.00000000000E+00 -0.58962916834E+03  0.58962916836E+03  0.50400001928E-02 0.  1.
    10030    2    1    2    0    0  0.00000000000E+00  0.00000000000E+00 -0.67359739839E+02  0.11118985969E+04  0.11098563669E+04 0.  0.
        3    1    3    3  502    0  0.52420087073E+03 -0.80262973033E+02 -0.19743271083E+03  0.56586958146E+03  0.10100000352E+00 0.  1.
       -3    1    3    3    0  502 -0.52420087073E+03  0.80262973033E+02  0.13007297100E+03  0.54602901543E+03  0.10100000352E+00 0. -1.
</event>
<event>
 5   0  0.2392585E-03  0.1106561E+04  0.7818609E-02  0.9198821E-01
       -2   -1    0    0    0  501  0.00000000000E+00  0.00000000000E+00  0.38486062445E+03  0.38486062446E+03  0.25500000920E-02 0.  1.
        2   -1    0    0  501    0  0.00000000000E+00  0.00000000000E+00 -0.79540311994E+03  0.79540311994E+03  0.25500000920E-02 0. -1.
    10030    2    1    2    0    0  0.00000000000E+00  0.00000000000E+00 -0.41054249549E+03  0.11802637444E+04  0.11065610538E+04 0.  0.
        5    1    3    3  502    0 -0.22208192660E+03  0.15000045494E+03  0.31098850036E+03  0.41055627623E+03  0.46999998093E+01 0.  1.
       -5    1    3    3    0  502  0.22208192660E+03 -0.15000045494E+03 -0.72153099584E+03  0.76970746817E+03  0.46999998093E+01 0. -1.
</event>
<event>
 5   0  0.1479573E-03  0.1098832E+04  0.7818609E-02  0.9206331E-01
       -1   -1    0    0    0  501  0.00000000000E+00  0.00000000000E+00  0.67040268132E+03  0.67040268134E+03  0.50400001928E-02 0.  1.
        1   -1    0    0  501    0  0.00000000000E+00  0.00000000000E+00 -0.45026340252E+03  0.45026340255E+03  0.50400001928E-02 0. -1.
    10030    2    1    2    0    0  0.00000000000E+00  0.00000000000E+00  0.22013927881E+03  0.11206660839E+04  0.10988317294E+04 0.  0.
        4    1    3    3  502    0 -0.46446815936E+03 -0.61907253665E+02 -0.18249813332E+03  0.50286216867E+03  0.12699999809E+01 0. -1.
       -4    1    3    3    0  502  0.46446815936E+03  0.61907253665E+02  0.40263741212E+03  0.61780391522E+03  0.12699999809E+01 0.  1.
</event>
<event>
 5   0  0.1480937E-03  0.1095409E+04  0.7818609E-02  0.9209679E-01
       -1   -1    0    0    0  501  0.00000000000E+00  0.00000000000E+00  0.50169884716E+03  0.50169884718E+03  0.50400001928E-02 0.  1.
        1   -1    0    0  501    0  0.00000000000E+00  0.00000000000E+00 -0.59792832132E+03  0.59792832134E+03  0.50400001928E-02 0. -1.
    10030    2    1    2    0    0  0.00000000000E+00  0.00000000000E+00 -0.96229474161E+02  0.10996271685E+04  0.10954085074E+04 0.  0.
        1    1    3    3  502    0 -0.36198835236E+02 -0.42026568798E+03  0.30258201311E+03  0.51912376063E+03  0.50400001928E-02 0.  1.
       -1    1    3    3    0  502  0.36198835236E+02  0.42026568798E+03 -0.39881148727E+03  0.58050340789E+03  0.50400001928E-02 0. -1.
</event>
<event>
 5   0  0.1480937E-03  0.1099055E+04  0.7818609E-02  0.9206113E-01
        1   -1    0    0  501    0  0.00000000000E+00  0.00000000000E+00  0.14535019023E+03  0.14535019031E+03  0.50400001928E-02 0.  1.
       -1   -1    0    0    0  501  0.00000000000E+00  0.00000000000E+00 -0.20776070486E+04  0.20776070486E+04  0.50400001928E-02 0. -1.
    10030    2    1    2    0    0  0.00000000000E+00  0.00000000000E+00 -0.19322568584E+04  0.22229572389E+04  0.10990551939E+04 0.  0.
        1    1    3    3  502    0  0.39143961457E+02  0.26620199541E+03 -0.19352610178E+04  0.19538758812E+04  0.50400001928E-02 0. -1.
       -1    1    3    3    0  502 -0.39143961457E+02 -0.26620199541E+03  0.30041594217E+01  0.26908135773E+03  0.50400001928E-02 0.  1.
</event>
<event>
 5   0  0.2392585E-03  0.1096062E+04  0.7818609E-02  0.9209039E-01
       -2   -1    0    0    0  501  0.00000000000E+00  0.00000000000E+00  0.26844240215E+03  0.26844240216E+03  0.25500000920E-02 0.  1.
        2   -1    0    0  501    0  0.00000000000E+00  0.00000000000E+00 -0.11188170051E+04  0.11188170051E+04  0.25500000920E-02 0. -1.
    10030    2    1    2    0    0  0.00000000000E+00  0.00000000000E+00 -0.85037460293E+03  0.13872594072E+04  0.10960619041E+04 0.  0.
        5    1    3    3  502    0 -0.54396091978E+03  0.44948887695E+02 -0.36315690652E+03  0.65560576073E+03  0.46999998093E+01 0. -1.
       -5    1    3    3    0  502  0.54396091978E+03 -0.44948887695E+02 -0.48721769641E+03  0.73165364651E+03  0.46999998093E+01 0.  1.
</event>
<event>
 5   0  0.2438115E-03  0.1092737E+04  0.7818609E-02  0.9212300E-01
       -2   -1    0    0    0  501  0.00000000000E+00  0.00000000000E+00  0.23689817433E+03  0.23689817435E+03  0.25500000920E-02 0. -1.
        2   -1    0    0  501    0  0.00000000000E+00  0.00000000000E+00 -0.12601124443E+04  0.12601124443E+04  0.25500000920E-02 0.  1.
    10030    2    1    2    0    0  0.00000000000E+00  0.00000000000E+00 -0.10232142700E+04  0.14970106187E+04  0.10927366335E+04 0.  0.
        4    1    3    3  502    0 -0.46357242576E+03 -0.27032973323E+03 -0.37096595508E+03  0.65237635712E+03  0.12699999809E+01 0. -1.
       -4    1    3    3    0  502  0.46357242576E+03  0.27032973323E+03 -0.65224831491E+03  0.84463426156E+03  0.12699999809E+01 0.  1.
</event>
<event>
 5   0  0.1468556E-03  0.1090766E+04  0.7818609E-02  0.9214239E-01
        1   -1    0    0  501    0  0.00000000000E+00  0.00000000000E+00  0.67920259022E+03  0.67920259024E+03  0.50400001928E-02 0.  1.
       -1   -1    0    0    0  501  0.00000000000E+00  0.00000000000E+00 -0.43792884397E+03  0.43792884399E+03  0.50400001928E-02 0. -1.
    10030    2    1    2    0    0  0.00000000000E+00  0.00000000000E+00  0.24127374626E+03  0.11171314342E+04  0.10907656122E+04 0.  0.
        5    1    3    3  502    0  0.22158846263E+03  0.92945153458E+02 -0.38076828007E+03  0.45027416252E+03  0.46999998093E+01 0. -1.
       -5    1    3    3    0  502 -0.22158846263E+03 -0.92945153458E+02  0.62204202633E+03  0.66685727172E+03  0.46999998093E+01 0.  1.
</event>
<event>
 5   0  0.2438115E-03  0.1099195E+04  0.7818609E-02  0.9205977E-01
       -2   -1    0    0    0  501  0.00000000000E+00  0.00000000000E+00  0.19180289125E+03  0.19180289127E+03  0.25500000920E-02 0. -1.
        2   -1    0    0  501    0  0.00000000000E+00  0.00000000000E+00 -0.15748324309E+04  0.15748324309E+04  0.25500000920E-02 0.  1.
    10030    2    1    2    0    0  0.00000000000E+00  0.00000000000E+00 -0.13830295396E+04  0.17666353222E+04  0.10991950027E+04 0.  0.
        4    1    3    3  502    0  0.42543841352E+03 -0.12856292785E+03 -0.12111417159E+04  0.12901132272E+04  0.12699999809E+01 0.  1.
       -4    1    3    3    0  502 -0.42543841352E+03  0.12856292785E+03 -0.17188782370E+03  0.47652209492E+03  0.12699999809E+01 0. -1.
</event>
<event>
 5   0  0.1509004E-03  0.1098727E+04  0.7818609E-02  0.9206434E-01
       -1   -1    0    0    0  501  0.00000000000E+00  0.00000000000E+00  0.40128232463E+03  0.40128232466E+03  0.50400001928E-02 0. -1.
        1   -1    0    0  501    0  0.00000000000E+00  0.00000000000E+00 -0.75208923141E+03  0.75208923143E+03  0.50400001928E-02 0.  1.
    10030    2    1    2    0    0  0.00000000000E+00  0.00000000000E+00 -0.35080690679E+03  0.11533715561E+04  0.10987267452E+04 0.  0.
        3    1    3    3  502    0  0.17559668574E+03  0.52050273547E+03 -0.16853500669E+03  0.57459668669E+03  0.10100000352E+00 0.  1.
       -3    1    3    3    0  502 -0.17559668574E+03 -0.52050273547E+03 -0.18227190009E+03  0.57877486939E+03  0.10100000352E+00 0. -1.
</event>
<event>
 5   0  0.2488472E-03  0.1099262E+04  0.7818609E-02  0.9205912E-01
       -2   -1    0    0    0  501  0.00000000000E+00  0.00000000000E+00  0.85894005160E+03  0.85894005160E+03  0.25500000920E-02 0. -1.
        2   -1    0    0  501    0  0.00000000000E+00  0.00000000000E+00 -0.35170558546E+03  0.35170558547E+03  0.25500000920E-02 0.  1.
    10030    2    1    2    0    0  0.00000000000E+00  0.00000000000E+00  0.50723446614E+03  0.12106456371E+04  0.10992615953E+04 0.  0.
        2    1    3    3  502    0  0.47773548908E+03  0.26989015626E+03  0.21840716417E+03  0.59057055746E+03  0.25500000920E-02 0. -1.
       -2    1    3    3    0  502 -0.47773548908E+03 -0.26989015626E+03  0.28882730198E+03  0.62007507961E+03  0.25500000920E-02 0.  1.
</event>
<event>
 5   0  0.2467448E-03  0.1087824E+04  0.7818609E-02  0.9217142E-01
        2   -1    0    0  501    0  0.00000000000E+00  0.00000000000E+00  0.13095615629E+04  0.13095615629E+04  0.25500000920E-02 0. -1.
       -2   -1    0    0    0  501  0.00000000000E+00  0.00000000000E+00 -0.22590770094E+03  0.22590770095E+03  0.25500000920E-02 0.  1.
    10030    2    1    2    0    0  0.00000000000E+00  0.00000000000E+00  0.10836538619E+04  0.15354692638E+04  0.10878235922E+04 0.  0.
        1    1    3    3  502    0 -0.14385542107E+02  0.35245784097E+03  0.11262083306E+04  0.11801604456E+04  0.50400001928E-02 0. -1.
       -1    1    3    3    0  502  0.14385542107E+02 -0.35245784097E+03 -0.42554468638E+02  0.35530881823E+03  0.50400001928E-02 0.  1.
</event>
<event>
 5   0  0.1479573E-03  0.1082849E+04  0.7818609E-02  0.9222072E-01
       -1   -1    0    0    0  501  0.00000000000E+00  0.00000000000E+00  0.15203439633E+04  0.15203439633E+04  0.50400001928E-02 0.  1.
        1   -1    0    0  501    0  0.00000000000E+00  0.00000000000E+00 -0.19281188736E+03  0.19281188742E+03  0.50400001928E-02 0. -1.
    10030    2    1    2    0    0  0.00000000000E+00  0.00000000000E+00  0.13275320759E+04  0.17131558507E+04  0.10828488150E+04 0.  0.
        4    1    3    3  502    0  0.62122788086E+02 -0.21580726952E+03  0.14431832327E+04  0.14605517705E+04  0.12699999809E+01 0.  1.
       -4    1    3    3    0  502 -0.62122788086E+02  0.21580726952E+03 -0.11565115675E+03  0.25260408020E+03  0.12699999809E+01 0. -1.
</event>
<event>
 5   0  0.2467448E-03  0.1095827E+04  0.7818609E-02  0.9209269E-01
        2   -1    0    0  501    0  0.00000000000E+00  0.00000000000E+00  0.11969033830E+04  0.11969033830E+04  0.25500000920E-02 0.  1.
       -2   -1    0    0    0  501  0.00000000000E+00  0.00000000000E+00 -0.25082152517E+03  0.25082152518E+03  0.25500000920E-02 0. -1.
    10030    2    1    2    0    0  0.00000000000E+00  0.00000000000E+00  0.94608185784E+03  0.14477249082E+04  0.10958268696E+04 0.  0.
        1    1    3    3  502    0  0.28225195013E+03 -0.20930068756E+03  0.10284421710E+04  0.10868147222E+04  0.50400001928E-02 0.  1.
       -1    1    3    3    0  502 -0.28225195013E+03  0.20930068756E+03 -0.82360313171E+02  0.36091018603E+03  0.50400001928E-02 0. -1.
</event>
<event>
 5   0  0.9631750E-04  0.1094335E+04  0.7818609E-02  0.9210731E-01
        4   -1    0    0  501    0  0.00000000000E+00  0.00000000000E+00  0.60536592579E+03  0.60536725796E+03  0.12699999809E+01 0.  1.
       -4   -1    0    0    0  501  0.00000000000E+00  0.00000000000E+00 -0.49456101941E+03  0.49456265004E+03  0.12699999809E+01 0. -1.
    10030    2    1    2    0    0  0.00000000000E+00  0.00000000000E+00  0.11080490639E+03  0.10999299080E+04  0.10943345353E+04 0.  0.
        4    1    3    3  502    0 -0.35537633446E+03  0.13190886618E+03  0.45200599411E+03  0.58991806183E+03  0.12699999809E+01 0.  1.
       -4    1    3    3    0  502  0.35537633446E+03 -0.13190886618E+03 -0.34120108772E+03  0.51001184617E+03  0.12699999809E+01 0. -1.
</event>
<event>
 5   0  0.2438115E-03  0.1085329E+04  0.7818609E-02  0.9219610E-01
       -2   -1    0    0    0  501  0.00000000000E+00  0.00000000000E+00  0.18102056530E+03  0.18102056532E+03  0.25500000920E-02 0.  1.
        2   -1    0    0  501    0  0.00000000000E+00  0.00000000000E+00 -0.16268029616E+04  0.16268029616E+04  0.25500000920E-02 0. -1.
    10030    2    1    2    0    0  0.00000000000E+00  0.00000000000E+00 -0.14457823963E+04  0.18078235269E+04  0.10853290593E+04 0.  0.
        4    1    3    3  502    0 -0.11406023725E+02  0.94664891702E+02  0.16695556724E+03  0.19226885715E+03  0.12699999809E+01 0.  1.
       -4    1    3    3    0  502  0.11406023725E+02 -0.94664891702E+02 -0.16127379635E+04  0.16155546698E+04  0.12699999809E+01 0. -1.
</event>
<event>
 5   0  0.2483036E-03  0.1109139E+04  0.7818609E-02  0.9196330E-01
        2   -1    0    0  501    0  0.00000000000E+00  0.00000000000E+00  0.38183858149E+03  0.38183858150E+03  0.25500000920E-02 0. -1.
       -2   -1    0    0    0  501  0.00000000000E+00  0.00000000000E+00 -0.80543753613E+03  0.80543753614E+03  0.25500000920E-02 0.  1.
    10030    2    1    2    0    0  0.00000000000E+00  0.00000000000E+00 -0.42359895464E+03  0.11872761176E+04  0.11091386321E+04 0.  0.
        3    1    3    3  502    0  0.22291413807E+03  0.50778946482E+03 -0.20912067048E+03  0.59268230829E+03  0.10100000352E+00 0. -1.
       -3    1    3    3    0  502 -0.22291413807E+03 -0.50778946482E+03 -0.21447828417E+03  0.59459380935E+03  0.10100000352E+00 0.  1.
</event>
<event>
 5   0  0.1415400E-03  0.1094886E+04  0.7818609E-02  0.9210191E-01
       -1   -1    0    0    0  501  0.00000000000E+00  0.00000000000E+00  0.27974622262E+03  0.27974622267E+03  0.50400001928E-02 0. -1.
        1   -1    0    0  501    0  0.00000000000E+00  0.00000000000E+00 -0.10713053969E+04  0.10713053969E+04  0.50400001928E-02 0.  1.
    10030    2    1    2    0    0  0.00000000000E+00  0.00000000000E+00 -0.79155917429E+03  0.13510516196E+04  0.10948856344E+04 0.  0.
        2    1    3    3  502    0 -0.70500303366E+02  0.51514847553E+03 -0.60716409412E+03  0.79937255508E+03  0.25500000920E-02 0.  1.
       -2    1    3    3    0  502  0.70500303366E+02 -0.51514847553E+03 -0.18439508017E+03  0.55167906451E+03  0.25500000920E-02 0. -1.
</event>
<event>
 5   0  0.1479573E-03  0.1105153E+04  0.7818609E-02  0.9200184E-01
        1   -1    0    0  501    0  0.00000000000E+00  0.00000000000E+00  0.10220948293E+04  0.10220948293E+04  0.50400001928E-02 0.  1.
       -1   -1    0    0    0  501  0.00000000000E+00  0.00000000000E+00 -0.29874014683E+03  0.29874014687E+03  0.50400001928E-02 0. -1.
    10030    2    1    2    0    0  0.00000000000E+00  0.00000000000E+00  0.72335468246E+03  0.13208349762E+04  0.11051529476E+04 0.  0.
        4    1    3    3  502    0  0.40468662208E+03  0.30140702848E+03  0.92509592745E+02  0.51300789132E+03  0.12699999809E+01 0. -1.
       -4    1    3    3    0  502 -0.40468662208E+03 -0.30140702848E+03  0.63084508971E+03  0.80782708485E+03  0.12699999809E+01 0.  1.
</event>
<event>
 5   0  0.1509004E-03  0.1097907E+04  0.7818609E-02  0.9207234E-01
       -1   -1    0    0    0  501  0.00000000000E+00  0.00000000000E+00  0.16323751515E+03  0.16323751523E+03  0.50400001928E-02 0.  1.
        1   -1    0    0  501    0  0.00000000000E+00  0.00000000000E+00 -0.18460822862E+04  0.18460822862E+04  0.50400001928E-02 0. -1.
    10030    2    1    2    0    0  0.00000000000E+00  0.00000000000E+00 -0.16828447711E+04  0.20093198014E+04  0.10979068909E+04 0.  0.
        3    1    3    3  502    0  0.13907951305E+03  0.31251912156E+03 -0.16271855247E+04  0.16627519521E+04  0.10100000352E+00 0. -1.
       -3    1    3    3    0  502 -0.13907951305E+03 -0.31251912156E+03 -0.55659246375E+02  0.34656784934E+03  0.10100000352E+00 0.  1.
</event>
<event>
 5   0  0.1509004E-03  0.1089970E+04  0.7818609E-02  0.9215023E-01
        1   -1    0    0  501    0  0.00000000000E+00  0.00000000000E+00  0.13084537847E+04  0.13084537847E+04  0.50400001928E-02 0. -1.
       -1   -1    0    0    0  501  0.00000000000E+00  0.00000000000E+00 -0.22699209695E+03  0.22699209701E+03  0.50400001928E-02 0.  1.
    10030    2    1    2    0    0  0.00000000000E+00  0.00000000000E+00  0.10814616877E+04  0.15354458817E+04  0.10899700333E+04 0.  0.
        3    1    3    3  502    0  0.17520058795E+03  0.50767023380E+03  0.41021189724E+03  0.67579443853E+03  0.10100000352E+00 0. -1.
       -3    1    3    3    0  502 -0.17520058795E+03 -0.50767023380E+03  0.67124979046E+03  0.85965144314E+03  0.10100000352E+00 0.  1.
</event>
<event>
 5   0  0.2467448E-03  0.1102529E+04  0.7818609E-02  0.9202731E-01
       -2   -1    0    0    0  501  0.00000000000E+00  0.00000000000E+00  0.18833016400E+03  0.18833016402E+03  0.25500000920E-02 0.  1.
        2   -1    0    0  501    0  0.00000000000E+00  0.00000000000E+00 -0.16136153977E+04  0.16136153977E+04  0.25500000920E-02 0. -1.
    10030    2    1    2    0    0  0.00000000000E+00  0.00000000000E+00 -0.14252852337E+04  0.18019455618E+04  0.11025288250E+04 0.  0.
        1    1    3    3  502    0 -0.53514350882E+03  0.10923376453E+03 -0.83474981515E+03  0.99755593541E+03  0.50400001928E-02 0. -1.
       -1    1    3    3    0  502  0.53514350882E+03 -0.10923376453E+03 -0.59053541858E+03  0.80438962635E+03  0.50400001928E-02 0.  1.
</event>
<event>
 5   0  0.2392585E-03  0.1114660E+04  0.7818609E-02  0.9191019E-01
       -2   -1    0    0    0  501  0.00000000000E+00  0.00000000000E+00  0.88860251007E+03  0.88860251008E+03  0.25500000920E-02 0. -1.
        2   -1    0    0  501    0  0.00000000000E+00  0.00000000000E+00 -0.34955673883E+03  0.34955673884E+03  0.25500000920E-02 0.  1.
    10030    2    1    2    0    0  0.00000000000E+00  0.00000000000E+00  0.53904577124E+03  0.12381592489E+04  0.11146604784E+04 0.  0.
        5    1    3    3  502    0 -0.21747327705E+03 -0.49134391378E+03  0.43383584968E+03  0.69061501743E+03  0.46999998093E+01 0.  1.
       -5    1    3    3    0  502  0.21747327705E+03  0.49134391378E+03  0.10520992156E+03  0.54754423149E+03  0.46999998093E+01 0. -1.
</event>
<event>
 5   0  0.2488472E-03  0.1115396E+04  0.7818609E-02  0.9190315E-01
        2   -1    0    0  501    0  0.00000000000E+00  0.00000000000E+00  0.50138401125E+03  0.50138401125E+03  0.25500000920E-02 0.  1.
       -2   -1    0    0    0  501  0.00000000000E+00  0.00000000000E+00 -0.62033675896E+03  0.62033675896E+03  0.25500000920E-02 0. -1.
    10030    2    1    2    0    0  0.00000000000E+00  0.00000000000E+00 -0.11895274771E+03  0.11217207702E+04  0.11153957729E+04 0.  0.
        2    1    3    3  502    0 -0.40217750142E+03  0.36898853962E+02 -0.44625926532E+03  0.60187673154E+03  0.25500000920E-02 0. -1.
       -2    1    3    3    0  502  0.40217750142E+03 -0.36898853962E+02  0.32730651761E+03  0.51984403868E+03  0.25500000920E-02 0.  1.
</event>
<event>
 5   0  0.1480937E-03  0.1098650E+04  0.7818609E-02  0.9206508E-01
       -1   -1    0    0    0  501  0.00000000000E+00  0.00000000000E+00  0.37946161616E+03  0.37946161620E+03  0.50400001928E-02 0.  1.
        1   -1    0    0  501    0  0.00000000000E+00  0.00000000000E+00 -0.79522693707E+03  0.79522693709E+03  0.50400001928E-02 0. -1.
    10030    2    1    2    0    0  0.00000000000E+00  0.00000000000E+00 -0.41576532091E+03  0.11746885533E+04  0.10986502606E+04 0.  0.
        1    1    3    3  502    0 -0.35346827507E+03  0.20947835876E+02  0.24115967169E+03  0.42841174188E+03  0.50400001928E-02 0.  1.
       -1    1    3    3    0  502  0.35346827507E+03 -0.20947835876E+02 -0.65692499260E+03  0.74627681140E+03  0.50400001928E-02 0. -1.
</event>
<event>
 5   0  0.2488472E-03  0.1091555E+04  0.7818609E-02  0.9213462E-01
        2   -1    0    0  501    0  0.00000000000E+00  0.00000000000E+00  0.12125562634E+04  0.12125562634E+04  0.25500000920E-02 0.  1.
       -2   -1    0    0    0  501  0.00000000000E+00  0.00000000000E+00 -0.24565709906E+03  0.24565709907E+03  0.25500000920E-02 0. -1.
    10030    2    1    2    0    0  0.00000000000E+00  0.00000000000E+00  0.96689916439E+03  0.14582133625E+04  0.10915549535E+04 0.  0.
        2    1    3    3  502    0  0.32970129382E+03 -0.24198674069E+03  0.64888679649E+00  0.40897548445E+03  0.25500000920E-02 0. -1.
       -2    1    3    3    0  502 -0.32970129382E+03  0.24198674069E+03  0.96625027759E+03  0.10492378781E+04  0.25500000920E-02 0.  1.
</event>
<event>
 5   0  0.1480937E-03  0.1096014E+04  0.7818609E-02  0.9209086E-01
       -1   -1    0    0    0  501  0.00000000000E+00  0.00000000000E+00  0.67739178405E+03  0.67739178407E+03  0.50400001928E-02 0.  1.
        1   -1    0    0  501    0  0.00000000000E+00  0.00000000000E+00 -0.44333498062E+03  0.44333498065E+03  0.50400001928E-02 0. -1.
    10030    2    1    2    0    0  0.00000000000E+00  0.00000000000E+00  0.23405680343E+03  0.11207267647E+04  0.10960136377E+04 0.  0.
        1    1    3    3  502    0 -0.13509871087E+03 -0.45647187797E+03  0.39461442842E+03  0.61833549486E+03  0.50400001928E-02 0.  1.
       -1    1    3    3    0  502  0.13509871087E+03  0.45647187797E+03 -0.16055762499E+03  0.50239126986E+03  0.50400001928E-02 0. -1.
</event>
<event>
 5   0  0.1468556E-03  0.1106515E+04  0.7818609E-02  0.9198865E-01
        1   -1    0    0  501    0  0.00000000000E+00  0.00000000000E+00  0.89077819019E+03  0.89077819020E+03  0.50400001928E-02 0.  1.
       -1   -1    0    0    0  501  0.00000000000E+00  0.00000000000E+00 -0.34362551178E+03  0.34362551181E+03  0.50400001928E-02 0. -1.
    10030    2    1    2    0    0  0.00000000000E+00  0.00000000000E+00  0.54715267841E+03  0.12344037020E+04  0.11065154522E+04 0.  0.
        5    1    3    3  502    0 -0.20658643877E+03  0.55295271594E+02  0.84277944545E+03  0.86950262071E+03  0.46999998093E+01 0.  1.
       -5    1    3    3    0  502  0.20658643877E+03 -0.55295271594E+02 -0.29562676705E+03  0.36490108130E+03  0.46999998093E+01 0. -1.
</event>
<event>
 5   0  0.2438115E-03  0.1009741E+04  0.7818609E-02  0.9297925E-01
        2   -1    0    0  501    0  0.00000000000E+00  0.00000000000E+00  0.48988296993E+03  0.48988296993E+03  0.25500000920E-02 0. -1.
       -2   -1    0    0    0  501  0.00000000000E+00  0.00000000000E+00 -0.52031625808E+03  0.52031625808E+03  0.25500000920E-02 0.  1.
    10030    2    1    2    0    0  0.00000000000E+00  0.00000000000E+00 -0.30433288153E+02  0.10101992280E+04  0.10097407069E+04 0.  0.
        4    1    3    3  502    0  0.37627369964E+03  0.33700990452E+02  0.31986052155E+03  0.49500507062E+03  0.12699999809E+01 0. -1.
       -4    1    3    3    0  502 -0.37627369964E+03 -0.33700990452E+02 -0.35029380970E+03  0.51519415739E+03  0.12699999809E+01 0.  1.
</event>
<event>
 5   0  0.1480937E-03  0.1049836E+04  0.7818609E-02  0.9255513E-01
       -1   -1    0    0    0  501  0.00000000000E+00  0.00000000000E+00  0.31370059709E+03  0.31370059713E+03  0.50400001928E-02 0.  1.
        1   -1    0    0  501    0  0.00000000000E+00  0.00000000000E+00 -0.87835027548E+03  0.87835027549E+03  0.50400001928E-02 0. -1.
    10030    2    1    2    0    0  0.00000000000E+00  0.00000000000E+00 -0.56464967839E+03  0.11920508726E+04  0.10498361890E+04 0.  0.
        1    1    3    3  502    0 -0.51850193474E+03  0.81482927258E+02 -0.27388244538E+03  0.59202645015E+03  0.50400001928E-02 0. -1.
       -1    1    3    3    0  502  0.51850193474E+03 -0.81482927258E+02 -0.29076723300E+03  0.60002442248E+03  0.50400001928E-02 0.  1.
</event>
<event>
 5   0  0.9631750E-04  0.1092779E+04  0.7818609E-02  0.9212259E-01
       -3   -1    0    0    0  501  0.00000000000E+00  0.00000000000E+00  0.15531835200E+04  0.15531835233E+04  0.10100000352E+00 0.  1.
        3   -1    0    0  501    0  0.00000000000E+00  0.00000000000E+00 -0.19221243639E+03  0.19221246293E+03  0.10100000352E+00 0. -1.
    10030    2    1    2    0    0  0.00000000000E+00  0.00000000000E+00  0.13609710836E+04  0.17453959863E+04  0.10927785038E+04 0.  0.
        2    1    3    3  502    0  0.44527149052E+03 -0.25840073383E+03  0.97283844130E+03  0.11006599259E+04  0.25500000920E-02 0.  1.
       -2    1    3    3    0  502 -0.44527149052E+03  0.25840073383E+03  0.38813264235E+03  0.64473606039E+03  0.25500000920E-02 0. -1.
</event>
<event>
 5   0  0.1480937E-03  0.1074977E+04  0.7818609E-02  0.9229930E-01
       -1   -1    0    0    0  501  0.00000000000E+00  0.00000000000E+00  0.48065906954E+03  0.48065906956E+03  0.50400001928E-02 0. -1.
        1   -1    0    0  501    0  0.00000000000E+00  0.00000000000E+00 -0.60103659385E+03  0.60103659387E+03  0.50400001928E-02 0.  1.
    10030    2    1    2    0    0  0.00000000000E+00  0.00000000000E+00 -0.12037752431E+03  0.10816956634E+04  0.10749766323E+04 0.  0.
        1    1    3    3  502    0  0.50394035097E+03 -0.12796874020E+02  0.12745482144E+03  0.51996573816E+03  0.50400001928E-02 0.  1.
       -1    1    3    3    0  502 -0.50394035097E+03  0.12796874020E+02 -0.24783234575E+03  0.56172992527E+03  0.50400001928E-02 0. -1.
</event>
<event>
 5   0  0.1415400E-03  0.1101883E+04  0.7818609E-02  0.9203358E-01
        1   -1    0    0  501    0  0.00000000000E+00  0.00000000000E+00  0.69975763820E+03  0.69975763822E+03  0.50400001928E-02 0. -1.
       -1   -1    0    0    0  501  0.00000000000E+00  0.00000000000E+00 -0.43377394355E+03  0.43377394358E+03  0.50400001928E-02 0.  1.
    10030    2    1    2    0    0  0.00000000000E+00  0.00000000000E+00  0.26598369464E+03  0.11335315818E+04  0.11018831704E+04 0.  0.
        2    1    3    3  502    0  0.18426559624E+03  0.41770705115E+03  0.45023820446E+03  0.64120779105E+03  0.25500000920E-02 0. -1.
       -2    1    3    3    0  502 -0.18426559624E+03 -0.41770705115E+03 -0.18425450982E+03  0.49232379075E+03  0.25500000920E-02 0.  1.
</event>
<event>
 5   0  0.1415400E-03  0.1101278E+04  0.7818609E-02  0.9203947E-01
        1   -1    0    0  501    0  0.00000000000E+00  0.00000000000E+00  0.21766336441E+04  0.21766336441E+04  0.50400001928E-02 0. -1.
       -1   -1    0    0    0  501  0.00000000000E+00  0.00000000000E+00 -0.13929912142E+03  0.13929912151E+03  0.50400001928E-02 0.  1.
    10030    2    1    2    0    0  0.00000000000E+00  0.00000000000E+00  0.20373345226E+04  0.23159327656E+04  0.11012777204E+04 0.  0.
        2    1    3    3  502    0 -0.36978840945E+03 -0.40448396606E+03  0.90635300083E+03  0.10591631171E+04  0.25500000920E-02 0. -1.
       -2    1    3    3    0  502  0.36978840945E+03  0.40448396606E+03  0.11309815218E+04  0.12567696484E+04  0.25500000920E-02 0.  1.
</event>
<event>
 5   0  0.1468556E-03  0.1102485E+04  0.7818609E-02  0.9202773E-01
       -1   -1    0    0    0  501  0.00000000000E+00  0.00000000000E+00  0.52729790900E+03  0.52729790903E+03  0.50400001928E-02 0.  1.
        1   -1    0    0  501    0  0.00000000000E+00  0.00000000000E+00 -0.57627437360E+03  0.57627437362E+03  0.50400001928E-02 0. -1.
    10030    2    1    2    0    0  0.00000000000E+00  0.00000000000E+00 -0.48976464593E+02  0.11035722826E+04  0.11024849609E+04 0.  0.
        5    1    3    3  502    0  0.24752237982E+03 -0.33799297087E+03  0.33411026065E+03  0.53587156403E+03  0.46999998093E+01 0.  1.
       -5    1    3    3    0  502 -0.24752237982E+03  0.33799297087E+03 -0.38308672524E+03  0.56770071862E+03  0.46999998093E+01 0. -1.
</event>
<event>
 5   0  0.2467448E-03  0.1125586E+04  0.7818609E-02  0.9180607E-01
        2   -1    0    0  501    0  0.00000000000E+00  0.00000000000E+00  0.50726031375E+03  0.50726031376E+03  0.25500000920E-02 0.  1.
       -2   -1    0    0    0  501  0.00000000000E+00  0.00000000000E+00 -0.62440497065E+03  0.62440497066E+03  0.25500000920E-02 0. -1.
    10030    2    1    2    0    0  0.00000000000E+00  0.00000000000E+00 -0.11714465690E+03  0.11316652844E+04  0.11255858232E+04 0.  0.
        1    1    3    3  502    0 -0.45071445815E+03 -0.17240272244E+03  0.23259441416E+03  0.53569243323E+03  0.50400001928E-02 0.  1.
       -1    1    3    3    0  502  0.45071445815E+03  0.17240272244E+03 -0.34973907106E+03  0.59597285119E+03  0.50400001928E-02 0. -1.
</event>
<event>
 5   0  0.1415400E-03  0.1109065E+04  0.7818609E-02  0.9196401E-01
       -1   -1    0    0    0  501  0.00000000000E+00  0.00000000000E+00  0.19832280554E+03  0.19832280561E+03  0.50400001928E-02 0. -1.
        1   -1    0    0  501    0  0.00000000000E+00  0.00000000000E+00 -0.15505348998E+04  0.15505348998E+04  0.50400001928E-02 0.  1.
    10030    2    1    2    0    0  0.00000000000E+00  0.00000000000E+00 -0.13522120943E+04  0.17488577054E+04  0.11090652487E+04 0.  0.
        2    1    3    3  502    0 -0.23291707162E+03  0.28779500067E+03 -0.25121715838E+02  0.37108951114E+03  0.25500000920E-02 0. -1.
       -2    1    3    3    0  502  0.23291707162E+03 -0.28779500067E+03 -0.13270903784E+04  0.13777681943E+04  0.25500000920E-02 0.  1.
</event>
<event>
 5   0  0.2483036E-03  0.1096463E+04  0.7818609E-02  0.9208646E-01
        2   -1    0    0  501    0  0.00000000000E+00  0.00000000000E+00  0.99843865476E+03  0.99843865476E+03  0.25500000920E-02 0. -1.
       -2   -1    0    0    0  501  0.00000000000E+00  0.00000000000E+00 -0.30102762797E+03  0.30102762798E+03  0.25500000920E-02 0.  1.
    10030    2    1    2    0    0  0.00000000000E+00  0.00000000000E+00  0.69741102678E+03  0.12994662827E+04  0.10964627124E+04 0.  0.
        3    1    3    3  502    0  0.75498616063E+02 -0.62092515606E+02 -0.29061582642E+03  0.30661554150E+03  0.10100000352E+00 0.  1.
       -3    1    3    3    0  502 -0.75498616063E+02  0.62092515606E+02  0.98802685321E+03  0.99285074124E+03  0.10100000352E+00 0. -1.
</event>
<event>
 5   0  0.1479573E-03  0.1102189E+04  0.7818609E-02  0.9203061E-01
        1   -1    0    0  501    0  0.00000000000E+00  0.00000000000E+00  0.85043278230E+03  0.85043278231E+03  0.50400001928E-02 0.  1.
       -1   -1    0    0    0  501  0.00000000000E+00  0.00000000000E+00 -0.35711821434E+03  0.35711821437E+03  0.50400001928E-02 0. -1.
    10030    2    1    2    0    0  0.00000000000E+00  0.00000000000E+00  0.49331456796E+03  0.12075509967E+04  0.11021887981E+04 0.  0.
        4    1    3    3  502    0 -0.44314658697E+03  0.14518935360E+02 -0.11191114856E+03  0.45729138971E+03  0.12699999809E+01 0. -1.
       -4    1    3    3    0  502  0.44314658697E+03 -0.14518935360E+02  0.60522571652E+03  0.75025960698E+03  0.12699999809E+01 0.  1.
</event>
<event>
 5   0  0.2467448E-03  0.1117691E+04  0.7818609E-02  0.9188119E-01
       -2   -1    0    0    0  501  0.00000000000E+00  0.00000000000E+00  0.19581398847E+03  0.19581398849E+03  0.25500000920E-02 0. -1.
        2   -1    0    0  501    0  0.00000000000E+00  0.00000000000E+00 -0.15949234192E+04  0.15949234192E+04  0.25500000920E-02 0.  1.
    10030    2    1    2    0    0  0.00000000000E+00  0.00000000000E+00 -0.13991094307E+04  0.17907374077E+04  0.11176910415E+04 0.  0.
        1    1    3    3  502    0 -0.28824224492E+03 -0.33601828445E+03 -0.15312956464E+03  0.46844481301E+03  0.50400001928E-02 0. -1.
       -1    1    3    3    0  502  0.28824224492E+03  0.33601828445E+03 -0.12459798661E+04  0.13222925947E+04  0.50400001928E-02 0.  1.
</event>
<event>
 5   0  0.1509004E-03  0.1068552E+04  0.7818609E-02  0.9236397E-01
       -1   -1    0    0    0  501  0.00000000000E+00  0.00000000000E+00  0.74909799453E+03  0.74909799454E+03  0.50400001928E-02 0.  1.
        1   -1    0    0  501    0  0.00000000000E+00  0.00000000000E+00 -0.38105950557E+03  0.38105950561E+03  0.50400001928E-02 0. -1.
    10030    2    1    2    0    0  0.00000000000E+00  0.00000000000E+00  0.36803848895E+03  0.11301575002E+04  0.10685521259E+04 0.  0.
        3    1    3    3  502    0  0.41704304961E+03 -0.11944660889E+03 -0.14582358750E+03  0.45766464412E+03  0.10100000352E+00 0. -1.
       -3    1    3    3    0  502 -0.41704304961E+03  0.11944660889E+03  0.51386207645E+03  0.67249285603E+03  0.10100000352E+00 0.  1.
</event>
<event>
 5   0  0.2438115E-03  0.1101394E+04  0.7818609E-02  0.9203834E-01
        2   -1    0    0  501    0  0.00000000000E+00  0.00000000000E+00  0.34150888078E+03  0.34150888079E+03  0.25500000920E-02 0.  1.
       -2   -1    0    0    0  501  0.00000000000E+00  0.00000000000E+00 -0.88802169647E+03  0.88802169647E+03  0.25500000920E-02 0. -1.
    10030    2    1    2    0    0  0.00000000000E+00  0.00000000000E+00 -0.54651281569E+03  0.12295305773E+04  0.11013941995E+04 0.  0.
        4    1    3    3  502    0  0.26949659903E+03 -0.12039283323E+03  0.24574312520E+03  0.38407570564E+03  0.12699999809E+01 0.  1.
       -4    1    3    3    0  502 -0.26949659903E+03  0.12039283323E+03 -0.79225594088E+03  0.84545487162E+03  0.12699999809E+01 0. -1.
</event>
<event>
 5   0  0.9631750E-04  0.1098720E+04  0.7818609E-02  0.9206441E-01
       -3   -1    0    0    0  501  0.00000000000E+00  0.00000000000E+00  0.66423251478E+03  0.66423252246E+03  0.10100000352E+00 0. -1.
        3   -1    0    0  501    0  0.00000000000E+00  0.00000000000E+00 -0.45435330571E+03  0.45435331693E+03  0.10100000352E+00 0.  1.
    10030    2    1    2    0    0  0.00000000000E+00  0.00000000000E+00  0.20987920907E+03  0.11185858394E+04  0.10987197084E+04 0.  0.
        1    1    3    3  502    0  0.47368407149E+03 -0.22141543031E+03  0.27649415631E+03  0.59148153891E+03  0.50400001928E-02 0. -1.
       -1    1    3    3    0  502 -0.47368407149E+03  0.22141543031E+03 -0.66614947244E+02  0.52710430048E+03  0.50400001928E-02 0.  1.
</event>
<event>
 5   0  0.2438115E-03  0.1083894E+04  0.7818609E-02  0.9221034E-01
       -2   -1    0    0    0  501  0.00000000000E+00  0.00000000000E+00  0.19245746581E+03  0.19245746583E+03  0.25500000920E-02 0.  1.
        2   -1    0    0  501    0  0.00000000000E+00  0.00000000000E+00 -0.15260852868E+04  0.15260852868E+04  0.25500000920E-02 0. -1.
    10030    2    1    2    0    0  0.00000000000E+00  0.00000000000E+00 -0.13336278210E+04  0.17185427526E+04  0.10838939190E+04 0.  0.
        4    1    3    3  502    0  0.17360364122E+03 -0.38557463312E+03 -0.12937210734E+03  0.44220445159E+03  0.12699999809E+01 0.  1.
       -4    1    3    3    0  502 -0.17360364122E+03  0.38557463312E+03 -0.12042557136E+04  0.12763383010E+04  0.12699999809E+01 0. -1.
</event>
<event>
 5   0  0.2392585E-03  0.1100863E+04  0.7818609E-02  0.9204351E-01
       -2   -1    0    0    0  501  0.00000000000E+00  0.00000000000E+00  0.36644616453E+03  0.36644616454E+03  0.25500000920E-02 0.  1.
        2   -1    0    0  501    0  0.00000000000E+00  0.00000000000E+00 -0.82679183096E+03  0.82679183097E+03  0.25500000920E-02 0. -1.
    10030    2    1    2    0    0  0.00000000000E+00  0.00000000000E+00 -0.46034566643E+03  0.11932379955E+04  0.11008627441E+04 0.  0.
        5    1    3    3  502    0  0.48277149181E+03  0.14567771172E+03 -0.46927868172E+03  0.68886492153E+03  0.46999998093E+01 0. -1.
       -5    1    3    3    0  502 -0.48277149181E+03 -0.14567771172E+03  0.89330152945E+01  0.50437307398E+03  0.46999998093E+01 0.  1.
</event>
<event>
 5   0  0.2488472E-03  0.1099676E+04  0.7818609E-02  0.9205508E-01
       -2   -1    0    0    0  501  0.00000000000E+00  0.00000000000E+00  0.30644243713E+03  0.30644243714E+03  0.25500000920E-02 0.  1.
        2   -1    0    0  501    0  0.00000000000E+00  0.00000000000E+00 -0.98655317461E+03  0.98655317462E+03  0.25500000920E-02 0. -1.
    10030    2    1    2    0    0  0.00000000000E+00  0.00000000000E+00 -0.68011073748E+03  0.12929956118E+04  0.10996758781E+04 0.  0.
        2    1    3    3  502    0 -0.39869770176E+03 -0.28421250475E+03 -0.63420480113E+03  0.80121928024E+03  0.25500000920E-02 0. -1.
       -2    1    3    3    0  502  0.39869770176E+03  0.28421250475E+03 -0.45905936352E+02  0.49177633152E+03  0.25500000920E-02 0.  1.
</event>
<event>
 5   0  0.2483036E-03  0.1096510E+04  0.7818609E-02  0.9208600E-01
        2   -1    0    0  501    0  0.00000000000E+00  0.00000000000E+00  0.35872145224E+03  0.35872145225E+03  0.25500000920E-02 0.  1.
       -2   -1    0    0    0  501  0.00000000000E+00  0.00000000000E+00 -0.83792970968E+03  0.83792970968E+03  0.25500000920E-02 0. -1.
    10030    2    1    2    0    0  0.00000000000E+00  0.00000000000E+00 -0.47920825744E+03  0.11966511619E+04  0.10965096668E+04 0.  0.
        3    1    3    3  502    0 -0.15612110353E+03 -0.30832088273E+03  0.22488079032E+03  0.41231898544E+03  0.10100000352E+00 0.  1.
       -3    1    3    3    0  502  0.15612110353E+03  0.30832088273E+03 -0.70408904776E+03  0.78433217649E+03  0.10100000352E+00 0. -1.
</event>
<event>
 5   0  0.2483036E-03  0.1104293E+04  0.7818609E-02  0.9201017E-01
        2   -1    0    0  501    0  0.00000000000E+00  0.00000000000E+00  0.16079271954E+04  0.16079271954E+04  0.25500000920E-02 0.  1.
       -2   -1    0    0    0  501  0.00000000000E+00  0.00000000000E+00 -0.18960179660E+03  0.18960179661E+03  0.25500000920E-02 0. -1.
    10030    2    1    2    0    0  0.00000000000E+00  0.00000000000E+00  0.14183253988E+04  0.17975289920E+04  0.11042932311E+04 0.  0.
        3    1    3    3  502    0  0.10093857547E+03 -0.34055938781E+03  0.21065774889E+02  0.35582730322E+03  0.10100000352E+00 0. -1.
       -3    1    3    3    0  502 -0.10093857547E+03  0.34055938781E+03  0.13972596239E+04  0.14417016888E+04  0.10100000352E+00 0.  1.
</event>
<event>
 5   0  0.2488472E-03  0.1001363E+04  0.7818609E-02  0.9307051E-01
       -2   -1    0    0    0  501  0.00000000000E+00  0.00000000000E+00  0.53003050524E+03  0.53003050524E+03  0.25500000920E-02 0.  1.
        2   -1    0    0  501    0  0.00000000000E+00  0.00000000000E+00 -0.47295734905E+03  0.47295734906E+03  0.25500000920E-02 0. -1.
    10030    2    1    2    0    0  0.00000000000E+00  0.00000000000E+00  0.57073156183E+02  0.10029878543E+04  0.10013627169E+04 0.  0.
        2    1    3    3  502    0 -0.47696894351E+03 -0.33204585010E+00  0.18104115783E+03  0.51017191628E+03  0.25500000920E-02 0.  1.
       -2    1    3    3    0  502  0.47696894351E+03  0.33204585010E+00 -0.12396800165E+03  0.49281593802E+03  0.25500000920E-02 0. -1.
</event>
<event>
 5   0  0.9631750E-04  0.1109873E+04  0.7818609E-02  0.9195622E-01
       -3   -1    0    0    0  501  0.00000000000E+00  0.00000000000E+00  0.13480576693E+03  0.13480580476E+03  0.10100000352E+00 0.  1.
        3   -1    0    0  501    0  0.00000000000E+00  0.00000000000E+00 -0.22844303004E+04  0.22844303026E+04  0.10100000352E+00 0. -1.
    10030    2    1    2    0    0  0.00000000000E+00  0.00000000000E+00 -0.21496245335E+04  0.24192361074E+04  0.11098728344E+04 0.  0.
        4    1    3    3  502    0  0.26408379859E+03  0.44299185928E+03 -0.15213709351E+04  0.16064100271E+04  0.12699999809E+01 0. -1.
       -4    1    3    3    0  502 -0.26408379859E+03 -0.44299185928E+03 -0.62825359840E+03  0.81282608034E+03  0.12699999809E+01 0.  1.
</event>
<event>
 5   0  0.2392585E-03  0.1104134E+04  0.7818609E-02  0.9201172E-01
       -2   -1    0    0    0  501  0.00000000000E+00  0.00000000000E+00  0.29409557614E+03  0.29409557615E+03  0.25500000920E-02 0.  1.
        2   -1    0    0  501    0  0.00000000000E+00  0.00000000000E+00 -0.10363228548E+04  0.10363228548E+04  0.25500000920E-02 0. -1.
    10030    2    1    2    0    0  0.00000000000E+00  0.00000000000E+00 -0.74222727866E+03  0.13304184309E+04  0.11041339902E+04 0.  0.
        5    1    3    3  502    0 -0.52187842641E+03  0.17299317974E+03 -0.43102420660E+03  0.69863272816E+03  0.46999998093E+01 0.  1.
       -5    1    3    3    0  502  0.52187842641E+03 -0.17299317974E+03 -0.31120307206E+03  0.63178570278E+03  0.46999998093E+01 0. -1.
</event>
<event>
 5   0  0.2483036E-03  0.1120768E+04  0.7818609E-02  0.9185183E-01
       -2   -1    0    0    0  501  0.00000000000E+00  0.00000000000E+00  0.43646529000E+03  0.43646529000E+03  0.25500000920E-02 0.  1.
        2   -1    0    0  501    0  0.00000000000E+00  0.00000000000E+00 -0.71948500362E+03  0.71948500363E+03  0.25500000920E-02 0. -1.
    10030    2    1    2    0    0  0.00000000000E+00  0.00000000000E+00 -0.28301971362E+03  0.11559502936E+04  0.11207680059E+04 0.  0.
        3    1    3    3  502    0  0.54246129168E+03  0.22295684937E+02 -0.28467970300E+03  0.61302846104E+03  0.10100000352E+00 0.  1.
       -3    1    3    3    0  502 -0.54246129168E+03 -0.22295684937E+02  0.16599893704E+01  0.54292183259E+03  0.10100000352E+00 0. -1.
</event>
<event>
 5   0  0.1479573E-03  0.1103060E+04  0.7818609E-02  0.9202215E-01
       -1   -1    0    0    0  501  0.00000000000E+00  0.00000000000E+00  0.53872875614E+03  0.53872875616E+03  0.50400001928E-02 0. -1.
        1   -1    0    0  501    0  0.00000000000E+00  0.00000000000E+00 -0.56463499817E+03  0.56463499819E+03  0.50400001928E-02 0.  1.
    10030    2    1    2    0    0  0.00000000000E+00  0.00000000000E+00 -0.25906242032E+02  0.11033637544E+04  0.11030595818E+04 0.  0.
        4    1    3    3  502    0 -0.86376519382E+02  0.29838869347E+02 -0.55700772505E+03  0.56445591493E+03  0.12699999809E+01 0.  1.
       -4    1    3    3    0  502  0.86376519382E+02 -0.29838869347E+02  0.53110148302E+03  0.53890783942E+03  0.12699999809E+01 0. -1.
</event>
<event>
 5   0  0.2467448E-03  0.1091056E+04  0.7818609E-02  0.9213954E-01
       -2   -1    0    0    0  501  0.00000000000E+00  0.00000000000E+00  0.24799015775E+03  0.24799015776E+03  0.25500000920E-02 0. -1.
        2   -1    0    0  501    0  0.00000000000E+00  0.00000000000E+00 -0.12000502951E+04  0.12000502951E+04  0.25500000920E-02 0.  1.
    10030    2    1    2    0    0  0.00000000000E+00  0.00000000000E+00 -0.95206013740E+03  0.14480404529E+04  0.10910557493E+04 0.  0.
        1    1    3    3  502    0  0.52673511762E+03  0.13716561146E+03 -0.52454747543E+03  0.75591953481E+03  0.50400001928E-02 0. -1.
       -1    1    3    3    0  502 -0.52673511762E+03 -0.13716561146E+03 -0.42751266197E+03  0.69212091810E+03  0.50400001928E-02 0.  1.
</event>
<event>
 5   0  0.2488472E-03  0.1100902E+04  0.7818609E-02  0.9204313E-01
       -2   -1    0    0    0  501  0.00000000000E+00  0.00000000000E+00  0.25890470734E+03  0.25890470736E+03  0.25500000920E-02 0.  1.
        2   -1    0    0  501    0  0.00000000000E+00  0.00000000000E+00 -0.11703015266E+04  0.11703015266E+04  0.25500000920E-02 0. -1.
    10030    2    1    2    0    0  0.00000000000E+00  0.00000000000E+00 -0.91139681927E+03  0.14292062340E+04  0.11009024921E+04 0.  0.
        2    1    3    3  502    0 -0.77248736107E+02  0.80373777289E+02  0.24409666736E+03  0.26834771161E+03  0.25500000920E-02 0.  1.
       -2    1    3    3    0  502  0.77248736107E+02 -0.80373777289E+02 -0.11554934866E+04  0.11608585224E+04  0.25500000920E-02 0. -1.
</event>
<event>
 5   0  0.1415400E-03  0.1098823E+04  0.7818609E-02  0.9206340E-01
       -1   -1    0    0    0  501  0.00000000000E+00  0.00000000000E+00  0.66170914455E+03  0.66170914457E+03  0.50400001928E-02 0.  1.
        1   -1    0    0  501    0  0.00000000000E+00  0.00000000000E+00 -0.45617140295E+03  0.45617140297E+03  0.50400001928E-02 0. -1.
    10030    2    1    2    0    0  0.00000000000E+00  0.00000000000E+00  0.20553774160E+03  0.11178805475E+04  0.10988226223E+04 0.  0.
        2    1    3    3  502    0 -0.43621395538E+03 -0.28346684734E+03 -0.76978043823E+02  0.52589132684E+03  0.25500000920E-02 0. -1.
       -2    1    3    3    0  502  0.43621395538E+03  0.28346684734E+03  0.28251578543E+03  0.59198922070E+03  0.25500000920E-02 0.  1.
</event>
<event>
 5   0  0.2392585E-03  0.1090430E+04  0.7818609E-02  0.9214570E-01
        2   -1    0    0  501    0  0.00000000000E+00  0.00000000000E+00  0.70280081753E+03  0.70280081753E+03  0.25500000920E-02 0.  1.
       -2   -1    0    0    0  501  0.00000000000E+00  0.00000000000E+00 -0.42296424193E+03  0.42296424193E+03  0.25500000920E-02 0. -1.
    10030    2    1    2    0    0  0.00000000000E+00  0.00000000000E+00  0.27983657560E+03  0.11257650595E+04  0.10904304013E+04 0.  0.
        5    1    3    3  502    0  0.48251921163E+03  0.12449480049E+03  0.36824957628E+03  0.61963988362E+03  0.46999998093E+01 0. -1.
       -5    1    3    3    0  502 -0.48251921163E+03 -0.12449480049E+03 -0.88413000675E+02  0.50612517585E+03  0.46999998093E+01 0.  1.
</event>
<event>
 5   0  0.1509004E-03  0.1102929E+04  0.7818609E-02  0.9202342E-01
        1   -1    0    0  501    0  0.00000000000E+00  0.00000000000E+00  0.43930140329E+03  0.43930140332E+03  0.50400001928E-02 0. -1.
       -1   -1    0    0    0  501  0.00000000000E+00  0.00000000000E+00 -0.69226549697E+03  0.69226549699E+03  0.50400001928E-02 0.  1.
    10030    2    1    2    0    0  0.00000000000E+00  0.00000000000E+00 -0.25296409369E+03  0.11315669003E+04  0.11029291986E+04 0.  0.
        3    1    3    3  502    0 -0.26183562985E+03 -0.28674540831E+03 -0.52822616054E+03  0.65559416801E+03  0.10100000352E+00 0.  1.
       -3    1    3    3    0  502  0.26183562985E+03  0.28674540831E+03  0.27526206686E+03  0.47597273230E+03  0.10100000352E+00 0. -1.
</event>
<event>
 5   0  0.1509004E-03  0.1110830E+04  0.7818609E-02  0.9194700E-01
       -1   -1    0    0    0  501  0.00000000000E+00  0.00000000000E+00  0.17186272279E+03  0.17186272287E+03  0.50400001928E-02 0. -1.
        1   -1    0    0  501    0  0.00000000000E+00  0.00000000000E+00 -0.17949558303E+04  0.17949558303E+04  0.50400001928E-02 0.  1.
    10030    2    1    2    0    0  0.00000000000E+00  0.00000000000E+00 -0.16230931075E+04  0.19668185531E+04  0.11108303135E+04 0.  0.
        3    1    3    3  502    0  0.27995599395E+03  0.37592355331E+03 -0.13391453076E+04  0.14188037360E+04  0.10100000352E+00 0.  1.
       -3    1    3    3    0  502 -0.27995599395E+03 -0.37592355331E+03 -0.28394779993E+03  0.54801481710E+03  0.10100000352E+00 0. -1.
</event>
<event>
 5   0  0.1479573E-03  0.1071382E+04  0.7818609E-02  0.9233543E-01
       -1   -1    0    0    0  501  0.00000000000E+00  0.00000000000E+00  0.38128475031E+03  0.38128475034E+03  0.50400001928E-02 0.  1.
        1   -1    0    0  501    0  0.00000000000E+00  0.00000000000E+00 -0.75262554426E+03  0.75262554427E+03  0.50400001928E-02 0. -1.
    10030    2    1    2    0    0  0.00000000000E+00  0.00000000000E+00 -0.37134079395E+03  0.11339102946E+04  0.10713816178E+04 0.  0.
        4    1    3    3  502    0  0.15368563582E+03 -0.40794255745E+03  0.14383008404E+03  0.45904804848E+03  0.12699999809E+01 0.  1.
       -4    1    3    3    0  502 -0.15368563582E+03  0.40794255745E+03 -0.51517087799E+03  0.67486224614E+03  0.12699999809E+01 0. -1.
</event>
<event>
 5   0  0.2438115E-03  0.1100303E+04  0.7818609E-02  0.9204897E-01
       -2   -1    0    0    0  501  0.00000000000E+00  0.00000000000E+00  0.18462619931E+03  0.18462619933E+03  0.25500000920E-02 0. -1.
        2   -1    0    0  501    0  0.00000000000E+00  0.00000000000E+00 -0.16393484308E+04  0.16393484308E+04  0.25500000920E-02 0.  1.
    10030    2    1    2    0    0  0.00000000000E+00  0.00000000000E+00 -0.14547222315E+04  0.18239746302E+04  0.11003029949E+04 0.  0.
        4    1    3    3  502    0  0.22350460683E+03  0.27477238168E+03 -0.29527804005E+02  0.35542604733E+03  0.12699999809E+01 0. -1.
       -4    1    3    3    0  502 -0.22350460683E+03 -0.27477238168E+03 -0.14251944275E+04  0.14685485828E+04  0.12699999809E+01 0.  1.
</event>
<event>
 5   0  0.2488472E-03  0.1095006E+04  0.7818609E-02  0.9210073E-01
        2   -1    0    0  501    0  0.00000000000E+00  0.00000000000E+00  0.13766605007E+04  0.13766605007E+04  0.25500000920E-02 0. -1.
       -2   -1    0    0    0  501  0.00000000000E+00  0.00000000000E+00 -0.21774404937E+03  0.21774404938E+03  0.25500000920E-02 0.  1.
    10030    2    1    2    0    0  0.00000000000E+00  0.00000000000E+00  0.11589164514E+04  0.15944045501E+04  0.10950061772E+04 0.  0.
        2    1    3    3  502    0  0.47827651743E+03  0.13229840345E+03  0.24264224873E+03  0.55238261700E+03  0.25500000920E-02 0.  1.
       -2    1    3    3    0  502 -0.47827651743E+03 -0.13229840345E+03  0.91627420265E+03  0.10420219331E+04  0.25500000920E-02 0. -1.
</event>
<event>
 5   0  0.2438115E-03  0.1095563E+04  0.7818609E-02  0.9209528E-01
        2   -1    0    0  501    0  0.00000000000E+00  0.00000000000E+00  0.18682240353E+04  0.18682240353E+04  0.25500000920E-02 0.  1.
       -2   -1    0    0    0  501  0.00000000000E+00  0.00000000000E+00 -0.16061476117E+03  0.16061476119E+03  0.25500000920E-02 0. -1.
    10030    2    1    2    0    0  0.00000000000E+00  0.00000000000E+00  0.17076092742E+04  0.20288387965E+04  0.10955626085E+04 0.  0.
        4    1    3    3  502    0  0.40226648522E+03 -0.76068532340E+02  0.15277883977E+04  0.15816901554E+04  0.12699999809E+01 0.  1.
       -4    1    3    3    0  502 -0.40226648522E+03  0.76068532340E+02  0.17982087652E+03  0.44714864115E+03  0.12699999809E+01 0. -1.
</event>
<event>
 5   0  0.2467448E-03  0.1097600E+04  0.7818609E-02  0.9207534E-01
        2   -1    0    0  501    0  0.00000000000E+00  0.00000000000E+00  0.92071142305E+03  0.92071142306E+03  0.25500000920E-02 0. -1.
       -2   -1    0    0    0  501  0.00000000000E+00  0.00000000000E+00 -0.32711824745E+03  0.32711824746E+03  0.25500000920E-02 0.  1.
    10030    2    1    2    0    0  0.00000000000E+00  0.00000000000E+00  0.59359317561E+03  0.12478296705E+04  0.10976001223E+04 0.  0.
        1    1    3    3  502    0 -0.53999815233E+03  0.93090042627E+02  0.26235584272E+03  0.60753135622E+03  0.50400001928E-02 0. -1.
       -1    1    3    3    0  502  0.53999815233E+03 -0.93090042627E+02  0.33123733289E+03  0.64029831429E+03  0.50400001928E-02 0.  1.
</event>
<event>
 5   0  0.2483036E-03  0.1100726E+04  0.7818609E-02  0.9204485E-01
        2   -1    0    0  501    0  0.00000000000E+00  0.00000000000E+00  0.77937288892E+03  0.77937288892E+03  0.25500000920E-02 0.  1.
       -2   -1    0    0    0  501  0.00000000000E+00  0.00000000000E+00 -0.38864510311E+03  0.38864510312E+03  0.25500000920E-02 0. -1.
    10030    2    1    2    0    0  0.00000000000E+00  0.00000000000E+00  0.39072778581E+03  0.11680179920E+04  0.11007260455E+04 0.  0.
        3    1    3    3  502    0  0.42989025684E+03  0.34315617706E+03  0.21486255548E+03  0.59053172881E+03  0.10100000352E+00 0. -1.
       -3    1    3    3    0  502 -0.42989025684E+03 -0.34315617706E+03  0.17586523032E+03  0.57748626323E+03  0.10100000352E+00 0.  1.
</event>
<event>
 5   0  0.1480937E-03  0.1120635E+04  0.7818609E-02  0.9185310E-01
        1   -1    0    0  501    0  0.00000000000E+00  0.00000000000E+00  0.14004396383E+04  0.14004396383E+04  0.50400001928E-02 0.  1.
       -1   -1    0    0    0  501  0.00000000000E+00  0.00000000000E+00 -0.22418360233E+03  0.22418360239E+03  0.50400001928E-02 0. -1.
    10030    2    1    2    0    0  0.00000000000E+00  0.00000000000E+00  0.11762560359E+04  0.16246232407E+04  0.11206348255E+04 0.  0.
        1    1    3    3  502    0 -0.31660080447E+01 -0.28958127533E+03 -0.10727373474E+03  0.30882841971E+03  0.50400001928E-02 0. -1.
       -1    1    3    3    0  502  0.31660080447E+01  0.28958127533E+03  0.12835297707E+04  0.13157948210E+04  0.50400001928E-02 0.  1.
</event>
<event>
 5   0  0.2488472E-03  0.1097410E+04  0.7818609E-02  0.9207720E-01
       -2   -1    0    0    0  501  0.00000000000E+00  0.00000000000E+00  0.24299933051E+03  0.24299933052E+03  0.25500000920E-02 0.  1.
        2   -1    0    0  501    0  0.00000000000E+00  0.00000000000E+00 -0.12390031114E+04  0.12390031114E+04  0.25500000920E-02 0. -1.
    10030    2    1    2    0    0  0.00000000000E+00  0.00000000000E+00 -0.99600378093E+03  0.14820024420E+04  0.10974095436E+04 0.  0.
        2    1    3    3  502    0  0.17007070807E+03  0.12725181332E+03 -0.11812306135E+04  0.12001761670E+04  0.25500000920E-02 0. -1.
       -2    1    3    3    0  502 -0.17007070807E+03 -0.12725181332E+03  0.18522683254E+03  0.28182627492E+03  0.25500000920E-02 0.  1.
</event>
<event>
 5   0  0.1415400E-03  0.1084639E+04  0.7818609E-02  0.9220294E-01
        1   -1    0    0  501    0  0.00000000000E+00  0.00000000000E+00  0.60678645055E+03  0.60678645057E+03  0.50400001928E-02 0.  1.
       -1   -1    0    0    0  501  0.00000000000E+00  0.00000000000E+00 -0.48470166659E+03  0.48470166662E+03  0.50400001928E-02 0. -1.
    10030    2    1    2    0    0  0.00000000000E+00  0.00000000000E+00  0.12208478396E+03  0.10914881172E+04  0.10846389332E+04 0.  0.
        2    1    3    3  502    0 -0.41526856127E+03  0.33914959276E+03 -0.20958239270E+02  0.53657214990E+03  0.25500000920E-02 0.  1.
       -2    1    3    3    0  502  0.41526856127E+03 -0.33914959276E+03  0.14304302323E+03  0.55491596729E+03  0.25500000920E-02 0. -1.
</event>
<event>
 5   0  0.2488472E-03  0.1191912E+04  0.7818609E-02  0.9119965E-01
       -2   -1    0    0    0  501  0.00000000000E+00  0.00000000000E+00  0.75977726270E+03  0.75977726270E+03  0.25500000920E-02 0. -1.
        2   -1    0    0  501    0  0.00000000000E+00  0.00000000000E+00 -0.46745764208E+03  0.46745764209E+03  0.25500000920E-02 0.  1.
    10030    2    1    2    0    0  0.00000000000E+00  0.00000000000E+00  0.29231962062E+03  0.12272349048E+04  0.11919122245E+04 0.  0.
        2    1    3    3  502    0 -0.22052057143E+03 -0.42318778394E+03 -0.22141633706E+03  0.52606313045E+03  0.25500000920E-02 0.  1.
       -2    1    3    3    0  502  0.22052057143E+03  0.42318778394E+03  0.51373595768E+03  0.70117177433E+03  0.25500000920E-02 0. -1.
</event>
<event>
 5   0  0.2438115E-03  0.1095738E+04  0.7818609E-02  0.9209356E-01
        2   -1    0    0  501    0  0.00000000000E+00  0.00000000000E+00  0.83077657963E+03  0.83077657963E+03  0.25500000920E-02 0.  1.
       -2   -1    0    0    0  501  0.00000000000E+00  0.00000000000E+00 -0.36130107632E+03  0.36130107633E+03  0.25500000920E-02 0. -1.
    10030    2    1    2    0    0  0.00000000000E+00  0.00000000000E+00  0.46947550330E+03  0.11920776560E+04  0.10957380570E+04 0.  0.
        4    1    3    3  502    0 -0.64171115320E+02 -0.14104538461E+03 -0.33696208291E+03  0.37088649313E+03  0.12699999809E+01 0. -1.
       -4    1    3    3    0  502  0.64171115320E+02  0.14104538461E+03  0.80643758622E+03  0.82119116284E+03  0.12699999809E+01 0.  1.
</event>
<event>
 5   0  0.1479573E-03  0.1112475E+04  0.7818609E-02  0.9193117E-01
       -1   -1    0    0    0  501  0.00000000000E+00  0.00000000000E+00  0.17139254188E+03  0.17139254196E+03  0.50400001928E-02 0. -1.
        1   -1    0    0  501    0  0.00000000000E+00  0.00000000000E+00 -0.18052151932E+04  0.18052151932E+04  0.50400001928E-02 0.  1.
    10030    2    1    2    0    0  0.00000000000E+00  0.00000000000E+00 -0.16338226514E+04  0.19766077352E+04  0.11124754751E+04 0.  0.
        4    1    3    3  502    0  0.26113055594E+03 -0.28621303658E+03 -0.10777999988E+03  0.40215073148E+03  0.12699999809E+01 0. -1.
       -4    1    3    3    0  502 -0.26113055594E+03  0.28621303658E+03 -0.15260426515E+04  0.15744570037E+04  0.12699999809E+01 0.  1.
</event>
<event>
 5   0  0.1509004E-03  0.1101251E+04  0.7818609E-02  0.9203974E-01
        1   -1    0    0  501    0  0.00000000000E+00  0.00000000000E+00  0.98531040242E+03  0.98531040243E+03  0.50400001928E-02 0.  1.
       -1   -1    0    0    0  501  0.00000000000E+00  0.00000000000E+00 -0.30770850250E+03  0.30770850254E+03  0.50400001928E-02 0. -1.
    10030    2    1    2    0    0  0.00000000000E+00  0.00000000000E+00  0.67760189992E+03  0.12930189050E+04  0.11012509041E+04 0.  0.
        3    1    3    3  502    0  0.29223346232E+03  0.16410999457E+03  0.85174663632E+03  0.91531679188E+03  0.10100000352E+00 0.  1.
       -3    1    3    3    0  502 -0.29223346232E+03 -0.16410999457E+03 -0.17414473640E+03  0.37770211309E+03  0.10100000352E+00 0. -1.
</event>
<event>
 5   0  0.2483036E-03  0.1104621E+04  0.7818609E-02  0.9200700E-01
        2   -1    0    0  501    0  0.00000000000E+00  0.00000000000E+00  0.12813428224E+04  0.12813428224E+04  0.25500000920E-02 0. -1.
       -2   -1    0    0    0  501  0.00000000000E+00  0.00000000000E+00 -0.23806813239E+03  0.23806813241E+03  0.25500000920E-02 0.  1.
    10030    2    1    2    0    0  0.00000000000E+00  0.00000000000E+00  0.10432746900E+04  0.15194109548E+04  0.11046210078E+04 0.  0.
        3    1    3    3  502    0  0.25024241644E+03 -0.35569654917E+03  0.98992652995E+03  0.10812473570E+04  0.10100000352E+00 0. -1.
       -3    1    3    3    0  502 -0.25024241644E+03  0.35569654917E+03  0.53348160051E+02  0.43816359783E+03  0.10100000352E+00 0.  1.
</event>
<event>
 5   0  0.1468556E-03  0.1102514E+04  0.7818609E-02  0.9202745E-01
        1   -1    0    0  501    0  0.00000000000E+00  0.00000000000E+00  0.13846713992E+04  0.13846713992E+04  0.50400001928E-02 0.  1.
       -1   -1    0    0    0  501  0.00000000000E+00  0.00000000000E+00 -0.21946316492E+03  0.21946316498E+03  0.50400001928E-02 0. -1.
    10030    2    1    2    0    0  0.00000000000E+00  0.00000000000E+00  0.11652082343E+04  0.16041345642E+04  0.11025141590E+04 0.  0.
        5    1    3    3  502    0  0.18104625499E+03  0.79827460643E+02  0.13311932602E+04  0.13458260496E+04  0.46999998093E+01 0.  1.
       -5    1    3    3    0  502 -0.18104625499E+03 -0.79827460643E+02 -0.16598502584E+03  0.25830851461E+03  0.46999998093E+01 0. -1.
</event>
<event>
 5   0  0.1479573E-03  0.1097433E+04  0.7818609E-02  0.9207698E-01
       -1   -1    0    0    0  501  0.00000000000E+00  0.00000000000E+00  0.45213499370E+03  0.45213499373E+03  0.50400001928E-02 0.  1.
        1   -1    0    0  501    0  0.00000000000E+00  0.00000000000E+00 -0.66592847703E+03  0.66592847705E+03  0.50400001928E-02 0. -1.
    10030    2    1    2    0    0  0.00000000000E+00  0.00000000000E+00 -0.21379348333E+03  0.11180634708E+04  0.10974325816E+04 0.  0.
        4    1    3    3  502    0  0.46269811925E+03  0.27398870289E+03  0.43745870773E+01  0.53775469201E+03  0.12699999809E+01 0. -1.
       -4    1    3    3    0  502 -0.46269811925E+03 -0.27398870289E+03 -0.21816807040E+03  0.58030877877E+03  0.12699999809E+01 0.  1.
</event>
<event>
 5   0  0.2438115E-03  0.1108558E+04  0.7818609E-02  0.9196891E-01
        2   -1    0    0  501    0  0.00000000000E+00  0.00000000000E+00  0.13285429590E+04  0.13285429590E+04  0.25500000920E-02 0. -1.
       -2   -1    0    0    0  501  0.00000000000E+00  0.00000000000E+00 -0.23124972726E+03  0.23124972727E+03  0.25500000920E-02 0.  1.
    10030    2    1    2    0    0  0.00000000000E+00  0.00000000000E+00  0.10972932317E+04  0.15597926863E+04  0.11085579767E+04 0.  0.
        4    1    3    3  502    0  0.44722554445E+03 -0.19040751370E+03  0.17383868724E+03  0.51622399302E+03  0.12699999809E+01 0.  1.
       -4    1    3    3    0  502 -0.44722554445E+03  0.19040751370E+03  0.92345454451E+03  0.10435686933E+04  0.12699999809E+01 0. -1.
</event>
<event>
 5   0  0.2467448E-03  0.1105357E+04  0.7818609E-02  0.9199987E-01
        2   -1    0    0  501    0  0.00000000000E+00  0.00000000000E+00  0.94368163219E+03  0.94368163219E+03  0.25500000920E-02 0.  1.
       -2   -1    0    0    0  501  0.00000000000E+00  0.00000000000E+00 -0.32368252817E+03  0.32368252818E+03  0.25500000920E-02 0. -1.
    10030    2    1    2    0    0  0.00000000000E+00  0.00000000000E+00  0.61999910401E+03  0.12673641604E+04  0.11053565153E+04 0.  0.
        1    1    3    3  502    0  0.11429500062E+03 -0.33349328969E+03  0.79802756043E+03  0.87242713659E+03  0.50400001928E-02 0.  1.
       -1    1    3    3    0  502 -0.11429500062E+03  0.33349328969E+03 -0.17802845641E+03  0.39493702378E+03  0.50400001928E-02 0. -1.
</event>
<event>
 5   0  0.1415400E-03  0.1104195E+04  0.7818609E-02  0.9201113E-01
        1   -1    0    0  501    0  0.00000000000E+00  0.00000000000E+00  0.58681695252E+03  0.58681695254E+03  0.50400001928E-02 0. -1.
       -1   -1    0    0    0  501  0.00000000000E+00  0.00000000000E+00 -0.51943226137E+03  0.51943226139E+03  0.50400001928E-02 0.  1.
    10030    2    1    2    0    0  0.00000000000E+00  0.00000000000E+00  0.67384691151E+02  0.11062492139E+04  0.11041950130E+04 0.  0.
        2    1    3    3  502    0  0.36918817078E+03 -0.13256267584E+02  0.44474336019E+03  0.57816285813E+03  0.25500000920E-02 0. -1.
       -2    1    3    3    0  502 -0.36918817078E+03  0.13256267584E+02 -0.37735866904E+03  0.52808635580E+03  0.25500000920E-02 0.  1.
</event>
<event>
 5   0  0.2488472E-03  0.1115686E+04  0.7818609E-02  0.9190036E-01
       -2   -1    0    0    0  501  0.00000000000E+00  0.00000000000E+00  0.27967373153E+03  0.27967373154E+03  0.25500000920E-02 0. -1.
        2   -1    0    0  501    0  0.00000000000E+00  0.00000000000E+00 -0.11126860989E+04  0.11126860989E+04  0.25500000920E-02 0.  1.
    10030    2    1    2    0    0  0.00000000000E+00  0.00000000000E+00 -0.83301236741E+03  0.13923598305E+04  0.11156864673E+04 0.  0.
        2    1    3    3  502    0  0.73376963060E+02  0.20398456548E+03 -0.10579694254E+04  0.10799505483E+04  0.25500000920E-02 0.  1.
       -2    1    3    3    0  502 -0.73376963060E+02 -0.20398456548E+03  0.22495705799E+03  0.31240928220E+03  0.25500000920E-02 0. -1.
</event>
<event>
 5   0  0.2467448E-03  0.1111993E+04  0.7818609E-02  0.9193581E-01
       -2   -1    0    0    0  501  0.00000000000E+00  0.00000000000E+00  0.45375277421E+03  0.45375277422E+03  0.25500000920E-02 0. -1.
        2   -1    0    0  501    0  0.00000000000E+00  0.00000000000E+00 -0.68127864634E+03  0.68127864635E+03  0.25500000920E-02 0.  1.
    10030    2    1    2    0    0  0.00000000000E+00  0.00000000000E+00 -0.22752587214E+03  0.11350314206E+04  0.11119929421E+04 0.  0.
        1    1    3    3  502    0 -0.13029704793E+03 -0.68893880982E+01  0.43790412285E+03  0.45692975959E+03  0.50400001928E-02 0. -1.
       -1    1    3    3    0  502  0.13029704793E+03  0.68893880982E+01 -0.66542999498E+03  0.67810166097E+03  0.50400001928E-02 0.  1.
</event>
<event>
 5   0  0.2483036E-03  0.1108182E+04  0.7818609E-02  0.9197254E-01
        2   -1    0    0  501    0  0.00000000000E+00  0.00000000000E+00  0.13751519459E+04  0.13751519459E+04  0.25500000920E-02 0. -1.
       -2   -1    0    0    0  501  0.00000000000E+00  0.00000000000E+00 -0.22326024127E+03  0.22326024128E+03  0.25500000920E-02 0.  1.
    10030    2    1    2    0    0  0.00000000000E+00  0.00000000000E+00  0.11518917047E+04  0.15984121872E+04  0.11081818537E+04 0.  0.
        3    1    3    3  502    0 -0.38442502265E+03  0.29117397993E+03  0.18238170812E+03  0.51558508734E+03  0.10100000352E+00 0.  1.
       -3    1    3    3    0  502  0.38442502265E+03 -0.29117397993E+03  0.96950999653E+03  0.10828270999E+04  0.10100000352E+00 0. -1.
</event>
<event>
 5   0  0.2488472E-03  0.1089418E+04  0.7818609E-02  0.9215568E-01
        2   -1    0    0  501    0  0.00000000000E+00  0.00000000000E+00  0.61696266503E+03  0.61696266504E+03  0.25500000920E-02 0. -1.
       -2   -1    0    0    0  501  0.00000000000E+00  0.00000000000E+00 -0.48091690245E+03  0.48091690246E+03  0.25500000920E-02 0.  1.
    10030    2    1    2    0    0  0.00000000000E+00  0.00000000000E+00  0.13604576258E+03  0.10978795675E+04  0.10894177781E+04 0.  0.
        2    1    3    3  502    0 -0.33541754049E+03 -0.38423429068E+03  0.26073279733E+03  0.57281978686E+03  0.25500000920E-02 0. -1.
       -2    1    3    3    0  502  0.33541754049E+03  0.38423429068E+03 -0.12468703475E+03  0.52505978064E+03  0.25500000920E-02 0.  1.
</event>
<event>
 5   0  0.1468556E-03  0.1099594E+04  0.7818609E-02  0.9205587E-01
       -1   -1    0    0    0  501  0.00000000000E+00  0.00000000000E+00  0.36199661264E+03  0.36199661267E+03  0.50400001928E-02 0. -1.
        1   -1    0    0  501    0  0.00000000000E+00  0.00000000000E+00 -0.83502717303E+03  0.83502717304E+03  0.50400001928E-02 0.  1.
    10030    2    1    2    0    0  0.00000000000E+00  0.00000000000E+00 -0.47303056039E+03  0.11970237857E+04  0.10995944855E+04 0.  0.
        5    1    3    3  502    0  0.21411130188E+03 -0.36124010819E+03 -0.62280411639E+03  0.75116251421E+03  0.46999998093E+01 0.  1.
       -5    1    3    3    0  502 -0.21411130188E+03  0.36124010819E+03  0.14977355600E+03  0.44586127151E+03  0.46999998093E+01 0. -1.
</event>
<event>
 5   0  0.2438115E-03  0.1103588E+04  0.7818609E-02  0.9201702E-01
        2   -1    0    0  501    0  0.00000000000E+00  0.00000000000E+00  0.16414669246E+04  0.16414669246E+04  0.25500000920E-02 0. -1.
       -2   -1    0    0    0  501  0.00000000000E+00  0.00000000000E+00 -0.18549063573E+03  0.18549063575E+03  0.25500000920E-02 0.  1.
    10030    2    1    2    0    0  0.00000000000E+00  0.00000000000E+00  0.14559762888E+04  0.18269575603E+04  0.11035882264E+04 0.  0.
        4    1    3    3  502    0 -0.15080576887E+03  0.52018763673E+03  0.55327857829E+03  0.77424566865E+03  0.12699999809E+01 0.  1.
       -4    1    3    3    0  502  0.15080576887E+03 -0.52018763673E+03  0.90269771055E+03  0.10527118917E+04  0.12699999809E+01 0. -1.
</event>
<event>
 5   0  0.1509004E-03  0.1117711E+04  0.7818609E-02  0.9188099E-01
       -1   -1    0    0    0  501  0.00000000000E+00  0.00000000000E+00  0.44569224903E+03  0.44569224906E+03  0.50400001928E-02 0. -1.
        1   -1    0    0  501    0  0.00000000000E+00  0.00000000000E+00 -0.70075160665E+03  0.70075160667E+03  0.50400001928E-02 0.  1.
    10030    2    1    2    0    0  0.00000000000E+00  0.00000000000E+00 -0.25505935762E+03  0.11464438557E+04  0.11177111606E+04 0.  0.
        3    1    3    3  502    0  0.39175959250E+03 -0.14307477126E+03 -0.50907821669E+03  0.65810835687E+03  0.10100000352E+00 0.  1.
       -3    1    3    3    0  502 -0.39175959250E+03  0.14307477126E+03  0.25401885906E+03  0.48833549886E+03  0.10100000352E+00 0. -1.
</event>
<event>
 5   0  0.1480937E-03  0.1086681E+04  0.7818609E-02  0.9218271E-01
       -1   -1    0    0    0  501  0.00000000000E+00  0.00000000000E+00  0.24167546057E+03  0.24167546062E+03  0.50400001928E-02 0. -1.
        1   -1    0    0  501    0  0.00000000000E+00  0.00000000000E+00 -0.12215520541E+04  0.12215520541E+04  0.50400001928E-02 0.  1.
    10030    2    1    2    0    0  0.00000000000E+00  0.00000000000E+00 -0.97987659352E+03  0.14632275147E+04  0.10866814719E+04 0.  0.
        1    1    3    3  502    0  0.37757071263E+03  0.84026959809E+02 -0.10037319869E+04  0.10756849328E+04  0.50400001928E-02 0.  1.
       -1    1    3    3    0  502 -0.37757071263E+03 -0.84026959809E+02  0.23855393385E+02  0.38754258195E+03  0.50400001928E-02 0. -1.
</event>
<event>
 5   0  0.2483036E-03  0.1096356E+04  0.7818609E-02  0.9208751E-01
       -2   -1    0    0    0  501  0.00000000000E+00  0.00000000000E+00  0.13423122606E+03  0.13423122609E+03  0.25500000920E-02 0. -1.
        2   -1    0    0  501    0  0.00000000000E+00  0.00000000000E+00 -0.22386689797E+04  0.22386689797E+04  0.25500000920E-02 0.  1.
    10030    2    1    2    0    0  0.00000000000E+00  0.00000000000E+00 -0.21044377537E+04  0.23729002058E+04  0.10963562960E+04 0.  0.
        3    1    3    3  502    0 -0.27937132239E+03  0.17976779053E+03 -0.19959715544E+04  0.20234295763E+04  0.10100000352E+00 0.  1.
       -3    1    3    3    0  502  0.27937132239E+03 -0.17976779053E+03 -0.10846619929E+03  0.34947062949E+03  0.10100000352E+00 0. -1.
</event>
<event>
 5   0  0.9631750E-04  0.1100921E+04  0.7818609E-02  0.9204294E-01
       -3   -1    0    0    0  501  0.00000000000E+00  0.00000000000E+00  0.22463471393E+03  0.22463473664E+03  0.10100000352E+00 0.  1.
        3   -1    0    0  501    0  0.00000000000E+00  0.00000000000E+00 -0.13488874056E+04  0.13488874094E+04  0.10100000352E+00 0. -1.
    10030    2    1    2    0    0  0.00000000000E+00  0.00000000000E+00 -0.11242526917E+04  0.15735221461E+04  0.11009213547E+04 0.  0.
        2    1    3    3  502    0 -0.45916807276E+03 -0.26108762835E+03 -0.78357161735E+03  0.94497965493E+03  0.25500000920E-02 0. -1.
       -2    1    3    3    0  502  0.45916807276E+03  0.26108762835E+03 -0.34068107436E+03  0.62854249113E+03  0.25500000920E-02 0.  1.
</event>
<event>
 5   0  0.1509004E-03  0.1094229E+04  0.7818609E-02  0.9210835E-01
        1   -1    0    0  501    0  0.00000000000E+00  0.00000000000E+00  0.91825450788E+03  0.91825450790E+03  0.50400001928E-02 0. -1.
       -1   -1    0    0    0  501  0.00000000000E+00  0.00000000000E+00 -0.32598194146E+03  0.32598194150E+03  0.50400001928E-02 0.  1.
    10030    2    1    2    0    0  0.00000000000E+00  0.00000000000E+00  0.59227256642E+03  0.12442364494E+04  0.10942292032E+04 0.  0.
        3    1    3    3  502    0  0.26225627706E+03 -0.57166244521E+02 -0.24596809254E+03  0.36406956357E+03  0.10100000352E+00 0.  1.
       -3    1    3    3    0  502 -0.26225627706E+03  0.57166244521E+02  0.83824065896E+03  0.88016688583E+03  0.10100000352E+00 0. -1.
</event>
<event>
 5   0  0.1479573E-03  0.1104723E+04  0.7818609E-02  0.9200600E-01
        1   -1    0    0  501    0  0.00000000000E+00  0.00000000000E+00  0.18447569749E+04  0.18447569749E+04  0.50400001928E-02 0. -1.
       -1   -1    0    0    0  501  0.00000000000E+00  0.00000000000E+00 -0.16538953220E+03  0.16538953228E+03  0.50400001928E-02 0.  1.
    10030    2    1    2    0    0  0.00000000000E+00  0.00000000000E+00  0.16793674427E+04  0.20101465072E+04  0.11047234825E+04 0.  0.
        4    1    3    3  502    0  0.52539639768E+03 -0.14219628168E+03  0.10107711185E+04  0.11480074146E+04  0.12699999809E+01 0. -1.
       -4    1    3    3    0  502 -0.52539639768E+03  0.14219628168E+03  0.66859632421E+03  0.86213909253E+03  0.12699999809E+01 0.  1.
</event>
<event>
 5   0  0.1468556E-03  0.1105009E+04  0.7818609E-02  0.9200324E-01
        1   -1    0    0  501    0  0.00000000000E+00  0.00000000000E+00  0.13171421242E+04  0.13171421242E+04  0.50400001928E-02 0. -1.
       -1   -1    0    0    0  501  0.00000000000E+00  0.00000000000E+00 -0.23176011872E+03  0.23176011877E+03  0.50400001928E-02 0.  1.
    10030    2    1    2    0    0  0.00000000000E+00  0.00000000000E+00  0.10853820055E+04  0.15489022430E+04  0.11050086246E+04 0.  0.
        5    1    3    3  502    0 -0.22847626113E+03 -0.50187856793E+03  0.49504467188E+03  0.74106330094E+03  0.46999998093E+01 0. -1.
       -5    1    3    3    0  502  0.22847626113E+03  0.50187856793E+03  0.59033733362E+03  0.80783894206E+03  0.46999998093E+01 0.  1.
</event>
<event>
 5   0  0.1479573E-03  0.1105055E+04  0.7818609E-02  0.9200279E-01
       -1   -1    0    0    0  501  0.00000000000E+00  0.00000000000E+00  0.66547992462E+03  0.66547992464E+03  0.50400001928E-02 0.  1.
        1   -1    0    0  501    0  0.00000000000E+00  0.00000000000E+00 -0.45874625447E+03  0.45874625450E+03  0.50400001928E-02 0. -1.
    10030    2    1    2    0    0  0.00000000000E+00  0.00000000000E+00  0.20673367014E+03  0.11242261791E+04  0.11050546102E+04 0.  0.
        4    1    3    3  502    0 -0.44755905757E+03  0.27515161504E+03  0.27741169400E+03  0.59411815503E+03  0.12699999809E+01 0.  1.
       -4    1    3    3    0  502  0.44755905757E+03 -0.27515161504E+03 -0.70678023851E+02  0.53010802411E+03  0.12699999809E+01 0. -1.
</event>
<event>
 5   0  0.2483036E-03  0.1090222E+04  0.7818609E-02  0.9214775E-01
       -2   -1    0    0    0  501  0.00000000000E+00  0.00000000000E+00  0.15132720367E+03  0.15132720369E+03  0.25500000920E-02 0. -1.
        2   -1    0    0  501    0  0.00000000000E+00  0.00000000000E+00 -0.19635994926E+04  0.19635994926E+04  0.25500000920E-02 0.  1.
    10030    2    1    2    0    0  0.00000000000E+00  0.00000000000E+00 -0.18122722889E+04  0.21149266963E+04  0.10902220331E+04 0.  0.
        3    1    3    3  502    0  0.18648369631E+03 -0.22109536307E+03 -0.98106325128E+01  0.28940557574E+03  0.10100000352E+00 0. -1.
       -3    1    3    3    0  502 -0.18648369631E+03  0.22109536307E+03 -0.18024616564E+04  0.18255211205E+04  0.10100000352E+00 0.  1.
</event>
<event>
 5   0  0.1479573E-03  0.1096276E+04  0.7818609E-02  0.9208829E-01
        1   -1    0    0  501    0  0.00000000000E+00  0.00000000000E+00  0.62285549415E+03  0.62285549418E+03  0.50400001928E-02 0.  1.
       -1   -1    0    0    0  501  0.00000000000E+00  0.00000000000E+00 -0.48238355012E+03  0.48238355015E+03  0.50400001928E-02 0. -1.
    10030    2    1    2    0    0  0.00000000000E+00  0.00000000000E+00  0.14047194404E+03  0.11052390443E+04  0.10962759589E+04 0.  0.
        4    1    3    3  502    0 -0.25034085449E+02 -0.49378489628E+03  0.30882119115E+03  0.58294285332E+03  0.12699999809E+01 0.  1.
       -4    1    3    3    0  502  0.25034085449E+02  0.49378489628E+03 -0.16834924711E+03  0.52229619100E+03  0.12699999809E+01 0. -1.
</event>
<event>
 5   0  0.2483036E-03  0.1103952E+04  0.7818609E-02  0.9201348E-01
       -2   -1    0    0    0  501  0.00000000000E+00  0.00000000000E+00  0.18874632051E+03  0.18874632053E+03  0.25500000920E-02 0. -1.
        2   -1    0    0  501    0  0.00000000000E+00  0.00000000000E+00 -0.16142179782E+04  0.16142179782E+04  0.25500000920E-02 0.  1.
    10030    2    1    2    0    0  0.00000000000E+00  0.00000000000E+00 -0.14254716577E+04  0.18029642987E+04  0.11039523611E+04 0.  0.
        3    1    3    3  502    0 -0.15417137831E+03  0.38493348618E+03 -0.11771842260E+03  0.43104551951E+03  0.10100000352E+00 0. -1.
       -3    1    3    3    0  502  0.15417137831E+03 -0.38493348618E+03 -0.13077532351E+04  0.13719187792E+04  0.10100000352E+00 0.  1.
</event>
<event>
 5   0  0.2438115E-03  0.1094903E+04  0.7818609E-02  0.9210174E-01
        2   -1    0    0  501    0  0.00000000000E+00  0.00000000000E+00  0.14432279649E+04  0.14432279650E+04  0.25500000920E-02 0.  1.
       -2   -1    0    0    0  501  0.00000000000E+00  0.00000000000E+00 -0.20766161968E+03  0.20766161969E+03  0.25500000920E-02 0. -1.
    10030    2    1    2    0    0  0.00000000000E+00  0.00000000000E+00  0.12355663453E+04  0.16508895846E+04  0.10949028391E+04 0.  0.
        4    1    3    3  502    0 -0.25272622681E+03  0.48437503935E+03  0.67026917298E+03  0.86472660513E+03  0.12699999809E+01 0.  1.
       -4    1    3    3    0  502  0.25272622681E+03 -0.48437503935E+03  0.56529717229E+03  0.78616297952E+03  0.12699999809E+01 0. -1.
</event>
<event>
 5   0  0.1479573E-03  0.1096434E+04  0.7818609E-02  0.9208675E-01
       -1   -1    0    0    0  501  0.00000000000E+00  0.00000000000E+00  0.52031149290E+03  0.52031149293E+03  0.50400001928E-02 0. -1.
        1   -1    0    0  501    0  0.00000000000E+00  0.00000000000E+00 -0.57761881836E+03  0.57761881838E+03  0.50400001928E-02 0.  1.
    10030    2    1    2    0    0  0.00000000000E+00  0.00000000000E+00 -0.57307325456E+02  0.10979303113E+04  0.10964336911E+04 0.  0.
        4    1    3    3  502    0  0.25127072641E+03  0.17818172953E+03  0.42545668222E+03  0.52526251345E+03  0.12699999809E+01 0. -1.
       -4    1    3    3    0  502 -0.25127072641E+03 -0.17818172953E+03 -0.48276400768E+03  0.57266779785E+03  0.12699999809E+01 0.  1.
</event>
<event>
 5   0  0.1480937E-03  0.1103436E+04  0.7818609E-02  0.9201850E-01
        1   -1    0    0  501    0  0.00000000000E+00  0.00000000000E+00  0.15579872335E+03  0.15579872343E+03  0.50400001928E-02 0.  1.
       -1   -1    0    0    0  501  0.00000000000E+00  0.00000000000E+00 -0.19537556017E+04  0.19537556017E+04  0.50400001928E-02 0. -1.
    10030    2    1    2    0    0  0.00000000000E+00  0.00000000000E+00 -0.17979568784E+04  0.21095543252E+04  0.11034357772E+04 0.  0.
        1    1    3    3  502    0 -0.31869673979E+03  0.27902819922E+03 -0.22313897173E+03  0.47876439785E+03  0.50400001928E-02 0.  1.
       -1    1    3    3    0  502  0.31869673979E+03 -0.27902819922E+03 -0.15748179066E+04  0.16307899273E+04  0.50400001928E-02 0. -1.
</event>
<event>
 5   0  0.2488472E-03  0.1100656E+04  0.7818609E-02  0.9204553E-01
        2   -1    0    0  501    0  0.00000000000E+00  0.00000000000E+00  0.84345443667E+03  0.84345443668E+03  0.25500000920E-02 0.  1.
       -2   -1    0    0    0  501  0.00000000000E+00  0.00000000000E+00 -0.35907190013E+03  0.35907190014E+03  0.25500000920E-02 0. -1.
    10030    2    1    2    0    0  0.00000000000E+00  0.00000000000E+00  0.48438253655E+03  0.12025263368E+04  0.11006557814E+04 0.  0.
        2    1    3    3  502    0  0.39187557058E+03 -0.24337790636E+03  0.57006959624E+03  0.73333390259E+03  0.25500000920E-02 0.  1.
       -2    1    3    3    0  502 -0.39187557058E+03  0.24337790636E+03 -0.85687059696E+02  0.46919243422E+03  0.25500000920E-02 0. -1.
</event>
<event>
 5   0  0.2483036E-03  0.1097873E+04  0.7818609E-02  0.9207268E-01
        2   -1    0    0  501    0  0.00000000000E+00  0.00000000000E+00  0.53944198189E+03  0.53944198190E+03  0.25500000920E-02 0.  1.
       -2   -1    0    0    0  501  0.00000000000E+00  0.00000000000E+00 -0.55859778552E+03  0.55859778553E+03  0.25500000920E-02 0. -1.
    10030    2    1    2    0    0  0.00000000000E+00  0.00000000000E+00 -0.19155803628E+02  0.10980397674E+04  0.10978726639E+04 0.  0.
        3    1    3    3  502    0  0.12660824603E+03 -0.50202403755E+03 -0.19201538065E+03  0.55220258859E+03  0.10100000352E+00 0. -1.
       -3    1    3    3    0  502 -0.12660824603E+03  0.50202403755E+03  0.17285957702E+03  0.54583717884E+03  0.10100000352E+00 0.  1.
</event>
<event>
 5   0  0.1479573E-03  0.1139920E+04  0.7818609E-02  0.9167134E-01
       -1   -1    0    0    0  501  0.00000000000E+00  0.00000000000E+00  0.31517746894E+03  0.31517746898E+03  0.50400001928E-02 0.  1.
        1   -1    0    0  501    0  0.00000000000E+00  0.00000000000E+00 -0.10307029893E+04  0.10307029893E+04  0.50400001928E-02 0. -1.
    10030    2    1    2    0    0  0.00000000000E+00  0.00000000000E+00 -0.71552552032E+03  0.13458804582E+04  0.11399199260E+04 0.  0.
        4    1    3    3  502    0  0.24383971189E+03 -0.30450089051E+03  0.13285786823E+03  0.41210608278E+03  0.12699999809E+01 0.  1.
       -4    1    3    3    0  502 -0.24383971189E+03  0.30450089051E+03 -0.84838338855E+03  0.93377437547E+03  0.12699999809E+01 0. -1.
</event>
<event>
 5   0  0.1415400E-03  0.1097292E+04  0.7818609E-02  0.9207835E-01
       -1   -1    0    0    0  501  0.00000000000E+00  0.00000000000E+00  0.11074979017E+04  0.11074979017E+04  0.50400001928E-02 0. -1.
        1   -1    0    0  501    0  0.00000000000E+00  0.00000000000E+00 -0.27179513624E+03  0.27179513628E+03  0.50400001928E-02 0.  1.
    10030    2    1    2    0    0  0.00000000000E+00  0.00000000000E+00  0.83570276549E+03  0.13792930380E+04  0.10972922001E+04 0.  0.
        2    1    3    3  502    0 -0.67582024587E+01 -0.46537227297E+03  0.52682349366E+02  0.46839348383E+03  0.25500000920E-02 0.  1.
       -2    1    3    3    0  502  0.67582024587E+01  0.46537227297E+03  0.78302041612E+03  0.91089955419E+03  0.25500000920E-02 0. -1.
</event>
<event>
 5   0  0.1480937E-03  0.1097487E+04  0.7818609E-02  0.9207644E-01
        1   -1    0    0  501    0  0.00000000000E+00  0.00000000000E+00  0.71705993724E+03  0.71705993726E+03  0.50400001928E-02 0. -1.
       -1   -1    0    0    0  501  0.00000000000E+00  0.00000000000E+00 -0.41993648896E+03  0.41993648899E+03  0.50400001928E-02 0.  1.
    10030    2    1    2    0    0  0.00000000000E+00  0.00000000000E+00  0.29712344828E+03  0.11369964263E+04  0.10974873711E+04 0.  0.
        1    1    3    3  502    0  0.69660820523E+02 -0.47222368025E+03 -0.13187054973E+03  0.49521477767E+03  0.50400001928E-02 0.  1.
       -1    1    3    3    0  502 -0.69660820523E+02  0.47222368025E+03  0.42899399801E+03  0.64178164858E+03  0.50400001928E-02 0. -1.
</event>
<event>
 5   0  0.2488472E-03  0.1098976E+04  0.7818609E-02  0.9206190E-01
       -2   -1    0    0    0  501  0.00000000000E+00  0.00000000000E+00  0.33996456985E+03  0.33996456986E+03  0.25500000920E-02 0.  1.
        2   -1    0    0  501    0  0.00000000000E+00  0.00000000000E+00 -0.88814317048E+03  0.88814317048E+03  0.25500000920E-02 0. -1.
    10030    2    1    2    0    0  0.00000000000E+00  0.00000000000E+00 -0.54817860062E+03  0.12281077403E+04  0.10989762708E+04 0.  0.
        2    1    3    3  502    0  0.35313574657E+03 -0.22328172110E+03  0.12474704939E+03  0.43602913759E+03  0.25500000920E-02 0.  1.
       -2    1    3    3    0  502 -0.35313574657E+03  0.22328172110E+03 -0.67292565002E+03  0.79207860276E+03  0.25500000920E-02 0. -1.
</event>
<event>
 5   0  0.1468556E-03  0.1091537E+04  0.7818609E-02  0.9213480E-01
        1   -1    0    0  501    0  0.00000000000E+00  0.00000000000E+00  0.86278585102E+03  0.86278585104E+03  0.50400001928E-02 0.  1.
       -1   -1    0    0    0  501  0.00000000000E+00  0.00000000000E+00 -0.34523397929E+03  0.34523397933E+03  0.50400001928E-02 0. -1.
    10030    2    1    2    0    0  0.00000000000E+00  0.00000000000E+00  0.51755187173E+03  0.12080198304E+04  0.10915365182E+04 0.  0.
        5    1    3    3  502    0  0.13050270727E+03 -0.40220974322E+03  0.64061228591E+03  0.76760004234E+03  0.46999998093E+01 0.  1.
       -5    1    3    3    0  502 -0.13050270727E+03  0.40220974322E+03 -0.12306041418E+03  0.44041978803E+03  0.46999998093E+01 0. -1.
</event>
<event>
 5   0  0.1509004E-03  0.1099432E+04  0.7818609E-02  0.9205746E-01
        1   -1    0    0  501    0  0.00000000000E+00  0.00000000000E+00  0.77066292903E+03  0.77066292905E+03  0.50400001928E-02 0. -1.
       -1   -1    0    0    0  501  0.00000000000E+00  0.00000000000E+00 -0.39211403854E+03  0.39211403857E+03  0.50400001928E-02 0.  1.
    10030    2    1    2    0    0  0.00000000000E+00  0.00000000000E+00  0.37854889049E+03  0.11627769676E+04  0.10994321325E+04 0.  0.
        3    1    3    3  502    0  0.11433324316E+03 -0.53415508635E+03  0.25441875079E+03  0.60259659617E+03  0.10100000352E+00 0.  1.
       -3    1    3    3    0  502 -0.11433324316E+03  0.53415508635E+03  0.12413013970E+03  0.56018037144E+03  0.10100000352E+00 0. -1.
</event>
<event>
 5   0  0.2483036E-03  0.1088834E+04  0.7818609E-02  0.9216144E-01
       -2   -1    0    0    0  501  0.00000000000E+00  0.00000000000E+00  0.11019961045E+04  0.11019961045E+04  0.25500000920E-02 0. -1.
        2   -1    0    0  501    0  0.00000000000E+00  0.00000000000E+00 -0.26895743010E+03  0.26895743011E+03  0.25500000920E-02 0.  1.
    10030    2    1    2    0    0  0.00000000000E+00  0.00000000000E+00  0.83303867438E+03  0.13709535346E+04  0.10888343129E+04 0.  0.
        3    1    3    3  502    0 -0.14712076082E+03  0.52368392049E+03  0.44469238124E+03  0.70259568101E+03  0.10100000352E+00 0. -1.
       -3    1    3    3    0  502  0.14712076082E+03 -0.52368392049E+03  0.38834629314E+03  0.66835785358E+03  0.10100000352E+00 0.  1.
</event>
<event>
 5   0  0.2483036E-03  0.1123429E+04  0.7818609E-02  0.9182652E-01
        2   -1    0    0  501    0  0.00000000000E+00  0.00000000000E+00  0.12144902704E+04  0.12144902704E+04  0.25500000920E-02 0. -1.
       -2   -1    0    0    0  501  0.00000000000E+00  0.00000000000E+00 -0.25979901368E+03  0.25979901369E+03  0.25500000920E-02 0.  1.
    10030    2    1    2    0    0  0.00000000000E+00  0.00000000000E+00  0.95469125673E+03  0.14742892841E+04  0.11234293469E+04 0.  0.
        3    1    3    3  502    0 -0.16670313107E+03 -0.50247043225E+03  0.23093526149E+03  0.57757906332E+03  0.10100000352E+00 0.  1.
       -3    1    3    3    0  502  0.16670313107E+03  0.50247043225E+03  0.72375599525E+03  0.89671022078E+03  0.10100000352E+00 0. -1.
</event>
<event>
 5   0  0.1480937E-03  0.1101141E+04  0.7818609E-02  0.9204081E-01
       -1   -1    0    0    0  501  0.00000000000E+00  0.00000000000E+00  0.45147382072E+03  0.45147382075E+03  0.50400001928E-02 0.  1.
        1   -1    0    0  501    0  0.00000000000E+00  0.00000000000E+00 -0.67141806506E+03  0.67141806507E+03  0.50400001928E-02 0. -1.
    10030    2    1    2    0    0  0.00000000000E+00  0.00000000000E+00 -0.21994424434E+03  0.11228918858E+04  0.11011406434E+04 0.  0.
        1    1    3    3  502    0  0.20079421984E+03 -0.23476041304E+03 -0.57471224369E+03  0.65247600211E+03  0.50400001928E-02 0. -1.
       -1    1    3    3    0  502 -0.20079421984E+03  0.23476041304E+03  0.35476799936E+03  0.47041588371E+03  0.50400001928E-02 0.  1.
</event>
<event>
 5   0  0.2467448E-03  0.1101046E+04  0.7818609E-02  0.9204173E-01
        2   -1    0    0  501    0  0.00000000000E+00  0.00000000000E+00  0.12021270876E+04  0.12021270876E+04  0.25500000920E-02 0.  1.
       -2   -1    0    0    0  501  0.00000000000E+00  0.00000000000E+00 -0.25211621670E+03  0.25211621671E+03  0.25500000920E-02 0. -1.
    10030    2    1    2    0    0  0.00000000000E+00  0.00000000000E+00  0.95001087092E+03  0.14542433043E+04  0.11010462903E+04 0.  0.
        1    1    3    3  502    0 -0.21177073619E+02 -0.20770138058E+03 -0.19780021986E+03  0.28759912890E+03  0.50400001928E-02 0. -1.
       -1    1    3    3    0  502  0.21177073619E+02  0.20770138058E+03  0.11478110908E+04  0.11666441754E+04  0.50400001928E-02 0.  1.
</event>
<event>
 5   0  0.1415400E-03  0.1097189E+04  0.7818609E-02  0.9207936E-01
        1   -1    0    0  501    0  0.00000000000E+00  0.00000000000E+00  0.16702824297E+04  0.16702824297E+04  0.50400001928E-02 0.  1.
       -1   -1    0    0    0  501  0.00000000000E+00  0.00000000000E+00 -0.18018272216E+03  0.18018272223E+03  0.50400001928E-02 0. -1.
    10030    2    1    2    0    0  0.00000000000E+00  0.00000000000E+00  0.14900997075E+04  0.18504651519E+04  0.10971891998E+04 0.  0.
        2    1    3    3  502    0 -0.25583203561E+03  0.36674544482E+03  0.20904563545E+03  0.49361151674E+03  0.25500000920E-02 0. -1.
       -2    1    3    3    0  502  0.25583203561E+03 -0.36674544482E+03  0.12810540721E+04  0.13568536352E+04  0.25500000920E-02 0.  1.
</event>
<event>
 5   0  0.1480937E-03  0.1099459E+04  0.7818609E-02  0.9205719E-01
        1   -1    0    0  501    0  0.00000000000E+00  0.00000000000E+00  0.49651435621E+03  0.49651435624E+03  0.50400001928E-02 0. -1.
       -1   -1    0    0    0  501  0.00000000000E+00  0.00000000000E+00 -0.60864810461E+03  0.60864810463E+03  0.50400001928E-02 0.  1.
    10030    2    1    2    0    0  0.00000000000E+00  0.00000000000E+00 -0.11213374840E+03  0.11051624609E+04  0.10994589976E+04 0.  0.
        1    1    3    3  502    0  0.44253800288E+03 -0.17958303175E+03 -0.32971534857E+03  0.58034658644E+03  0.50400001928E-02 0.  1.
       -1    1    3    3    0  502 -0.44253800288E+03  0.17958303175E+03  0.21758160017E+03  0.52481587442E+03  0.50400001928E-02 0. -1.
</event>
<event>
 5   0  0.2392585E-03  0.1103644E+04  0.7818609E-02  0.9201647E-01
        2   -1    0    0  501    0  0.00000000000E+00  0.00000000000E+00  0.24252515979E+03  0.24252515981E+03  0.25500000920E-02 0.  1.
       -2   -1    0    0    0  501  0.00000000000E+00  0.00000000000E+00 -0.12555707498E+04  0.12555707498E+04  0.25500000920E-02 0. -1.
    10030    2    1    2    0    0  0.00000000000E+00  0.00000000000E+00 -0.10130455900E+04  0.14980959096E+04  0.11036439584E+04 0.  0.
        5    1    3    3  502    0  0.37777120427E+03  0.36884285503E+03 -0.28878973347E+03  0.60181204262E+03  0.46999998093E+01 0. -1.
       -5    1    3    3    0  502 -0.37777120427E+03 -0.36884285503E+03 -0.72425585649E+03  0.89628386694E+03  0.46999998093E+01 0.  1.
</event>
<event>
 5   0  0.2467448E-03  0.1142757E+04  0.7818609E-02  0.9164492E-01
        2   -1    0    0  501    0  0.00000000000E+00  0.00000000000E+00  0.76568636163E+03  0.76568636163E+03  0.25500000920E-02 0. -1.
       -2   -1    0    0    0  501  0.00000000000E+00  0.00000000000E+00 -0.42637974221E+03  0.42637974222E+03  0.25500000920E-02 0.  1.
    10030    2    1    2    0    0  0.00000000000E+00  0.00000000000E+00  0.33930661942E+03  0.11920661039E+04  0.11427565856E+04 0.  0.
        1    1    3    3  502    0 -0.26179826981E+03  0.44708594075E+03  0.42098306388E+03  0.66757090454E+03  0.50400001928E-02 0. -1.
       -1    1    3    3    0  502  0.26179826981E+03 -0.44708594075E+03 -0.81676444465E+02  0.52449519931E+03  0.50400001928E-02 0.  1.
</event>
<event>
 5   0  0.1415400E-03  0.1086469E+04  0.7818609E-02  0.9218481E-01
        1   -1    0    0  501    0  0.00000000000E+00  0.00000000000E+00  0.67469238247E+03  0.67469238249E+03  0.50400001928E-02 0.  1.
       -1   -1    0    0    0  501  0.00000000000E+00  0.00000000000E+00 -0.43739004492E+03  0.43739004495E+03  0.50400001928E-02 0. -1.
    10030    2    1    2    0    0  0.00000000000E+00  0.00000000000E+00  0.23730233755E+03  0.11120824274E+04  0.10864690175E+04 0.  0.
        2    1    3    3  502    0  0.29939937071E+03  0.31116661969E+03  0.45602599814E+03  0.62803213244E+03  0.25500000920E-02 0.  1.
       -2    1    3    3    0  502 -0.29939937071E+03 -0.31116661969E+03 -0.21872366059E+03  0.48405029500E+03  0.25500000920E-02 0. -1.
</event>
<event>
 5   0  0.1415400E-03  0.1101578E+04  0.7818609E-02  0.9203655E-01
        1   -1    0    0  501    0  0.00000000000E+00  0.00000000000E+00  0.66983747825E+03  0.66983747827E+03  0.50400001928E-02 0. -1.
       -1   -1    0    0    0  501  0.00000000000E+00  0.00000000000E+00 -0.45289852351E+03  0.45289852354E+03  0.50400001928E-02 0.  1.
    10030    2    1    2    0    0  0.00000000000E+00  0.00000000000E+00  0.21693895473E+03  0.11227360018E+04  0.11015777865E+04 0.  0.
        2    1    3    3  502    0  0.28222635988E+03  0.39409138679E+03  0.37504363080E+03  0.61287638588E+03  0.25500000920E-02 0. -1.
       -2    1    3    3    0  502 -0.28222635988E+03 -0.39409138679E+03 -0.15810467606E+03  0.50985961593E+03  0.25500000920E-02 0.  1.
</event>
<event>
 5   0  0.2488472E-03  0.1098026E+04  0.7818609E-02  0.9207118E-01
       -2   -1    0    0    0  501  0.00000000000E+00  0.00000000000E+00  0.57233695262E+03  0.57233695262E+03  0.25500000920E-02 0. -1.
        2   -1    0    0  501    0  0.00000000000E+00  0.00000000000E+00 -0.52663955308E+03  0.52663955308E+03  0.25500000920E-02 0.  1.
    10030    2    1    2    0    0  0.00000000000E+00  0.00000000000E+00  0.45697399541E+02  0.10989765057E+04  0.10980260050E+04 0.  0.
        2    1    3    3  502    0 -0.90826278647E+02  0.53511128131E+03 -0.59816868916E+02  0.54605087134E+03  0.25500000920E-02 0. -1.
       -2    1    3    3    0  502  0.90826278647E+02 -0.53511128131E+03  0.10551426846E+03  0.55292563436E+03  0.25500000920E-02 0.  1.
</event>
<event>
 5   0  0.9631750E-04  0.1103152E+04  0.7818609E-02  0.9202126E-01
        3   -1    0    0  501    0  0.00000000000E+00  0.00000000000E+00  0.23036138306E+04  0.23036138328E+04  0.10100000352E+00 0. -1.
       -3   -1    0    0    0  501  0.00000000000E+00  0.00000000000E+00 -0.13206893893E+03  0.13206897755E+03  0.10100000352E+00 0.  1.
    10030    2    1    2    0    0  0.00000000000E+00  0.00000000000E+00  0.21715448916E+04  0.24356828103E+04  0.11031516379E+04 0.  0.
        1    1    3    3  502    0 -0.12793128658E+03 -0.34074096614E+03  0.17070535951E+03  0.40200888036E+03  0.50400001928E-02 0.  1.
       -1    1    3    3    0  502  0.12793128658E+03  0.34074096614E+03  0.20008395321E+04  0.20336739300E+04  0.50400001928E-02 0. -1.
</event>
<event>
 5   0  0.1509004E-03  0.1095648E+04  0.7818609E-02  0.9209444E-01
        1   -1    0    0  501    0  0.00000000000E+00  0.00000000000E+00  0.15131358182E+04  0.15131358182E+04  0.50400001928E-02 0.  1.
       -1   -1    0    0    0  501  0.00000000000E+00  0.00000000000E+00 -0.19833721022E+03  0.19833721029E+03  0.50400001928E-02 0. -1.
    10030    2    1    2    0    0  0.00000000000E+00  0.00000000000E+00  0.13147986080E+04  0.17114730285E+04  0.10956480036E+04 0.  0.
        3    1    3    3  502    0  0.14470043872E+03  0.97644012477E+01  0.14826035827E+04  0.14896801516E+04  0.10100000352E+00 0.  1.
       -3    1    3    3    0  502 -0.14470043872E+03 -0.97644012477E+01 -0.16780497471E+03  0.22179287688E+03  0.10100000352E+00 0. -1.
</event>
<event>
 5   0  0.2392585E-03  0.1091574E+04  0.7818609E-02  0.9213444E-01
       -2   -1    0    0    0  501  0.00000000000E+00  0.00000000000E+00  0.30666126723E+03  0.30666126724E+03  0.25500000920E-02 0. -1.
        2   -1    0    0  501    0  0.00000000000E+00  0.00000000000E+00 -0.97137563537E+03  0.97137563537E+03  0.25500000920E-02 0.  1.
    10030    2    1    2    0    0  0.00000000000E+00  0.00000000000E+00 -0.66471436815E+03  0.12780369026E+04  0.10915736957E+04 0.  0.
        5    1    3    3  502    0  0.53411737299E+03  0.61306419549E+02 -0.44232302819E+03  0.69621232140E+03  0.46999998093E+01 0.  1.
       -5    1    3    3    0  502 -0.53411737299E+03 -0.61306419549E+02 -0.22239133996E+03  0.58182458121E+03  0.46999998093E+01 0. -1.
</event>
<event>
 5   0  0.1509004E-03  0.1104339E+04  0.7818609E-02  0.9200973E-01
        1   -1    0    0  501    0  0.00000000000E+00  0.00000000000E+00  0.38289054225E+03  0.38289054228E+03  0.50400001928E-02 0.  1.
       -1   -1    0    0    0  501  0.00000000000E+00  0.00000000000E+00 -0.79628764219E+03  0.79628764221E+03  0.50400001928E-02 0. -1.
    10030    2    1    2    0    0  0.00000000000E+00  0.00000000000E+00 -0.41339709994E+03  0.11791781845E+04  0.11043387291E+04 0.  0.
        3    1    3    3  502    0  0.30319285044E+03 -0.45635288459E+02 -0.69703865609E+03  0.76149286432E+03  0.10100000352E+00 0. -1.
       -3    1    3    3    0  502 -0.30319285044E+03  0.45635288459E+02  0.28364155615E+03  0.41768532017E+03  0.10100000352E+00 0.  1.
</event>
<event>
 5   0  0.2488472E-03  0.1099396E+04  0.7818609E-02  0.9205781E-01
       -2   -1    0    0    0  501  0.00000000000E+00  0.00000000000E+00  0.45399938702E+03  0.45399938703E+03  0.25500000920E-02 0. -1.
        2   -1    0    0  501    0  0.00000000000E+00  0.00000000000E+00 -0.66556898142E+03  0.66556898142E+03  0.25500000920E-02 0.  1.
    10030    2    1    2    0    0  0.00000000000E+00  0.00000000000E+00 -0.21156959440E+03  0.11195683684E+04  0.10993960334E+04 0.  0.
        2    1    3    3  502    0 -0.14677839766E+02  0.19290819829E+03  0.41818388768E+03  0.46076759420E+03  0.25500000920E-02 0. -1.
       -2    1    3    3    0  502  0.14677839766E+02 -0.19290819829E+03 -0.62975348208E+03  0.65880077424E+03  0.25500000920E-02 0.  1.
</event>
<event>
 5   0  0.2488472E-03  0.1034571E+04  0.7818609E-02  0.9271420E-01
        2   -1    0    0  501    0  0.00000000000E+00  0.00000000000E+00  0.82093543325E+03  0.82093543325E+03  0.25500000920E-02 0.  1.
       -2   -1    0    0    0  501  0.00000000000E+00  0.00000000000E+00 -0.32595031167E+03  0.32595031168E+03  0.25500000920E-02 0. -1.
    10030    2    1    2    0    0  0.00000000000E+00  0.00000000000E+00  0.49498512158E+03  0.11468857449E+04  0.10345707522E+04 0.  0.
        2    1    3    3  502    0  0.40959458748E+03  0.25492081123E+03  0.40598508458E+02  0.48414934161E+03  0.25500000920E-02 0. -1.
       -2    1    3    3    0  502 -0.40959458748E+03 -0.25492081123E+03  0.45438661312E+03  0.66273640332E+03  0.25500000920E-02 0.  1.
</event>
<event>
 5   0  0.1480937E-03  0.1105570E+04  0.7818609E-02  0.9199780E-01
       -1   -1    0    0    0  501  0.00000000000E+00  0.00000000000E+00  0.21626308985E+03  0.21626308991E+03  0.50400001928E-02 0. -1.
        1   -1    0    0  501    0  0.00000000000E+00  0.00000000000E+00 -0.14129617681E+04  0.14129617681E+04  0.50400001928E-02 0.  1.
    10030    2    1    2    0    0  0.00000000000E+00  0.00000000000E+00 -0.11966986783E+04  0.16292248580E+04  0.11055704010E+04 0.  0.
        1    1    3    3  502    0  0.18250161354E+03 -0.28423328859E+03 -0.12431892136E+04  0.12882603860E+04  0.50400001928E-02 0.  1.
       -1    1    3    3    0  502 -0.18250161354E+03  0.28423328859E+03  0.46490535332E+02  0.34096447204E+03  0.50400001928E-02 0. -1.
</event>
<event>
 5   0  0.2483036E-03  0.1102649E+04  0.7818609E-02  0.9202614E-01
        2   -1    0    0  501    0  0.00000000000E+00  0.00000000000E+00  0.19676969080E+04  0.19676969080E+04  0.25500000920E-02 0.  1.
       -2   -1    0    0    0  501  0.00000000000E+00  0.00000000000E+00 -0.15447435624E+03  0.15447435626E+03  0.25500000920E-02 0. -1.
    10030    2    1    2    0    0  0.00000000000E+00  0.00000000000E+00  0.18132225517E+04  0.21221712642E+04  0.11026490161E+04 0.  0.
        3    1    3    3  502    0  0.49298211476E+03 -0.15815984175E+03  0.54188438838E+03  0.74945620391E+03  0.10100000352E+00 0. -1.
       -3    1    3    3    0  502 -0.49298211476E+03  0.15815984175E+03  0.12713381634E+04  0.13727150603E+04  0.10100000352E+00 0.  1.
</event>
<event>
 5   0  0.2488472E-03  0.1106381E+04  0.7818609E-02  0.9198995E-01
       -2   -1    0    0    0  501  0.00000000000E+00  0.00000000000E+00  0.31282776601E+03  0.31282776602E+03  0.25500000920E-02 0. -1.
        2   -1    0    0  501    0  0.00000000000E+00  0.00000000000E+00 -0.97823726456E+03  0.97823726456E+03  0.25500000920E-02 0.  1.
    10030    2    1    2    0    0  0.00000000000E+00  0.00000000000E+00 -0.66540949855E+03  0.12910650306E+04  0.11063810882E+04 0.  0.
        2    1    3    3  502    0  0.22117122370E+03  0.45723187353E+02  0.25657846879E+03  0.34181841774E+03  0.25500000920E-02 0. -1.
       -2    1    3    3    0  502 -0.22117122370E+03 -0.45723187353E+02 -0.92198796734E+03  0.94924661284E+03  0.25500000920E-02 0.  1.
</event>
<event>
 5   0  0.1509004E-03  0.1091451E+04  0.7818609E-02  0.9213564E-01
       -1   -1    0    0    0  501  0.00000000000E+00  0.00000000000E+00  0.22349288455E+03  0.22349288461E+03  0.50400001928E-02 0.  1.
        1   -1    0    0  501    0  0.00000000000E+00  0.00000000000E+00 -0.13325546663E+04  0.13325546663E+04  0.50400001928E-02 0. -1.
    10030    2    1    2    0    0  0.00000000000E+00  0.00000000000E+00 -0.11090617817E+04  0.15560475509E+04  0.10914513022E+04 0.  0.
        3    1    3    3  502    0  0.44746920896E+03  0.23822418874E+03 -0.26642939250E+03  0.57268148953E+03  0.10100000352E+00 0. -1.
       -3    1    3    3    0  502 -0.44746920896E+03 -0.23822418874E+03 -0.84263238925E+03  0.98336606138E+03  0.10100000352E+00 0.  1.
</event>
<event>
 5   0  0.1509004E-03  0.1091170E+04  0.7818609E-02  0.9213841E-01
        1   -1    0    0  501    0  0.00000000000E+00  0.00000000000E+00  0.26978261608E+03  0.26978261612E+03  0.50400001928E-02 0.  1.
       -1   -1    0    0    0  501  0.00000000000E+00  0.00000000000E+00 -0.11033433390E+04  0.11033433390E+04  0.50400001928E-02 0. -1.
    10030    2    1    2    0    0  0.00000000000E+00  0.00000000000E+00 -0.83356072291E+03  0.13731259551E+04  0.10911697438E+04 0.  0.
        3    1    3    3  502    0  0.13480006758E+03 -0.16257487275E+03  0.21625918004E+03  0.30227419774E+03  0.10100000352E+00 0.  1.
       -3    1    3    3    0  502 -0.13480006758E+03  0.16257487275E+03 -0.10498199029E+04  0.10708517574E+04  0.10100000352E+00 0. -1.
</event>
<event>
 5   0  0.1479573E-03  0.1095733E+04  0.7818609E-02  0.9209361E-01
        1   -1    0    0  501    0  0.00000000000E+00  0.00000000000E+00  0.87286405282E+03  0.87286405284E+03  0.50400001928E-02 0.  1.
       -1   -1    0    0    0  501  0.00000000000E+00  0.00000000000E+00 -0.34387668861E+03  0.34387668865E+03  0.50400001928E-02 0. -1.
    10030    2    1    2    0    0  0.00000000000E+00  0.00000000000E+00  0.52898736421E+03  0.12167407415E+04  0.10957328144E+04 0.  0.
        4    1    3    3  502    0  0.39983300683E+03  0.13157599110E+03  0.65390258937E+03  0.77766887817E+03  0.12699999809E+01 0.  1.
       -4    1    3    3    0  502 -0.39983300683E+03 -0.13157599110E+03 -0.12491522516E+03  0.43907186332E+03  0.12699999809E+01 0. -1.
</event>
<event>
 5   0  0.2483036E-03  0.1100201E+04  0.7818609E-02  0.9204996E-01
       -2   -1    0    0    0  501  0.00000000000E+00  0.00000000000E+00  0.47681102081E+03  0.47681102081E+03  0.25500000920E-02 0. -1.
        2   -1    0    0  501    0  0.00000000000E+00  0.00000000000E+00 -0.63465462168E+03  0.63465462169E+03  0.25500000920E-02 0.  1.
    10030    2    1    2    0    0  0.00000000000E+00  0.00000000000E+00 -0.15784360087E+03  0.11114656425E+04  0.11002005600E+04 0.  0.
        3    1    3    3  502    0 -0.42612793022E+03  0.34129302010E+03 -0.14702397689E+03  0.56540427878E+03  0.10100000352E+00 0. -1.
       -3    1    3    3    0  502  0.42612793022E+03 -0.34129302010E+03 -0.10819623989E+02  0.54606136372E+03  0.10100000352E+00 0.  1.
</event>
<event>
 5   0  0.2488472E-03  0.1101168E+04  0.7818609E-02  0.9204054E-01
        2   -1    0    0  501    0  0.00000000000E+00  0.00000000000E+00  0.12860662329E+04  0.12860662329E+04  0.25500000920E-02 0.  1.
       -2   -1    0    0    0  501  0.00000000000E+00  0.00000000000E+00 -0.23571304318E+03  0.23571304320E+03  0.25500000920E-02 0. -1.
    10030    2    1    2    0    0  0.00000000000E+00  0.00000000000E+00  0.10503531897E+04  0.15217792761E+04  0.11011677175E+04 0.  0.
        2    1    3    3  502    0 -0.54259398627E+03 -0.56215454093E+02  0.62835491811E+03  0.83210474962E+03  0.25500000920E-02 0.  1.
       -2    1    3    3    0  502  0.54259398627E+03  0.56215454093E+02  0.42199827156E+03  0.68967452644E+03  0.25500000920E-02 0. -1.
</event>
<event>
 5   0  0.2438115E-03  0.1100658E+04  0.7818609E-02  0.9204550E-01
        2   -1    0    0  501    0  0.00000000000E+00  0.00000000000E+00  0.81593333074E+03  0.81593333074E+03  0.25500000920E-02 0.  1.
       -2   -1    0    0    0  501  0.00000000000E+00  0.00000000000E+00 -0.37118505737E+03  0.37118505738E+03  0.25500000920E-02 0. -1.
    10030    2    1    2    0    0  0.00000000000E+00  0.00000000000E+00  0.44474827337E+03  0.11871183881E+04  0.11006584578E+04 0.  0.
        4    1    3    3  502    0  0.26516710100E+03 -0.35643890036E+03  0.57269364596E+03  0.72480473658E+03  0.12699999809E+01 0.  1.
       -4    1    3    3    0  502 -0.26516710100E+03  0.35643890036E+03 -0.12794537259E+03  0.46231365155E+03  0.12699999809E+01 0. -1.
</event>
<event>
 5   0  0.1415400E-03  0.1087311E+04  0.7818609E-02  0.9217648E-01
        1   -1    0    0  501    0  0.00000000000E+00  0.00000000000E+00  0.96333401949E+03  0.96333401950E+03  0.50400001928E-02 0. -1.
       -1   -1    0    0    0  501  0.00000000000E+00  0.00000000000E+00 -0.30681090674E+03  0.30681090678E+03  0.50400001928E-02 0.  1.
    10030    2    1    2    0    0  0.00000000000E+00  0.00000000000E+00  0.65652311275E+03  0.12701449263E+04  0.10873111497E+04 0.  0.
        2    1    3    3  502    0  0.11657462995E+02  0.38336443719E+03  0.77835228067E+03  0.86771911410E+03  0.25500000920E-02 0. -1.
       -2    1    3    3    0  502 -0.11657462995E+02 -0.38336443719E+03 -0.12182916792E+03  0.40242581218E+03  0.25500000920E-02 0.  1.
</event>
<event>
 5   0  0.9631750E-04  0.1092789E+04  0.7818609E-02  0.9212249E-01
        3   -1    0    0  501    0  0.00000000000E+00  0.00000000000E+00  0.76516918320E+03  0.76516918986E+03  0.10100000352E+00 0. -1.
       -3   -1    0    0    0  501  0.00000000000E+00  0.00000000000E+00 -0.39017083304E+03  0.39017084611E+03  0.10100000352E+00 0.  1.
    10030    2    1    2    0    0  0.00000000000E+00  0.00000000000E+00  0.37499835016E+03  0.11553400360E+04  0.10927885597E+04 0.  0.
        2    1    3    3  502    0 -0.78565150265E+02 -0.37537404907E+03 -0.22396773634E+03  0.44411677122E+03  0.25500000920E-02 0.  1.
       -2    1    3    3    0  502  0.78565150265E+02  0.37537404907E+03  0.59896608649E+03  0.71122326476E+03  0.25500000920E-02 0. -1.
</event>
<event>
 5   0  0.2467448E-03  0.1098075E+04  0.7818609E-02  0.9207070E-01
        2   -1    0    0  501    0  0.00000000000E+00  0.00000000000E+00  0.26435445881E+03  0.26435445883E+03  0.25500000920E-02 0. -1.
       -2   -1    0    0    0  501  0.00000000000E+00  0.00000000000E+00 -0.11402961163E+04  0.11402961163E+04  0.25500000920E-02 0.  1.
    10030    2    1    2    0    0  0.00000000000E+00  0.00000000000E+00 -0.87594165749E+03  0.14046505751E+04  0.10980753394E+04 0.  0.
        1    1    3    3  502    0  0.18353755314E+02 -0.54361239015E+03 -0.34232111124E+03  0.64267801758E+03  0.50400001928E-02 0. -1.
       -1    1    3    3    0  502 -0.18353755314E+02  0.54361239015E+03 -0.53362054626E+03  0.76197255756E+03  0.50400001928E-02 0.  1.
</event>
<event>
 5   0  0.2488472E-03  0.1100377E+04  0.7818609E-02  0.9204825E-01
       -2   -1    0    0    0  501  0.00000000000E+00  0.00000000000E+00  0.39540777186E+03  0.39540777187E+03  0.25500000920E-02 0. -1.
        2   -1    0    0  501    0  0.00000000000E+00  0.00000000000E+00 -0.76555711361E+03  0.76555711361E+03  0.25500000920E-02 0.  1.
    10030    2    1    2    0    0  0.00000000000E+00  0.00000000000E+00 -0.37014934175E+03  0.11609648855E+04  0.11003767219E+04 0.  0.
        2    1    3    3  502    0  0.51068579140E+03 -0.15655997672E+03 -0.32423173055E+03  0.62484975711E+03  0.25500000920E-02 0. -1.
       -2    1    3    3    0  502 -0.51068579140E+03  0.15655997672E+03 -0.45917611194E+02  0.53611512838E+03  0.25500000920E-02 0.  1.
</event>
<event>
 5   0  0.1480937E-03  0.1100572E+04  0.7818609E-02  0.9204635E-01
        1   -1    0    0  501    0  0.00000000000E+00  0.00000000000E+00  0.31042185082E+03  0.31042185086E+03  0.50400001928E-02 0.  1.
       -1   -1    0    0    0  501  0.00000000000E+00  0.00000000000E+00 -0.97549359229E+03  0.97549359230E+03  0.50400001928E-02 0. -1.
    10030    2    1    2    0    0  0.00000000000E+00  0.00000000000E+00 -0.66507174147E+03  0.12859154432E+04  0.11005717176E+04 0.  0.
        1    1    3    3  502    0  0.31617981388E+03 -0.32458511064E+03  0.32279113665E+02  0.45427646864E+03  0.50400001928E-02 0.  1.
       -1    1    3    3    0  502 -0.31617981388E+03  0.32458511064E+03 -0.69735085513E+03  0.83163897452E+03  0.50400001928E-02 0. -1.
</event>
<event>
 5   0  0.1509004E-03  0.1121864E+04  0.7818609E-02  0.9184140E-01
       -1   -1    0    0    0  501  0.00000000000E+00  0.00000000000E+00  0.25806802720E+03  0.25806802725E+03  0.50400001928E-02 0. -1.
        1   -1    0    0  501    0  0.00000000000E+00  0.00000000000E+00 -0.12192305791E+04  0.12192305791E+04  0.50400001928E-02 0.  1.
    10030    2    1    2    0    0  0.00000000000E+00  0.00000000000E+00 -0.96116255189E+03  0.14772986063E+04  0.11218635038E+04 0.  0.
        3    1    3    3  502    0 -0.33050384879E+03 -0.33447773995E+03 -0.77847284754E+02  0.47662182339E+03  0.10100000352E+00 0. -1.
       -3    1    3    3    0  502  0.33050384879E+03  0.33447773995E+03 -0.88331526714E+03  0.10006767830E+04  0.10100000352E+00 0.  1.
</event>
<event>
 5   0  0.1479573E-03  0.1091409E+04  0.7818609E-02  0.9213606E-01
        1   -1    0    0  501    0  0.00000000000E+00  0.00000000000E+00  0.11539598329E+04  0.11539598329E+04  0.50400001928E-02 0. -1.
       -1   -1    0    0    0  501  0.00000000000E+00  0.00000000000E+00 -0.25806220471E+03  0.25806220476E+03  0.50400001928E-02 0.  1.
    10030    2    1    2    0    0  0.00000000000E+00  0.00000000000E+00  0.89589762821E+03  0.14120220377E+04  0.10914090318E+04 0.  0.
        4    1    3    3  502    0 -0.17508631018E+03 -0.31021665530E+03 -0.86895987641E+02  0.36666348987E+03  0.12699999809E+01 0.  1.
       -4    1    3    3    0  502  0.17508631018E+03  0.31021665530E+03  0.98279361585E+03  0.10453585478E+04  0.12699999809E+01 0. -1.
</event>
<event>
 5   0  0.9631750E-04  0.1080370E+04  0.7818609E-02  0.9224538E-01
        3   -1    0    0  501    0  0.00000000000E+00  0.00000000000E+00  0.89728055192E+03  0.89728055761E+03  0.10100000352E+00 0.  1.
       -3   -1    0    0    0  501  0.00000000000E+00  0.00000000000E+00 -0.32520485693E+03  0.32520487262E+03  0.10100000352E+00 0. -1.
    10030    2    1    2    0    0  0.00000000000E+00  0.00000000000E+00  0.57207569499E+03  0.12224854302E+04  0.10803703191E+04 0.  0.
        1    1    3    3  502    0  0.48607037022E+03 -0.12847667022E+03  0.62491957350E+02  0.50663192197E+03  0.50400001928E-02 0. -1.
       -1    1    3    3    0  502 -0.48607037022E+03  0.12847667022E+03  0.50958373764E+03  0.71585350826E+03  0.50400001928E-02 0.  1.
</event>
<event>
 5   0  0.1480937E-03  0.1105148E+04  0.7818609E-02  0.9200189E-01
       -1   -1    0    0    0  501  0.00000000000E+00  0.00000000000E+00  0.32638207771E+03  0.32638207775E+03  0.50400001928E-02 0. -1.
        1   -1    0    0  501    0  0.00000000000E+00  0.00000000000E+00 -0.93552317202E+03  0.93552317204E+03  0.50400001928E-02 0.  1.
    10030    2    1    2    0    0  0.00000000000E+00  0.00000000000E+00 -0.60914109431E+03  0.12619052498E+04  0.11051479479E+04 0.  0.
        1    1    3    3  502    0  0.72026108194E+02  0.15657581499E+03 -0.90404808748E+03  0.92032966409E+03  0.50400001928E-02 0.  1.
       -1    1    3    3    0  502 -0.72026108194E+02 -0.15657581499E+03  0.29490699316E+03  0.34157558570E+03  0.50400001928E-02 0. -1.
</event>
<event>
 5   0  0.2483036E-03  0.1100972E+04  0.7818609E-02  0.9204245E-01
       -2   -1    0    0    0  501  0.00000000000E+00  0.00000000000E+00  0.90976636376E+03  0.90976636376E+03  0.25500000920E-02 0.  1.
        2   -1    0    0  501    0  0.00000000000E+00  0.00000000000E+00 -0.33309082167E+03  0.33309082168E+03  0.25500000920E-02 0. -1.
    10030    2    1    2    0    0  0.00000000000E+00  0.00000000000E+00  0.57667554209E+03  0.12428571854E+04  0.11009719808E+04 0.  0.
        3    1    3    3  502    0  0.34447448632E+03  0.11698216641E+03 -0.17804831585E+03  0.40502927297E+03  0.10100000352E+00 0. -1.
       -3    1    3    3    0  502 -0.34447448632E+03 -0.11698216641E+03  0.75472385794E+03  0.83782791247E+03  0.10100000352E+00 0.  1.
</event>
<event>
 5   0  0.1415400E-03  0.1104738E+04  0.7818609E-02  0.9200586E-01
       -1   -1    0    0    0  501  0.00000000000E+00  0.00000000000E+00  0.10257926176E+04  0.10257926176E+04  0.50400001928E-02 0.  1.
        1   -1    0    0  501    0  0.00000000000E+00  0.00000000000E+00 -0.29743994756E+03  0.29743994761E+03  0.50400001928E-02 0. -1.
    10030    2    1    2    0    0  0.00000000000E+00  0.00000000000E+00  0.72835267005E+03  0.13232325652E+04  0.11047383445E+04 0.  0.
        2    1    3    3  502    0  0.37083213015E+03 -0.28743877993E+03  0.15019741960E+02  0.46942849681E+03  0.25500000920E-02 0. -1.
       -2    1    3    3    0  502 -0.37083213015E+03  0.28743877993E+03  0.71333292809E+03  0.85380406843E+03  0.25500000920E-02 0.  1.
</event>
<event>
 5   0  0.2467448E-03  0.1112764E+04  0.7818609E-02  0.9192840E-01
        2   -1    0    0  501    0  0.00000000000E+00  0.00000000000E+00  0.26747586885E+03  0.26747586886E+03  0.25500000920E-02 0. -1.
       -2   -1    0    0    0  501  0.00000000000E+00  0.00000000000E+00 -0.11573407350E+04  0.11573407350E+04  0.25500000920E-02 0.  1.
    10030    2    1    2    0    0  0.00000000000E+00  0.00000000000E+00 -0.88986486613E+03  0.14248166039E+04  0.11127636203E+04 0.  0.
        1    1    3    3  502    0 -0.21018318094E+02 -0.35358846537E+03 -0.99431647232E+03  0.10555244287E+04  0.50400001928E-02 0.  1.
       -1    1    3    3    0  502  0.21018318094E+02  0.35358846537E+03  0.10445160618E+03  0.36929217511E+03  0.50400001928E-02 0. -1.
</event>
<event>
 5   0  0.1415400E-03  0.1098150E+04  0.7818609E-02  0.9206997E-01
       -1   -1    0    0    0  501  0.00000000000E+00  0.00000000000E+00  0.22686013074E+03  0.22686013079E+03  0.50400001928E-02 0. -1.
        1   -1    0    0  501    0  0.00000000000E+00  0.00000000000E+00 -0.13289392630E+04  0.13289392630E+04  0.50400001928E-02 0.  1.
    10030    2    1    2    0    0  0.00000000000E+00  0.00000000000E+00 -0.11020791323E+04  0.15557993938E+04  0.10981499624E+04 0.  0.
        2    1    3    3  502    0  0.17717370376E+03 -0.11931346523E+03 -0.12676624833E+04  0.12855327284E+04  0.25500000920E-02 0.  1.
       -2    1    3    3    0  502 -0.17717370376E+03  0.11931346523E+03  0.16558335101E+03  0.27026666540E+03  0.25500000920E-02 0. -1.
</event>
<event>
 5   0  0.1509004E-03  0.1097395E+04  0.7818609E-02  0.9207734E-01
       -1   -1    0    0    0  501  0.00000000000E+00  0.00000000000E+00  0.38784438005E+03  0.38784438008E+03  0.50400001928E-02 0. -1.
        1   -1    0    0  501    0  0.00000000000E+00  0.00000000000E+00 -0.77626292877E+03  0.77626292879E+03  0.50400001928E-02 0.  1.
    10030    2    1    2    0    0  0.00000000000E+00  0.00000000000E+00 -0.38841854872E+03  0.11641073089E+04  0.10973954882E+04 0.  0.
        3    1    3    3  502    0 -0.32621728713E+03 -0.37715943605E+03 -0.43704064694E+03  0.66307729255E+03  0.10100000352E+00 0.  1.
       -3    1    3    3    0  502  0.32621728713E+03  0.37715943605E+03  0.48622098214E+02  0.50103001632E+03  0.10100000352E+00 0. -1.
</event>
<event>
 5   0  0.2438115E-03  0.1102300E+04  0.7818609E-02  0.9202953E-01
       -2   -1    0    0    0  501  0.00000000000E+00  0.00000000000E+00  0.87540526868E+03  0.87540526869E+03  0.25500000920E-02 0. -1.
        2   -1    0    0  501    0  0.00000000000E+00  0.00000000000E+00 -0.34700095729E+03  0.34700095730E+03  0.25500000920E-02 0.  1.
    10030    2    1    2    0    0  0.00000000000E+00  0.00000000000E+00  0.52840431140E+03  0.12224062260E+04  0.11023002608E+04 0.  0.
        4    1    3    3  502    0  0.45374703200E+01  0.55027898415E+03  0.29815341999E+03  0.62587908080E+03  0.12699999809E+01 0.  1.
       -4    1    3    3    0  502 -0.45374703200E+01 -0.55027898415E+03  0.23025089141E+03  0.59652714518E+03  0.12699999809E+01 0. -1.
</event>
<event>
 5   0  0.1479573E-03  0.1105800E+04  0.7818609E-02  0.9199557E-01
       -1   -1    0    0    0  501  0.00000000000E+00  0.00000000000E+00  0.26922235722E+03  0.26922235727E+03  0.50400001928E-02 0.  1.
        1   -1    0    0  501    0  0.00000000000E+00  0.00000000000E+00 -0.11354860697E+04  0.11354860697E+04  0.50400001928E-02 0. -1.
    10030    2    1    2    0    0  0.00000000000E+00  0.00000000000E+00 -0.86626371247E+03  0.14047084270E+04  0.11057996859E+04 0.  0.
        4    1    3    3  502    0 -0.10884516596E+03 -0.15314665991E+03 -0.10936875164E+04  0.11097094963E+04  0.12699999809E+01 0. -1.
       -4    1    3    3    0  502  0.10884516596E+03  0.15314665991E+03  0.22742380398E+03  0.29499893069E+03  0.12699999809E+01 0.  1.
</event>
<event>
 5   0  0.2488472E-03  0.1101973E+04  0.7818609E-02  0.9203271E-01
       -2   -1    0    0    0  501  0.00000000000E+00  0.00000000000E+00  0.13420884863E+03  0.13420884866E+03  0.25500000920E-02 0.  1.
        2   -1    0    0  501    0  0.00000000000E+00  0.00000000000E+00 -0.22620432199E+04  0.22620432199E+04  0.25500000920E-02 0. -1.
    10030    2    1    2    0    0  0.00000000000E+00  0.00000000000E+00 -0.21278343712E+04  0.23962520685E+04  0.11019731687E+04 0.  0.
        2    1    3    3  502    0  0.12873837030E+03  0.44333170654E+03 -0.17179701619E+04  0.17789148510E+04  0.25500000920E-02 0. -1.
       -2    1    3    3    0  502 -0.12873837030E+03 -0.44333170654E+03 -0.40986420931E+03  0.61733721748E+03  0.25500000920E-02 0.  1.
</event>
<event>
 5   0  0.1509004E-03  0.1083064E+04  0.7818609E-02  0.9221858E-01
        1   -1    0    0  501    0  0.00000000000E+00  0.00000000000E+00  0.78892375618E+03  0.78892375620E+03  0.50400001928E-02 0. -1.
       -1   -1    0    0    0  501  0.00000000000E+00  0.00000000000E+00 -0.37171758949E+03  0.37171758953E+03  0.50400001928E-02 0.  1.
    10030    2    1    2    0    0  0.00000000000E+00  0.00000000000E+00  0.41720616669E+03  0.11606413457E+04  0.10830638706E+04 0.  0.
        3    1    3    3  502    0 -0.19374967097E+03  0.18855615879E+03  0.71142891738E+03  0.76106732600E+03  0.10100000352E+00 0. -1.
       -3    1    3    3    0  502  0.19374967097E+03 -0.18855615879E+03 -0.29422275069E+03  0.39957401973E+03  0.10100000352E+00 0.  1.
</event>
<event>
 5   0  0.2483036E-03  0.1084386E+04  0.7818609E-02  0.9220545E-01
       -2   -1    0    0    0  501  0.00000000000E+00  0.00000000000E+00  0.84696523763E+03  0.84696523763E+03  0.25500000920E-02 0. -1.
        2   -1    0    0  501    0  0.00000000000E+00  0.00000000000E+00 -0.34709033438E+03  0.34709033439E+03  0.25500000920E-02 0.  1.
    10030    2    1    2    0    0  0.00000000000E+00  0.00000000000E+00  0.49987490325E+03  0.11940555720E+04  0.10843863657E+04 0.  0.
        3    1    3    3  502    0  0.32790051775E+03  0.23202404916E+03 -0.15106241740E+03  0.42915471928E+03  0.10100000352E+00 0.  1.
       -3    1    3    3    0  502 -0.32790051775E+03 -0.23202404916E+03  0.65093732064E+03  0.76490085275E+03  0.10100000352E+00 0. -1.
</event>
<event>
 5   0  0.1415400E-03  0.1099838E+04  0.7818609E-02  0.9205350E-01
       -1   -1    0    0    0  501  0.00000000000E+00  0.00000000000E+00  0.80231843537E+03  0.80231843538E+03  0.50400001928E-02 0. -1.
        1   -1    0    0  501    0  0.00000000000E+00  0.00000000000E+00 -0.37692132165E+03  0.37692132168E+03  0.50400001928E-02 0.  1.
    10030    2    1    2    0    0  0.00000000000E+00  0.00000000000E+00  0.42539711371E+03  0.11792397571E+04  0.10998380337E+04 0.  0.
        2    1    3    3  502    0  0.14843129249E+03 -0.46474187932E+03  0.48477835053E+03  0.68776951963E+03  0.25500000920E-02 0. -1.
       -2    1    3    3    0  502 -0.14843129249E+03  0.46474187932E+03 -0.59381236814E+02  0.49147023743E+03  0.25500000920E-02 0.  1.
</event>
<event>
 5   0  0.2488472E-03  0.1053525E+04  0.7818609E-02  0.9251712E-01
        2   -1    0    0  501    0  0.00000000000E+00  0.00000000000E+00  0.70621372053E+03  0.70621372054E+03  0.25500000920E-02 0. -1.
       -2   -1    0    0    0  501  0.00000000000E+00  0.00000000000E+00 -0.39291063344E+03  0.39291063345E+03  0.25500000920E-02 0.  1.
    10030    2    1    2    0    0  0.00000000000E+00  0.00000000000E+00  0.31330308709E+03  0.10991243540E+04  0.10535252826E+04 0.  0.
        2    1    3    3  502    0  0.22679998522E+03  0.34261915582E+03 -0.18724059832E+03  0.45153644471E+03  0.25500000920E-02 0.  1.
       -2    1    3    3    0  502 -0.22679998522E+03 -0.34261915582E+03  0.50054368541E+03  0.64758790928E+03  0.25500000920E-02 0. -1.
</event>
<event>
 5   0  0.2467448E-03  0.1085467E+04  0.7818609E-02  0.9219473E-01
        2   -1    0    0  501    0  0.00000000000E+00  0.00000000000E+00  0.11842662228E+04  0.11842662228E+04  0.25500000920E-02 0. -1.
       -2   -1    0    0    0  501  0.00000000000E+00  0.00000000000E+00 -0.24872772113E+03  0.24872772114E+03  0.25500000920E-02 0.  1.
    10030    2    1    2    0    0  0.00000000000E+00  0.00000000000E+00  0.93553850162E+03  0.14329939439E+04  0.10854673442E+04 0.  0.
        1    1    3    3  502    0  0.21017591942E+02  0.53858894424E+03  0.38385786456E+03  0.66171493125E+03  0.50400001928E-02 0.  1.
       -1    1    3    3    0  502 -0.21017591942E+02 -0.53858894424E+03  0.55168063705E+03  0.77127901265E+03  0.50400001928E-02 0. -1.
</event>
<event>
 5   0  0.1480937E-03  0.1107614E+04  0.7818609E-02  0.9197803E-01
        1   -1    0    0  501    0  0.00000000000E+00  0.00000000000E+00  0.51357882451E+03  0.51357882453E+03  0.50400001928E-02 0. -1.
       -1   -1    0    0    0  501  0.00000000000E+00  0.00000000000E+00 -0.59718573057E+03  0.59718573059E+03  0.50400001928E-02 0.  1.
    10030    2    1    2    0    0  0.00000000000E+00  0.00000000000E+00 -0.83606906062E+02  0.11107645551E+04  0.11076135527E+04 0.  0.
        1    1    3    3  502    0  0.90353363859E+02  0.91363821968E+02 -0.58202962690E+03  0.59604493533E+03  0.50400001928E-02 0.  1.
       -1    1    3    3    0  502 -0.90353363859E+02 -0.91363821968E+02  0.49842272084E+03  0.51471961979E+03  0.50400001928E-02 0. -1.
</event>
<event>
 5   0  0.1415400E-03  0.1102398E+04  0.7818609E-02  0.9202858E-01
       -1   -1    0    0    0  501  0.00000000000E+00  0.00000000000E+00  0.52427290807E+03  0.52427290809E+03  0.50400001928E-02 0. -1.
        1   -1    0    0  501    0  0.00000000000E+00  0.00000000000E+00 -0.57950749978E+03  0.57950749980E+03  0.50400001928E-02 0.  1.
    10030    2    1    2    0    0  0.00000000000E+00  0.00000000000E+00 -0.55234591710E+02  0.11037804079E+04  0.11023975366E+04 0.  0.
        2    1    3    3  502    0  0.23031719039E+03 -0.39806998647E+03 -0.33183121298E+03  0.56711345975E+03  0.25500000920E-02 0.  1.
       -2    1    3    3    0  502 -0.23031719039E+03  0.39806998647E+03  0.27659662127E+03  0.53666694814E+03  0.25500000920E-02 0. -1.
</event>
<event>
 5   0  0.2488472E-03  0.9951417E+03  0.7818609E-02  0.9313889E-01
       -2   -1    0    0    0  501  0.00000000000E+00  0.00000000000E+00  0.29224200908E+03  0.29224200909E+03  0.25500000920E-02 0.  1.
        2   -1    0    0  501    0  0.00000000000E+00  0.00000000000E+00 -0.84716342573E+03  0.84716342574E+03  0.25500000920E-02 0. -1.
    10030    2    1    2    0    0  0.00000000000E+00  0.00000000000E+00 -0.55492141665E+03  0.11394054348E+04  0.99514168150E+03 0.  0.
        2    1    3    3  502    0  0.12130652380E+03  0.36788058284E+03  0.80101918073E+02  0.39555999954E+03  0.25500000920E-02 0.  1.
       -2    1    3    3    0  502 -0.12130652380E+03 -0.36788058284E+03 -0.63502333472E+03  0.74384543529E+03  0.25500000920E-02 0. -1.
</event>
<event>
 5   0  0.2438115E-03  0.1111096E+04  0.7818609E-02  0.9194444E-01
       -2   -1    0    0    0  501  0.00000000000E+00  0.00000000000E+00  0.24418064109E+03  0.24418064110E+03  0.25500000920E-02 0.  1.
        2   -1    0    0  501    0  0.00000000000E+00  0.00000000000E+00 -0.12639551524E+04  0.12639551524E+04  0.25500000920E-02 0. -1.
    10030    2    1    2    0    0  0.00000000000E+00  0.00000000000E+00 -0.10197745113E+04  0.15081357935E+04  0.11110956384E+04 0.  0.
        4    1    3    3  502    0  0.30963314781E+03 -0.41413293337E+03 -0.78557454316E+03  0.94048272099E+03  0.12699999809E+01 0. -1.
       -4    1    3    3    0  502 -0.30963314781E+03  0.41413293337E+03 -0.23419996812E+03  0.56765307248E+03  0.12699999809E+01 0.  1.
</event>
<event>
 5   0  0.2483036E-03  0.1096346E+04  0.7818609E-02  0.9208761E-01
       -2   -1    0    0    0  501  0.00000000000E+00  0.00000000000E+00  0.22253277529E+03  0.22253277531E+03  0.25500000920E-02 0.  1.
        2   -1    0    0  501    0  0.00000000000E+00  0.00000000000E+00 -0.13503344989E+04  0.13503344989E+04  0.25500000920E-02 0. -1.
    10030    2    1    2    0    0  0.00000000000E+00  0.00000000000E+00 -0.11278017236E+04  0.15728672742E+04  0.10963460834E+04 0.  0.
        3    1    3    3  502    0 -0.87387117674E+02  0.47313307845E+03 -0.18704432798E+03  0.51621411167E+03  0.10100000352E+00 0.  1.
       -3    1    3    3    0  502  0.87387117674E+02 -0.47313307845E+03 -0.94075739560E+03  0.10566531625E+04  0.10100000352E+00 0. -1.
</event>
<event>
 5   0  0.2392585E-03  0.1106848E+04  0.7818609E-02  0.9198543E-01
       -2   -1    0    0    0  501  0.00000000000E+00  0.00000000000E+00  0.23776868370E+03  0.23776868372E+03  0.25500000920E-02 0. -1.
        2   -1    0    0  501    0  0.00000000000E+00  0.00000000000E+00 -0.12881357534E+04  0.12881357534E+04  0.25500000920E-02 0.  1.
    10030    2    1    2    0    0  0.00000000000E+00  0.00000000000E+00 -0.10503670697E+04  0.15259044372E+04  0.11068483953E+04 0.  0.
        5    1    3    3  502    0  0.23511253932E+02 -0.26196135448E+03  0.14606971449E+03  0.30089031522E+03  0.46999998093E+01 0. -1.
       -5    1    3    3    0  502 -0.23511253932E+02  0.26196135448E+03 -0.11964367842E+04  0.12250141219E+04  0.46999998093E+01 0.  1.
</event>
<event>
 5   0  0.1479573E-03  0.1097985E+04  0.7818609E-02  0.9207158E-01
       -1   -1    0    0    0  501  0.00000000000E+00  0.00000000000E+00  0.42973979324E+03  0.42973979327E+03  0.50400001928E-02 0. -1.
        1   -1    0    0  501    0  0.00000000000E+00  0.00000000000E+00 -0.70133768371E+03  0.70133768373E+03  0.50400001928E-02 0.  1.
    10030    2    1    2    0    0  0.00000000000E+00  0.00000000000E+00 -0.27159789047E+03  0.11310774770E+04  0.10979849019E+04 0.  0.
        4    1    3    3  502    0 -0.36034861808E+03 -0.11800419823E+03  0.27317414498E+03  0.46733483044E+03  0.12699999809E+01 0. -1.
       -4    1    3    3    0  502  0.36034861808E+03  0.11800419823E+03 -0.54477203545E+03  0.66374264656E+03  0.12699999809E+01 0.  1.
</event>
<event>
 5   0  0.1509004E-03  0.1091365E+04  0.7818609E-02  0.9213649E-01
        1   -1    0    0  501    0  0.00000000000E+00  0.00000000000E+00  0.44397130295E+03  0.44397130298E+03  0.50400001928E-02 0.  1.
       -1   -1    0    0    0  501  0.00000000000E+00  0.00000000000E+00 -0.67069550724E+03  0.67069550726E+03  0.50400001928E-02 0. -1.
    10030    2    1    2    0    0  0.00000000000E+00  0.00000000000E+00 -0.22672420429E+03  0.11146668102E+04  0.10913653069E+04 0.  0.
        3    1    3    3  502    0  0.49226838697E+03  0.20383311239E+03 -0.23374918956E+03  0.58182024401E+03  0.10100000352E+00 0. -1.
       -3    1    3    3    0  502 -0.49226838697E+03 -0.20383311239E+03  0.70249852682E+01  0.53284656623E+03  0.10100000352E+00 0.  1.
</event>
<event>
 5   0  0.1479573E-03  0.1097181E+04  0.7818609E-02  0.9207944E-01
        1   -1    0    0  501    0  0.00000000000E+00  0.00000000000E+00  0.73303261453E+03  0.73303261455E+03  0.50400001928E-02 0.  1.
       -1   -1    0    0    0  501  0.00000000000E+00  0.00000000000E+00 -0.41055669664E+03  0.41055669668E+03  0.50400001928E-02 0. -1.
    10030    2    1    2    0    0  0.00000000000E+00  0.00000000000E+00  0.32247591788E+03  0.11435893112E+04  0.10971808398E+04 0.  0.
        4    1    3    3  502    0  0.19389081593E+03  0.30180541369E+03  0.59384770148E+03  0.69378444901E+03  0.12699999809E+01 0.  1.
       -4    1    3    3    0  502 -0.19389081593E+03 -0.30180541369E+03 -0.27137178360E+03  0.44980486221E+03  0.12699999809E+01 0. -1.
</event>
<event>
 5   0  0.2438115E-03  0.1104049E+04  0.7818609E-02  0.9201254E-01
        2   -1    0    0  501    0  0.00000000000E+00  0.00000000000E+00  0.17577088100E+04  0.17577088100E+04  0.25500000920E-02 0. -1.
       -2   -1    0    0    0  501  0.00000000000E+00  0.00000000000E+00 -0.17336838302E+03  0.17336838304E+03  0.25500000920E-02 0.  1.
    10030    2    1    2    0    0  0.00000000000E+00  0.00000000000E+00  0.15843404270E+04  0.19310771931E+04  0.11040491551E+04 0.  0.
        4    1    3    3  502    0  0.29218778053E+02  0.32856558138E+03  0.17973894553E+02  0.33035397991E+03  0.12699999809E+01 0.  1.
       -4    1    3    3    0  502 -0.29218778053E+02 -0.32856558138E+03  0.15663665324E+04  0.16007232131E+04  0.12699999809E+01 0. -1.
</event>
<event>
 5   0  0.2438115E-03  0.1049072E+04  0.7818609E-02  0.9256303E-01
       -2   -1    0    0    0  501  0.00000000000E+00  0.00000000000E+00  0.27981973705E+03  0.27981973706E+03  0.25500000920E-02 0. -1.
        2   -1    0    0  501    0  0.00000000000E+00  0.00000000000E+00 -0.98326869923E+03  0.98326869924E+03  0.25500000920E-02 0.  1.
    10030    2    1    2    0    0  0.00000000000E+00  0.00000000000E+00 -0.70344896219E+03  0.12630884363E+04  0.10490719496E+04 0.  0.
        4    1    3    3  502    0  0.42037244412E+03 -0.99075148284E+02 -0.71012095152E+03  0.83114514705E+03  0.12699999809E+01 0.  1.
       -4    1    3    3    0  502 -0.42037244412E+03  0.99075148284E+02  0.66719893373E+01  0.43194328924E+03  0.12699999809E+01 0. -1.
</event>
<event>
 5   0  0.1468556E-03  0.1098602E+04  0.7818609E-02  0.9206556E-01
       -1   -1    0    0    0  501  0.00000000000E+00  0.00000000000E+00  0.32088423226E+03  0.32088423230E+03  0.50400001928E-02 0.  1.
        1   -1    0    0  501    0  0.00000000000E+00  0.00000000000E+00 -0.94031215135E+03  0.94031215136E+03  0.50400001928E-02 0. -1.
    10030    2    1    2    0    0  0.00000000000E+00  0.00000000000E+00 -0.61942791909E+03  0.12611963837E+04  0.10986015525E+04 0.  0.
        5    1    3    3  502    0 -0.32072848591E+03 -0.25318397292E+03  0.11168297433E+03  0.42363198955E+03  0.46999998093E+01 0.  1.
       -5    1    3    3    0  502  0.32072848591E+03  0.25318397292E+03 -0.73111089342E+03  0.83756439412E+03  0.46999998093E+01 0. -1.
</event>
<event>
 5   0  0.2488472E-03  0.9846934E+03  0.7818609E-02  0.9325494E-01
        2   -1    0    0  501    0  0.00000000000E+00  0.00000000000E+00  0.11751306548E+04  0.11751306548E+04  0.25500000920E-02 0.  1.
       -2   -1    0    0    0  501  0.00000000000E+00  0.00000000000E+00 -0.20627941488E+03  0.20627941490E+03  0.25500000920E-02 0. -1.
    10030    2    1    2    0    0  0.00000000000E+00  0.00000000000E+00  0.96885123996E+03  0.13814100697E+04  0.98469338153E+03 0.  0.
        2    1    3    3  502    0  0.24569753467E+02 -0.56310685916E+02 -0.20088072713E+03  0.21006578177E+03  0.25500000920E-02 0. -1.
       -2    1    3    3    0  502 -0.24569753467E+02  0.56310685916E+02  0.11697319671E+04  0.11713442880E+04  0.25500000920E-02 0.  1.
</event>
<event>
 5   0  0.1415400E-03  0.1086981E+04  0.7818609E-02  0.9217975E-01
        1   -1    0    0  501    0  0.00000000000E+00  0.00000000000E+00  0.32530497421E+03  0.32530497425E+03  0.50400001928E-02 0.  1.
       -1   -1    0    0    0  501  0.00000000000E+00  0.00000000000E+00 -0.90801506596E+03  0.90801506597E+03  0.50400001928E-02 0. -1.
    10030    2    1    2    0    0  0.00000000000E+00  0.00000000000E+00 -0.58271009175E+03  0.12333200402E+04  0.10869808051E+04 0.  0.
        2    1    3    3  502    0  0.65913997115E+02 -0.80225657220E+02  0.31394698258E+03  0.33067131561E+03  0.25500000920E-02 0.  1.
       -2    1    3    3    0  502 -0.65913997115E+02  0.80225657220E+02 -0.89665707433E+03  0.90264872461E+03  0.25500000920E-02 0. -1.
</event>
<event>
 5   0  0.1509004E-03  0.1111522E+04  0.7818609E-02  0.9194034E-01
       -1   -1    0    0    0  501  0.00000000000E+00  0.00000000000E+00  0.22302891683E+03  0.22302891689E+03  0.50400001928E-02 0.  1.
        1   -1    0    0  501    0  0.00000000000E+00  0.00000000000E+00 -0.13848887297E+04  0.13848887297E+04  0.50400001928E-02 0. -1.
    10030    2    1    2    0    0  0.00000000000E+00  0.00000000000E+00 -0.11618598129E+04  0.16079176466E+04  0.11115218997E+04 0.  0.
        3    1    3    3  502    0 -0.26296419362E+03  0.12465108845E+03 -0.12658600890E+04  0.12988802240E+04  0.10100000352E+00 0. -1.
       -3    1    3    3    0  502  0.26296419362E+03 -0.12465108845E+03  0.10400027613E+03  0.30903742267E+03  0.10100000352E+00 0.  1.
</event>
<event>
 5   0  0.2392585E-03  0.1095123E+04  0.7818609E-02  0.9209958E-01
        2   -1    0    0  501    0  0.00000000000E+00  0.00000000000E+00  0.76340213933E+03  0.76340213933E+03  0.25500000920E-02 0. -1.
       -2   -1    0    0    0  501  0.00000000000E+00  0.00000000000E+00 -0.39274666262E+03  0.39274666263E+03  0.25500000920E-02 0.  1.
    10030    2    1    2    0    0  0.00000000000E+00  0.00000000000E+00  0.37065547671E+03  0.11561488020E+04  0.10951230843E+04 0.  0.
        5    1    3    3  502    0  0.75571808970E+02  0.11472808121E+03 -0.37423431202E+03  0.39868162890E+03  0.46999998093E+01 0.  1.
       -5    1    3    3    0  502 -0.75571808970E+02 -0.11472808121E+03  0.74488978872E+03  0.75746717307E+03  0.46999998093E+01 0. -1.
</event>
<event>
 5   0  0.2467448E-03  0.1077723E+04  0.7818609E-02  0.9227180E-01
        2   -1    0    0  501    0  0.00000000000E+00  0.00000000000E+00  0.47837522598E+03  0.47837522598E+03  0.25500000920E-02 0.  1.
       -2   -1    0    0    0  501  0.00000000000E+00  0.00000000000E+00 -0.60699622099E+03  0.60699622100E+03  0.25500000920E-02 0. -1.
    10030    2    1    2    0    0  0.00000000000E+00  0.00000000000E+00 -0.12862099502E+03  0.10853714470E+04  0.10777234421E+04 0.  0.
        1    1    3    3  502    0 -0.19791118735E+03 -0.40241577473E+03 -0.36520263655E+03  0.57834268353E+03  0.50400001928E-02 0. -1.
       -1    1    3    3    0  502  0.19791118735E+03  0.40241577473E+03  0.23658164153E+03  0.50702876345E+03  0.50400001928E-02 0.  1.
</event>
<event>
 5   0  0.1479573E-03  0.1099339E+04  0.7818609E-02  0.9205836E-01
       -1   -1    0    0    0  501  0.00000000000E+00  0.00000000000E+00  0.48393877949E+03  0.48393877951E+03  0.50400001928E-02 0. -1.
        1   -1    0    0  501    0  0.00000000000E+00  0.00000000000E+00 -0.62432851662E+03  0.62432851665E+03  0.50400001928E-02 0.  1.
    10030    2    1    2    0    0  0.00000000000E+00  0.00000000000E+00 -0.14038973714E+03  0.11082672962E+04  0.10993394023E+04 0.  0.
        4    1    3    3  502    0 -0.34287718803E+03  0.14609596972E+03 -0.47748874780E+03  0.60572759192E+03  0.12699999809E+01 0.  1.
       -4    1    3    3    0  502  0.34287718803E+03 -0.14609596972E+03  0.33709901066E+03  0.50253970423E+03  0.12699999809E+01 0. -1.
</event>
<event>
 5   0  0.1479573E-03  0.1103092E+04  0.7818609E-02  0.9202184E-01
        1   -1    0    0  501    0  0.00000000000E+00  0.00000000000E+00  0.95950052990E+03  0.95950052991E+03  0.50400001928E-02 0.  1.
       -1   -1    0    0    0  501  0.00000000000E+00  0.00000000000E+00 -0.31704290766E+03  0.31704290770E+03  0.50400001928E-02 0. -1.
    10030    2    1    2    0    0  0.00000000000E+00  0.00000000000E+00  0.64245762223E+03  0.12765434376E+04  0.11030917241E+04 0.  0.
        4    1    3    3  502    0  0.39278379335E+03 -0.38595281639E+03  0.35713203266E+03  0.65634105955E+03  0.12699999809E+01 0.  1.
       -4    1    3    3    0  502 -0.39278379335E+03  0.38595281639E+03  0.28532558957E+03  0.62020237807E+03  0.12699999809E+01 0. -1.
</event>
<event>
 5   0  0.1509004E-03  0.1106245E+04  0.7818609E-02  0.9199127E-01
       -1   -1    0    0    0  501  0.00000000000E+00  0.00000000000E+00  0.61019523345E+03  0.61019523347E+03  0.50400001928E-02 0. -1.
        1   -1    0    0  501    0  0.00000000000E+00  0.00000000000E+00 -0.50138775537E+03  0.50138775539E+03  0.50400001928E-02 0.  1.
    10030    2    1    2    0    0  0.00000000000E+00  0.00000000000E+00  0.10880747809E+03  0.11115829889E+04  0.11062448526E+04 0.  0.
        3    1    3    3  502    0  0.11339988802E+03 -0.53940542795E+03  0.80655079203E+01  0.55125566929E+03  0.10100000352E+00 0.  1.
       -3    1    3    3    0  502 -0.11339988802E+03  0.53940542795E+03  0.10074197017E+03  0.56032731957E+03  0.10100000352E+00 0. -1.
</event>
<event>
 5   0  0.2438115E-03  0.1102027E+04  0.7818609E-02  0.9203219E-01
        2   -1    0    0  501    0  0.00000000000E+00  0.00000000000E+00  0.10456146041E+04  0.10456146041E+04  0.25500000920E-02 0. -1.
       -2   -1    0    0    0  501  0.00000000000E+00  0.00000000000E+00 -0.29037054432E+03  0.29037054433E+03  0.25500000920E-02 0.  1.
    10030    2    1    2    0    0  0.00000000000E+00  0.00000000000E+00  0.75524405976E+03  0.13359851484E+04  0.11020266453E+04 0.  0.
        4    1    3    3  502    0  0.53080631704E+03  0.10401778689E+03  0.50499428770E+03  0.73999722277E+03  0.12699999809E+01 0. -1.
       -4    1    3    3    0  502 -0.53080631704E+03 -0.10401778689E+03  0.25024977206E+03  0.59598792564E+03  0.12699999809E+01 0.  1.
</event>
<event>
 5   0  0.1468556E-03  0.1108454E+04  0.7818609E-02  0.9196991E-01
        1   -1    0    0  501    0  0.00000000000E+00  0.00000000000E+00  0.76949817650E+03  0.76949817652E+03  0.50400001928E-02 0.  1.
       -1   -1    0    0    0  501  0.00000000000E+00  0.00000000000E+00 -0.39917919529E+03  0.39917919532E+03  0.50400001928E-02 0. -1.
    10030    2    1    2    0    0  0.00000000000E+00  0.00000000000E+00  0.37031898121E+03  0.11686773718E+04  0.11084541721E+04 0.  0.
        5    1    3    3  502    0  0.36305656054E+03  0.35808048109E+03  0.41400969746E+03  0.65685448668E+03  0.46999998093E+01 0.  1.
       -5    1    3    3    0  502 -0.36305656054E+03 -0.35808048109E+03 -0.43690716247E+02  0.51182288516E+03  0.46999998093E+01 0. -1.
</event>
<event>
 5   0  0.2483036E-03  0.1098627E+04  0.7818609E-02  0.9206531E-01
        2   -1    0    0  501    0  0.00000000000E+00  0.00000000000E+00  0.37950345731E+03  0.37950345732E+03  0.25500000920E-02 0. -1.
       -2   -1    0    0    0  501  0.00000000000E+00  0.00000000000E+00 -0.79510532555E+03  0.79510532555E+03  0.25500000920E-02 0.  1.
    10030    2    1    2    0    0  0.00000000000E+00  0.00000000000E+00 -0.41560186824E+03  0.11746087829E+04  0.10986268156E+04 0.  0.
        3    1    3    3  502    0 -0.50036332797E+02 -0.49780148589E+03 -0.45027958152E+03  0.67309855570E+03  0.10100000352E+00 0.  1.
       -3    1    3    3    0  502  0.50036332797E+02  0.49780148589E+03  0.34677713286E+02  0.50151022717E+03  0.10100000352E+00 0. -1.
</event>
<event>
 5   0  0.2483036E-03  0.1108250E+04  0.7818609E-02  0.9197188E-01
       -2   -1    0    0    0  501  0.00000000000E+00  0.00000000000E+00  0.34248271821E+03  0.34248271822E+03  0.25500000920E-02 0.  1.
        2   -1    0    0  501    0  0.00000000000E+00  0.00000000000E+00 -0.89655468127E+03  0.89655468127E+03  0.25500000920E-02 0. -1.
    10030    2    1    2    0    0  0.00000000000E+00  0.00000000000E+00 -0.55407196306E+03  0.12390373995E+04  0.11082499434E+04 0.  0.
        3    1    3    3  502    0  0.16625662955E+03 -0.46328700712E+03  0.75160295815E+01  0.49227291083E+03  0.10100000352E+00 0.  1.
       -3    1    3    3    0  502 -0.16625662955E+03  0.46328700712E+03 -0.56158799264E+03  0.74676448866E+03  0.10100000352E+00 0. -1.
</event>
<event>
 5   0  0.9631750E-04  0.1102427E+04  0.7818609E-02  0.9202830E-01
       -3   -1    0    0    0  501  0.00000000000E+00  0.00000000000E+00  0.65431714718E+03  0.65431715498E+03  0.10100000352E+00 0. -1.
        3   -1    0    0  501    0  0.00000000000E+00  0.00000000000E+00 -0.46435597122E+03  0.46435598220E+03  0.10100000352E+00 0.  1.
    10030    2    1    2    0    0  0.00000000000E+00  0.00000000000E+00  0.18996117596E+03  0.11186731372E+04  0.11024265687E+04 0.  0.
        2    1    3    3  502    0  0.33325887776E+03 -0.42847597274E+03 -0.22593234286E+01  0.54282432090E+03  0.25500000920E-02 0.  1.
       -2    1    3    3    0  502 -0.33325887776E+03  0.42847597274E+03  0.19222049939E+03  0.57584881628E+03  0.25500000920E-02 0. -1.
</event>
<event>
 5   0  0.1468556E-03  0.1104153E+04  0.7818609E-02  0.9201153E-01
        1   -1    0    0  501    0  0.00000000000E+00  0.00000000000E+00  0.35860690222E+03  0.35860690226E+03  0.50400001928E-02 0. -1.
       -1   -1    0    0    0  501  0.00000000000E+00  0.00000000000E+00 -0.84992427020E+03  0.84992427022E+03  0.50400001928E-02 0.  1.
    10030    2    1    2    0    0  0.00000000000E+00  0.00000000000E+00 -0.49131736798E+03  0.12085311725E+04  0.11041534489E+04 0.  0.
        5    1    3    3  502    0  0.12536645610E+03 -0.10374480307E+03  0.33173867767E+03  0.36952993484E+03  0.46999998093E+01 0. -1.
       -5    1    3    3    0  502 -0.12536645610E+03  0.10374480307E+03 -0.82305604565E+03  0.83900123764E+03  0.46999998093E+01 0.  1.
</event>
<event>
 5   0  0.2483036E-03  0.1108817E+04  0.7818609E-02  0.9196641E-01
       -2   -1    0    0    0  501  0.00000000000E+00  0.00000000000E+00  0.21914155039E+03  0.21914155040E+03  0.25500000920E-02 0.  1.
        2   -1    0    0  501    0  0.00000000000E+00  0.00000000000E+00 -0.14026038003E+04  0.14026038003E+04  0.25500000920E-02 0. -1.
    10030    2    1    2    0    0  0.00000000000E+00  0.00000000000E+00 -0.11834622499E+04  0.16217453507E+04  0.11088169757E+04 0.  0.
        3    1    3    3  502    0  0.18011867016E+03  0.42354534156E+03 -0.10438002938E+04  0.11407683617E+04  0.10100000352E+00 0. -1.
       -3    1    3    3    0  502 -0.18011867016E+03 -0.42354534156E+03 -0.13966195613E+03  0.48097698893E+03  0.10100000352E+00 0.  1.
</event>
<event>
 5   0  0.9631750E-04  0.1154516E+04  0.7818609E-02  0.9153627E-01
        3   -1    0    0  501    0  0.00000000000E+00  0.00000000000E+00  0.64331695605E+03  0.64331696398E+03  0.10100000352E+00 0.  1.
       -3   -1    0    0    0  501  0.00000000000E+00  0.00000000000E+00 -0.51798268242E+03  0.51798269226E+03  0.10100000352E+00 0. -1.
    10030    2    1    2    0    0  0.00000000000E+00  0.00000000000E+00  0.12533427364E+03  0.11612996562E+04  0.11545164405E+04 0.  0.
        4    1    3    3  502    0  0.53204121470E+03  0.22289627313E+03  0.84585926214E+02  0.58301543250E+03  0.12699999809E+01 0. -1.
       -4    1    3    3    0  502 -0.53204121470E+03 -0.22289627313E+03  0.40748347424E+02  0.57828422375E+03  0.12699999809E+01 0.  1.
</event>
<event>
 5   0  0.2488472E-03  0.1102962E+04  0.7818609E-02  0.9202310E-01
       -2   -1    0    0    0  501  0.00000000000E+00  0.00000000000E+00  0.33333265395E+03  0.33333265396E+03  0.25500000920E-02 0. -1.
        2   -1    0    0  501    0  0.00000000000E+00  0.00000000000E+00 -0.91239559931E+03  0.91239559932E+03  0.25500000920E-02 0.  1.
    10030    2    1    2    0    0  0.00000000000E+00  0.00000000000E+00 -0.57906294537E+03  0.12457282533E+04  0.11029619152E+04 0.  0.
        2    1    3    3  502    0  0.36275400882E+03 -0.36876731270E+03 -0.50546251022E+03  0.72323727163E+03  0.25500000920E-02 0.  1.
       -2    1    3    3    0  502 -0.36275400882E+03  0.36876731270E+03 -0.73600435149E+02  0.52249098164E+03  0.25500000920E-02 0. -1.
</event>
<event>
 5   0  0.2467448E-03  0.1098564E+04  0.7818609E-02  0.9206593E-01
        2   -1    0    0  501    0  0.00000000000E+00  0.00000000000E+00  0.88412987390E+03  0.88412987390E+03  0.25500000920E-02 0.  1.
       -2   -1    0    0    0  501  0.00000000000E+00  0.00000000000E+00 -0.34125126893E+03  0.34125126893E+03  0.25500000920E-02 0. -1.
    10030    2    1    2    0    0  0.00000000000E+00  0.00000000000E+00  0.54287860497E+03  0.12253811428E+04  0.10985635009E+04 0.  0.
        1    1    3    3  502    0 -0.13334964451E+03  0.26575733978E+03 -0.24372152141E+03  0.38445971357E+03  0.50400001928E-02 0. -1.
       -1    1    3    3    0  502  0.13334964451E+03 -0.26575733978E+03  0.78660012639E+03  0.84092142926E+03  0.50400001928E-02 0.  1.
</event>
<event>
 5   0  0.1480937E-03  0.1099588E+04  0.7818609E-02  0.9205593E-01
        1   -1    0    0  501    0  0.00000000000E+00  0.00000000000E+00  0.33044209345E+03  0.33044209349E+03  0.50400001928E-02 0. -1.
       -1   -1    0    0    0  501  0.00000000000E+00  0.00000000000E+00 -0.91475476120E+03  0.91475476122E+03  0.50400001928E-02 0.  1.
    10030    2    1    2    0    0  0.00000000000E+00  0.00000000000E+00 -0.58431266775E+03  0.12451968547E+04  0.10995880653E+04 0.  0.
        1    1    3    3  502    0 -0.54957889760E+03 -0.13798409350E+02 -0.28446607598E+03  0.61898974887E+03  0.50400001928E-02 0.  1.
       -1    1    3    3    0  502  0.54957889760E+03  0.13798409350E+02 -0.29984659176E+03  0.62620710584E+03  0.50400001928E-02 0. -1.
</event>
<event>
 5   0  0.2438115E-03  0.1099456E+04  0.7818609E-02  0.9205722E-01
       -2   -1    0    0    0  501  0.00000000000E+00  0.00000000000E+00  0.51541595175E+03  0.51541595175E+03  0.25500000920E-02 0. -1.
        2   -1    0    0  501    0  0.00000000000E+00  0.00000000000E+00 -0.58632420109E+03  0.58632420109E+03  0.25500000920E-02 0.  1.
    10030    2    1    2    0    0  0.00000000000E+00  0.00000000000E+00 -0.70908249343E+02  0.11017401528E+04  0.10994559494E+04 0.  0.
        4    1    3    3  502    0  0.34409770471E+03  0.10038534746E+03  0.38220765562E+03  0.52398926829E+03  0.12699999809E+01 0. -1.
       -4    1    3    3    0  502 -0.34409770471E+03 -0.10038534746E+03 -0.45311590496E+03  0.57775088455E+03  0.12699999809E+01 0.  1.
</event>
<event>
 5   0  0.2438115E-03  0.1114402E+04  0.7818609E-02  0.9191268E-01
        2   -1    0    0  501    0  0.00000000000E+00  0.00000000000E+00  0.89801194153E+03  0.89801194153E+03  0.25500000920E-02 0.  1.
       -2   -1    0    0    0  501  0.00000000000E+00  0.00000000000E+00 -0.34573339097E+03  0.34573339098E+03  0.25500000920E-02 0. -1.
    10030    2    1    2    0    0  0.00000000000E+00  0.00000000000E+00  0.55227855056E+03  0.12437453325E+04  0.11144015680E+04 0.  0.
        4    1    3    3  502    0  0.49680612497E+03  0.10814894286E+03  0.53054002742E+03  0.73483797754E+03  0.12699999809E+01 0. -1.
       -4    1    3    3    0  502 -0.49680612497E+03 -0.10814894286E+03  0.21738523140E+02  0.50890735496E+03  0.12699999809E+01 0.  1.
</event>
<event>
 5   0  0.2483036E-03  0.1095927E+04  0.7818609E-02  0.9209171E-01
        2   -1    0    0  501    0  0.00000000000E+00  0.00000000000E+00  0.10806143529E+04  0.10806143529E+04  0.25500000920E-02 0. -1.
       -2   -1    0    0    0  501  0.00000000000E+00  0.00000000000E+00 -0.27786426054E+03  0.27786426055E+03  0.25500000920E-02 0.  1.
    10030    2    1    2    0    0  0.00000000000E+00  0.00000000000E+00  0.80275009237E+03  0.13584786135E+04  0.10959272022E+04 0.  0.
        3    1    3    3  502    0 -0.51708071887E+03 -0.44735340903E+02  0.61923765800E+03  0.80797834614E+03  0.10100000352E+00 0. -1.
       -3    1    3    3    0  502  0.51708071887E+03  0.44735340903E+02  0.18351243437E+03  0.55050026732E+03  0.10100000352E+00 0.  1.
</event>
<event>
 5   0  0.1479573E-03  0.1105628E+04  0.7818609E-02  0.9199723E-01
       -1   -1    0    0    0  501  0.00000000000E+00  0.00000000000E+00  0.31977432146E+03  0.31977432150E+03  0.50400001928E-02 0. -1.
        1   -1    0    0  501    0  0.00000000000E+00  0.00000000000E+00 -0.95568506040E+03  0.95568506042E+03  0.50400001928E-02 0.  1.
    10030    2    1    2    0    0  0.00000000000E+00  0.00000000000E+00 -0.63591073894E+03  0.12754593819E+04  0.11056284037E+04 0.  0.
        4    1    3    3  502    0  0.13395583478E+03 -0.49362231530E+03 -0.55992339809E+03  0.75836863099E+03  0.12699999809E+01 0. -1.
       -4    1    3    3    0  502 -0.13395583478E+03  0.49362231530E+03 -0.75987340845E+02  0.51709075093E+03  0.12699999809E+01 0.  1.
</event>
<event>
 5   0  0.1415400E-03  0.1118377E+04  0.7818609E-02  0.9187463E-01
        1   -1    0    0  501    0  0.00000000000E+00  0.00000000000E+00  0.14308726818E+04  0.14308726818E+04  0.50400001928E-02 0. -1.
       -1   -1    0    0    0  501  0.00000000000E+00  0.00000000000E+00 -0.21853227492E+03  0.21853227498E+03  0.50400001928E-02 0.  1.
    10030    2    1    2    0    0  0.00000000000E+00  0.00000000000E+00  0.12123404069E+04  0.16494049568E+04  0.11183771499E+04 0.  0.
        2    1    3    3  502    0 -0.48062251758E+03  0.23467433066E+03  0.36553572569E+03  0.64783208676E+03  0.25500000920E-02 0.  1.
       -2    1    3    3    0  502  0.48062251758E+03 -0.23467433066E+03  0.84680468122E+03  0.10015728700E+04  0.25500000920E-02 0. -1.
</event>
<event>
 5   0  0.2483036E-03  0.1099827E+04  0.7818609E-02  0.9205361E-01
       -2   -1    0    0    0  501  0.00000000000E+00  0.00000000000E+00  0.20678586075E+03  0.20678586076E+03  0.25500000920E-02 0. -1.
        2   -1    0    0  501    0  0.00000000000E+00  0.00000000000E+00 -0.14624057172E+04  0.14624057172E+04  0.25500000920E-02 0.  1.
    10030    2    1    2    0    0  0.00000000000E+00  0.00000000000E+00 -0.12556198564E+04  0.16691915780E+04  0.10998269409E+04 0.  0.
        3    1    3    3  502    0 -0.30456138022E+03  0.45607446343E+03 -0.68933264990E+03  0.88087516876E+03  0.10100000352E+00 0.  1.
       -3    1    3    3    0  502  0.30456138022E+03 -0.45607446343E+03 -0.56628720654E+03  0.78831640919E+03  0.10100000352E+00 0. -1.
</event>
<event>
 5   0  0.2438115E-03  0.1099545E+04  0.7818609E-02  0.9205636E-01
        2   -1    0    0  501    0  0.00000000000E+00  0.00000000000E+00  0.41481603241E+03  0.41481603242E+03  0.25500000920E-02 0.  1.
       -2   -1    0    0    0  501  0.00000000000E+00  0.00000000000E+00 -0.72863564377E+03  0.72863564378E+03  0.25500000920E-02 0. -1.
    10030    2    1    2    0    0  0.00000000000E+00  0.00000000000E+00 -0.31381961136E+03  0.11434516762E+04  0.10995449001E+04 0.  0.
        4    1    3    3  502    0  0.45035131224E+03  0.19396138150E+03 -0.41545535809E+03  0.64268350642E+03  0.12699999809E+01 0.  1.
       -4    1    3    3    0  502 -0.45035131224E+03 -0.19396138150E+03  0.10163574673E+03  0.50076816978E+03  0.12699999809E+01 0. -1.
</event>
<event>
 5   0  0.2438115E-03  0.1080916E+04  0.7818609E-02  0.9223994E-01
        2   -1    0    0  501    0  0.00000000000E+00  0.00000000000E+00  0.14719980955E+04  0.14719980955E+04  0.25500000920E-02 0.  1.
       -2   -1    0    0    0  501  0.00000000000E+00  0.00000000000E+00 -0.19843441307E+03  0.19843441309E+03  0.25500000920E-02 0. -1.
    10030    2    1    2    0    0  0.00000000000E+00  0.00000000000E+00  0.12735636824E+04  0.16704325086E+04  0.10809164226E+04 0.  0.
        4    1    3    3  502    0  0.59293692620E+02 -0.51994683969E+03  0.42810898080E+03  0.67612082532E+03  0.12699999809E+01 0. -1.
       -4    1    3    3    0  502 -0.59293692620E+02  0.51994683969E+03  0.84545470164E+03  0.99431168329E+03  0.12699999809E+01 0.  1.
</event>
<event>
 5   0  0.1509004E-03  0.1098235E+04  0.7818609E-02  0.9206914E-01
        1   -1    0    0  501    0  0.00000000000E+00  0.00000000000E+00  0.36645315758E+03  0.36645315761E+03  0.50400001928E-02 0.  1.
       -1   -1    0    0    0  501  0.00000000000E+00  0.00000000000E+00 -0.82283324310E+03  0.82283324312E+03  0.50400001928E-02 0. -1.
    10030    2    1    2    0    0  0.00000000000E+00  0.00000000000E+00 -0.45638008552E+03  0.11892864007E+04  0.10982346564E+04 0.  0.
        3    1    3    3  502    0  0.19674835293E+03 -0.46559857079E+03  0.41633386179E+01  0.50547926475E+03  0.10100000352E+00 0.  1.
       -3    1    3    3    0  502 -0.19674835293E+03  0.46559857079E+03 -0.46054342414E+03  0.68380713598E+03  0.10100000352E+00 0. -1.
</event>
<event>
 5   0  0.1480937E-03  0.1088987E+04  0.7818609E-02  0.9215993E-01
       -1   -1    0    0    0  501  0.00000000000E+00  0.00000000000E+00  0.48918647331E+03  0.48918647333E+03  0.50400001928E-02 0. -1.
        1   -1    0    0  501    0  0.00000000000E+00  0.00000000000E+00 -0.60605325711E+03  0.60605325713E+03  0.50400001928E-02 0.  1.
    10030    2    1    2    0    0  0.00000000000E+00  0.00000000000E+00 -0.11686678380E+03  0.10952397305E+04  0.10889867869E+04 0.  0.
        1    1    3    3  502    0  0.53162213255E+02 -0.47734750072E+03  0.19952756167E+03  0.52009432342E+03  0.50400001928E-02 0. -1.
       -1    1    3    3    0  502 -0.53162213255E+02  0.47734750072E+03 -0.31639434547E+03  0.57514540704E+03  0.50400001928E-02 0.  1.
</event>
<event>
 5   0  0.1415400E-03  0.1095648E+04  0.7818609E-02  0.9209444E-01
        1   -1    0    0  501    0  0.00000000000E+00  0.00000000000E+00  0.14536808929E+04  0.14536808929E+04  0.50400001928E-02 0.  1.
       -1   -1    0    0    0  501  0.00000000000E+00  0.00000000000E+00 -0.20644904844E+03  0.20644904850E+03  0.50400001928E-02 0. -1.
    10030    2    1    2    0    0  0.00000000000E+00  0.00000000000E+00  0.12472318444E+04  0.16601299414E+04  0.10956478214E+04 0.  0.
        2    1    3    3  502    0  0.28462097185E+03  0.41640680691E+03  0.29967639994E+03  0.58669384788E+03  0.25500000920E-02 0. -1.
       -2    1    3    3    0  502 -0.28462097185E+03 -0.41640680691E+03  0.94755544447E+03  0.10734360935E+04  0.25500000920E-02 0.  1.
</event>
<event>
 5   0  0.2467448E-03  0.1114662E+04  0.7818609E-02  0.9191018E-01
       -2   -1    0    0    0  501  0.00000000000E+00  0.00000000000E+00  0.16072300540E+03  0.16072300542E+03  0.25500000920E-02 0. -1.
        2   -1    0    0  501    0  0.00000000000E+00  0.00000000000E+00 -0.19326283822E+04  0.19326283822E+04  0.25500000920E-02 0.  1.
    10030    2    1    2    0    0  0.00000000000E+00  0.00000000000E+00 -0.17719053768E+04  0.20933513876E+04  0.11146619971E+04 0.  0.
        1    1    3    3  502    0 -0.45672807929E+03 -0.31602962412E+03 -0.97288224832E+03  0.11202567254E+04  0.50400001928E-02 0.  1.
       -1    1    3    3    0  502  0.45672807929E+03  0.31602962412E+03 -0.79902312850E+03  0.97309466222E+03  0.50400001928E-02 0. -1.
</event>
<event>
 5   0  0.2438115E-03  0.1101174E+04  0.7818609E-02  0.9204048E-01
        2   -1    0    0  501    0  0.00000000000E+00  0.00000000000E+00  0.10919346841E+04  0.10919346841E+04  0.25500000920E-02 0.  1.
       -2   -1    0    0    0  501  0.00000000000E+00  0.00000000000E+00 -0.27762308888E+03  0.27762308889E+03  0.25500000920E-02 0. -1.
    10030    2    1    2    0    0  0.00000000000E+00  0.00000000000E+00  0.81431159524E+03  0.13695577730E+04  0.11011744274E+04 0.  0.
        4    1    3    3  502    0 -0.14398277799E+03  0.33614615181E+03  0.91908016040E+03  0.98915884967E+03  0.12699999809E+01 0.  1.
       -4    1    3    3    0  502  0.14398277799E+03 -0.33614615181E+03 -0.10476856516E+03  0.38039892335E+03  0.12699999809E+01 0. -1.
</event>
<event>
 5   0  0.1468556E-03  0.1106053E+04  0.7818609E-02  0.9199312E-01
        1   -1    0    0  501    0  0.00000000000E+00  0.00000000000E+00  0.12985603358E+04  0.12985603358E+04  0.50400001928E-02 0. -1.
       -1   -1    0    0    0  501  0.00000000000E+00  0.00000000000E+00 -0.23552117530E+03  0.23552117535E+03  0.50400001928E-02 0.  1.
    10030    2    1    2    0    0  0.00000000000E+00  0.00000000000E+00  0.10630391605E+04  0.15340815112E+04  0.11060532655E+04 0.  0.
        5    1    3    3  502    0 -0.21488229759E+03  0.49856190580E+03  0.67750278513E+03  0.86819956783E+03  0.46999998093E+01 0. -1.
       -5    1    3    3    0  502  0.21488229759E+03 -0.49856190580E+03  0.38553637539E+03  0.66588194335E+03  0.46999998093E+01 0.  1.
</event>
<event>
 5   0  0.2467448E-03  0.1098337E+04  0.7818609E-02  0.9206814E-01
        2   -1    0    0  501    0  0.00000000000E+00  0.00000000000E+00  0.23807146028E+03  0.23807146030E+03  0.25500000920E-02 0. -1.
       -2   -1    0    0    0  501  0.00000000000E+00  0.00000000000E+00 -0.12667887109E+04  0.12667887109E+04  0.25500000920E-02 0.  1.
    10030    2    1    2    0    0  0.00000000000E+00  0.00000000000E+00 -0.10287172506E+04  0.15048601712E+04  0.10983373585E+04 0.  0.
        1    1    3    3  502    0  0.56083176033E+02 -0.43817162356E+03 -0.67339427458E+02  0.44684929545E+03  0.50400001928E-02 0. -1.
       -1    1    3    3    0  502 -0.56083176033E+02  0.43817162356E+03 -0.96137782318E+03  0.10580108758E+04  0.50400001928E-02 0.  1.
</event>
<event>
 5   0  0.1509004E-03  0.1098985E+04  0.7818609E-02  0.9206181E-01
       -1   -1    0    0    0  501  0.00000000000E+00  0.00000000000E+00  0.38176712323E+03  0.38176712326E+03  0.50400001928E-02 0. -1.
        1   -1    0    0  501    0  0.00000000000E+00  0.00000000000E+00 -0.79090681546E+03  0.79090681547E+03  0.50400001928E-02 0.  1.
    10030    2    1    2    0    0  0.00000000000E+00  0.00000000000E+00 -0.40913969223E+03  0.11726739387E+04  0.10989853861E+04 0.  0.
        3    1    3    3  502    0 -0.13576228150E+03 -0.51026683735E+03 -0.42256740657E+02  0.52970679126E+03  0.10100000352E+00 0.  1.
       -3    1    3    3    0  502  0.13576228150E+03  0.51026683735E+03 -0.36688295157E+03  0.64296714747E+03  0.10100000352E+00 0. -1.
</event>
<event>
 5   0  0.1468556E-03  0.1101557E+04  0.7818609E-02  0.9203676E-01
       -1   -1    0    0    0  501  0.00000000000E+00  0.00000000000E+00  0.11342399722E+04  0.11342399722E+04  0.50400001928E-02 0. -1.
        1   -1    0    0  501    0  0.00000000000E+00  0.00000000000E+00 -0.26745392750E+03  0.26745392755E+03  0.50400001928E-02 0.  1.
    10030    2    1    2    0    0  0.00000000000E+00  0.00000000000E+00  0.86678604465E+03  0.14016938997E+04  0.11015569623E+04 0.  0.
        5    1    3    3  502    0 -0.44254738343E+03  0.32782150627E+03  0.42774253242E+03  0.69735277342E+03  0.46999998093E+01 0.  1.
       -5    1    3    3    0  502  0.44254738343E+03 -0.32782150627E+03  0.43904351223E+03  0.70434112630E+03  0.46999998093E+01 0. -1.
</event>
<event>
 5   0  0.1468556E-03  0.1097542E+04  0.7818609E-02  0.9207591E-01
       -1   -1    0    0    0  501  0.00000000000E+00  0.00000000000E+00  0.39380173671E+03  0.39380173674E+03  0.50400001928E-02 0. -1.
        1   -1    0    0  501    0  0.00000000000E+00  0.00000000000E+00 -0.76472440221E+03  0.76472440222E+03  0.50400001928E-02 0.  1.
    10030    2    1    2    0    0  0.00000000000E+00  0.00000000000E+00 -0.37092266550E+03  0.11585261390E+04  0.10975423413E+04 0.  0.
        5    1    3    3  502    0  0.39075581985E+02  0.38718910161E+03  0.22292790013E+03  0.44851002238E+03  0.46999998093E+01 0. -1.
       -5    1    3    3    0  502 -0.39075581985E+02 -0.38718910161E+03 -0.59385056563E+03  0.71001611659E+03  0.46999998093E+01 0.  1.
</event>
<event>
 5   0  0.2392585E-03  0.1109577E+04  0.7818609E-02  0.9195908E-01
        2   -1    0    0  501    0  0.00000000000E+00  0.00000000000E+00  0.68794764575E+03  0.68794764575E+03  0.25500000920E-02 0. -1.
       -2   -1    0    0    0  501  0.00000000000E+00  0.00000000000E+00 -0.44740358358E+03  0.44740358359E+03  0.25500000920E-02 0.  1.
    10030    2    1    2    0    0  0.00000000000E+00  0.00000000000E+00  0.24054406217E+03  0.11353512293E+04  0.11095769320E+04 0.  0.
        5    1    3    3  502    0  0.33860705811E+03  0.42064490585E+03 -0.98482378018E+01  0.54010735452E+03  0.46999998093E+01 0.  1.
       -5    1    3    3    0  502 -0.33860705811E+03 -0.42064490585E+03  0.25039229997E+03  0.59524387482E+03  0.46999998093E+01 0. -1.
</event>
<event>
 5   0  0.2392585E-03  0.1103828E+04  0.7818609E-02  0.9201469E-01
       -2   -1    0    0    0  501  0.00000000000E+00  0.00000000000E+00  0.49985931959E+03  0.49985931960E+03  0.25500000920E-02 0. -1.
        2   -1    0    0  501    0  0.00000000000E+00  0.00000000000E+00 -0.60938912178E+03  0.60938912179E+03  0.25500000920E-02 0.  1.
    10030    2    1    2    0    0  0.00000000000E+00  0.00000000000E+00 -0.10952980219E+03  0.11092484414E+04  0.11038275804E+04 0.  0.
        5    1    3    3  502    0  0.27538331071E+03  0.32758367135E+03 -0.40495829618E+03  0.58920314085E+03  0.46999998093E+01 0.  1.
       -5    1    3    3    0  502 -0.27538331071E+03 -0.32758367135E+03  0.29542849398E+03  0.52004530053E+03  0.46999998093E+01 0. -1.
</event>
<event>
 5   0  0.2438115E-03  0.1105801E+04  0.7818609E-02  0.9199556E-01
        2   -1    0    0  501    0  0.00000000000E+00  0.00000000000E+00  0.43361957848E+03  0.43361957849E+03  0.25500000920E-02 0.  1.
       -2   -1    0    0    0  501  0.00000000000E+00  0.00000000000E+00 -0.70499319596E+03  0.70499319596E+03  0.25500000920E-02 0. -1.
    10030    2    1    2    0    0  0.00000000000E+00  0.00000000000E+00 -0.27137361747E+03  0.11386127745E+04  0.11058008003E+04 0.  0.
        4    1    3    3  502    0  0.33663119803E+03  0.33764845933E+03  0.15256670704E+03  0.50060489267E+03  0.12699999809E+01 0.  1.
       -4    1    3    3    0  502 -0.33663119803E+03 -0.33764845933E+03 -0.42394032451E+03  0.63800788178E+03  0.12699999809E+01 0. -1.
</event>
<event>
 5   0  0.1480937E-03  0.1096696E+04  0.7818609E-02  0.9208418E-01
       -1   -1    0    0    0  501  0.00000000000E+00  0.00000000000E+00  0.16042456433E+03  0.16042456441E+03  0.50400001928E-02 0. -1.
        1   -1    0    0  501    0  0.00000000000E+00  0.00000000000E+00 -0.18743122967E+04  0.18743122967E+04  0.50400001928E-02 0.  1.
    10030    2    1    2    0    0  0.00000000000E+00  0.00000000000E+00 -0.17138877324E+04  0.20347368611E+04  0.10966963731E+04 0.  0.
        1    1    3    3  502    0  0.22649617686E+03  0.10102072079E+03  0.50425897491E+02  0.25307800245E+03  0.50400001928E-02 0. -1.
       -1    1    3    3    0  502 -0.22649617686E+03 -0.10102072079E+03 -0.17643136298E+04  0.17816588587E+04  0.50400001928E-02 0.  1.
</event>
<event>
 5   0  0.2392585E-03  0.1098826E+04  0.7818609E-02  0.9206337E-01
       -2   -1    0    0    0  501  0.00000000000E+00  0.00000000000E+00  0.14185923508E+03  0.14185923510E+03  0.25500000920E-02 0. -1.
        2   -1    0    0  501    0  0.00000000000E+00  0.00000000000E+00 -0.21278455345E+04  0.21278455345E+04  0.25500000920E-02 0.  1.
    10030    2    1    2    0    0  0.00000000000E+00  0.00000000000E+00 -0.19859862995E+04  0.22697047696E+04  0.10988258095E+04 0.  0.
        5    1    3    3  502    0 -0.32102736693E+03 -0.38455945115E+02 -0.19104773203E+04  0.19376488618E+04  0.46999998093E+01 0.  1.
       -5    1    3    3    0  502  0.32102736693E+03  0.38455945115E+02 -0.75508979140E+02  0.33205590788E+03  0.46999998093E+01 0. -1.
</event>
<event>
 5   0  0.1468556E-03  0.1097345E+04  0.7818609E-02  0.9207784E-01
       -1   -1    0    0    0  501  0.00000000000E+00  0.00000000000E+00  0.33340863861E+03  0.33340863865E+03  0.50400001928E-02 0. -1.
        1   -1    0    0  501    0  0.00000000000E+00  0.00000000000E+00 -0.90292026768E+03  0.90292026770E+03  0.50400001928E-02 0.  1.
    10030    2    1    2    0    0  0.00000000000E+00  0.00000000000E+00 -0.56951162907E+03  0.12363289063E+04  0.10973448269E+04 0.  0.
        5    1    3    3  502    0  0.12042390670E+03 -0.29289525742E+03 -0.78952961474E+03  0.85068716440E+03  0.46999998093E+01 0.  1.
       -5    1    3    3    0  502 -0.12042390670E+03  0.29289525742E+03  0.22001798566E+03  0.38564174195E+03  0.46999998093E+01 0. -1.
</event>
<event>
 5   0  0.2483036E-03  0.1057052E+04  0.7818609E-02  0.9248093E-01
       -2   -1    0    0    0  501  0.00000000000E+00  0.00000000000E+00  0.43048821852E+03  0.43048821852E+03  0.25500000920E-02 0.  1.
        2   -1    0    0  501    0  0.00000000000E+00  0.00000000000E+00 -0.64889089653E+03  0.64889089654E+03  0.25500000920E-02 0. -1.
    10030    2    1    2    0    0  0.00000000000E+00  0.00000000000E+00 -0.21840267802E+03  0.10793791151E+04  0.10570522902E+04 0.  0.
        3    1    3    3  502    0  0.10594659000E+03 -0.40307344727E+03  0.22269778589E+03  0.47253274794E+03  0.10100000352E+00 0.  1.
       -3    1    3    3    0  502 -0.10594659000E+03  0.40307344727E+03 -0.44110046391E+03  0.60684636713E+03  0.10100000352E+00 0. -1.
</event>
<event>
 5   0  0.2392585E-03  0.1060319E+04  0.7818609E-02  0.9244754E-01
        2   -1    0    0  501    0  0.00000000000E+00  0.00000000000E+00  0.11816709470E+04  0.11816709470E+04  0.25500000920E-02 0. -1.
       -2   -1    0    0    0  501  0.00000000000E+00  0.00000000000E+00 -0.23785745344E+03  0.23785745345E+03  0.25500000920E-02 0.  1.
    10030    2    1    2    0    0  0.00000000000E+00  0.00000000000E+00  0.94381349352E+03  0.14195284004E+04  0.10603192769E+04 0.  0.
        5    1    3    3  502    0  0.43538820690E+02 -0.45490502357E+03  0.83166846668E+03  0.94896192645E+03  0.46999998093E+01 0. -1.
       -5    1    3    3    0  502 -0.43538820690E+02  0.45490502357E+03  0.11214502684E+03  0.47056647397E+03  0.46999998093E+01 0.  1.
</event>
<event>
 5   0  0.1479573E-03  0.1098626E+04  0.7818609E-02  0.9206532E-01
        1   -1    0    0  501    0  0.00000000000E+00  0.00000000000E+00  0.70587248819E+03  0.70587248821E+03  0.50400001928E-02 0. -1.
       -1   -1    0    0    0  501  0.00000000000E+00  0.00000000000E+00 -0.42747791689E+03  0.42747791692E+03  0.50400001928E-02 0.  1.
    10030    2    1    2    0    0  0.00000000000E+00  0.00000000000E+00  0.27839457130E+03  0.11333504051E+04  0.10986262347E+04 0.  0.
        4    1    3    3  502    0 -0.69739599133E+02  0.31211802401E+03 -0.32153043161E+03  0.45350270556E+03  0.12699999809E+01 0.  1.
       -4    1    3    3    0  502  0.69739599133E+02 -0.31211802401E+03  0.59992500291E+03  0.67984769957E+03  0.12699999809E+01 0. -1.
</event>
<event>
 5   0  0.2483036E-03  0.1108705E+04  0.7818609E-02  0.9196749E-01
       -2   -1    0    0    0  501  0.00000000000E+00  0.00000000000E+00  0.18347454695E+03  0.18347454697E+03  0.25500000920E-02 0. -1.
        2   -1    0    0  501    0  0.00000000000E+00  0.00000000000E+00 -0.16749273540E+04  0.16749273540E+04  0.25500000920E-02 0.  1.
    10030    2    1    2    0    0  0.00000000000E+00  0.00000000000E+00 -0.14914528070E+04  0.18584019009E+04  0.11087047172E+04 0.  0.
        3    1    3    3  502    0  0.13390476616E+03 -0.23045268236E+03 -0.15604791488E+04  0.15830774173E+04  0.10100000352E+00 0.  1.
       -3    1    3    3    0  502 -0.13390476616E+03  0.23045268236E+03  0.69026341795E+02  0.27532448360E+03  0.10100000352E+00 0. -1.
</event>
<event>
 5   0  0.2488472E-03  0.1100197E+04  0.7818609E-02  0.9204999E-01
        2   -1    0    0  501    0  0.00000000000E+00  0.00000000000E+00  0.10032742002E+04  0.10032742002E+04  0.25500000920E-02 0. -1.
       -2   -1    0    0    0  501  0.00000000000E+00  0.00000000000E+00 -0.30162105796E+03  0.30162105797E+03  0.25500000920E-02 0.  1.
    10030    2    1    2    0    0  0.00000000000E+00  0.00000000000E+00  0.70165314226E+03  0.13048952582E+04  0.11001974836E+04 0.  0.
        2    1    3    3  502    0 -0.23268239705E+03 -0.33335831594E+03 -0.88718231716E+02  0.41610069616E+03  0.25500000920E-02 0.  1.
       -2    1    3    3    0  502  0.23268239705E+03  0.33335831594E+03  0.79037137397E+03  0.88879456204E+03  0.25500000920E-02 0. -1.
</event>
<event>
 5   0  0.2438115E-03  0.1107707E+04  0.7818609E-02  0.9197713E-01
        2   -1    0    0  501    0  0.00000000000E+00  0.00000000000E+00  0.97618198903E+03  0.97618198904E+03  0.25500000920E-02 0.  1.
       -2   -1    0    0    0  501  0.00000000000E+00  0.00000000000E+00 -0.31423810992E+03  0.31423810993E+03  0.25500000920E-02 0. -1.
    10030    2    1    2    0    0  0.00000000000E+00  0.00000000000E+00  0.66194387911E+03  0.12904200990E+04  0.11077067900E+04 0.  0.
        4    1    3    3  502    0  0.35030353643E+03  0.42820511894E+03  0.30059877131E+03  0.62962959407E+03  0.12699999809E+01 0. -1.
       -4    1    3    3    0  502 -0.35030353643E+03 -0.42820511894E+03  0.36134510781E+03  0.66079050489E+03  0.12699999809E+01 0.  1.
</event>
<event>
 5   0  0.2483036E-03  0.1066212E+04  0.7818609E-02  0.9238765E-01
        2   -1    0    0  501    0  0.00000000000E+00  0.00000000000E+00  0.18020660496E+04  0.18020660496E+04  0.25500000920E-02 0.  1.
       -2   -1    0    0    0  501  0.00000000000E+00  0.00000000000E+00 -0.15770888312E+03  0.15770888314E+03  0.25500000920E-02 0. -1.
    10030    2    1    2    0    0  0.00000000000E+00  0.00000000000E+00  0.16443571664E+04  0.19597749327E+04  0.10662116563E+04 0.  0.
        3    1    3    3  502    0 -0.64507817446E+01 -0.34976753632E+03  0.82773002279E+02  0.35948619188E+03  0.10100000352E+00 0. -1.
       -3    1    3    3    0  502  0.64507817446E+01  0.34976753632E+03  0.15615841642E+04  0.16002887408E+04  0.10100000352E+00 0.  1.
</event>
<event>
 5   0  0.2467448E-03  0.1100544E+04  0.7818609E-02  0.9204662E-01
        2   -1    0    0  501    0  0.00000000000E+00  0.00000000000E+00  0.95439683783E+03  0.95439683783E+03  0.25500000920E-02 0. -1.
       -2   -1    0    0    0  501  0.00000000000E+00  0.00000000000E+00 -0.31726765376E+03  0.31726765377E+03  0.25500000920E-02 0.  1.
    10030    2    1    2    0    0  0.00000000000E+00  0.00000000000E+00  0.63712918407E+03  0.12716644916E+04  0.11005439482E+04 0.  0.
        1    1    3    3  502    0 -0.27350562256E+03 -0.28206399152E+03  0.76374043899E+03  0.85887419280E+03  0.50400001928E-02 0. -1.
       -1    1    3    3    0  502  0.27350562256E+03  0.28206399152E+03 -0.12661125492E+03  0.41279029880E+03  0.50400001928E-02 0.  1.
</event>
<event>
 5   0  0.2467448E-03  0.1138661E+04  0.7818609E-02  0.9168309E-01
        2   -1    0    0  501    0  0.00000000000E+00  0.00000000000E+00  0.12099049739E+04  0.12099049739E+04  0.25500000920E-02 0. -1.
       -2   -1    0    0    0  501  0.00000000000E+00  0.00000000000E+00 -0.26790297981E+03  0.26790297982E+03  0.25500000920E-02 0.  1.
    10030    2    1    2    0    0  0.00000000000E+00  0.00000000000E+00  0.94200199406E+03  0.14778079537E+04  0.11386608763E+04 0.  0.
        1    1    3    3  502    0  0.22090007099E+03  0.49638887856E+03  0.69178152416E+03  0.87963653705E+03  0.50400001928E-02 0. -1.
       -1    1    3    3    0  502 -0.22090007099E+03 -0.49638887856E+03  0.25022046990E+03  0.59817141665E+03  0.50400001928E-02 0.  1.
</event>
<event>
 5   0  0.1480937E-03  0.1074190E+04  0.7818609E-02  0.9230719E-01
       -1   -1    0    0    0  501  0.00000000000E+00  0.00000000000E+00  0.14651177549E+03  0.14651177558E+03  0.50400001928E-02 0. -1.
        1   -1    0    0  501    0  0.00000000000E+00  0.00000000000E+00 -0.19689282171E+04  0.19689282171E+04  0.50400001928E-02 0.  1.
    10030    2    1    2    0    0  0.00000000000E+00  0.00000000000E+00 -0.18224164416E+04  0.21154399927E+04  0.10741902420E+04 0.  0.
        1    1    3    3  502    0 -0.27051855410E+02  0.51018734102E+03 -0.58493849058E+03  0.77664403919E+03  0.50400001928E-02 0. -1.
       -1    1    3    3    0  502  0.27051855410E+02 -0.51018734102E+03 -0.12374779511E+04  0.13387959535E+04  0.50400001928E-02 0.  1.
</event>
<event>
 5   0  0.1415400E-03  0.1113247E+04  0.7818609E-02  0.9192376E-01
        1   -1    0    0  501    0  0.00000000000E+00  0.00000000000E+00  0.11061841038E+04  0.11061841038E+04  0.50400001928E-02 0.  1.
       -1   -1    0    0    0  501  0.00000000000E+00  0.00000000000E+00 -0.28008882572E+03  0.28008882577E+03  0.50400001928E-02 0. -1.
    10030    2    1    2    0    0  0.00000000000E+00  0.00000000000E+00  0.82609527809E+03  0.13862729296E+04  0.11132471544E+04 0.  0.
        2    1    3    3  502    0  0.35001083671E+03  0.28889539566E+03  0.81436209342E+03  0.93228415982E+03  0.25500000920E-02 0.  1.
       -2    1    3    3    0  502 -0.35001083671E+03 -0.28889539566E+03  0.11733184672E+02  0.45398876977E+03  0.25500000920E-02 0. -1.
</event>
<event>
 5   0  0.2467448E-03  0.1103238E+04  0.7818609E-02  0.9202041E-01
       -2   -1    0    0    0  501  0.00000000000E+00  0.00000000000E+00  0.39185651838E+03  0.39185651839E+03  0.25500000920E-02 0.  1.
        2   -1    0    0  501    0  0.00000000000E+00  0.00000000000E+00 -0.77651800470E+03  0.77651800471E+03  0.25500000920E-02 0. -1.
    10030    2    1    2    0    0  0.00000000000E+00  0.00000000000E+00 -0.38466148632E+03  0.11683745231E+04  0.11032382187E+04 0.  0.
        1    1    3    3  502    0  0.18191478364E+03  0.33116754082E+03  0.23329138899E+03  0.44406058236E+03  0.50400001928E-02 0.  1.
       -1    1    3    3    0  502 -0.18191478364E+03 -0.33116754082E+03 -0.61795287531E+03  0.72431394073E+03  0.50400001928E-02 0. -1.
</event>
<event>
 5   0  0.1509004E-03  0.1101406E+04  0.7818609E-02  0.9203822E-01
        1   -1    0    0  501    0  0.00000000000E+00  0.00000000000E+00  0.53453149232E+03  0.53453149234E+03  0.50400001928E-02 0.  1.
       -1   -1    0    0    0  501  0.00000000000E+00  0.00000000000E+00 -0.56736394409E+03  0.56736394411E+03  0.50400001928E-02 0. -1.
    10030    2    1    2    0    0  0.00000000000E+00  0.00000000000E+00 -0.32832451769E+02  0.11018954365E+04  0.11014061844E+04 0.  0.
        3    1    3    3  502    0 -0.27717300513E+03  0.46300809582E+03  0.93507573835E+02  0.54767239125E+03  0.10100000352E+00 0.  1.
       -3    1    3    3    0  502  0.27717300513E+03 -0.46300809582E+03 -0.12634002560E+03  0.55422304521E+03  0.10100000352E+00 0. -1.
</event>
<event>
 5   0  0.2392585E-03  0.1105541E+04  0.7818609E-02  0.9199808E-01
       -2   -1    0    0    0  501  0.00000000000E+00  0.00000000000E+00  0.23886185739E+03  0.23886185740E+03  0.25500000920E-02 0.  1.
        2   -1    0    0  501    0  0.00000000000E+00  0.00000000000E+00 -0.12792120758E+04  0.12792120758E+04  0.25500000920E-02 0. -1.
    10030    2    1    2    0    0  0.00000000000E+00  0.00000000000E+00 -0.10403502184E+04  0.15180739332E+04  0.11055405419E+04 0.  0.
        5    1    3    3  502    0  0.55079311970E+03  0.29759690235E+01 -0.45649043152E+03  0.71539326330E+03  0.46999998093E+01 0.  1.
       -5    1    3    3    0  502 -0.55079311970E+03 -0.29759690235E+01 -0.58385978692E+03  0.80268066993E+03  0.46999998093E+01 0. -1.
</event>
<event>
 5   0  0.1509004E-03  0.1101860E+04  0.7818609E-02  0.9203381E-01
        1   -1    0    0  501    0  0.00000000000E+00  0.00000000000E+00  0.36718064283E+03  0.36718064286E+03  0.50400001928E-02 0. -1.
       -1   -1    0    0    0  501  0.00000000000E+00  0.00000000000E+00 -0.82663409531E+03  0.82663409532E+03  0.50400001928E-02 0.  1.
    10030    2    1    2    0    0  0.00000000000E+00  0.00000000000E+00 -0.45945345248E+03  0.11938147382E+04  0.11018603152E+04 0.  0.
        3    1    3    3  502    0  0.44860884640E+03 -0.16547029346E+03 -0.52623244644E+03  0.71102103553E+03  0.10100000352E+00 0.  1.
       -3    1    3    3    0  502 -0.44860884640E+03  0.16547029346E+03  0.66778993957E+02  0.48279370265E+03  0.10100000352E+00 0. -1.
</event>
<event>
 5   0  0.2488472E-03  0.1107038E+04  0.7818609E-02  0.9198360E-01
        2   -1    0    0  501    0  0.00000000000E+00  0.00000000000E+00  0.34360642339E+03  0.34360642340E+03  0.25500000920E-02 0.  1.
       -2   -1    0    0    0  501  0.00000000000E+00  0.00000000000E+00 -0.89166846974E+03  0.89166846975E+03  0.25500000920E-02 0. -1.
    10030    2    1    2    0    0  0.00000000000E+00  0.00000000000E+00 -0.54806204635E+03  0.12352748931E+04  0.11070375129E+04 0.  0.
        2    1    3    3  502    0  0.20580171844E+03  0.62625081860E+02  0.29505392792E+03  0.36514800914E+03  0.25500000920E-02 0.  1.
       -2    1    3    3    0  502 -0.20580171844E+03 -0.62625081860E+02 -0.84311597427E+03  0.87012688401E+03  0.25500000920E-02 0. -1.
</event>
<event>
 5   0  0.1479573E-03  0.1101719E+04  0.7818609E-02  0.9203518E-01
       -1   -1    0    0    0  501  0.00000000000E+00  0.00000000000E+00  0.39188287711E+03  0.39188287714E+03  0.50400001928E-02 0.  1.
        1   -1    0    0  501    0  0.00000000000E+00  0.00000000000E+00 -0.77432855429E+03  0.77432855430E+03  0.50400001928E-02 0. -1.
    10030    2    1    2    0    0  0.00000000000E+00  0.00000000000E+00 -0.38244567718E+03  0.11662114314E+04  0.11017188420E+04 0.  0.
        4    1    3    3  502    0  0.36965636201E+03 -0.33859452509E+03  0.50514485303E+02  0.50383073003E+03  0.12699999809E+01 0. -1.
       -4    1    3    3    0  502 -0.36965636201E+03  0.33859452509E+03 -0.43296016249E+03  0.66238070141E+03  0.12699999809E+01 0.  1.
</event>
<event>
 5   0  0.1468556E-03  0.1093031E+04  0.7818609E-02  0.9212011E-01
        1   -1    0    0  501    0  0.00000000000E+00  0.00000000000E+00  0.82846432052E+03  0.82846432054E+03  0.50400001928E-02 0.  1.
       -1   -1    0    0    0  501  0.00000000000E+00  0.00000000000E+00 -0.36052143121E+03  0.36052143125E+03  0.50400001928E-02 0. -1.
    10030    2    1    2    0    0  0.00000000000E+00  0.00000000000E+00  0.46794288931E+03  0.11889857518E+04  0.10930309100E+04 0.  0.
        5    1    3    3  502    0 -0.42082426412E+03  0.31270985011E+03  0.40170445565E+03  0.66050667772E+03  0.46999998093E+01 0. -1.
       -5    1    3    3    0  502  0.42082426412E+03 -0.31270985011E+03  0.66238433662E+02  0.52847907406E+03  0.46999998093E+01 0.  1.
</event>
<event>
 5   0  0.1480937E-03  0.1096888E+04  0.7818609E-02  0.9208230E-01
       -1   -1    0    0    0  501  0.00000000000E+00  0.00000000000E+00  0.47294399065E+03  0.47294399067E+03  0.50400001928E-02 0.  1.
        1   -1    0    0  501    0  0.00000000000E+00  0.00000000000E+00 -0.63599715406E+03  0.63599715408E+03  0.50400001928E-02 0. -1.
    10030    2    1    2    0    0  0.00000000000E+00  0.00000000000E+00 -0.16305316341E+03  0.11089411448E+04  0.10968883847E+04 0.  0.
        1    1    3    3  502    0 -0.55474452684E+02  0.27477791187E+02 -0.63245351527E+03  0.63547611514E+03  0.50400001928E-02 0. -1.
       -1    1    3    3    0  502  0.55474452684E+02 -0.27477791187E+02  0.46940035186E+03  0.47346502961E+03  0.50400001928E-02 0.  1.
</event>
<event>
 5   0  0.1415400E-03  0.1071356E+04  0.7818609E-02  0.9233569E-01
       -1   -1    0    0    0  501  0.00000000000E+00  0.00000000000E+00  0.46994248049E+03  0.46994248051E+03  0.50400001928E-02 0. -1.
        1   -1    0    0  501    0  0.00000000000E+00  0.00000000000E+00 -0.61060862437E+03  0.61060862439E+03  0.50400001928E-02 0.  1.
    10030    2    1    2    0    0  0.00000000000E+00  0.00000000000E+00 -0.14066614388E+03  0.10805511049E+04  0.10713560222E+04 0.  0.
        2    1    3    3  502    0 -0.47765602798E+03 -0.18036207655E+03 -0.23378935532E+03  0.56155429158E+03  0.25500000920E-02 0.  1.
       -2    1    3    3    0  502  0.47765602798E+03  0.18036207655E+03  0.93123211441E+02  0.51899681332E+03  0.25500000920E-02 0. -1.
</event>
<event>
 5   0  0.2483036E-03  0.1098491E+04  0.7818609E-02  0.9206664E-01
       -2   -1    0    0    0  501  0.00000000000E+00  0.00000000000E+00  0.12079501377E+03  0.12079501380E+03  0.25500000920E-02 0.  1.
        2   -1    0    0  501    0  0.00000000000E+00  0.00000000000E+00 -0.24973763341E+04  0.24973763341E+04  0.25500000920E-02 0. -1.
    10030    2    1    2    0    0  0.00000000000E+00  0.00000000000E+00 -0.23765813204E+04  0.26181713479E+04  0.10984909808E+04 0.  0.
        3    1    3    3  502    0 -0.13538847765E+02 -0.86634480173E+02 -0.24805859661E+04  0.24821352862E+04  0.10100000352E+00 0. -1.
       -3    1    3    3    0  502  0.13538847765E+02  0.86634480173E+02  0.10400464575E+03  0.13603606173E+03  0.10100000352E+00 0.  1.
</event>
<event>
 5   0  0.2467448E-03  0.1102442E+04  0.7818609E-02  0.9202815E-01
       -2   -1    0    0    0  501  0.00000000000E+00  0.00000000000E+00  0.49729508379E+03  0.49729508379E+03  0.25500000920E-02 0.  1.
        2   -1    0    0  501    0  0.00000000000E+00  0.00000000000E+00 -0.61099504911E+03  0.61099504912E+03  0.25500000920E-02 0. -1.
    10030    2    1    2    0    0  0.00000000000E+00  0.00000000000E+00 -0.11369996532E+03  0.11082901329E+04  0.11024424414E+04 0.  0.
        1    1    3    3  502    0 -0.41265012052E+02  0.16474800632E+03 -0.58403613006E+03  0.60822932192E+03  0.50400001928E-02 0. -1.
       -1    1    3    3    0  502  0.41265012052E+02 -0.16474800632E+03  0.47033616473E+03  0.50006081099E+03  0.50400001928E-02 0.  1.
</event>
<event>
 5   0  0.1415400E-03  0.1104636E+04  0.7818609E-02  0.9200685E-01
        1   -1    0    0  501    0  0.00000000000E+00  0.00000000000E+00  0.13075419391E+04  0.13075419391E+04  0.50400001928E-02 0. -1.
       -1   -1    0    0    0  501  0.00000000000E+00  0.00000000000E+00 -0.23330415000E+03  0.23330415005E+03  0.50400001928E-02 0.  1.
    10030    2    1    2    0    0  0.00000000000E+00  0.00000000000E+00  0.10742377891E+04  0.15408460891E+04  0.11046356155E+04 0.  0.
        2    1    3    3  502    0 -0.36871271827E+02  0.26540747560E+03  0.12108011172E+04  0.12400967560E+04  0.25500000920E-02 0. -1.
       -2    1    3    3    0  502  0.36871271827E+02 -0.26540747560E+03 -0.13656332813E+03  0.30074933315E+03  0.25500000920E-02 0.  1.
</event>
<event>
 5   0  0.1415400E-03  0.1101551E+04  0.7818609E-02  0.9203681E-01
       -1   -1    0    0    0  501  0.00000000000E+00  0.00000000000E+00  0.73582297012E+03  0.73582297014E+03  0.50400001928E-02 0. -1.
        1   -1    0    0  501    0  0.00000000000E+00  0.00000000000E+00 -0.41226460312E+03  0.41226460315E+03  0.50400001928E-02 0.  1.
    10030    2    1    2    0    0  0.00000000000E+00  0.00000000000E+00  0.32355836700E+03  0.11480875733E+04  0.11015512058E+04 0.  0.
        2    1    3    3  502    0  0.38059174057E+03  0.19146203628E+03  0.52559027014E+03  0.67657439827E+03  0.25500000920E-02 0. -1.
       -2    1    3    3    0  502 -0.38059174057E+03 -0.19146203628E+03 -0.20203190314E+03  0.47151317502E+03  0.25500000920E-02 0.  1.
</event>
<event>
 5   0  0.1509004E-03  0.1099560E+04  0.7818609E-02  0.9205621E-01
        1   -1    0    0  501    0  0.00000000000E+00  0.00000000000E+00  0.27237472014E+03  0.27237472019E+03  0.50400001928E-02 0.  1.
       -1   -1    0    0    0  501  0.00000000000E+00  0.00000000000E+00 -0.11097141502E+04  0.11097141503E+04  0.50400001928E-02 0. -1.
    10030    2    1    2    0    0  0.00000000000E+00  0.00000000000E+00 -0.83733943010E+03  0.13820888704E+04  0.10995600596E+04 0.  0.
        3    1    3    3  502    0  0.39546792841E+03  0.34963329168E+03 -0.61184637864E+03  0.80808064097E+03  0.10100000352E+00 0. -1.
       -3    1    3    3    0  502 -0.39546792841E+03 -0.34963329168E+03 -0.22549305146E+03  0.57400822947E+03  0.10100000352E+00 0.  1.
</event>
<event>
 5   0  0.1479573E-03  0.1104736E+04  0.7818609E-02  0.9200588E-01
       -1   -1    0    0    0  501  0.00000000000E+00  0.00000000000E+00  0.91015824547E+03  0.91015824549E+03  0.50400001928E-02 0.  1.
        1   -1    0    0  501    0  0.00000000000E+00  0.00000000000E+00 -0.33522802183E+03  0.33522802187E+03  0.50400001928E-02 0. -1.
    10030    2    1    2    0    0  0.00000000000E+00  0.00000000000E+00  0.57493022365E+03  0.12453862674E+04  0.11047362549E+04 0.  0.
        4    1    3    3  502    0  0.11641474509E+03 -0.45855980183E+03  0.60885769140E+03  0.77106341244E+03  0.12699999809E+01 0.  1.
       -4    1    3    3    0  502 -0.11641474509E+03  0.45855980183E+03 -0.33927467754E+02  0.47432285492E+03  0.12699999809E+01 0. -1.
</event>
<event>
 5   0  0.2488472E-03  0.1104518E+04  0.7818609E-02  0.9200799E-01
       -2   -1    0    0    0  501  0.00000000000E+00  0.00000000000E+00  0.31633782433E+03  0.31633782434E+03  0.25500000920E-02 0.  1.
        2   -1    0    0  501    0  0.00000000000E+00  0.00000000000E+00 -0.96412824172E+03  0.96412824172E+03  0.25500000920E-02 0. -1.
    10030    2    1    2    0    0  0.00000000000E+00  0.00000000000E+00 -0.64779041739E+03  0.12804660661E+04  0.11045184116E+04 0.  0.
        2    1    3    3  502    0  0.87857151588E+02 -0.83223338249E+02 -0.94856781265E+03  0.95625618864E+03  0.25500000920E-02 0. -1.
       -2    1    3    3    0  502 -0.87857151588E+02  0.83223338249E+02  0.30077739526E+03  0.32420987742E+03  0.25500000920E-02 0.  1.
</event>
<event>
 5   0  0.2467448E-03  0.1106732E+04  0.7818609E-02  0.9198655E-01
        2   -1    0    0  501    0  0.00000000000E+00  0.00000000000E+00  0.60930872652E+03  0.60930872652E+03  0.25500000920E-02 0.  1.
       -2   -1    0    0    0  501  0.00000000000E+00  0.00000000000E+00 -0.50255985289E+03  0.50255985290E+03  0.25500000920E-02 0. -1.
    10030    2    1    2    0    0  0.00000000000E+00  0.00000000000E+00  0.10674887363E+03  0.11118685794E+04  0.11067323145E+04 0.  0.
        1    1    3    3  502    0 -0.29462302620E+03  0.91797762782E+02  0.51483669911E+03  0.60023860556E+03  0.50400001928E-02 0.  1.
       -1    1    3    3    0  502  0.29462302620E+03 -0.91797762782E+02 -0.40808782549E+03  0.51162997387E+03  0.50400001928E-02 0. -1.
</event>
<event>
 5   0  0.9631750E-04  0.1090406E+04  0.7818609E-02  0.9214593E-01
       -3   -1    0    0    0  501  0.00000000000E+00  0.00000000000E+00  0.65076732567E+03  0.65076733350E+03  0.10100000352E+00 0.  1.
        3   -1    0    0  501    0  0.00000000000E+00  0.00000000000E+00 -0.45676317703E+03  0.45676318820E+03  0.10100000352E+00 0. -1.
    10030    2    1    2    0    0  0.00000000000E+00  0.00000000000E+00  0.19400414864E+03  0.11075305217E+04  0.10904064594E+04 0.  0.
        3    1    3    3  502    0 -0.45281663978E+03 -0.15548958407E+03  0.36191720942E+03  0.60016997317E+03  0.10100000352E+00 0.  1.
       -3    1    3    3    0  502  0.45281663978E+03  0.15548958407E+03 -0.16791306079E+03  0.50736054853E+03  0.10100000352E+00 0. -1.
</event>
<event>
 5   0  0.1480937E-03  0.1105982E+04  0.7818609E-02  0.9199381E-01
        1   -1    0    0  501    0  0.00000000000E+00  0.00000000000E+00  0.44849708074E+03  0.44849708077E+03  0.50400001928E-02 0.  1.
       -1   -1    0    0    0  501  0.00000000000E+00  0.00000000000E+00 -0.68183018848E+03  0.68183018850E+03  0.50400001928E-02 0. -1.
    10030    2    1    2    0    0  0.00000000000E+00  0.00000000000E+00 -0.23333310774E+03  0.11303272693E+04  0.11059816438E+04 0.  0.
        1    1    3    3  502    0 -0.22623297187E+03  0.87133900588E+02  0.39129038099E+03  0.46030624206E+03  0.50400001928E-02 0.  1.
       -1    1    3    3    0  502  0.22623297187E+03 -0.87133900588E+02 -0.62462348874E+03  0.67002102721E+03  0.50400001928E-02 0. -1.
</event>
<event>
 5   0  0.2488472E-03  0.1097288E+04  0.7818609E-02  0.9207839E-01
       -2   -1    0    0    0  501  0.00000000000E+00  0.00000000000E+00  0.40795759795E+03  0.40795759796E+03  0.25500000920E-02 0. -1.
        2   -1    0    0  501    0  0.00000000000E+00  0.00000000000E+00 -0.73784650895E+03  0.73784650895E+03  0.25500000920E-02 0.  1.
    10030    2    1    2    0    0  0.00000000000E+00  0.00000000000E+00 -0.32988891100E+03  0.11458041069E+04  0.10972877279E+04 0.  0.
        2    1    3    3  502    0 -0.27326673311E+02  0.20998372358E+03 -0.69345558559E+03  0.72506590075E+03  0.25500000920E-02 0.  1.
       -2    1    3    3    0  502  0.27326673311E+02 -0.20998372358E+03  0.36356667459E+03  0.42073820616E+03  0.25500000920E-02 0. -1.
</event>
<event>
 5   0  0.1480937E-03  0.1103144E+04  0.7818609E-02  0.9202133E-01
       -1   -1    0    0    0  501  0.00000000000E+00  0.00000000000E+00  0.41006152905E+03  0.41006152908E+03  0.50400001928E-02 0. -1.
        1   -1    0    0  501    0  0.00000000000E+00  0.00000000000E+00 -0.74191646402E+03  0.74191646404E+03  0.50400001928E-02 0.  1.
    10030    2    1    2    0    0  0.00000000000E+00  0.00000000000E+00 -0.33185493497E+03  0.11519779931E+04  0.11031435078E+04 0.  0.
        1    1    3    3  502    0  0.44684218361E+02 -0.50393887685E+02  0.40575127780E+03  0.41130320050E+03  0.50400001928E-02 0. -1.
       -1    1    3    3    0  502 -0.44684218361E+02  0.50393887685E+02 -0.73760621277E+03  0.74067479262E+03  0.50400001928E-02 0.  1.
</event>
<event>
 5   0  0.2467448E-03  0.1099928E+04  0.7818609E-02  0.9205262E-01
        2   -1    0    0  501    0  0.00000000000E+00  0.00000000000E+00  0.87106206685E+03  0.87106206685E+03  0.25500000920E-02 0.  1.
       -2   -1    0    0    0  501  0.00000000000E+00  0.00000000000E+00 -0.34723164457E+03  0.34723164458E+03  0.25500000920E-02 0. -1.
    10030    2    1    2    0    0  0.00000000000E+00  0.00000000000E+00  0.52383042228E+03  0.12182937114E+04  0.10999278413E+04 0.  0.
        1    1    3    3  502    0 -0.50053452752E+03  0.18446856800E+03  0.41009060290E+03  0.67285791103E+03  0.50400001928E-02 0.  1.
       -1    1    3    3    0  502  0.50053452752E+03 -0.18446856800E+03  0.11373981938E+03  0.54543580040E+03  0.50400001928E-02 0. -1.
</event>
<event>
 5   0  0.1509004E-03  0.1081620E+04  0.7818609E-02  0.9223293E-01
       -1   -1    0    0    0  501  0.00000000000E+00  0.00000000000E+00  0.34896821510E+03  0.34896821514E+03  0.50400001928E-02 0.  1.
        1   -1    0    0  501    0  0.00000000000E+00  0.00000000000E+00 -0.83811553013E+03  0.83811553015E+03  0.50400001928E-02 0. -1.
    10030    2    1    2    0    0  0.00000000000E+00  0.00000000000E+00 -0.48914731503E+03  0.11870837453E+04  0.10816204152E+04 0.  0.
        3    1    3    3  502    0 -0.10658207225E+02 -0.22222541455E+03 -0.78556448745E+03  0.81646145432E+03  0.10100000352E+00 0. -1.
       -3    1    3    3    0  502  0.10658207225E+02  0.22222541455E+03  0.29641717242E+03  0.37062229096E+03  0.10100000352E+00 0.  1.
</event>
<event>
 5   0  0.2392585E-03  0.1099042E+04  0.7818609E-02  0.9206126E-01
        2   -1    0    0  501    0  0.00000000000E+00  0.00000000000E+00  0.15544833100E+04  0.15544833100E+04  0.25500000920E-02 0.  1.
       -2   -1    0    0    0  501  0.00000000000E+00  0.00000000000E+00 -0.19425959913E+03  0.19425959915E+03  0.25500000920E-02 0. -1.
    10030    2    1    2    0    0  0.00000000000E+00  0.00000000000E+00  0.13602237109E+04  0.17487429092E+04  0.10990419549E+04 0.  0.
        5    1    3    3  502    0 -0.29495660085E+03  0.97728024225E+02 -0.41017253118E+02  0.31345600673E+03  0.46999998093E+01 0. -1.
       -5    1    3    3    0  502  0.29495660085E+03 -0.97728024225E+02  0.14012409640E+04  0.14352869024E+04  0.46999998093E+01 0.  1.
</event>
<event>
 5   0  0.2467448E-03  0.1112503E+04  0.7818609E-02  0.9193091E-01
        2   -1    0    0  501    0  0.00000000000E+00  0.00000000000E+00  0.15633692958E+04  0.15633692958E+04  0.25500000920E-02 0. -1.
       -2   -1    0    0    0  501  0.00000000000E+00  0.00000000000E+00 -0.19791595998E+03  0.19791596000E+03  0.25500000920E-02 0.  1.
    10030    2    1    2    0    0  0.00000000000E+00  0.00000000000E+00  0.13654533358E+04  0.17612852558E+04  0.11125030067E+04 0.  0.
        1    1    3    3  502    0  0.25849322061E+03 -0.25916001403E+03  0.13458346359E+04  0.13947234583E+04  0.50400001928E-02 0. -1.
       -1    1    3    3    0  502 -0.25849322061E+03  0.25916001403E+03  0.19618699938E+02  0.36656179750E+03  0.50400001928E-02 0.  1.
</event>
<event>
 5   0  0.1415400E-03  0.1110912E+04  0.7818609E-02  0.9194621E-01
       -1   -1    0    0    0  501  0.00000000000E+00  0.00000000000E+00  0.15254527490E+03  0.15254527498E+03  0.50400001928E-02 0.  1.
        1   -1    0    0  501    0  0.00000000000E+00  0.00000000000E+00 -0.20225566993E+04  0.20225566993E+04  0.50400001928E-02 0. -1.
    10030    2    1    2    0    0  0.00000000000E+00  0.00000000000E+00 -0.18700114244E+04  0.21751019743E+04  0.11109121798E+04 0.  0.
        2    1    3    3  502    0 -0.38592950039E+03  0.29685328670E+03 -0.41157915556E+03  0.63754282554E+03  0.25500000920E-02 0.  1.
       -2    1    3    3    0  502  0.38592950039E+03 -0.29685328670E+03 -0.14584322688E+04  0.15375591488E+04  0.25500000920E-02 0. -1.
</event>
<event>
 5   0  0.2488472E-03  0.1097766E+04  0.7818609E-02  0.9207372E-01
        2   -1    0    0  501    0  0.00000000000E+00  0.00000000000E+00  0.45756429021E+03  0.45756429021E+03  0.25500000920E-02 0.  1.
       -2   -1    0    0    0  501  0.00000000000E+00  0.00000000000E+00 -0.65842701536E+03  0.65842701537E+03  0.25500000920E-02 0. -1.
    10030    2    1    2    0    0  0.00000000000E+00  0.00000000000E+00 -0.20086272516E+03  0.11159913056E+04  0.10977662592E+04 0.  0.
        2    1    3    3  502    0  0.24997893889E+03 -0.56144668846E+02 -0.59390862022E+03  0.64681461247E+03  0.25500000920E-02 0. -1.
       -2    1    3    3    0  502 -0.24997893889E+03  0.56144668846E+02  0.39304589506E+03  0.46917669311E+03  0.25500000920E-02 0.  1.
</event>
<event>
 5   0  0.2467448E-03  0.1113329E+04  0.7818609E-02  0.9192297E-01
        2   -1    0    0  501    0  0.00000000000E+00  0.00000000000E+00  0.53260709856E+03  0.53260709857E+03  0.25500000920E-02 0.  1.
       -2   -1    0    0    0  501  0.00000000000E+00  0.00000000000E+00 -0.58180808022E+03  0.58180808023E+03  0.25500000920E-02 0. -1.
    10030    2    1    2    0    0  0.00000000000E+00  0.00000000000E+00 -0.49200981661E+02  0.11144151788E+04  0.11133285473E+04 0.  0.
        1    1    3    3  502    0  0.52952011455E+02  0.32284757857E+03 -0.47541839808E+03  0.57711101858E+03  0.50400001928E-02 0. -1.
       -1    1    3    3    0  502 -0.52952011455E+02 -0.32284757857E+03  0.42621741642E+03  0.53730416022E+03  0.50400001928E-02 0.  1.
</event>
<event>
 5   0  0.1415400E-03  0.1095131E+04  0.7818609E-02  0.9209951E-01
       -1   -1    0    0    0  501  0.00000000000E+00  0.00000000000E+00  0.36306683523E+03  0.36306683526E+03  0.50400001928E-02 0.  1.
        1   -1    0    0  501    0  0.00000000000E+00  0.00000000000E+00 -0.82582006551E+03  0.82582006552E+03  0.50400001928E-02 0. -1.
    10030    2    1    2    0    0  0.00000000000E+00  0.00000000000E+00 -0.46275323028E+03  0.11888869008E+04  0.10951308190E+04 0.  0.
        2    1    3    3  502    0 -0.39315424327E+03 -0.22842520343E+03  0.99832032274E+02  0.46552633356E+03  0.25500000920E-02 0.  1.
       -2    1    3    3    0  502  0.39315424327E+03  0.22842520343E+03 -0.56258526255E+03  0.72336056722E+03  0.25500000920E-02 0. -1.
</event>
<event>
 5   0  0.1479573E-03  0.1122239E+04  0.7818609E-02  0.9183784E-01
       -1   -1    0    0    0  501  0.00000000000E+00  0.00000000000E+00  0.14490532570E+03  0.14490532579E+03  0.50400001928E-02 0.  1.
        1   -1    0    0  501    0  0.00000000000E+00  0.00000000000E+00 -0.21728314853E+04  0.21728314853E+04  0.50400001928E-02 0. -1.
    10030    2    1    2    0    0  0.00000000000E+00  0.00000000000E+00 -0.20279261596E+04  0.23177368111E+04  0.11222385739E+04 0.  0.
        4    1    3    3  502    0 -0.21020856885E+03 -0.33112518107E+03 -0.18521764744E+03  0.43374960263E+03  0.12699999809E+01 0.  1.
       -4    1    3    3    0  502  0.21020856885E+03  0.33112518107E+03 -0.18427085121E+04  0.18839872084E+04  0.12699999809E+01 0. -1.
</event>
<event>
 5   0  0.2392585E-03  0.1087922E+04  0.7818609E-02  0.9217045E-01
        2   -1    0    0  501    0  0.00000000000E+00  0.00000000000E+00  0.75409942372E+03  0.75409942372E+03  0.25500000920E-02 0. -1.
       -2   -1    0    0    0  501  0.00000000000E+00  0.00000000000E+00 -0.39237980738E+03  0.39237980738E+03  0.25500000920E-02 0.  1.
    10030    2    1    2    0    0  0.00000000000E+00  0.00000000000E+00  0.36171961634E+03  0.11464792311E+04  0.10879216638E+04 0.  0.
        5    1    3    3  502    0  0.14078078415E+03 -0.46054002542E+03 -0.85645373173E+02  0.48915597118E+03  0.46999998093E+01 0.  1.
       -5    1    3    3    0  502 -0.14078078415E+03  0.46054002542E+03  0.44736498951E+03  0.65732325993E+03  0.46999998093E+01 0. -1.
</event>
<event>
 5   0  0.1509004E-03  0.1100857E+04  0.7818609E-02  0.9204357E-01
       -1   -1    0    0    0  501  0.00000000000E+00  0.00000000000E+00  0.56637895086E+03  0.56637895089E+03  0.50400001928E-02 0.  1.
        1   -1    0    0  501    0  0.00000000000E+00  0.00000000000E+00 -0.53492768421E+03  0.53492768423E+03  0.50400001928E-02 0. -1.
    10030    2    1    2    0    0  0.00000000000E+00  0.00000000000E+00  0.31451266653E+02  0.11013066351E+04  0.11008574487E+04 0.  0.
        3    1    3    3  502    0  0.16353038981E+03 -0.51705553232E+03  0.11001459993E+03  0.55334603486E+03  0.10100000352E+00 0.  1.
       -3    1    3    3    0  502 -0.16353038981E+03  0.51705553232E+03 -0.78563333278E+02  0.54796060026E+03  0.10100000352E+00 0. -1.
</event>
<event>
 5   0  0.1480937E-03  0.1106388E+04  0.7818609E-02  0.9198988E-01
       -1   -1    0    0    0  501  0.00000000000E+00  0.00000000000E+00  0.31862021880E+03  0.31862021884E+03  0.50400001928E-02 0.  1.
        1   -1    0    0  501    0  0.00000000000E+00  0.00000000000E+00 -0.96046574454E+03  0.96046574455E+03  0.50400001928E-02 0. -1.
    10030    2    1    2    0    0  0.00000000000E+00  0.00000000000E+00 -0.64184552573E+03  0.12790859634E+04  0.11063883689E+04 0.  0.
        1    1    3    3  502    0 -0.33292033422E+03 -0.43769338450E+03 -0.25143832973E+03  0.60467568286E+03  0.50400001928E-02 0.  1.
       -1    1    3    3    0  502  0.33292033422E+03  0.43769338450E+03 -0.39040719601E+03  0.67441028053E+03  0.50400001928E-02 0. -1.
</event>
<event>
 5   0  0.2483036E-03  0.1158022E+04  0.7818609E-02  0.9150414E-01
       -2   -1    0    0    0  501  0.00000000000E+00  0.00000000000E+00  0.69321021558E+03  0.69321021558E+03  0.25500000920E-02 0. -1.
        2   -1    0    0  501    0  0.00000000000E+00  0.00000000000E+00 -0.48362527286E+03  0.48362527287E+03  0.25500000920E-02 0.  1.
    10030    2    1    2    0    0  0.00000000000E+00  0.00000000000E+00  0.20958494271E+03  0.11768354884E+04  0.11580224172E+04 0.  0.
        3    1    3    3  502    0 -0.54049065507E+03  0.15302805024E+03 -0.37867010248E+02  0.56301123705E+03  0.10100000352E+00 0. -1.
       -3    1    3    3    0  502  0.54049065507E+03 -0.15302805024E+03  0.24745195296E+03  0.61382425140E+03  0.10100000352E+00 0.  1.
</event>
<event>
 5   0  0.2392585E-03  0.1098312E+04  0.7818609E-02  0.9206839E-01
       -2   -1    0    0    0  501  0.00000000000E+00  0.00000000000E+00  0.76654598781E+03  0.76654598781E+03  0.25500000920E-02 0.  1.
        2   -1    0    0  501    0  0.00000000000E+00  0.00000000000E+00 -0.39341684183E+03  0.39341684184E+03  0.25500000920E-02 0. -1.
    10030    2    1    2    0    0  0.00000000000E+00  0.00000000000E+00  0.37312914598E+03  0.11599628297E+04  0.10983116163E+04 0.  0.
        5    1    3    3  502    0  0.12271888164E+03  0.37700920377E+03  0.58783128163E+03  0.70905822701E+03  0.46999998093E+01 0.  1.
       -5    1    3    3    0  502 -0.12271888164E+03 -0.37700920377E+03 -0.21470213565E+03  0.45090460265E+03  0.46999998093E+01 0. -1.
</event>
<event>
 5   0  0.1468556E-03  0.1103624E+04  0.7818609E-02  0.9201667E-01
       -1   -1    0    0    0  501  0.00000000000E+00  0.00000000000E+00  0.35037025371E+03  0.35037025374E+03  0.50400001928E-02 0.  1.
        1   -1    0    0  501    0  0.00000000000E+00  0.00000000000E+00 -0.86906987625E+03  0.86906987627E+03  0.50400001928E-02 0. -1.
    10030    2    1    2    0    0  0.00000000000E+00  0.00000000000E+00 -0.51869962255E+03  0.12194401300E+04  0.11036235464E+04 0.  0.
        5    1    3    3  502    0  0.32590765622E+02 -0.29578679563E+03 -0.77278795511E+03  0.82811551129E+03  0.46999998093E+01 0. -1.
       -5    1    3    3    0  502 -0.32590765622E+02  0.29578679563E+03  0.25408833257E+03  0.39132461872E+03  0.46999998093E+01 0.  1.
</event>
<event>
 5   0  0.1415400E-03  0.1090557E+04  0.7818609E-02  0.9214444E-01
       -1   -1    0    0    0  501  0.00000000000E+00  0.00000000000E+00  0.16142128190E+03  0.16142128198E+03  0.50400001928E-02 0. -1.
        1   -1    0    0  501    0  0.00000000000E+00  0.00000000000E+00 -0.18419433945E+04  0.18419433945E+04  0.50400001928E-02 0.  1.
    10030    2    1    2    0    0  0.00000000000E+00  0.00000000000E+00 -0.16805221126E+04  0.20033646765E+04  0.10905574061E+04 0.  0.
        2    1    3    3  502    0  0.27663261288E+02  0.53436851234E+03 -0.64747213882E+03  0.83996138814E+03  0.25500000920E-02 0. -1.
       -2    1    3    3    0  502 -0.27663261288E+02 -0.53436851234E+03 -0.10330499738E+04  0.11634032884E+04  0.25500000920E-02 0.  1.
</event>
<event>
 5   0  0.2438115E-03  0.1090747E+04  0.7818609E-02  0.9214258E-01
       -2   -1    0    0    0  501  0.00000000000E+00  0.00000000000E+00  0.64763426339E+03  0.64763426340E+03  0.25500000920E-02 0.  1.
        2   -1    0    0  501    0  0.00000000000E+00  0.00000000000E+00 -0.45925946712E+03  0.45925946713E+03  0.25500000920E-02 0. -1.
    10030    2    1    2    0    0  0.00000000000E+00  0.00000000000E+00  0.18837479628E+03  0.11068937305E+04  0.10907468390E+04 0.  0.
        4    1    3    3  502    0 -0.95683044574E+02  0.44223174907E+03  0.40317197144E+03  0.60603087079E+03  0.12699999809E+01 0.  1.
       -4    1    3    3    0  502  0.95683044574E+02 -0.44223174907E+03 -0.21479717516E+03  0.50086285973E+03  0.12699999809E+01 0. -1.
</event>
<event>
 5   0  0.2392585E-03  0.1104047E+04  0.7818609E-02  0.9201257E-01
       -2   -1    0    0    0  501  0.00000000000E+00  0.00000000000E+00  0.55724518686E+03  0.55724518687E+03  0.25500000920E-02 0. -1.
        2   -1    0    0  501    0  0.00000000000E+00  0.00000000000E+00 -0.54685055092E+03  0.54685055093E+03  0.25500000920E-02 0.  1.
    10030    2    1    2    0    0  0.00000000000E+00  0.00000000000E+00  0.10394635942E+02  0.11040957378E+04  0.11040468060E+04 0.  0.
        5    1    3    3  502    0 -0.13517681210E+02  0.36225436655E+03 -0.41111044699E+03  0.54812849170E+03  0.46999998093E+01 0.  1.
       -5    1    3    3    0  502  0.13517681210E+02 -0.36225436655E+03  0.42150508294E+03  0.55596724609E+03  0.46999998093E+01 0. -1.
</event>
<event>
 5   0  0.1479573E-03  0.1099277E+04  0.7818609E-02  0.9205897E-01
       -1   -1    0    0    0  501  0.00000000000E+00  0.00000000000E+00  0.45941519739E+03  0.45941519741E+03  0.50400001928E-02 0. -1.
        1   -1    0    0  501    0  0.00000000000E+00  0.00000000000E+00 -0.65758050138E+03  0.65758050140E+03  0.50400001928E-02 0.  1.
    10030    2    1    2    0    0  0.00000000000E+00  0.00000000000E+00 -0.19816530399E+03  0.11169956988E+04  0.10992769912E+04 0.  0.
        4    1    3    3  502    0  0.10109221148E+03 -0.21859967090E+03  0.40294099089E+03  0.46943424074E+03  0.12699999809E+01 0. -1.
       -4    1    3    3    0  502 -0.10109221148E+03  0.21859967090E+03 -0.60110629488E+03  0.64756145807E+03  0.12699999809E+01 0.  1.
</event>
<event>
 5   0  0.2488472E-03  0.1100688E+04  0.7818609E-02  0.9204522E-01
       -2   -1    0    0    0  501  0.00000000000E+00  0.00000000000E+00  0.51689213711E+03  0.51689213712E+03  0.25500000920E-02 0.  1.
        2   -1    0    0  501    0  0.00000000000E+00  0.00000000000E+00 -0.58596055447E+03  0.58596055448E+03  0.25500000920E-02 0. -1.
    10030    2    1    2    0    0  0.00000000000E+00  0.00000000000E+00 -0.69068417365E+02  0.11028526916E+04  0.11006877909E+04 0.  0.
        2    1    3    3  502    0 -0.36234495914E+03  0.19348840160E+03  0.33244670029E+03  0.52844341183E+03  0.25500000920E-02 0.  1.
       -2    1    3    3    0  502  0.36234495914E+03 -0.19348840160E+03 -0.40151511765E+03  0.57440927976E+03  0.25500000920E-02 0. -1.
</event>
<event>
 5   0  0.1415400E-03  0.1090967E+04  0.7818609E-02  0.9214041E-01
        1   -1    0    0  501    0  0.00000000000E+00  0.00000000000E+00  0.53944245392E+03  0.53944245395E+03  0.50400001928E-02 0.  1.
       -1   -1    0    0    0  501  0.00000000000E+00  0.00000000000E+00 -0.55159204285E+03  0.55159204287E+03  0.50400001928E-02 0. -1.
    10030    2    1    2    0    0  0.00000000000E+00  0.00000000000E+00 -0.12149588926E+02  0.10910344968E+04  0.10909668468E+04 0.  0.
        2    1    3    3  502    0 -0.39652907654E+03  0.14150655755E+03 -0.35292875480E+03  0.54937975968E+03  0.25500000920E-02 0. -1.
       -2    1    3    3    0  502  0.39652907654E+03 -0.14150655755E+03  0.34077916587E+03  0.54165473714E+03  0.25500000920E-02 0.  1.
</event>
<event>
 5   0  0.2467448E-03  0.1100331E+04  0.7818609E-02  0.9204869E-01
       -2   -1    0    0    0  501  0.00000000000E+00  0.00000000000E+00  0.24916386811E+03  0.24916386813E+03  0.25500000920E-02 0.  1.
        2   -1    0    0  501    0  0.00000000000E+00  0.00000000000E+00 -0.12147907937E+04  0.12147907937E+04  0.25500000920E-02 0. -1.
    10030    2    1    2    0    0  0.00000000000E+00  0.00000000000E+00 -0.96562692560E+03  0.14639546618E+04  0.11003308105E+04 0.  0.
        1    1    3    3  502    0  0.16899988041E+03 -0.38862545028E+03 -0.94959963745E+03  0.10398702667E+04  0.50400001928E-02 0. -1.
       -1    1    3    3    0  502 -0.16899988041E+03  0.38862545028E+03 -0.16027288153E+02  0.42408439511E+03  0.50400001928E-02 0.  1.
</event>
<event>
 5   0  0.1480937E-03  0.1097761E+04  0.7818609E-02  0.9207376E-01
       -1   -1    0    0    0  501  0.00000000000E+00  0.00000000000E+00  0.35609046323E+03  0.35609046326E+03  0.50400001928E-02 0.  1.
        1   -1    0    0  501    0  0.00000000000E+00  0.00000000000E+00 -0.84604921132E+03  0.84604921134E+03  0.50400001928E-02 0. -1.
    10030    2    1    2    0    0  0.00000000000E+00  0.00000000000E+00 -0.48995874810E+03  0.12021396746E+04  0.10977614597E+04 0.  0.
        1    1    3    3  502    0  0.35049272069E+03  0.35576681647E+03 -0.49434797600E+03  0.70270555452E+03  0.50400001928E-02 0.  1.
       -1    1    3    3    0  502 -0.35049272069E+03 -0.35576681647E+03  0.43892279063E+01  0.49943412008E+03  0.50400001928E-02 0. -1.
</event>
<event>
 5   0  0.1509004E-03  0.1101978E+04  0.7818609E-02  0.9203266E-01
       -1   -1    0    0    0  501  0.00000000000E+00  0.00000000000E+00  0.43634871529E+03  0.43634871532E+03  0.50400001928E-02 0.  1.
        1   -1    0    0  501    0  0.00000000000E+00  0.00000000000E+00 -0.69574785851E+03  0.69574785853E+03  0.50400001928E-02 0. -1.
    10030    2    1    2    0    0  0.00000000000E+00  0.00000000000E+00 -0.25939914322E+03  0.11320965739E+04  0.11019776481E+04 0.  0.
        3    1    3    3  502    0  0.13732879651E+03  0.96826790362E+02 -0.66878354837E+03  0.68956948196E+03  0.10100000352E+00 0. -1.
       -3    1    3    3    0  502 -0.13732879651E+03 -0.96826790362E+02  0.40938440514E+03  0.44252709189E+03  0.10100000352E+00 0.  1.
</event>
<event>
 5   0  0.2438115E-03  0.1093359E+04  0.7818609E-02  0.9211689E-01
        2   -1    0    0  501    0  0.00000000000E+00  0.00000000000E+00  0.90699070722E+03  0.90699070722E+03  0.25500000920E-02 0. -1.
       -2   -1    0    0    0  501  0.00000000000E+00  0.00000000000E+00 -0.32950543958E+03  0.32950543959E+03  0.25500000920E-02 0.  1.
    10030    2    1    2    0    0  0.00000000000E+00  0.00000000000E+00  0.57748526764E+03  0.12364961468E+04  0.10933588097E+04 0.  0.
        4    1    3    3  502    0  0.40539323049E+03  0.34199373836E+03  0.43857661430E+03  0.68822557923E+03  0.12699999809E+01 0. -1.
       -4    1    3    3    0  502 -0.40539323049E+03 -0.34199373836E+03  0.13890865334E+03  0.54827056758E+03  0.12699999809E+01 0.  1.
</event>
<event>
 5   0  0.2467448E-03  0.1098052E+04  0.7818609E-02  0.9207093E-01
       -2   -1    0    0    0  501  0.00000000000E+00  0.00000000000E+00  0.22739784485E+03  0.22739784487E+03  0.25500000920E-02 0. -1.
        2   -1    0    0  501    0  0.00000000000E+00  0.00000000000E+00 -0.13255595888E+04  0.13255595888E+04  0.25500000920E-02 0.  1.
    10030    2    1    2    0    0  0.00000000000E+00  0.00000000000E+00 -0.10981617440E+04  0.15529574337E+04  0.10980517178E+04 0.  0.
        1    1    3    3  502    0  0.47708006710E+02  0.54667875757E+03 -0.52476193050E+03  0.75928176694E+03  0.50400001928E-02 0.  1.
       -1    1    3    3    0  502 -0.47708006710E+02 -0.54667875757E+03 -0.57339981348E+03  0.79367566676E+03  0.50400001928E-02 0. -1.
</event>
<event>
 5   0  0.2392585E-03  0.1107230E+04  0.7818609E-02  0.9198174E-01
        2   -1    0    0  501    0  0.00000000000E+00  0.00000000000E+00  0.61386568366E+03  0.61386568366E+03  0.25500000920E-02 0.  1.
       -2   -1    0    0    0  501  0.00000000000E+00  0.00000000000E+00 -0.49927766637E+03  0.49927766638E+03  0.25500000920E-02 0. -1.
    10030    2    1    2    0    0  0.00000000000E+00  0.00000000000E+00  0.11458801729E+03  0.11131433500E+04  0.11072297431E+04 0.  0.
        5    1    3    3  502    0  0.36533102406E+03  0.86209982007E+01  0.47535902134E+03  0.59960767833E+03  0.46999998093E+01 0.  1.
       -5    1    3    3    0  502 -0.36533102406E+03 -0.86209982007E+01 -0.36077100405E+03  0.51353567171E+03  0.46999998093E+01 0. -1.
</event>
<event>
 5   0  0.1479573E-03  0.1099675E+04  0.7818609E-02  0.9205508E-01
       -1   -1    0    0    0  501  0.00000000000E+00  0.00000000000E+00  0.23756759908E+03  0.23756759914E+03  0.50400001928E-02 0.  1.
        1   -1    0    0  501    0  0.00000000000E+00  0.00000000000E+00 -0.12725699584E+04  0.12725699584E+04  0.50400001928E-02 0. -1.
    10030    2    1    2    0    0  0.00000000000E+00  0.00000000000E+00 -0.10350023593E+04  0.15101375575E+04  0.10996752061E+04 0.  0.
        4    1    3    3  502    0  0.29818966845E+03  0.14595971420E+03 -0.11193868688E+04  0.11675829270E+04  0.12699999809E+01 0. -1.
       -4    1    3    3    0  502 -0.29818966845E+03 -0.14595971420E+03  0.84384509500E+02  0.34255463051E+03  0.12699999809E+01 0.  1.
</event>
<event>
 5   0  0.1468556E-03  0.1085342E+04  0.7818609E-02  0.9219597E-01
       -1   -1    0    0    0  501  0.00000000000E+00  0.00000000000E+00  0.97385093709E+03  0.97385093711E+03  0.50400001928E-02 0.  1.
        1   -1    0    0  501    0  0.00000000000E+00  0.00000000000E+00 -0.30239925512E+03  0.30239925516E+03  0.50400001928E-02 0. -1.
    10030    2    1    2    0    0  0.00000000000E+00  0.00000000000E+00  0.67145168198E+03  0.12762501923E+04  0.10853419701E+04 0.  0.
        5    1    3    3  502    0 -0.93041529399E+02 -0.11468319339E+03 -0.27829135372E+03  0.31508273293E+03  0.46999998093E+01 0. -1.
       -5    1    3    3    0  502  0.93041529399E+02  0.11468319339E+03  0.94974303569E+03  0.96116745934E+03  0.46999998093E+01 0.  1.
</event>
<event>
 5   0  0.2488472E-03  0.1102619E+04  0.7818609E-02  0.9202643E-01
       -2   -1    0    0    0  501  0.00000000000E+00  0.00000000000E+00  0.29313486377E+03  0.29313486378E+03  0.25500000920E-02 0.  1.
        2   -1    0    0  501    0  0.00000000000E+00  0.00000000000E+00 -0.10368675667E+04  0.10368675667E+04  0.25500000920E-02 0. -1.
    10030    2    1    2    0    0  0.00000000000E+00  0.00000000000E+00 -0.74373270290E+03  0.13300024305E+04  0.11026187608E+04 0.  0.
        2    1    3    3  502    0 -0.24824272027E+03 -0.26658346609E+03  0.12729782830E+03  0.38587035343E+03  0.25500000920E-02 0.  1.
       -2    1    3    3    0  502  0.24824272027E+03  0.26658346609E+03 -0.87103053121E+03  0.94413207702E+03  0.25500000920E-02 0. -1.
</event>
<event>
 5   0  0.1479573E-03  0.1078425E+04  0.7818609E-02  0.9226479E-01
        1   -1    0    0  501    0  0.00000000000E+00  0.00000000000E+00  0.56298801963E+03  0.56298801965E+03  0.50400001928E-02 0.  1.
       -1   -1    0    0    0  501  0.00000000000E+00  0.00000000000E+00 -0.51644098837E+03  0.51644098840E+03  0.50400001928E-02 0. -1.
    10030    2    1    2    0    0  0.00000000000E+00  0.00000000000E+00  0.46547031254E+02  0.10794290080E+04  0.10784249428E+04 0.  0.
        4    1    3    3  502    0  0.51343174962E+03  0.56547932978E+02  0.17813875700E+03  0.54639258769E+03  0.12699999809E+01 0.  1.
       -4    1    3    3    0  502 -0.51343174962E+03 -0.56547932978E+02 -0.13159172575E+03  0.53303642035E+03  0.12699999809E+01 0. -1.
</event>
<event>
 5   0  0.2392585E-03  0.1100668E+04  0.7818609E-02  0.9204541E-01
        2   -1    0    0  501    0  0.00000000000E+00  0.00000000000E+00  0.45700302288E+03  0.45700302288E+03  0.25500000920E-02 0.  1.
       -2   -1    0    0    0  501  0.00000000000E+00  0.00000000000E+00 -0.66272532921E+03  0.66272532922E+03  0.25500000920E-02 0. -1.
    10030    2    1    2    0    0  0.00000000000E+00  0.00000000000E+00 -0.20572230634E+03  0.11197283521E+04  0.11006679405E+04 0.  0.
        5    1    3    3  502    0 -0.25788437367E+03 -0.61693478412E+02  0.38770827456E+03  0.46973421381E+03  0.46999998093E+01 0.  1.
       -5    1    3    3    0  502  0.25788437367E+03  0.61693478412E+02 -0.59343058090E+03  0.64999413829E+03  0.46999998093E+01 0. -1.
</event>
<event>
 5   0  0.1468556E-03  0.1105035E+04  0.7818609E-02  0.9200298E-01
       -1   -1    0    0    0  501  0.00000000000E+00  0.00000000000E+00  0.63428501209E+03  0.63428501211E+03  0.50400001928E-02 0.  1.
        1   -1    0    0  501    0  0.00000000000E+00  0.00000000000E+00 -0.48129101978E+03  0.48129101981E+03  0.50400001928E-02 0. -1.
    10030    2    1    2    0    0  0.00000000000E+00  0.00000000000E+00  0.15299399230E+03  0.11155760319E+04  0.11050351675E+04 0.  0.
        5    1    3    3  502    0 -0.54790018194E+03 -0.23655357772E+02  0.14421444975E+03  0.56707502400E+03  0.46999998093E+01 0. -1.
       -5    1    3    3    0  502  0.54790018194E+03  0.23655357772E+02  0.87795425484E+01  0.54850100792E+03  0.46999998093E+01 0.  1.
</event>
<event>
 5   0  0.1480937E-03  0.1161978E+04  0.7818609E-02  0.9146803E-01
        1   -1    0    0  501    0  0.00000000000E+00  0.00000000000E+00  0.15431395272E+04  0.15431395273E+04  0.50400001928E-02 0.  1.
       -1   -1    0    0    0  501  0.00000000000E+00  0.00000000000E+00 -0.21874139289E+03  0.21874139295E+03  0.50400001928E-02 0. -1.
    10030    2    1    2    0    0  0.00000000000E+00  0.00000000000E+00  0.13243981343E+04  0.17618809202E+04  0.11619784674E+04 0.  0.
        1    1    3    3  502    0 -0.10611178703E+03  0.47069816886E+03  0.11529014829E+04  0.12497993066E+04  0.50400001928E-02 0.  1.
       -1    1    3    3    0  502  0.10611178703E+03 -0.47069816886E+03  0.17149665148E+03  0.51208161362E+03  0.50400001928E-02 0. -1.
</event>
<event>
 5   0  0.2488472E-03  0.1111511E+04  0.7818609E-02  0.9194044E-01
       -2   -1    0    0    0  501  0.00000000000E+00  0.00000000000E+00  0.25850803810E+03  0.25850803811E+03  0.25500000920E-02 0. -1.
        2   -1    0    0  501    0  0.00000000000E+00  0.00000000000E+00 -0.11947956795E+04  0.11947956795E+04  0.25500000920E-02 0.  1.
    10030    2    1    2    0    0  0.00000000000E+00  0.00000000000E+00 -0.93628764142E+03  0.14533037176E+04  0.11115112002E+04 0.  0.
        2    1    3    3  502    0  0.39493396061E+03  0.26758159436E+03 -0.84093465663E+03  0.96682151383E+03  0.25500000920E-02 0.  1.
       -2    1    3    3    0  502 -0.39493396061E+03 -0.26758159436E+03 -0.95352984786E+02  0.48648220379E+03  0.25500000920E-02 0. -1.
</event>
<event>
 5   0  0.1468556E-03  0.1117622E+04  0.7818609E-02  0.9188185E-01
        1   -1    0    0  501    0  0.00000000000E+00  0.00000000000E+00  0.14898431867E+04  0.14898431867E+04  0.50400001928E-02 0. -1.
       -1   -1    0    0    0  501  0.00000000000E+00  0.00000000000E+00 -0.20959905337E+03  0.20959905343E+03  0.50400001928E-02 0.  1.
    10030    2    1    2    0    0  0.00000000000E+00  0.00000000000E+00  0.12802441333E+04  0.16994422401E+04  0.11176219784E+04 0.  0.
        5    1    3    3  502    0 -0.40787213265E+03  0.69364887167E+02  0.12112570508E+04  0.12799753502E+04  0.46999998093E+01 0. -1.
       -5    1    3    3    0  502  0.40787213265E+03 -0.69364887167E+02  0.68987082540E+02  0.41946688989E+03  0.46999998093E+01 0.  1.
</event>
<event>
 5   0  0.2467448E-03  0.1070866E+04  0.7818609E-02  0.9234063E-01
       -2   -1    0    0    0  501  0.00000000000E+00  0.00000000000E+00  0.21103374435E+03  0.21103374436E+03  0.25500000920E-02 0. -1.
        2   -1    0    0  501    0  0.00000000000E+00  0.00000000000E+00 -0.13584950367E+04  0.13584950367E+04  0.25500000920E-02 0.  1.
    10030    2    1    2    0    0  0.00000000000E+00  0.00000000000E+00 -0.11474612923E+04  0.15695287810E+04  0.10708656205E+04 0.  0.
        1    1    3    3  502    0 -0.11780006203E+03 -0.13699220616E+03  0.16500536585E+03  0.24468447018E+03  0.50400001928E-02 0. -1.
       -1    1    3    3    0  502  0.11780006203E+03  0.13699220616E+03 -0.13124666582E+04  0.13248443109E+04  0.50400001928E-02 0.  1.
</event>
<event>
 5   0  0.1480937E-03  0.1109602E+04  0.7818609E-02  0.9195884E-01
        1   -1    0    0  501    0  0.00000000000E+00  0.00000000000E+00  0.13525554417E+04  0.13525554417E+04  0.50400001928E-02 0. -1.
       -1   -1    0    0    0  501  0.00000000000E+00  0.00000000000E+00 -0.22757213180E+03  0.22757213185E+03  0.50400001928E-02 0.  1.
    10030    2    1    2    0    0  0.00000000000E+00  0.00000000000E+00  0.11249833099E+04  0.15801275736E+04  0.11096015957E+04 0.  0.
        1    1    3    3  502    0  0.38098101718E+03  0.31433592934E+03  0.92232929970E+03  0.10462528132E+04  0.50400001928E-02 0.  1.
       -1    1    3    3    0  502 -0.38098101718E+03 -0.31433592934E+03  0.20265401020E+03  0.53387476041E+03  0.50400001928E-02 0. -1.
</event>
<event>
 5   0  0.1415400E-03  0.1102598E+04  0.7818609E-02  0.9202664E-01
        1   -1    0    0  501    0  0.00000000000E+00  0.00000000000E+00  0.14004800534E+04  0.14004800534E+04  0.50400001928E-02 0. -1.
       -1   -1    0    0    0  501  0.00000000000E+00  0.00000000000E+00 -0.21701877790E+03  0.21701877796E+03  0.50400001928E-02 0.  1.
    10030    2    1    2    0    0  0.00000000000E+00  0.00000000000E+00  0.11834612755E+04  0.16174988313E+04  0.11025977865E+04 0.  0.
        2    1    3    3  502    0  0.53189665917E+03  0.14314317261E+03  0.55807144540E+03  0.78412228771E+03  0.25500000920E-02 0.  1.
       -2    1    3    3    0  502 -0.53189665917E+03 -0.14314317261E+03  0.62538983006E+03  0.83337654361E+03  0.25500000920E-02 0. -1.
</event>
<event>
 5   0  0.2438115E-03  0.1105929E+04  0.7818609E-02  0.9199433E-01
        2   -1    0    0  501    0  0.00000000000E+00  0.00000000000E+00  0.17773655714E+04  0.17773655714E+04  0.25500000920E-02 0. -1.
       -2   -1    0    0    0  501  0.00000000000E+00  0.00000000000E+00 -0.17203521516E+03  0.17203521518E+03  0.25500000920E-02 0.  1.
    10030    2    1    2    0    0  0.00000000000E+00  0.00000000000E+00  0.16053303562E+04  0.19494007866E+04  0.11059285122E+04 0.  0.
        4    1    3    3  502    0 -0.18471018744E+03  0.14807022270E+03 -0.78191551952E+02  0.24931541447E+03  0.12699999809E+01 0.  1.
       -4    1    3    3    0  502  0.18471018744E+03 -0.14807022270E+03  0.16835219082E+04  0.17000853721E+04  0.12699999809E+01 0. -1.
</event>
<event>
 5   0  0.2488472E-03  0.1100350E+04  0.7818609E-02  0.9204851E-01
       -2   -1    0    0    0  501  0.00000000000E+00  0.00000000000E+00  0.18431023192E+03  0.18431023194E+03  0.25500000920E-02 0.  1.
        2   -1    0    0  501    0  0.00000000000E+00  0.00000000000E+00 -0.16422980675E+04  0.16422980675E+04  0.25500000920E-02 0. -1.
    10030    2    1    2    0    0  0.00000000000E+00  0.00000000000E+00 -0.14579878356E+04  0.18266082994E+04  0.11003496494E+04 0.  0.
        2    1    3    3  502    0  0.41443190274E+02  0.37562299309E+03 -0.13927595005E+04  0.14431178736E+04  0.25500000920E-02 0. -1.
       -2    1    3    3    0  502 -0.41443190274E+02 -0.37562299309E+03 -0.65228335044E+02  0.38349042577E+03  0.25500000920E-02 0.  1.
</event>
<event>
 5   0  0.2438115E-03  0.1102358E+04  0.7818609E-02  0.9202897E-01
       -2   -1    0    0    0  501  0.00000000000E+00  0.00000000000E+00  0.68640949519E+03  0.68640949519E+03  0.25500000920E-02 0. -1.
        2   -1    0    0  501    0  0.00000000000E+00  0.00000000000E+00 -0.44259030333E+03  0.44259030334E+03  0.25500000920E-02 0.  1.
    10030    2    1    2    0    0  0.00000000000E+00  0.00000000000E+00  0.24381919186E+03  0.11289997985E+04  0.11023578125E+04 0.  0.
        4    1    3    3  502    0 -0.28256461391E+02  0.54275468876E+03  0.21586269019E+03  0.58479004240E+03  0.12699999809E+01 0.  1.
       -4    1    3    3    0  502  0.28256461391E+02 -0.54275468876E+03  0.27956501665E+02  0.54420975613E+03  0.12699999809E+01 0. -1.
</event>
<event>
 5   0  0.1415400E-03  0.1103707E+04  0.7818609E-02  0.9201586E-01
        1   -1    0    0  501    0  0.00000000000E+00  0.00000000000E+00  0.10912634830E+04  0.10912634830E+04  0.50400001928E-02 0. -1.
       -1   -1    0    0    0  501  0.00000000000E+00  0.00000000000E+00 -0.27907313977E+03  0.27907313982E+03  0.50400001928E-02 0.  1.
    10030    2    1    2    0    0  0.00000000000E+00  0.00000000000E+00  0.81219034321E+03  0.13703366228E+04  0.11037070745E+04 0.  0.
        2    1    3    3  502    0  0.42613974107E+03  0.58657297476E+02  0.83530467314E+03  0.93955822302E+03  0.25500000920E-02 0. -1.
       -2    1    3    3    0  502 -0.42613974107E+03 -0.58657297476E+02 -0.23114329931E+02  0.43077839979E+03  0.25500000920E-02 0.  1.
</event>
<event>
 5   0  0.2467448E-03  0.1111959E+04  0.7818609E-02  0.9193614E-01
        2   -1    0    0  501    0  0.00000000000E+00  0.00000000000E+00  0.30354426645E+03  0.30354426646E+03  0.25500000920E-02 0.  1.
       -2   -1    0    0    0  501  0.00000000000E+00  0.00000000000E+00 -0.10183460379E+04  0.10183460379E+04  0.25500000920E-02 0. -1.
    10030    2    1    2    0    0  0.00000000000E+00  0.00000000000E+00 -0.71480177142E+03  0.13218903043E+04  0.11119588141E+04 0.  0.
        1    1    3    3  502    0 -0.24869070681E+02  0.52723124597E+03 -0.14971255435E+03  0.54863932265E+03  0.50400001928E-02 0.  1.
       -1    1    3    3    0  502  0.24869070681E+02 -0.52723124597E+03 -0.56508921707E+03  0.77325098168E+03  0.50400001928E-02 0. -1.
</event>
<event>
 5   0  0.1479573E-03  0.1099127E+04  0.7818609E-02  0.9206043E-01
       -1   -1    0    0    0  501  0.00000000000E+00  0.00000000000E+00  0.70632391981E+03  0.70632391983E+03  0.50400001928E-02 0. -1.
        1   -1    0    0  501    0  0.00000000000E+00  0.00000000000E+00 -0.42759419316E+03  0.42759419319E+03  0.50400001928E-02 0.  1.
    10030    2    1    2    0    0  0.00000000000E+00  0.00000000000E+00  0.27872972665E+03  0.11339181130E+04  0.10991269383E+04 0.  0.
        4    1    3    3  502    0  0.52050544021E+03 -0.63414816312E+02  0.30910569395E+03  0.60868324698E+03  0.12699999809E+01 0.  1.
       -4    1    3    3    0  502 -0.52050544021E+03  0.63414816312E+02 -0.30375967299E+02  0.52523486604E+03  0.12699999809E+01 0. -1.
</event>
<event>
 5   0  0.1415400E-03  0.1092921E+04  0.7818609E-02  0.9212119E-01
        1   -1    0    0  501    0  0.00000000000E+00  0.00000000000E+00  0.28581597824E+03  0.28581597828E+03  0.50400001928E-02 0.  1.
       -1   -1    0    0    0  501  0.00000000000E+00  0.00000000000E+00 -0.10447943837E+04  0.10447943837E+04  0.50400001928E-02 0. -1.
    10030    2    1    2    0    0  0.00000000000E+00  0.00000000000E+00 -0.75897840546E+03  0.13306103620E+04  0.10929207270E+04 0.  0.
        2    1    3    3  502    0 -0.42128723158E+03 -0.34495931259E+03 -0.43579780413E+03  0.69742353339E+03  0.25500000920E-02 0. -1.
       -2    1    3    3    0  502  0.42128723158E+03  0.34495931259E+03 -0.32318060133E+03  0.63318682860E+03  0.25500000920E-02 0.  1.
</event>
<event>
 5   0  0.1480937E-03  0.1097306E+04  0.7818609E-02  0.9207822E-01
        1   -1    0    0  501    0  0.00000000000E+00  0.00000000000E+00  0.50298276278E+03  0.50298276280E+03  0.50400001928E-02 0.  1.
       -1   -1    0    0    0  501  0.00000000000E+00  0.00000000000E+00 -0.59846964639E+03  0.59846964641E+03  0.50400001928E-02 0. -1.
    10030    2    1    2    0    0  0.00000000000E+00  0.00000000000E+00 -0.95486883613E+02  0.11014524092E+04  0.10973056387E+04 0.  0.
        1    1    3    3  502    0  0.21514656669E+03 -0.42485510514E+03  0.22573801693E+03  0.52701760676E+03  0.50400001928E-02 0.  1.
       -1    1    3    3    0  502 -0.21514656669E+03  0.42485510514E+03 -0.32122490054E+03  0.57443480245E+03  0.50400001928E-02 0. -1.
</event>
<event>
 5   0  0.2467448E-03  0.1112456E+04  0.7818609E-02  0.9193135E-01
       -2   -1    0    0    0  501  0.00000000000E+00  0.00000000000E+00  0.12977338125E+03  0.12977338128E+03  0.25500000920E-02 0. -1.
        2   -1    0    0  501    0  0.00000000000E+00  0.00000000000E+00 -0.23840772476E+04  0.23840772476E+04  0.25500000920E-02 0.  1.
    10030    2    1    2    0    0  0.00000000000E+00  0.00000000000E+00 -0.22543038664E+04  0.25138506289E+04  0.11124563194E+04 0.  0.
        1    1    3    3  502    0  0.18707811082E+03 -0.52121648040E+03 -0.12451117004E+04  0.13627061258E+04  0.50400001928E-02 0. -1.
       -1    1    3    3    0  502 -0.18707811082E+03  0.52121648040E+03 -0.10091921660E+04  0.11511445031E+04  0.50400001928E-02 0.  1.
</event>
<event>
 5   0  0.1480937E-03  0.1124621E+04  0.7818609E-02  0.9181522E-01
        1   -1    0    0  501    0  0.00000000000E+00  0.00000000000E+00  0.65260577184E+03  0.65260577186E+03  0.50400001928E-02 0.  1.
       -1   -1    0    0    0  501  0.00000000000E+00  0.00000000000E+00 -0.48450819220E+03  0.48450819223E+03  0.50400001928E-02 0. -1.
    10030    2    1    2    0    0  0.00000000000E+00  0.00000000000E+00  0.16809757963E+03  0.11371139641E+04  0.11246205454E+04 0.  0.
        1    1    3    3  502    0 -0.14174348572E+03 -0.40770219430E+02  0.63269950994E+03  0.64966306378E+03  0.50400001928E-02 0.  1.
       -1    1    3    3    0  502  0.14174348572E+03  0.40770219430E+02 -0.46460193031E+03  0.48745090030E+03  0.50400001928E-02 0. -1.
</event>
<event>
 5   0  0.1468556E-03  0.1102411E+04  0.7818609E-02  0.9202845E-01
       -1   -1    0    0    0  501  0.00000000000E+00  0.00000000000E+00  0.77579641157E+03  0.77579641159E+03  0.50400001928E-02 0. -1.
        1   -1    0    0  501    0  0.00000000000E+00  0.00000000000E+00 -0.39163304719E+03  0.39163304722E+03  0.50400001928E-02 0.  1.
    10030    2    1    2    0    0  0.00000000000E+00  0.00000000000E+00  0.38416336438E+03  0.11674294588E+04  0.11024110172E+04 0.  0.
        5    1    3    3  502    0  0.28597104684E+03  0.75590100118E+02  0.68460583194E+03  0.74578853436E+03  0.46999998093E+01 0. -1.
       -5    1    3    3    0  502 -0.28597104684E+03 -0.75590100118E+02 -0.30044246755E+03  0.42164092445E+03  0.46999998093E+01 0.  1.
</event>
<event>
 5   0  0.1509004E-03  0.1101820E+04  0.7818609E-02  0.9203420E-01
       -1   -1    0    0    0  501  0.00000000000E+00  0.00000000000E+00  0.73241743822E+03  0.73241743824E+03  0.50400001928E-02 0. -1.
        1   -1    0    0  501    0  0.00000000000E+00  0.00000000000E+00 -0.41438370955E+03  0.41438370958E+03  0.50400001928E-02 0.  1.
    10030    2    1    2    0    0  0.00000000000E+00  0.00000000000E+00  0.31803372867E+03  0.11468011478E+04  0.11018200489E+04 0.  0.
        3    1    3    3  502    0  0.20080502705E+02 -0.54644240637E+03  0.22883216876E+03  0.59276192669E+03  0.10100000352E+00 0. -1.
       -3    1    3    3    0  502 -0.20080502705E+02  0.54644240637E+03  0.89201559910E+02  0.55403922114E+03  0.10100000352E+00 0.  1.
</event>
<event>
 5   0  0.2488472E-03  0.1095223E+04  0.7818609E-02  0.9209861E-01
        2   -1    0    0  501    0  0.00000000000E+00  0.00000000000E+00  0.89165417440E+03  0.89165417440E+03  0.25500000920E-02 0. -1.
       -2   -1    0    0    0  501  0.00000000000E+00  0.00000000000E+00 -0.33631670493E+03  0.33631670494E+03  0.25500000920E-02 0.  1.
    10030    2    1    2    0    0  0.00000000000E+00  0.00000000000E+00  0.55533746947E+03  0.12279708793E+04  0.10952227059E+04 0.  0.
        2    1    3    3  502    0  0.15797441527E+03  0.29240137612E+03 -0.21031214074E+03  0.39330100074E+03  0.25500000920E-02 0.  1.
       -2    1    3    3    0  502 -0.15797441527E+03 -0.29240137612E+03  0.76564961020E+03  0.83466987860E+03  0.25500000920E-02 0. -1.
</event>
<event>
 5   0  0.2488472E-03  0.1098021E+04  0.7818609E-02  0.9207123E-01
        2   -1    0    0  501    0  0.00000000000E+00  0.00000000000E+00  0.82114160108E+03  0.82114160108E+03  0.25500000920E-02 0. -1.
       -2   -1    0    0    0  501  0.00000000000E+00  0.00000000000E+00 -0.36706540875E+03  0.36706540876E+03  0.25500000920E-02 0.  1.
    10030    2    1    2    0    0  0.00000000000E+00  0.00000000000E+00  0.45407619233E+03  0.11882070098E+04  0.10980212702E+04 0.  0.
        2    1    3    3  502    0  0.19837219909E+03 -0.74009940075E+02  0.77518361650E+03  0.80357864574E+03  0.25500000920E-02 0. -1.
       -2    1    3    3    0  502 -0.19837219909E+03  0.74009940075E+02 -0.32110742417E+03  0.38462836409E+03  0.25500000920E-02 0.  1.
</event>
<event>
 5   0  0.2438115E-03  0.1097754E+04  0.7818609E-02  0.9207383E-01
       -2   -1    0    0    0  501  0.00000000000E+00  0.00000000000E+00  0.44098832811E+03  0.44098832811E+03  0.25500000920E-02 0.  1.
        2   -1    0    0  501    0  0.00000000000E+00  0.00000000000E+00 -0.68316135742E+03  0.68316135743E+03  0.25500000920E-02 0. -1.
    10030    2    1    2    0    0  0.00000000000E+00  0.00000000000E+00 -0.24217302931E+03  0.11241496855E+04  0.10977544076E+04 0.  0.
        4    1    3    3  502    0 -0.22935287349E+03  0.24813678083E+03  0.32185277593E+03  0.46665343121E+03  0.12699999809E+01 0.  1.
       -4    1    3    3    0  502  0.22935287349E+03 -0.24813678083E+03 -0.56402580525E+03  0.65749625434E+03  0.12699999809E+01 0. -1.
</event>
<event>
 5   0  0.9631750E-04  0.1087515E+04  0.7818609E-02  0.9217447E-01
       -3   -1    0    0    0  501  0.00000000000E+00  0.00000000000E+00  0.47927262818E+03  0.47927263882E+03  0.10100000352E+00 0.  1.
        3   -1    0    0  501    0  0.00000000000E+00  0.00000000000E+00 -0.61691868757E+03  0.61691869584E+03  0.10100000352E+00 0. -1.
    10030    2    1    2    0    0  0.00000000000E+00  0.00000000000E+00 -0.13764605939E+03  0.10961913347E+04  0.10875150594E+04 0.  0.
        2    1    3    3  502    0 -0.50157268890E+03  0.20424059320E+03 -0.19618944170E+02  0.54191723090E+03  0.25500000920E-02 0.  1.
       -2    1    3    3    0  502  0.50157268890E+03 -0.20424059320E+03 -0.11802711522E+03  0.55427410376E+03  0.25500000920E-02 0. -1.
</event>
<event>
 5   0  0.1509004E-03  0.1101961E+04  0.7818609E-02  0.9203283E-01
       -1   -1    0    0    0  501  0.00000000000E+00  0.00000000000E+00  0.18983035646E+03  0.18983035653E+03  0.50400001928E-02 0.  1.
        1   -1    0    0  501    0  0.00000000000E+00  0.00000000000E+00 -0.15992137229E+04  0.15992137229E+04  0.50400001928E-02 0. -1.
    10030    2    1    2    0    0  0.00000000000E+00  0.00000000000E+00 -0.14093833665E+04  0.17890440794E+04  0.11019606366E+04 0.  0.
        3    1    3    3  502    0 -0.20750217284E+03  0.39432597010E+03 -0.17854123566E+03  0.48002823402E+03  0.10100000352E+00 0.  1.
       -3    1    3    3    0  502  0.20750217284E+03 -0.39432597010E+03 -0.12308421308E+04  0.13090158454E+04  0.10100000352E+00 0. -1.
</event>
<event>
 5   0  0.1415400E-03  0.1161137E+04  0.7818609E-02  0.9147570E-01
        1   -1    0    0  501    0  0.00000000000E+00  0.00000000000E+00  0.78744779659E+03  0.78744779661E+03  0.50400001928E-02 0. -1.
       -1   -1    0    0    0  501  0.00000000000E+00  0.00000000000E+00 -0.42804081001E+03  0.42804081004E+03  0.50400001928E-02 0.  1.
    10030    2    1    2    0    0  0.00000000000E+00  0.00000000000E+00  0.35940698658E+03  0.12154886067E+04  0.11611370164E+04 0.  0.
        2    1    3    3  502    0  0.40802835476E+03 -0.31102244961E+03  0.46415384395E+03  0.69185323105E+03  0.25500000920E-02 0. -1.
       -2    1    3    3    0  502 -0.40802835476E+03  0.31102244961E+03 -0.10474685737E+03  0.52363537561E+03  0.25500000920E-02 0.  1.
</event>
<event>
 5   0  0.2392585E-03  0.1120798E+04  0.7818609E-02  0.9185155E-01
       -2   -1    0    0    0  501  0.00000000000E+00  0.00000000000E+00  0.39669761121E+03  0.39669761122E+03  0.25500000920E-02 0. -1.
        2   -1    0    0  501    0  0.00000000000E+00  0.00000000000E+00 -0.79165307807E+03  0.79165307808E+03  0.25500000920E-02 0.  1.
    10030    2    1    2    0    0  0.00000000000E+00  0.00000000000E+00 -0.39495546686E+03  0.11883506893E+04  0.11207977248E+04 0.  0.
        5    1    3    3  502    0 -0.30647564167E+03  0.45400720526E+03 -0.32281847465E+03  0.63583309047E+03  0.46999998093E+01 0. -1.
       -5    1    3    3    0  502  0.30647564167E+03 -0.45400720526E+03 -0.72136992210E+02  0.55251759882E+03  0.46999998093E+01 0.  1.
</event>
<event>
 5   0  0.1509004E-03  0.1097325E+04  0.7818609E-02  0.9207803E-01
       -1   -1    0    0    0  501  0.00000000000E+00  0.00000000000E+00  0.18716537075E+03  0.18716537081E+03  0.50400001928E-02 0. -1.
        1   -1    0    0  501    0  0.00000000000E+00  0.00000000000E+00 -0.16083666423E+04  0.16083666423E+04  0.50400001928E-02 0.  1.
    10030    2    1    2    0    0  0.00000000000E+00  0.00000000000E+00 -0.14212012716E+04  0.17955320131E+04  0.10973250001E+04 0.  0.
        3    1    3    3  502    0  0.18859298697E+03  0.36630724809E+03 -0.11772879271E+03  0.42849550006E+03  0.10100000352E+00 0. -1.
       -3    1    3    3    0  502 -0.18859298697E+03 -0.36630724809E+03 -0.13034724789E+04  0.13670365131E+04  0.10100000352E+00 0.  1.
</event>
<event>
 5   0  0.1415400E-03  0.1094814E+04  0.7818609E-02  0.9210261E-01
        1   -1    0    0  501    0  0.00000000000E+00  0.00000000000E+00  0.86611098795E+03  0.86611098797E+03  0.50400001928E-02 0.  1.
       -1   -1    0    0    0  501  0.00000000000E+00  0.00000000000E+00 -0.34597701473E+03  0.34597701476E+03  0.50400001928E-02 0. -1.
    10030    2    1    2    0    0  0.00000000000E+00  0.00000000000E+00  0.52013397322E+03  0.12120880027E+04  0.10948141286E+04 0.  0.
        2    1    3    3  502    0  0.53523188665E+02  0.53373615424E+03  0.13921618651E+03  0.55418422989E+03  0.25500000920E-02 0. -1.
       -2    1    3    3    0  502 -0.53523188665E+02 -0.53373615424E+03  0.38091778672E+03  0.65790377284E+03  0.25500000920E-02 0.  1.
</event>
<event>
 5   0  0.2483036E-03  0.1114658E+04  0.7818609E-02  0.9191022E-01
        2   -1    0    0  501    0  0.00000000000E+00  0.00000000000E+00  0.45170353111E+03  0.45170353112E+03  0.25500000920E-02 0. -1.
       -2   -1    0    0    0  501  0.00000000000E+00  0.00000000000E+00 -0.68765367456E+03  0.68765367457E+03  0.25500000920E-02 0.  1.
    10030    2    1    2    0    0  0.00000000000E+00  0.00000000000E+00 -0.23595014345E+03  0.11393572057E+04  0.11146579619E+04 0.  0.
        3    1    3    3  502    0 -0.14292949596E+03  0.24621197959E+03 -0.60772281743E+03  0.67110074708E+03  0.10100000352E+00 0.  1.
       -3    1    3    3    0  502  0.14292949596E+03 -0.24621197959E+03  0.37177267397E+03  0.46825645860E+03  0.10100000352E+00 0. -1.
</event>
<event>
 5   0  0.1509004E-03  0.1100059E+04  0.7818609E-02  0.9205135E-01
        1   -1    0    0  501    0  0.00000000000E+00  0.00000000000E+00  0.73738912650E+03  0.73738912652E+03  0.50400001928E-02 0.  1.
       -1   -1    0    0    0  501  0.00000000000E+00  0.00000000000E+00 -0.41027494435E+03  0.41027494438E+03  0.50400001928E-02 0. -1.
    10030    2    1    2    0    0  0.00000000000E+00  0.00000000000E+00  0.32711418215E+03  0.11476640709E+04  0.11000586946E+04 0.  0.
        3    1    3    3  502    0  0.96640293957E+02 -0.45766033996E+03 -0.13834439383E+03  0.48778224106E+03  0.10100000352E+00 0. -1.
       -3    1    3    3    0  502 -0.96640293957E+02  0.45766033996E+03  0.46545857598E+03  0.65988182983E+03  0.10100000352E+00 0.  1.
</event>
<event>
 5   0  0.1509004E-03  0.1101436E+04  0.7818609E-02  0.9203794E-01
        1   -1    0    0  501    0  0.00000000000E+00  0.00000000000E+00  0.12605620196E+04  0.12605620196E+04  0.50400001928E-02 0. -1.
       -1   -1    0    0    0  501  0.00000000000E+00  0.00000000000E+00 -0.24059908004E+03  0.24059908009E+03  0.50400001928E-02 0.  1.
    10030    2    1    2    0    0  0.00000000000E+00  0.00000000000E+00  0.10199629395E+04  0.15011610997E+04  0.11014355402E+04 0.  0.
        3    1    3    3  502    0 -0.14546614096E+03 -0.22087365711E+03  0.11683468463E+04  0.11979064797E+04  0.10100000352E+00 0. -1.
       -3    1    3    3    0  502  0.14546614096E+03  0.22087365711E+03 -0.14838390676E+03  0.30325462001E+03  0.10100000352E+00 0.  1.
</event>
<event>
 5   0  0.1509004E-03  0.1101591E+04  0.7818609E-02  0.9203643E-01
       -1   -1    0    0    0  501  0.00000000000E+00  0.00000000000E+00  0.29126787088E+03  0.29126787092E+03  0.50400001928E-02 0. -1.
        1   -1    0    0  501    0  0.00000000000E+00  0.00000000000E+00 -0.10415688203E+04  0.10415688203E+04  0.50400001928E-02 0.  1.
    10030    2    1    2    0    0  0.00000000000E+00  0.00000000000E+00 -0.75030094944E+03  0.13328366913E+04  0.11015907275E+04 0.  0.
        3    1    3    3  502    0 -0.40385108740E+03  0.37000265923E+03 -0.44547018895E+03  0.70600380174E+03  0.10100000352E+00 0. -1.
       -3    1    3    3    0  502  0.40385108740E+03 -0.37000265923E+03 -0.30483076050E+03  0.62683288952E+03  0.10100000352E+00 0.  1.
</event>
<event>
 5   0  0.2392585E-03  0.1089270E+04  0.7818609E-02  0.9215714E-01
        2   -1    0    0  501    0  0.00000000000E+00  0.00000000000E+00  0.20495931176E+04  0.20495931176E+04  0.25500000920E-02 0.  1.
       -2   -1    0    0    0  501  0.00000000000E+00  0.00000000000E+00 -0.14472485473E+03  0.14472485475E+03  0.25500000920E-02 0. -1.
    10030    2    1    2    0    0  0.00000000000E+00  0.00000000000E+00  0.19048682629E+04  0.21943179724E+04  0.10892696016E+04 0.  0.
        5    1    3    3  502    0  0.38078626045E+03 -0.75527801026E+02  0.17219105622E+04  0.17651347538E+04  0.46999998093E+01 0.  1.
       -5    1    3    3    0  502 -0.38078626045E+03  0.75527801026E+02  0.18295770072E+03  0.42918321859E+03  0.46999998093E+01 0. -1.
</event>
<event>
 5   0  0.1479573E-03  0.1102722E+04  0.7818609E-02  0.9202543E-01
        1   -1    0    0  501    0  0.00000000000E+00  0.00000000000E+00  0.22632697613E+04  0.22632697613E+04  0.50400001928E-02 0. -1.
       -1   -1    0    0    0  501  0.00000000000E+00  0.00000000000E+00 -0.13431855147E+03  0.13431855156E+03  0.50400001928E-02 0.  1.
    10030    2    1    2    0    0  0.00000000000E+00  0.00000000000E+00  0.21289512099E+04  0.23975883129E+04  0.11027222970E+04 0.  0.
        4    1    3    3  502    0  0.52736531199E+03  0.33515302882E+02  0.14066001732E+04  0.15025854744E+04  0.12699999809E+01 0. -1.
       -4    1    3    3    0  502 -0.52736531199E+03 -0.33515302882E+02  0.72235103668E+03  0.89500283849E+03  0.12699999809E+01 0.  1.
</event>
<event>
 5   0  0.1415400E-03  0.1096543E+04  0.7818609E-02  0.9208568E-01
       -1   -1    0    0    0  501  0.00000000000E+00  0.00000000000E+00  0.64100443111E+03  0.64100443113E+03  0.50400001928E-02 0.  1.
        1   -1    0    0  501    0  0.00000000000E+00  0.00000000000E+00 -0.46895431635E+03  0.46895431638E+03  0.50400001928E-02 0. -1.
    10030    2    1    2    0    0  0.00000000000E+00  0.00000000000E+00  0.17205011476E+03  0.11099587475E+04  0.10965432865E+04 0.  0.
        2    1    3    3  502    0  0.49536735651E+03 -0.53454082409E+02 -0.14558786475E+03  0.51907801263E+03  0.25500000920E-02 0. -1.
       -2    1    3    3    0  502 -0.49536735651E+03  0.53454082409E+02  0.31763797952E+03  0.59088073489E+03  0.25500000920E-02 0.  1.
</event>
<event>
 5   0  0.2483036E-03  0.1103086E+04  0.7818609E-02  0.9202189E-01
       -2   -1    0    0    0  501  0.00000000000E+00  0.00000000000E+00  0.73713265610E+03  0.73713265610E+03  0.25500000920E-02 0. -1.
        2   -1    0    0  501    0  0.00000000000E+00  0.00000000000E+00 -0.41267974949E+03  0.41267974950E+03  0.25500000920E-02 0.  1.
    10030    2    1    2    0    0  0.00000000000E+00  0.00000000000E+00  0.32445290660E+03  0.11498124056E+04  0.11030860707E+04 0.  0.
        3    1    3    3  502    0  0.15678743499E+01  0.48289523544E+03  0.43999025177E+03  0.65328531171E+03  0.10100000352E+00 0.  1.
       -3    1    3    3    0  502 -0.15678743499E+01 -0.48289523544E+03 -0.11553734517E+03  0.49652709389E+03  0.10100000352E+00 0. -1.
</event>
<event>
 5   0  0.2438115E-03  0.1100590E+04  0.7818609E-02  0.9204617E-01
        2   -1    0    0  501    0  0.00000000000E+00  0.00000000000E+00  0.91479320241E+03  0.91479320241E+03  0.25500000920E-02 0. -1.
       -2   -1    0    0    0  501  0.00000000000E+00  0.00000000000E+00 -0.33103041966E+03  0.33103041967E+03  0.25500000920E-02 0.  1.
    10030    2    1    2    0    0  0.00000000000E+00  0.00000000000E+00  0.58376278275E+03  0.12458236221E+04  0.11005896196E+04 0.  0.
        4    1    3    3  502    0  0.91977670036E+02 -0.13123669787E+03  0.88779129092E+03  0.90214076052E+03  0.12699999809E+01 0. -1.
       -4    1    3    3    0  502 -0.91977670036E+02  0.13123669787E+03 -0.30402850817E+03  0.34368286156E+03  0.12699999809E+01 0.  1.
</event>
<event>
 5   0  0.2438115E-03  0.1108358E+04  0.7818609E-02  0.9197083E-01
       -2   -1    0    0    0  501  0.00000000000E+00  0.00000000000E+00  0.19250940113E+03  0.19250940114E+03  0.25500000920E-02 0.  1.
        2   -1    0    0  501    0  0.00000000000E+00  0.00000000000E+00 -0.15953222323E+04  0.15953222323E+04  0.25500000920E-02 0. -1.
    10030    2    1    2    0    0  0.00000000000E+00  0.00000000000E+00 -0.14028128311E+04  0.17878316334E+04  0.11083582951E+04 0.  0.
        4    1    3    3  502    0 -0.21314456547E+03 -0.16687572325E+03  0.78605101884E+02  0.28188381958E+03  0.12699999809E+01 0.  1.
       -4    1    3    3    0  502  0.21314456547E+03  0.16687572325E+03 -0.14814179330E+04  0.15059478138E+04  0.12699999809E+01 0. -1.
</event>
<event>
 5   0  0.1468556E-03  0.1078980E+04  0.7818609E-02  0.9225925E-01
        1   -1    0    0  501    0  0.00000000000E+00  0.00000000000E+00  0.71204133096E+03  0.71204133097E+03  0.50400001928E-02 0.  1.
       -1   -1    0    0    0  501  0.00000000000E+00  0.00000000000E+00 -0.40875355689E+03  0.40875355692E+03  0.50400001928E-02 0. -1.
    10030    2    1    2    0    0  0.00000000000E+00  0.00000000000E+00  0.30328777406E+03  0.11207948879E+04  0.10789799381E+04 0.  0.
        5    1    3    3  502    0  0.23114650973E+03 -0.22400987754E+03  0.60133950520E+03  0.68208535002E+03  0.46999998093E+01 0.  1.
       -5    1    3    3    0  502 -0.23114650973E+03  0.22400987754E+03 -0.29805173114E+03  0.43870953788E+03  0.46999998093E+01 0. -1.
</event>
<event>
 5   0  0.1509004E-03  0.1104569E+04  0.7818609E-02  0.9200750E-01
       -1   -1    0    0    0  501  0.00000000000E+00  0.00000000000E+00  0.24495960133E+03  0.24495960139E+03  0.50400001928E-02 0. -1.
        1   -1    0    0  501    0  0.00000000000E+00  0.00000000000E+00 -0.12451767359E+04  0.12451767359E+04  0.50400001928E-02 0.  1.
    10030    2    1    2    0    0  0.00000000000E+00  0.00000000000E+00 -0.10002171346E+04  0.14901363373E+04  0.11045686884E+04 0.  0.
        3    1    3    3  502    0 -0.28730761734E+03 -0.68711873895E+02 -0.11296341075E+04  0.11676216064E+04  0.10100000352E+00 0.  1.
       -3    1    3    3    0  502  0.28730761734E+03  0.68711873895E+02  0.12941697293E+03  0.32251473095E+03  0.10100000352E+00 0. -1.
</event>
<event>
 5   0  0.2438115E-03  0.1094631E+04  0.7818609E-02  0.9210440E-01
        2   -1    0    0  501    0  0.00000000000E+00  0.00000000000E+00  0.17510381269E+04  0.17510381269E+04  0.25500000920E-02 0.  1.
       -2   -1    0    0    0  501  0.00000000000E+00  0.00000000000E+00 -0.17107246055E+03  0.17107246057E+03  0.25500000920E-02 0. -1.
    10030    2    1    2    0    0  0.00000000000E+00  0.00000000000E+00  0.15799656664E+04  0.19221105875E+04  0.10946312638E+04 0.  0.
        4    1    3    3  502    0 -0.38184046687E+03 -0.37494283255E+03  0.58848101138E+03  0.79542176452E+03  0.12699999809E+01 0.  1.
       -4    1    3    3    0  502  0.38184046687E+03  0.37494283255E+03  0.99148465500E+03  0.11266888230E+04  0.12699999809E+01 0. -1.
</event>
<event>
 5   0  0.2392585E-03  0.1102936E+04  0.7818609E-02  0.9202335E-01
       -2   -1    0    0    0  501  0.00000000000E+00  0.00000000000E+00  0.36031632086E+03  0.36031632087E+03  0.25500000920E-02 0.  1.
        2   -1    0    0  501    0  0.00000000000E+00  0.00000000000E+00 -0.84402807615E+03  0.84402807615E+03  0.25500000920E-02 0. -1.
    10030    2    1    2    0    0  0.00000000000E+00  0.00000000000E+00 -0.48371175529E+03  0.12043443970E+04  0.11029362468E+04 0.  0.
        5    1    3    3  502    0  0.35669775589E+03 -0.40950376627E+03 -0.13730046284E+03  0.56017865966E+03  0.46999998093E+01 0.  1.
       -5    1    3    3    0  502 -0.35669775589E+03  0.40950376627E+03 -0.34641129245E+03  0.64416573736E+03  0.46999998093E+01 0. -1.
</event>
<event>
 5   0  0.1468556E-03  0.1108028E+04  0.7818609E-02  0.9197403E-01
        1   -1    0    0  501    0  0.00000000000E+00  0.00000000000E+00  0.12969935603E+04  0.12969935603E+04  0.50400001928E-02 0. -1.
       -1   -1    0    0    0  501  0.00000000000E+00  0.00000000000E+00 -0.23664833875E+03  0.23664833880E+03  0.50400001928E-02 0.  1.
    10030    2    1    2    0    0  0.00000000000E+00  0.00000000000E+00  0.10603452216E+04  0.15336418991E+04  0.11080277460E+04 0.  0.
        5    1    3    3  502    0 -0.46882100036E+03  0.27701805946E+03  0.67117039543E+03  0.86430545835E+03  0.46999998093E+01 0. -1.
       -5    1    3    3    0  502  0.46882100036E+03 -0.27701805946E+03  0.38917482612E+03  0.66933644076E+03  0.46999998093E+01 0.  1.
</event>
<event>
 5   0  0.1509004E-03  0.1096892E+04  0.7818609E-02  0.9208226E-01
        1   -1    0    0  501    0  0.00000000000E+00  0.00000000000E+00  0.88314252953E+03  0.88314252955E+03  0.50400001928E-02 0.  1.
       -1   -1    0    0    0  501  0.00000000000E+00  0.00000000000E+00 -0.34059402221E+03  0.34059402224E+03  0.50400001928E-02 0. -1.
    10030    2    1    2    0    0  0.00000000000E+00  0.00000000000E+00  0.54254850733E+03  0.12237365518E+04  0.10968920938E+04 0.  0.
        3    1    3    3  502    0 -0.34237338846E+02 -0.49857246830E+03  0.19212825482E+02  0.50011583096E+03  0.10100000352E+00 0. -1.
       -3    1    3    3    0  502  0.34237338846E+02  0.49857246830E+03  0.52333568185E+03  0.72362072083E+03  0.10100000352E+00 0.  1.
</event>
<event>
 5   0  0.2488472E-03  0.1099025E+04  0.7818609E-02  0.9206142E-01
        2   -1    0    0  501    0  0.00000000000E+00  0.00000000000E+00  0.12773240271E+04  0.12773240271E+04  0.25500000920E-02 0. -1.
       -2   -1    0    0    0  501  0.00000000000E+00  0.00000000000E+00 -0.23640376513E+03  0.23640376515E+03  0.25500000920E-02 0.  1.
    10030    2    1    2    0    0  0.00000000000E+00  0.00000000000E+00  0.10409202620E+04  0.15137277923E+04  0.10990254034E+04 0.  0.
        2    1    3    3  502    0  0.42561396041E+03 -0.20983898414E+03  0.90212046214E+03  0.10193139707E+04  0.25500000920E-02 0. -1.
       -2    1    3    3    0  502 -0.42561396041E+03  0.20983898414E+03  0.13879979985E+03  0.49441382161E+03  0.25500000920E-02 0.  1.
</event>
<event>
 5   0  0.2392585E-03  0.1111348E+04  0.7818609E-02  0.9194201E-01
       -2   -1    0    0    0  501  0.00000000000E+00  0.00000000000E+00  0.57716539015E+03  0.57716539016E+03  0.25500000920E-02 0.  1.
        2   -1    0    0  501    0  0.00000000000E+00  0.00000000000E+00 -0.53498283056E+03  0.53498283056E+03  0.25500000920E-02 0. -1.
    10030    2    1    2    0    0  0.00000000000E+00  0.00000000000E+00  0.42182559594E+02  0.11121482207E+04  0.11113479637E+04 0.  0.
        5    1    3    3  502    0  0.15448089606E+03 -0.15423348807E+03  0.53243786172E+03  0.57546892416E+03  0.46999998093E+01 0.  1.
       -5    1    3    3    0  502 -0.15448089606E+03  0.15423348807E+03 -0.49025530212E+03  0.53667929655E+03  0.46999998093E+01 0. -1.
</event>
<event>
 5   0  0.2467448E-03  0.1113921E+04  0.7818609E-02  0.9191729E-01
       -2   -1    0    0    0  501  0.00000000000E+00  0.00000000000E+00  0.34465645685E+03  0.34465645686E+03  0.25500000920E-02 0.  1.
        2   -1    0    0  501    0  0.00000000000E+00  0.00000000000E+00 -0.90004094966E+03  0.90004094966E+03  0.25500000920E-02 0. -1.
    10030    2    1    2    0    0  0.00000000000E+00  0.00000000000E+00 -0.55538449281E+03  0.12446974065E+04  0.11139208675E+04 0.  0.
        1    1    3    3  502    0  0.24679907330E+03  0.47710307518E+03 -0.11321083206E+03  0.54895702879E+03  0.50400001928E-02 0.  1.
       -1    1    3    3    0  502 -0.24679907330E+03 -0.47710307518E+03 -0.44217366074E+03  0.69574037774E+03  0.50400001928E-02 0. -1.
</event>
<event>
 5   0  0.2438115E-03  0.1109756E+04  0.7818609E-02  0.9195735E-01
       -2   -1    0    0    0  501  0.00000000000E+00  0.00000000000E+00  0.41533244949E+03  0.41533244950E+03  0.25500000920E-02 0.  1.
        2   -1    0    0  501    0  0.00000000000E+00  0.00000000000E+00 -0.74130919347E+03  0.74130919348E+03  0.25500000920E-02 0. -1.
    10030    2    1    2    0    0  0.00000000000E+00  0.00000000000E+00 -0.32597674398E+03  0.11566416430E+04  0.11097563033E+04 0.  0.
        4    1    3    3  502    0 -0.18857109152E+03 -0.52174611240E+03 -0.15205281282E+03  0.57523884878E+03  0.12699999809E+01 0. -1.
       -4    1    3    3    0  502  0.18857109152E+03  0.52174611240E+03 -0.17392393116E+03  0.58140279419E+03  0.12699999809E+01 0.  1.
</event>
<event>
 5   0  0.2392585E-03  0.1102571E+04  0.7818609E-02  0.9202690E-01
        2   -1    0    0  501    0  0.00000000000E+00  0.00000000000E+00  0.41238631150E+03  0.41238631150E+03  0.25500000920E-02 0. -1.
       -2   -1    0    0    0  501  0.00000000000E+00  0.00000000000E+00 -0.73696855692E+03  0.73696855692E+03  0.25500000920E-02 0.  1.
    10030    2    1    2    0    0  0.00000000000E+00  0.00000000000E+00 -0.32458224542E+03  0.11493548684E+04  0.11025710769E+04 0.  0.
        5    1    3    3  502    0  0.49455945122E+03 -0.48369242371E+02  0.86509620316E+02  0.50441514530E+03  0.46999998093E+01 0. -1.
       -5    1    3    3    0  502 -0.49455945122E+03  0.48369242371E+02 -0.41109186574E+03  0.64493972313E+03  0.46999998093E+01 0.  1.
</event>
<event>
 5   0  0.2483036E-03  0.1037194E+04  0.7818609E-02  0.9268667E-01
        2   -1    0    0  501    0  0.00000000000E+00  0.00000000000E+00  0.26074627059E+03  0.26074627060E+03  0.25500000920E-02 0. -1.
       -2   -1    0    0    0  501  0.00000000000E+00  0.00000000000E+00 -0.10314342582E+04  0.10314342582E+04  0.25500000920E-02 0.  1.
    10030    2    1    2    0    0  0.00000000000E+00  0.00000000000E+00 -0.77068798756E+03  0.12921805288E+04  0.10371935908E+04 0.  0.
        3    1    3    3  502    0  0.28179338331E+03  0.70830537204E+02 -0.92050309306E+03  0.96527220535E+03  0.10100000352E+00 0.  1.
       -3    1    3    3    0  502 -0.28179338331E+03 -0.70830537204E+02  0.14981510550E+03  0.32690832341E+03  0.10100000352E+00 0. -1.
</event>
<event>
 5   0  0.1415400E-03  0.1090080E+04  0.7818609E-02  0.9214914E-01
        1   -1    0    0  501    0  0.00000000000E+00  0.00000000000E+00  0.36734812389E+03  0.36734812392E+03  0.50400001928E-02 0. -1.
       -1   -1    0    0    0  501  0.00000000000E+00  0.00000000000E+00 -0.80868478525E+03  0.80868478526E+03  0.50400001928E-02 0.  1.
    10030    2    1    2    0    0  0.00000000000E+00  0.00000000000E+00 -0.44133666136E+03  0.11760329092E+04  0.10900804350E+04 0.  0.
        2    1    3    3  502    0 -0.35784609737E+03  0.35415613466E+03 -0.44590889199E+03  0.67254378079E+03  0.25500000920E-02 0.  1.
       -2    1    3    3    0  502  0.35784609737E+03 -0.35415613466E+03  0.45722306245E+01  0.50348912840E+03  0.25500000920E-02 0. -1.
</event>
<event>
 5   0  0.2392585E-03  0.1097831E+04  0.7818609E-02  0.9207308E-01
        2   -1    0    0  501    0  0.00000000000E+00  0.00000000000E+00  0.26383563652E+03  0.26383563654E+03  0.25500000920E-02 0. -1.
       -2   -1    0    0    0  501  0.00000000000E+00  0.00000000000E+00 -0.11420310238E+04  0.11420310238E+04  0.25500000920E-02 0.  1.
    10030    2    1    2    0    0  0.00000000000E+00  0.00000000000E+00 -0.87819538724E+03  0.14058666603E+04  0.10978314663E+04 0.  0.
        5    1    3    3  502    0 -0.11043985312E+03  0.60893630533E+02  0.24500497881E+03  0.27559848518E+03  0.46999998093E+01 0. -1.
       -5    1    3    3    0  502  0.11043985312E+03 -0.60893630533E+02 -0.11232003661E+04  0.11302681751E+04  0.46999998093E+01 0.  1.
</event>
<event>
 5   0  0.1468556E-03  0.1102659E+04  0.7818609E-02  0.9202604E-01
       -1   -1    0    0    0  501  0.00000000000E+00  0.00000000000E+00  0.79413903935E+03  0.79413903937E+03  0.50400001928E-02 0.  1.
        1   -1    0    0  501    0  0.00000000000E+00  0.00000000000E+00 -0.38275943432E+03  0.38275943436E+03  0.50400001928E-02 0. -1.
    10030    2    1    2    0    0  0.00000000000E+00  0.00000000000E+00  0.41137960503E+03  0.11768984737E+04  0.11026589854E+04 0.  0.
        5    1    3    3  502    0 -0.72818012996E+02  0.37905239248E+03 -0.21446187090E+03  0.44158709597E+03  0.46999998093E+01 0. -1.
       -5    1    3    3    0  502  0.72818012996E+02 -0.37905239248E+03  0.62584147593E+03  0.73531137775E+03  0.46999998093E+01 0.  1.
</event>
<event>
 5   0  0.1468556E-03  0.1110248E+04  0.7818609E-02  0.9195261E-01
       -1   -1    0    0    0  501  0.00000000000E+00  0.00000000000E+00  0.12320878467E+04  0.12320878467E+04  0.50400001928E-02 0.  1.
        1   -1    0    0  501    0  0.00000000000E+00  0.00000000000E+00 -0.25011415247E+03  0.25011415252E+03  0.50400001928E-02 0. -1.
    10030    2    1    2    0    0  0.00000000000E+00  0.00000000000E+00  0.98197369423E+03  0.14822019992E+04  0.11102479139E+04 0.  0.
        5    1    3    3  502    0 -0.24800682921E+03 -0.16534726969E+01  0.11539825739E+04  0.11803423199E+04  0.46999998093E+01 0.  1.
       -5    1    3    3    0  502  0.24800682921E+03  0.16534726969E+01 -0.17200887968E+03  0.30185967931E+03  0.46999998093E+01 0. -1.
</event>
<event>
 5   0  0.1468556E-03  0.1104030E+04  0.7818609E-02  0.9201273E-01
       -1   -1    0    0    0  501  0.00000000000E+00  0.00000000000E+00  0.31018333877E+03  0.31018333881E+03  0.50400001928E-02 0. -1.
        1   -1    0    0  501    0  0.00000000000E+00  0.00000000000E+00 -0.98238862838E+03  0.98238862840E+03  0.50400001928E-02 0.  1.
    10030    2    1    2    0    0  0.00000000000E+00  0.00000000000E+00 -0.67220528961E+03  0.12925719672E+04  0.11040300444E+04 0.  0.
        5    1    3    3  502    0 -0.29906401589E+03  0.36965350126E+03 -0.66437017382E+03  0.81700233442E+03  0.46999998093E+01 0.  1.
       -5    1    3    3    0  502  0.29906401589E+03 -0.36965350126E+03 -0.78351157885E+01  0.47556963278E+03  0.46999998093E+01 0. -1.
</event>
<event>
 5   0  0.1479573E-03  0.1101051E+04  0.7818609E-02  0.9204168E-01
        1   -1    0    0  501    0  0.00000000000E+00  0.00000000000E+00  0.94182443943E+03  0.94182443945E+03  0.50400001928E-02 0.  1.
       -1   -1    0    0    0  501  0.00000000000E+00  0.00000000000E+00 -0.32179929423E+03  0.32179929427E+03  0.50400001928E-02 0. -1.
    10030    2    1    2    0    0  0.00000000000E+00  0.00000000000E+00  0.62002514521E+03  0.12636237337E+04  0.11010512067E+04 0.  0.
        4    1    3    3  502    0  0.43510997895E+03  0.31812877095E+03  0.43858146363E+03  0.69489705844E+03  0.12699999809E+01 0. -1.
       -4    1    3    3    0  502 -0.43510997895E+03 -0.31812877095E+03  0.18144368158E+03  0.56872667528E+03  0.12699999809E+01 0.  1.
</event>
<event>
 5   0  0.2483036E-03  0.1100891E+04  0.7818609E-02  0.9204324E-01
        2   -1    0    0  501    0  0.00000000000E+00  0.00000000000E+00  0.87454358657E+03  0.87454358657E+03  0.25500000920E-02 0.  1.
       -2   -1    0    0    0  501  0.00000000000E+00  0.00000000000E+00 -0.34645523637E+03  0.34645523638E+03  0.25500000920E-02 0. -1.
    10030    2    1    2    0    0  0.00000000000E+00  0.00000000000E+00  0.52808835020E+03  0.12209988229E+04  0.11008909210E+04 0.  0.
        3    1    3    3  502    0 -0.28960800387E+02 -0.38109038543E+03  0.70339586194E+03  0.80052130429E+03  0.10100000352E+00 0.  1.
       -3    1    3    3    0  502  0.28960800387E+02  0.38109038543E+03 -0.17530751174E+03  0.42047751866E+03  0.10100000352E+00 0. -1.
</event>
<event>
 5   0  0.2392585E-03  0.1103092E+04  0.7818609E-02  0.9202184E-01
       -2   -1    0    0    0  501  0.00000000000E+00  0.00000000000E+00  0.26983431520E+03  0.26983431521E+03  0.25500000920E-02 0. -1.
        2   -1    0    0  501    0  0.00000000000E+00  0.00000000000E+00 -0.11273688080E+04  0.11273688080E+04  0.25500000920E-02 0.  1.
    10030    2    1    2    0    0  0.00000000000E+00  0.00000000000E+00 -0.85753449283E+03  0.13972031232E+04  0.11030916377E+04 0.  0.
        5    1    3    3  502    0 -0.38490946484E+02  0.22400686474E+03  0.20772908904E+03  0.30795144559E+03  0.46999998093E+01 0. -1.
       -5    1    3    3    0  502  0.38490946484E+02 -0.22400686474E+03 -0.10652635819E+04  0.10892516776E+04  0.46999998093E+01 0.  1.
</event>
<event>
 5   0  0.1479573E-03  0.1102461E+04  0.7818609E-02  0.9202797E-01
        1   -1    0    0  501    0  0.00000000000E+00  0.00000000000E+00  0.65693220780E+03  0.65693220782E+03  0.50400001928E-02 0. -1.
       -1   -1    0    0    0  501  0.00000000000E+00  0.00000000000E+00 -0.46253600061E+03  0.46253600064E+03  0.50400001928E-02 0.  1.
    10030    2    1    2    0    0  0.00000000000E+00  0.00000000000E+00  0.19439620719E+03  0.11194682085E+04  0.11024605138E+04 0.  0.
        4    1    3    3  502    0  0.48069577061E+02 -0.21134515907E+03  0.61184605890E+03  0.64910297580E+03  0.12699999809E+01 0. -1.
       -4    1    3    3    0  502 -0.48069577061E+02  0.21134515907E+03 -0.41744985171E+03  0.47036523266E+03  0.12699999809E+01 0.  1.
</event>
<event>
 5   0  0.2488472E-03  0.9725122E+03  0.7818609E-02  0.9339217E-01
       -2   -1    0    0    0  501  0.00000000000E+00  0.00000000000E+00  0.22987929009E+03  0.22987929011E+03  0.25500000920E-02 0.  1.
        2   -1    0    0  501    0  0.00000000000E+00  0.00000000000E+00 -0.10285616203E+04  0.10285616203E+04  0.25500000920E-02 0. -1.
    10030    2    1    2    0    0  0.00000000000E+00  0.00000000000E+00 -0.79868233023E+03  0.12584409104E+04  0.97251224179E+03 0.  0.
        2    1    3    3  502    0 -0.39508773269E+03  0.28315629546E+03 -0.38231074404E+03  0.61841192517E+03  0.25500000920E-02 0.  1.
       -2    1    3    3    0  502  0.39508773269E+03 -0.28315629546E+03 -0.41637158619E+03  0.64002898526E+03  0.25500000920E-02 0. -1.
</event>
<event>
 5   0  0.2488472E-03  0.1115365E+04  0.7818609E-02  0.9190344E-01
       -2   -1    0    0    0  501  0.00000000000E+00  0.00000000000E+00  0.10803762654E+04  0.10803762654E+04  0.25500000920E-02 0. -1.
        2   -1    0    0  501    0  0.00000000000E+00  0.00000000000E+00 -0.28787196250E+03  0.28787196252E+03  0.25500000920E-02 0.  1.
    10030    2    1    2    0    0  0.00000000000E+00  0.00000000000E+00  0.79250430290E+03  0.13682482279E+04  0.11153654751E+04 0.  0.
        2    1    3    3  502    0  0.50933562073E+03  0.19462968303E+03  0.25263320449E+03  0.60093845282E+03  0.25500000920E-02 0.  1.
       -2    1    3    3    0  502 -0.50933562073E+03 -0.19462968303E+03  0.53987109841E+03  0.76730977511E+03  0.25500000920E-02 0. -1.
</event>
<event>
 5   0  0.1479573E-03  0.1092244E+04  0.7818609E-02  0.9212784E-01
       -1   -1    0    0    0  501  0.00000000000E+00  0.00000000000E+00  0.27699079388E+03  0.27699079393E+03  0.50400001928E-02 0.  1.
        1   -1    0    0  501    0  0.00000000000E+00  0.00000000000E+00 -0.10767486467E+04  0.10767486468E+04  0.50400001928E-02 0. -1.
    10030    2    1    2    0    0  0.00000000000E+00  0.00000000000E+00 -0.79975785287E+03  0.13537394407E+04  0.10922444095E+04 0.  0.
        4    1    3    3  502    0 -0.21939558495E+02  0.24394235793E+03 -0.10048569141E+04  0.10342766791E+04  0.12699999809E+01 0. -1.
       -4    1    3    3    0  502  0.21939558495E+02 -0.24394235793E+03  0.20509906124E+03  0.31946276158E+03  0.12699999809E+01 0.  1.
</event>
<event>
 5   0  0.2392585E-03  0.1091005E+04  0.7818609E-02  0.9214003E-01
        2   -1    0    0  501    0  0.00000000000E+00  0.00000000000E+00  0.12354040172E+04  0.12354040172E+04  0.25500000920E-02 0. -1.
       -2   -1    0    0    0  501  0.00000000000E+00  0.00000000000E+00 -0.24087107675E+03  0.24087107677E+03  0.25500000920E-02 0.  1.
    10030    2    1    2    0    0  0.00000000000E+00  0.00000000000E+00  0.99453294049E+03  0.14762750940E+04  0.10910052170E+04 0.  0.
        5    1    3    3  502    0 -0.31109453153E+03 -0.13332725727E+03 -0.81575650229E+02  0.34818478110E+03  0.46999998093E+01 0.  1.
       -5    1    3    3    0  502  0.31109453153E+03  0.13332725727E+03  0.10761085907E+04  0.11280903129E+04  0.46999998093E+01 0. -1.
</event>
<event>
 5   0  0.1509004E-03  0.1101546E+04  0.7818609E-02  0.9203686E-01
       -1   -1    0    0    0  501  0.00000000000E+00  0.00000000000E+00  0.43585217445E+03  0.43585217448E+03  0.50400001928E-02 0.  1.
        1   -1    0    0  501    0  0.00000000000E+00  0.00000000000E+00 -0.69599532468E+03  0.69599532470E+03  0.50400001928E-02 0. -1.
    10030    2    1    2    0    0  0.00000000000E+00  0.00000000000E+00 -0.26014315023E+03  0.11318474992E+04  0.11015463235E+04 0.  0.
        3    1    3    3  502    0 -0.20566386978E+03  0.43830523953E+03  0.13971910821E+03  0.50391522078E+03  0.10100000352E+00 0.  1.
       -3    1    3    3    0  502  0.20566386978E+03 -0.43830523953E+03 -0.39986225844E+03  0.62793227840E+03  0.10100000352E+00 0. -1.
</event>
<event>
 5   0  0.2438115E-03  0.1115414E+04  0.7818609E-02  0.9190297E-01
       -2   -1    0    0    0  501  0.00000000000E+00  0.00000000000E+00  0.32176990593E+03  0.32176990594E+03  0.25500000920E-02 0. -1.
        2   -1    0    0  501    0  0.00000000000E+00  0.00000000000E+00 -0.96664433504E+03  0.96664433504E+03  0.25500000920E-02 0.  1.
    10030    2    1    2    0    0  0.00000000000E+00  0.00000000000E+00 -0.64487442911E+03  0.12884142410E+04  0.11154139263E+04 0.  0.
        4    1    3    3  502    0  0.10924922136E+03  0.16082448776E+03  0.28135574458E+03  0.34199791833E+03  0.12699999809E+01 0. -1.
       -4    1    3    3    0  502 -0.10924922136E+03 -0.16082448776E+03 -0.92623017369E+03  0.94641632265E+03  0.12699999809E+01 0.  1.
</event>
<event>
 5   0  0.9631750E-04  0.1080608E+04  0.7818609E-02  0.9224302E-01
        3   -1    0    0  501    0  0.00000000000E+00  0.00000000000E+00  0.44864766578E+03  0.44864767715E+03  0.10100000352E+00 0.  1.
       -3   -1    0    0    0  501  0.00000000000E+00  0.00000000000E+00 -0.65068506684E+03  0.65068507468E+03  0.10100000352E+00 0. -1.
    10030    2    1    2    0    0  0.00000000000E+00  0.00000000000E+00 -0.20203740106E+03  0.10993327518E+04  0.10806078788E+04 0.  0.
        1    1    3    3  502    0  0.20487903350E+03 -0.48767617221E+03  0.11002379314E+02  0.52907893521E+03  0.50400001928E-02 0.  1.
       -1    1    3    3    0  502 -0.20487903350E+03  0.48767617221E+03 -0.21303978037E+03  0.57025381661E+03  0.50400001928E-02 0. -1.
</event>
<event>
 5   0  0.2392585E-03  0.1104480E+04  0.7818609E-02  0.9200837E-01
        2   -1    0    0  501    0  0.00000000000E+00  0.00000000000E+00  0.32710658963E+03  0.32710658964E+03  0.25500000920E-02 0.  1.
       -2   -1    0    0    0  501  0.00000000000E+00  0.00000000000E+00 -0.93232262428E+03  0.93232262428E+03  0.25500000920E-02 0. -1.
    10030    2    1    2    0    0  0.00000000000E+00  0.00000000000E+00 -0.60521603465E+03  0.12594292139E+04  0.11044797401E+04 0.  0.
        5    1    3    3  502    0  0.26271023907E+03 -0.11436802092E+03 -0.84090555938E+03  0.88839234785E+03  0.46999998093E+01 0. -1.
       -5    1    3    3    0  502 -0.26271023907E+03  0.11436802092E+03  0.23568952473E+03  0.37103686607E+03  0.46999998093E+01 0.  1.
</event>
<event>
 5   0  0.1480937E-03  0.1099523E+04  0.7818609E-02  0.9205656E-01
       -1   -1    0    0    0  501  0.00000000000E+00  0.00000000000E+00  0.37945295374E+03  0.37945295377E+03  0.50400001928E-02 0.  1.
        1   -1    0    0  501    0  0.00000000000E+00  0.00000000000E+00 -0.79650971881E+03  0.79650971883E+03  0.50400001928E-02 0. -1.
    10030    2    1    2    0    0  0.00000000000E+00  0.00000000000E+00 -0.41705676507E+03  0.11759626726E+04  0.10995234704E+04 0.  0.
        1    1    3    3  502    0 -0.18088544826E+03  0.38303142674E+03  0.16626996658E+03  0.45505859081E+03  0.50400001928E-02 0.  1.
       -1    1    3    3    0  502  0.18088544826E+03 -0.38303142674E+03 -0.58332673165E+03  0.72090408179E+03  0.50400001928E-02 0. -1.
</event>
<event>
 5   0  0.1480937E-03  0.1078960E+04  0.7818609E-02  0.9225945E-01
       -1   -1    0    0    0  501  0.00000000000E+00  0.00000000000E+00  0.47332499910E+03  0.47332499913E+03  0.50400001928E-02 0. -1.
        1   -1    0    0  501    0  0.00000000000E+00  0.00000000000E+00 -0.61488149550E+03  0.61488149552E+03  0.50400001928E-02 0.  1.
    10030    2    1    2    0    0  0.00000000000E+00  0.00000000000E+00 -0.14155649640E+03  0.10882064947E+04  0.10789602093E+04 0.  0.
        1    1    3    3  502    0 -0.81533773561E+01 -0.21842048810E+03 -0.56822376049E+03  0.60881214606E+03  0.50400001928E-02 0.  1.
       -1    1    3    3    0  502  0.81533773561E+01  0.21842048810E+03  0.42666726409E+03  0.47939434859E+03  0.50400001928E-02 0. -1.
</event>
<event>
 5   0  0.1509004E-03  0.1099106E+04  0.7818609E-02  0.9206064E-01
       -1   -1    0    0    0  501  0.00000000000E+00  0.00000000000E+00  0.75201346610E+03  0.75201346612E+03  0.50400001928E-02 0. -1.
        1   -1    0    0  501    0  0.00000000000E+00  0.00000000000E+00 -0.40159966091E+03  0.40159966094E+03  0.50400001928E-02 0.  1.
    10030    2    1    2    0    0  0.00000000000E+00  0.00000000000E+00  0.35041380519E+03  0.11536131271E+04  0.10991057329E+04 0.  0.
        3    1    3    3  502    0  0.17981489748E+03 -0.28276141697E+03 -0.28196374042E+03  0.43793946773E+03  0.10100000352E+00 0.  1.
       -3    1    3    3    0  502 -0.17981489748E+03  0.28276141697E+03  0.63237754561E+03  0.71567365934E+03  0.10100000352E+00 0. -1.
</event>
<event>
 5   0  0.2438115E-03  0.1095558E+04  0.7818609E-02  0.9209532E-01
        2   -1    0    0  501    0  0.00000000000E+00  0.00000000000E+00  0.25030911530E+03  0.25030911532E+03  0.25500000920E-02 0. -1.
       -2   -1    0    0    0  501  0.00000000000E+00  0.00000000000E+00 -0.11987651491E+04  0.11987651492E+04  0.25500000920E-02 0.  1.
    10030    2    1    2    0    0  0.00000000000E+00  0.00000000000E+00 -0.94845603384E+03  0.14490742645E+04  0.10955580203E+04 0.  0.
        4    1    3    3  502    0  0.51009116826E+03 -0.15169656850E+03 -0.64594947346E+03  0.83693320163E+03  0.12699999809E+01 0.  1.
       -4    1    3    3    0  502 -0.51009116826E+03  0.15169656850E+03 -0.30250656038E+03  0.61214106284E+03  0.12699999809E+01 0. -1.
</event>
<event>
 5   0  0.2467448E-03  0.1097421E+04  0.7818609E-02  0.9207709E-01
       -2   -1    0    0    0  501  0.00000000000E+00  0.00000000000E+00  0.47998840117E+03  0.47998840118E+03  0.25500000920E-02 0.  1.
        2   -1    0    0  501    0  0.00000000000E+00  0.00000000000E+00 -0.62727234714E+03  0.62727234714E+03  0.25500000920E-02 0. -1.
    10030    2    1    2    0    0  0.00000000000E+00  0.00000000000E+00 -0.14728394597E+03  0.11072607483E+04  0.10974214341E+04 0.  0.
        1    1    3    3  502    0 -0.17033495970E+03 -0.50862034648E+03 -0.19032831995E+03  0.56915158328E+03  0.50400001928E-02 0.  1.
       -1    1    3    3    0  502  0.17033495970E+03  0.50862034648E+03  0.43044373976E+02  0.53810916504E+03  0.50400001928E-02 0. -1.
</event>
<event>
 5   0  0.2392585E-03  0.1091888E+04  0.7818609E-02  0.9213135E-01
        2   -1    0    0  501    0  0.00000000000E+00  0.00000000000E+00  0.12699083083E+04  0.12699083083E+04  0.25500000920E-02 0.  1.
       -2   -1    0    0    0  501  0.00000000000E+00  0.00000000000E+00 -0.23470565540E+03  0.23470565541E+03  0.25500000920E-02 0. -1.
    10030    2    1    2    0    0  0.00000000000E+00  0.00000000000E+00  0.10352026529E+04  0.15046139637E+04  0.10918876532E+04 0.  0.
        5    1    3    3  502    0 -0.25846844050E+03 -0.30157134868E+03  0.14855736493E+01  0.39720965497E+03  0.46999998093E+01 0. -1.
       -5    1    3    3    0  502  0.25846844050E+03  0.30157134868E+03  0.10337170792E+04  0.11074043087E+04  0.46999998093E+01 0.  1.
</event>
<event>
 5   0  0.1415400E-03  0.1094847E+04  0.7818609E-02  0.9210229E-01
       -1   -1    0    0    0  501  0.00000000000E+00  0.00000000000E+00  0.80221234207E+03  0.80221234209E+03  0.50400001928E-02 0.  1.
        1   -1    0    0  501    0  0.00000000000E+00  0.00000000000E+00 -0.37355734350E+03  0.37355734353E+03  0.50400001928E-02 0. -1.
    10030    2    1    2    0    0  0.00000000000E+00  0.00000000000E+00  0.42865499857E+03  0.11757696856E+04  0.10948466769E+04 0.  0.
        2    1    3    3  502    0  0.86711368735E+02 -0.15847250360E+03 -0.34062657639E+03  0.38556304337E+03  0.25500000920E-02 0. -1.
       -2    1    3    3    0  502 -0.86711368735E+02  0.15847250360E+03  0.76928157496E+03  0.79020664225E+03  0.25500000920E-02 0.  1.
</event>
<event>
 5   0  0.1468556E-03  0.1090624E+04  0.7818609E-02  0.9214379E-01
        1   -1    0    0  501    0  0.00000000000E+00  0.00000000000E+00  0.62298293577E+03  0.62298293579E+03  0.50400001928E-02 0.  1.
       -1   -1    0    0    0  501  0.00000000000E+00  0.00000000000E+00 -0.47732440519E+03  0.47732440522E+03  0.50400001928E-02 0. -1.
    10030    2    1    2    0    0  0.00000000000E+00  0.00000000000E+00  0.14565853057E+03  0.11003073410E+04  0.10906236001E+04 0.  0.
        5    1    3    3  502    0  0.44564185189E+03 -0.30312429928E+03 -0.10742641088E+02  0.53909043333E+03  0.46999998093E+01 0. -1.
       -5    1    3    3    0  502 -0.44564185189E+03  0.30312429928E+03  0.15640117166E+03  0.56121690768E+03  0.46999998093E+01 0.  1.
</event>
<event>
 5   0  0.2438115E-03  0.1094078E+04  0.7818609E-02  0.9210983E-01
        2   -1    0    0  501    0  0.00000000000E+00  0.00000000000E+00  0.13330893545E+04  0.13330893545E+04  0.25500000920E-02 0.  1.
       -2   -1    0    0    0  501  0.00000000000E+00  0.00000000000E+00 -0.22447976492E+03  0.22447976494E+03  0.25500000920E-02 0. -1.
    10030    2    1    2    0    0  0.00000000000E+00  0.00000000000E+00  0.11086095896E+04  0.15575691194E+04  0.10940778490E+04 0.  0.
        4    1    3    3  502    0  0.20755880222E+03 -0.26309602210E+03 -0.61242750840E+02  0.34066473351E+03  0.12699999809E+01 0. -1.
       -4    1    3    3    0  502 -0.20755880222E+03  0.26309602210E+03  0.11698523404E+04  0.12169043859E+04  0.12699999809E+01 0.  1.
</event>
<event>
 5   0  0.1509004E-03  0.1097718E+04  0.7818609E-02  0.9207419E-01
       -1   -1    0    0    0  501  0.00000000000E+00  0.00000000000E+00  0.18951048233E+03  0.18951048239E+03  0.50400001928E-02 0.  1.
        1   -1    0    0  501    0  0.00000000000E+00  0.00000000000E+00 -0.15896027564E+04  0.15896027564E+04  0.50400001928E-02 0. -1.
    10030    2    1    2    0    0  0.00000000000E+00  0.00000000000E+00 -0.14000922741E+04  0.17791132388E+04  0.10977183339E+04 0.  0.
        3    1    3    3  502    0 -0.83777089501E+02 -0.32045093800E+03  0.92722993858E+01  0.33135085653E+03  0.10100000352E+00 0.  1.
       -3    1    3    3    0  502  0.83777089501E+02  0.32045093800E+03 -0.14093645735E+04  0.14477623823E+04  0.10100000352E+00 0. -1.
</event>
<event>
 5   0  0.2438115E-03  0.1105030E+04  0.7818609E-02  0.9200303E-01
        2   -1    0    0  501    0  0.00000000000E+00  0.00000000000E+00  0.73664429326E+03  0.73664429327E+03  0.25500000920E-02 0. -1.
       -2   -1    0    0    0  501  0.00000000000E+00  0.00000000000E+00 -0.41441045487E+03  0.41441045488E+03  0.25500000920E-02 0.  1.
    10030    2    1    2    0    0  0.00000000000E+00  0.00000000000E+00  0.32223383839E+03  0.11510547481E+04  0.11050304913E+04 0.  0.
        4    1    3    3  502    0 -0.18658562081E+03  0.39286878536E+03  0.51606036690E+03  0.67489257781E+03  0.12699999809E+01 0. -1.
       -4    1    3    3    0  502  0.18658562081E+03 -0.39286878536E+03 -0.19382652850E+03  0.47616217033E+03  0.12699999809E+01 0.  1.
</event>
<event>
 5   0  0.1480937E-03  0.1102741E+04  0.7818609E-02  0.9202525E-01
        1   -1    0    0  501    0  0.00000000000E+00  0.00000000000E+00  0.94037606828E+03  0.94037606829E+03  0.50400001928E-02 0.  1.
       -1   -1    0    0    0  501  0.00000000000E+00  0.00000000000E+00 -0.32328477178E+03  0.32328477182E+03  0.50400001928E-02 0. -1.
    10030    2    1    2    0    0  0.00000000000E+00  0.00000000000E+00  0.61709129650E+03  0.12636608401E+04  0.11027406996E+04 0.  0.
        1    1    3    3  502    0 -0.12163871314E+02  0.37314544924E+03 -0.15640130246E+03  0.40478000629E+03  0.50400001928E-02 0. -1.
       -1    1    3    3    0  502  0.12163871314E+02 -0.37314544924E+03  0.77349259896E+03  0.85888083383E+03  0.50400001928E-02 0.  1.
</event>
<event>
 5   0  0.1480937E-03  0.1110986E+04  0.7818609E-02  0.9194550E-01
       -1   -1    0    0    0  501  0.00000000000E+00  0.00000000000E+00  0.43768352454E+03  0.43768352457E+03  0.50400001928E-02 0.  1.
        1   -1    0    0  501    0  0.00000000000E+00  0.00000000000E+00 -0.70501262540E+03  0.70501262541E+03  0.50400001928E-02 0. -1.
    10030    2    1    2    0    0  0.00000000000E+00  0.00000000000E+00 -0.26732910086E+03  0.11426961500E+04  0.11109858879E+04 0.  0.
        1    1    3    3  502    0 -0.31097397630E+03 -0.31162311055E+03 -0.48209404131E+03  0.65286173241E+03  0.50400001928E-02 0. -1.
       -1    1    3    3    0  502  0.31097397630E+03  0.31162311055E+03  0.21476494045E+03  0.48983441757E+03  0.50400001928E-02 0.  1.
</event>
<event>
 5   0  0.2438115E-03  0.1104256E+04  0.7818609E-02  0.9201053E-01
        2   -1    0    0  501    0  0.00000000000E+00  0.00000000000E+00  0.79701250293E+03  0.79701250293E+03  0.25500000920E-02 0.  1.
       -2   -1    0    0    0  501  0.00000000000E+00  0.00000000000E+00 -0.38248531577E+03  0.38248531578E+03  0.25500000920E-02 0. -1.
    10030    2    1    2    0    0  0.00000000000E+00  0.00000000000E+00  0.41452718715E+03  0.11794978187E+04  0.11042564537E+04 0.  0.
        4    1    3    3  502    0 -0.12184387829E+03  0.48167196020E+03 -0.49956174388E+02  0.49935061849E+03  0.12699999809E+01 0. -1.
       -4    1    3    3    0  502  0.12184387829E+03 -0.48167196020E+03  0.46448336154E+03  0.68014720022E+03  0.12699999809E+01 0.  1.
</event>
<event>
 5   0  0.2467448E-03  0.1099844E+04  0.7818609E-02  0.9205344E-01
        2   -1    0    0  501    0  0.00000000000E+00  0.00000000000E+00  0.64549894696E+03  0.64549894696E+03  0.25500000920E-02 0. -1.
       -2   -1    0    0    0  501  0.00000000000E+00  0.00000000000E+00 -0.46849686591E+03  0.46849686591E+03  0.25500000920E-02 0.  1.
    10030    2    1    2    0    0  0.00000000000E+00  0.00000000000E+00  0.17700208105E+03  0.11139958129E+04  0.10998440500E+04 0.  0.
        1    1    3    3  502    0  0.32347610947E+03 -0.17312019397E+03 -0.32641218331E+03  0.49107261011E+03  0.50400001928E-02 0.  1.
       -1    1    3    3    0  502 -0.32347610947E+03  0.17312019397E+03  0.50341426437E+03  0.62292320277E+03  0.50400001928E-02 0. -1.
</event>
<event>
 5   0  0.2488472E-03  0.1102096E+04  0.7818609E-02  0.9203151E-01
       -2   -1    0    0    0  501  0.00000000000E+00  0.00000000000E+00  0.79714384669E+03  0.79714384670E+03  0.25500000920E-02 0. -1.
        2   -1    0    0  501    0  0.00000000000E+00  0.00000000000E+00 -0.38092765578E+03  0.38092765579E+03  0.25500000920E-02 0.  1.
    10030    2    1    2    0    0  0.00000000000E+00  0.00000000000E+00  0.41621619091E+03  0.11780715025E+04  0.11020964329E+04 0.  0.
        2    1    3    3  502    0 -0.35288111767E+03  0.10284128566E+03 -0.23074578323E+03  0.43398736126E+03  0.25500000920E-02 0.  1.
       -2    1    3    3    0  502  0.35288111767E+03 -0.10284128566E+03  0.64696197414E+03  0.74408414123E+03  0.25500000920E-02 0. -1.
</event>
<event>
 5   0  0.2438115E-03  0.1101031E+04  0.7818609E-02  0.9204188E-01
       -2   -1    0    0    0  501  0.00000000000E+00  0.00000000000E+00  0.58665530681E+03  0.58665530682E+03  0.25500000920E-02 0.  1.
        2   -1    0    0  501    0  0.00000000000E+00  0.00000000000E+00 -0.51660169133E+03  0.51660169133E+03  0.25500000920E-02 0. -1.
    10030    2    1    2    0    0  0.00000000000E+00  0.00000000000E+00  0.70053615483E+02  0.11032569982E+04  0.11010306512E+04 0.  0.
        4    1    3    3  502    0 -0.34436026644E+03 -0.58129286449E+01  0.46536900814E+03  0.57895397907E+03  0.12699999809E+01 0.  1.
       -4    1    3    3    0  502  0.34436026644E+03  0.58129286449E+01 -0.39531539266E+03  0.52430301908E+03  0.12699999809E+01 0. -1.
</event>
<event>
 5   0  0.1480937E-03  0.1100948E+04  0.7818609E-02  0.9204269E-01
        1   -1    0    0  501    0  0.00000000000E+00  0.00000000000E+00  0.15583413850E+04  0.15583413850E+04  0.50400001928E-02 0. -1.
       -1   -1    0    0    0  501  0.00000000000E+00  0.00000000000E+00 -0.19445120200E+03  0.19445120206E+03  0.50400001928E-02 0.  1.
    10030    2    1    2    0    0  0.00000000000E+00  0.00000000000E+00  0.13638901830E+04  0.17527925870E+04  0.11009475110E+04 0.  0.
        1    1    3    3  502    0 -0.54171123306E+03 -0.12075188196E+02  0.52738664854E+03  0.75613064167E+03  0.50400001928E-02 0. -1.
       -1    1    3    3    0  502  0.54171123306E+03  0.12075188196E+02  0.83650353444E+03  0.99666194537E+03  0.50400001928E-02 0.  1.
</event>
<event>
 5   0  0.1509004E-03  0.1099906E+04  0.7818609E-02  0.9205284E-01
       -1   -1    0    0    0  501  0.00000000000E+00  0.00000000000E+00  0.28987584830E+03  0.28987584834E+03  0.50400001928E-02 0. -1.
        1   -1    0    0  501    0  0.00000000000E+00  0.00000000000E+00 -0.10433711212E+04  0.10433711212E+04  0.50400001928E-02 0.  1.
    10030    2    1    2    0    0  0.00000000000E+00  0.00000000000E+00 -0.75349527288E+03  0.13332469695E+04  0.10999056121E+04 0.  0.
        3    1    3    3  502    0  0.51763139679E+03  0.13478294772E+03 -0.53169096354E+03  0.75419095516E+03  0.10100000352E+00 0. -1.
       -3    1    3    3    0  502 -0.51763139679E+03 -0.13478294772E+03 -0.22180430934E+03  0.57905601437E+03  0.10100000352E+00 0.  1.
</event>
<event>
 5   0  0.2488472E-03  0.1098720E+04  0.7818609E-02  0.9206441E-01
        2   -1    0    0  501    0  0.00000000000E+00  0.00000000000E+00  0.93592441692E+03  0.93592441692E+03  0.25500000920E-02 0. -1.
       -2   -1    0    0    0  501  0.00000000000E+00  0.00000000000E+00 -0.32245794874E+03  0.32245794875E+03  0.25500000920E-02 0.  1.
    10030    2    1    2    0    0  0.00000000000E+00  0.00000000000E+00  0.61346646818E+03  0.12583823657E+04  0.10987197416E+04 0.  0.
        2    1    3    3  502    0 -0.17048691749E+02 -0.22075380572E+03  0.88255934280E+03  0.90990872850E+03  0.25500000920E-02 0. -1.
       -2    1    3    3    0  502  0.17048691749E+02  0.22075380572E+03 -0.26909287462E+03  0.34847363718E+03  0.25500000920E-02 0.  1.
</event>
<event>
 5   0  0.1415400E-03  0.1090070E+04  0.7818609E-02  0.9214925E-01
       -1   -1    0    0    0  501  0.00000000000E+00  0.00000000000E+00  0.44208456322E+03  0.44208456325E+03  0.50400001928E-02 0. -1.
        1   -1    0    0  501    0  0.00000000000E+00  0.00000000000E+00 -0.67195958826E+03  0.67195958827E+03  0.50400001928E-02 0.  1.
    10030    2    1    2    0    0  0.00000000000E+00  0.00000000000E+00 -0.22987502503E+03  0.11140441515E+04  0.10900696512E+04 0.  0.
        2    1    3    3  502    0 -0.12566423144E+03 -0.29345122644E+03  0.33654523111E+03  0.46386184791E+03  0.25500000920E-02 0. -1.
       -2    1    3    3    0  502  0.12566423144E+03  0.29345122644E+03 -0.56642025614E+03  0.65018230361E+03  0.25500000920E-02 0.  1.
</event>
<event>
 5   0  0.1415400E-03  0.1097615E+04  0.7818609E-02  0.9207520E-01
        1   -1    0    0  501    0  0.00000000000E+00  0.00000000000E+00  0.56865624056E+03  0.56865624058E+03  0.50400001928E-02 0. -1.
       -1   -1    0    0    0  501  0.00000000000E+00  0.00000000000E+00 -0.52965119730E+03  0.52965119733E+03  0.50400001928E-02 0.  1.
    10030    2    1    2    0    0  0.00000000000E+00  0.00000000000E+00  0.39005043261E+02  0.10983074379E+04  0.10976146112E+04 0.  0.
        2    1    3    3  502    0 -0.15087708927E+03  0.30066767223E+03 -0.41438911782E+03  0.53374458889E+03  0.25500000920E-02 0.  1.
       -2    1    3    3    0  502  0.15087708927E+03 -0.30066767223E+03  0.45339416108E+03  0.56456284902E+03  0.25500000920E-02 0. -1.
</event>
<event>
 5   0  0.1479573E-03  0.1096081E+04  0.7818609E-02  0.9209020E-01
        1   -1    0    0  501    0  0.00000000000E+00  0.00000000000E+00  0.52209358385E+03  0.52209358387E+03  0.50400001928E-02 0.  1.
       -1   -1    0    0    0  501  0.00000000000E+00  0.00000000000E+00 -0.57527672237E+03  0.57527672239E+03  0.50400001928E-02 0. -1.
    10030    2    1    2    0    0  0.00000000000E+00  0.00000000000E+00 -0.53183138525E+02  0.10973703063E+04  0.10960808104E+04 0.  0.
        4    1    3    3  502    0 -0.46807750713E+03  0.87226190453E+02 -0.29828088981E+03  0.56185234992E+03  0.12699999809E+01 0. -1.
       -4    1    3    3    0  502  0.46807750713E+03 -0.87226190453E+02  0.24509775128E+03  0.53551795635E+03  0.12699999809E+01 0.  1.
</event>
<event>
 5   0  0.2488472E-03  0.1122470E+04  0.7818609E-02  0.9183564E-01
       -2   -1    0    0    0  501  0.00000000000E+00  0.00000000000E+00  0.18984941367E+03  0.18984941369E+03  0.25500000920E-02 0.  1.
        2   -1    0    0  501    0  0.00000000000E+00  0.00000000000E+00 -0.16591290201E+04  0.16591290201E+04  0.25500000920E-02 0. -1.
    10030    2    1    2    0    0  0.00000000000E+00  0.00000000000E+00 -0.14692796065E+04  0.18489784338E+04  0.11224699046E+04 0.  0.
        2    1    3    3  502    0 -0.28038699345E+03 -0.48522955477E+03 -0.68467420822E+03  0.88478435696E+03  0.25500000920E-02 0.  1.
       -2    1    3    3    0  502  0.28038699345E+03  0.48522955477E+03 -0.78460539825E+03  0.96419407688E+03  0.25500000920E-02 0. -1.
</event>
<event>
 5   0  0.1480937E-03  0.1104832E+04  0.7818609E-02  0.9200495E-01
        1   -1    0    0  501    0  0.00000000000E+00  0.00000000000E+00  0.11568998153E+04  0.11568998153E+04  0.50400001928E-02 0.  1.
       -1   -1    0    0    0  501  0.00000000000E+00  0.00000000000E+00 -0.26377688889E+03  0.26377688894E+03  0.50400001928E-02 0. -1.
    10030    2    1    2    0    0  0.00000000000E+00  0.00000000000E+00  0.89312292644E+03  0.14206767043E+04  0.11048319946E+04 0.  0.
        1    1    3    3  502    0 -0.99658121921E+02 -0.39424212039E+03 -0.34233738999E+02  0.40808153556E+03  0.50400001928E-02 0. -1.
       -1    1    3    3    0  502  0.99658121921E+02  0.39424212039E+03  0.92735666543E+03  0.10125951687E+04  0.50400001928E-02 0.  1.
</event>
<event>
 5   0  0.2488472E-03  0.1086039E+04  0.7818609E-02  0.9218907E-01
       -2   -1    0    0    0  501  0.00000000000E+00  0.00000000000E+00  0.23994481966E+03  0.23994481968E+03  0.25500000920E-02 0.  1.
        2   -1    0    0  501    0  0.00000000000E+00  0.00000000000E+00 -0.12289092177E+04  0.12289092177E+04  0.25500000920E-02 0. -1.
    10030    2    1    2    0    0  0.00000000000E+00  0.00000000000E+00 -0.98896439806E+03  0.14688540374E+04  0.10860394111E+04 0.  0.
        2    1    3    3  502    0  0.94367062183E+02  0.10199566669E+03  0.21549243391E+03  0.25640836087E+03  0.25500000920E-02 0.  1.
       -2    1    3    3    0  502 -0.94367062183E+02 -0.10199566669E+03 -0.12044568320E+04  0.12124456765E+04  0.25500000920E-02 0. -1.
</event>
<event>
 5   0  0.2488472E-03  0.1100405E+04  0.7818609E-02  0.9204798E-01
       -2   -1    0    0    0  501  0.00000000000E+00  0.00000000000E+00  0.37797463280E+03  0.37797463281E+03  0.25500000920E-02 0.  1.
        2   -1    0    0  501    0  0.00000000000E+00  0.00000000000E+00 -0.80090707646E+03  0.80090707647E+03  0.25500000920E-02 0. -1.
    10030    2    1    2    0    0  0.00000000000E+00  0.00000000000E+00 -0.42293244366E+03  0.11788817093E+04  0.11004045768E+04 0.  0.
        2    1    3    3  502    0 -0.53511178500E+03  0.12564323918E+03 -0.18540630173E+03  0.58009166752E+03  0.25500000920E-02 0.  1.
       -2    1    3    3    0  502  0.53511178500E+03 -0.12564323918E+03 -0.23752614193E+03  0.59879004176E+03  0.25500000920E-02 0. -1.
</event>
<event>
 5   0  0.2488472E-03  0.1102420E+04  0.7818609E-02  0.9202836E-01
       -2   -1    0    0    0  501  0.00000000000E+00  0.00000000000E+00  0.46885852097E+03  0.46885852098E+03  0.25500000920E-02 0.  1.
        2   -1    0    0  501    0  0.00000000000E+00  0.00000000000E+00 -0.64802621177E+03  0.64802621178E+03  0.25500000920E-02 0. -1.
    10030    2    1    2    0    0  0.00000000000E+00  0.00000000000E+00 -0.17916769080E+03  0.11168847328E+04  0.11024202669E+04 0.  0.
        2    1    3    3  502    0 -0.21495408054E+03 -0.50113441052E+03 -0.79558840835E+01  0.54534782501E+03  0.25500000920E-02 0.  1.
       -2    1    3    3    0  502  0.21495408054E+03  0.50113441052E+03 -0.17121180672E+03  0.57153690775E+03  0.25500000920E-02 0. -1.
</event>
<event>
 5   0  0.2467448E-03  0.1102476E+04  0.7818609E-02  0.9202782E-01
       -2   -1    0    0    0  501  0.00000000000E+00  0.00000000000E+00  0.95861749964E+03  0.95861749965E+03  0.25500000920E-02 0.  1.
        2   -1    0    0  501    0  0.00000000000E+00  0.00000000000E+00 -0.31698094484E+03  0.31698094485E+03  0.25500000920E-02 0. -1.
    10030    2    1    2    0    0  0.00000000000E+00  0.00000000000E+00  0.64163655480E+03  0.12755984445E+04  0.11024762687E+04 0.  0.
        1    1    3    3  502    0  0.31102215900E+02  0.21724371914E+03  0.90589281575E+03  0.93209654811E+03  0.50400001928E-02 0.  1.
       -1    1    3    3    0  502 -0.31102215900E+02 -0.21724371914E+03 -0.26425626095E+03  0.34350189638E+03  0.50400001928E-02 0. -1.
</event>
<event>
 5   0  0.1415400E-03  0.1132145E+04  0.7818609E-02  0.9174415E-01
        1   -1    0    0  501    0  0.00000000000E+00  0.00000000000E+00  0.14750655919E+04  0.14750655919E+04  0.50400001928E-02 0. -1.
       -1   -1    0    0    0  501  0.00000000000E+00  0.00000000000E+00 -0.21723645257E+03  0.21723645263E+03  0.50400001928E-02 0.  1.
    10030    2    1    2    0    0  0.00000000000E+00  0.00000000000E+00  0.12578291393E+04  0.16923020445E+04  0.11321448963E+04 0.  0.
        2    1    3    3  502    0 -0.44933206032E+03  0.26423429716E+03  0.29898226842E+03  0.60092383965E+03  0.25500000920E-02 0.  1.
       -2    1    3    3    0  502  0.44933206032E+03 -0.26423429716E+03  0.95884687092E+03  0.10913782049E+04  0.25500000920E-02 0. -1.
</event>
<event>
 5   0  0.2438115E-03  0.1082401E+04  0.7818609E-02  0.9222517E-01
        2   -1    0    0  501    0  0.00000000000E+00  0.00000000000E+00  0.43808231143E+03  0.43808231144E+03  0.25500000920E-02 0. -1.
       -2   -1    0    0    0  501  0.00000000000E+00  0.00000000000E+00 -0.66859140643E+03  0.66859140643E+03  0.25500000920E-02 0.  1.
    10030    2    1    2    0    0  0.00000000000E+00  0.00000000000E+00 -0.23050909500E+03  0.11066737179E+04  0.10824011617E+04 0.  0.
        4    1    3    3  502    0 -0.14350791246E+03  0.48618568778E+03 -0.30904493204E+03  0.59370146274E+03  0.12699999809E+01 0.  1.
       -4    1    3    3    0  502  0.14350791246E+03 -0.48618568778E+03  0.78535837042E+02  0.51297225514E+03  0.12699999809E+01 0. -1.
</event>
<event>
 5   0  0.2392585E-03  0.1086164E+04  0.7818609E-02  0.9218783E-01
       -2   -1    0    0    0  501  0.00000000000E+00  0.00000000000E+00  0.14470131166E+03  0.14470131168E+03  0.25500000920E-02 0.  1.
        2   -1    0    0  501    0  0.00000000000E+00  0.00000000000E+00 -0.20382546225E+04  0.20382546225E+04  0.25500000920E-02 0. -1.
    10030    2    1    2    0    0  0.00000000000E+00  0.00000000000E+00 -0.18935533108E+04  0.21829559341E+04  0.10861641080E+04 0.  0.
        5    1    3    3  502    0  0.48217322258E+03  0.24944521212E+03 -0.97534791721E+03  0.11162614300E+04  0.46999998093E+01 0. -1.
       -5    1    3    3    0  502 -0.48217322258E+03 -0.24944521212E+03 -0.91820539360E+03  0.10666945042E+04  0.46999998093E+01 0.  1.
</event>
<event>
 5   0  0.1509004E-03  0.1096762E+04  0.7818609E-02  0.9208353E-01
       -1   -1    0    0    0  501  0.00000000000E+00  0.00000000000E+00  0.13050023581E+03  0.13050023591E+03  0.50400001928E-02 0. -1.
        1   -1    0    0  501    0  0.00000000000E+00  0.00000000000E+00 -0.23043774643E+04  0.23043774643E+04  0.50400001928E-02 0.  1.
    10030    2    1    2    0    0  0.00000000000E+00  0.00000000000E+00 -0.21738772285E+04  0.24348777002E+04  0.10967621485E+04 0.  0.
        3    1    3    3  502    0 -0.99321800036E+02  0.36682275849E+03 -0.20924798944E+03  0.43383002131E+03  0.10100000352E+00 0. -1.
       -3    1    3    3    0  502  0.99321800036E+02 -0.36682275849E+03 -0.19646292391E+04  0.20010476789E+04  0.10100000352E+00 0.  1.
</event>
<event>
 5   0  0.2392585E-03  0.1101272E+04  0.7818609E-02  0.9203953E-01
       -2   -1    0    0    0  501  0.00000000000E+00  0.00000000000E+00  0.43588092666E+03  0.43588092667E+03  0.25500000920E-02 0. -1.
        2   -1    0    0  501    0  0.00000000000E+00  0.00000000000E+00 -0.69560287778E+03  0.69560287779E+03  0.25500000920E-02 0.  1.
    10030    2    1    2    0    0  0.00000000000E+00  0.00000000000E+00 -0.25972195112E+03  0.11314838045E+04  0.11012720408E+04 0.  0.
        5    1    3    3  502    0 -0.43009989355E+02  0.47812231387E+03 -0.40693891907E+03  0.62934265711E+03  0.46999998093E+01 0.  1.
       -5    1    3    3    0  502  0.43009989355E+02 -0.47812231387E+03  0.14721696795E+03  0.50214114735E+03  0.46999998093E+01 0. -1.
</event>
<event>
 5   0  0.1468556E-03  0.1120292E+04  0.7818609E-02  0.9185636E-01
        1   -1    0    0  501    0  0.00000000000E+00  0.00000000000E+00  0.23015216369E+03  0.23015216375E+03  0.50400001928E-02 0. -1.
       -1   -1    0    0    0  501  0.00000000000E+00  0.00000000000E+00 -0.13632881521E+04  0.13632881521E+04  0.50400001928E-02 0.  1.
    10030    2    1    2    0    0  0.00000000000E+00  0.00000000000E+00 -0.11331359884E+04  0.15934403158E+04  0.11202923154E+04 0.  0.
        5    1    3    3  502    0 -0.33695500431E+03  0.63950759384E+02 -0.11964481357E+04  0.12446439676E+04  0.46999998093E+01 0.  1.
       -5    1    3    3    0  502  0.33695500431E+03 -0.63950759384E+02  0.63312147342E+02  0.34879634826E+03  0.46999998093E+01 0. -1.
</event>
<event>
 5   0  0.2392585E-03  0.1098441E+04  0.7818609E-02  0.9206713E-01
        2   -1    0    0  501    0  0.00000000000E+00  0.00000000000E+00  0.77664275437E+03  0.77664275437E+03  0.25500000920E-02 0.  1.
       -2   -1    0    0    0  501  0.00000000000E+00  0.00000000000E+00 -0.38839381304E+03  0.38839381305E+03  0.25500000920E-02 0. -1.
    10030    2    1    2    0    0  0.00000000000E+00  0.00000000000E+00  0.38824894133E+03  0.11650365674E+04  0.10984411514E+04 0.  0.
        5    1    3    3  502    0 -0.50695902584E+02 -0.54010351480E+03  0.28498791182E+03  0.61279856488E+03  0.46999998093E+01 0.  1.
       -5    1    3    3    0  502  0.50695902584E+02  0.54010351480E+03  0.10326102951E+03  0.55223800254E+03  0.46999998093E+01 0. -1.
</event>
<event>
 5   0  0.2488472E-03  0.1022195E+04  0.7818609E-02  0.9284532E-01
       -2   -1    0    0    0  501  0.00000000000E+00  0.00000000000E+00  0.84713955911E+03  0.84713955911E+03  0.25500000920E-02 0.  1.
        2   -1    0    0  501    0  0.00000000000E+00  0.00000000000E+00 -0.30835592325E+03  0.30835592326E+03  0.25500000920E-02 0. -1.
    10030    2    1    2    0    0  0.00000000000E+00  0.00000000000E+00  0.53878363586E+03  0.11554954824E+04  0.10221946994E+04 0.  0.
        2    1    3    3  502    0 -0.46602343354E+03  0.86733010005E+02  0.48541496101E+03  0.67847486322E+03  0.25500000920E-02 0.  1.
       -2    1    3    3    0  502  0.46602343354E+03 -0.86733010005E+02  0.53368674851E+02  0.47702061916E+03  0.25500000920E-02 0. -1.
</event>
<event>
 5   0  0.1480937E-03  0.1102138E+04  0.7818609E-02  0.9203111E-01
        1   -1    0    0  501    0  0.00000000000E+00  0.00000000000E+00  0.66235969510E+03  0.66235969512E+03  0.50400001928E-02 0. -1.
       -1   -1    0    0    0  501  0.00000000000E+00  0.00000000000E+00 -0.45847735753E+03  0.45847735756E+03  0.50400001928E-02 0.  1.
    10030    2    1    2    0    0  0.00000000000E+00  0.00000000000E+00  0.20388233757E+03  0.11208370527E+04  0.11021377823E+04 0.  0.
        1    1    3    3  502    0  0.43184214564E+03 -0.12548052014E+03 -0.22196528906E+03  0.50149934123E+03  0.50400001928E-02 0.  1.
       -1    1    3    3    0  502 -0.43184214564E+03  0.12548052014E+03  0.42584762663E+03  0.61933771145E+03  0.50400001928E-02 0. -1.
</event>
<event>
 5   0  0.1480937E-03  0.1100776E+04  0.7818609E-02  0.9204436E-01
        1   -1    0    0  501    0  0.00000000000E+00  0.00000000000E+00  0.97462466922E+03  0.97462466923E+03  0.50400001928E-02 0.  1.
       -1   -1    0    0    0  501  0.00000000000E+00  0.00000000000E+00 -0.31081385906E+03  0.31081385910E+03  0.50400001928E-02 0. -1.
    10030    2    1    2    0    0  0.00000000000E+00  0.00000000000E+00  0.66381081015E+03  0.12854385283E+04  0.11007758257E+04 0.  0.
        1    1    3    3  502    0 -0.33595923924E+02 -0.35900067978E+03  0.81749667937E+03  0.89348250962E+03  0.50400001928E-02 0.  1.
       -1    1    3    3    0  502  0.33595923924E+02  0.35900067978E+03 -0.15368586922E+03  0.39195601872E+03  0.50400001928E-02 0. -1.
</event>
<event>
 5   0  0.2438115E-03  0.1166994E+04  0.7818609E-02  0.9142248E-01
        2   -1    0    0  501    0  0.00000000000E+00  0.00000000000E+00  0.18303079881E+04  0.18303079881E+04  0.25500000920E-02 0. -1.
       -2   -1    0    0    0  501  0.00000000000E+00  0.00000000000E+00 -0.18601710727E+03  0.18601710729E+03  0.25500000920E-02 0.  1.
    10030    2    1    2    0    0  0.00000000000E+00  0.00000000000E+00  0.16442908809E+04  0.20163250954E+04  0.11669937402E+04 0.  0.
        4    1    3    3  502    0  0.34636305500E+03  0.43603155480E+03  0.52101264961E+03  0.76259207746E+03  0.12699999809E+01 0. -1.
       -4    1    3    3    0  502 -0.34636305500E+03 -0.43603155480E+03  0.11232782312E+04  0.12537330180E+04  0.12699999809E+01 0.  1.
</event>
<event>
 5   0  0.2438115E-03  0.1099126E+04  0.7818609E-02  0.9206044E-01
        2   -1    0    0  501    0  0.00000000000E+00  0.00000000000E+00  0.55213554425E+03  0.55213554425E+03  0.25500000920E-02 0.  1.
       -2   -1    0    0    0  501  0.00000000000E+00  0.00000000000E+00 -0.54700227907E+03  0.54700227908E+03  0.25500000920E-02 0. -1.
    10030    2    1    2    0    0  0.00000000000E+00  0.00000000000E+00  0.51332651766E+01  0.10991378233E+04  0.10991258364E+04 0.  0.
        4    1    3    3  502    0  0.80844914477E+01 -0.33814461638E+03 -0.43057853905E+03  0.54754600883E+03  0.12699999809E+01 0. -1.
       -4    1    3    3    0  502 -0.80844914477E+01  0.33814461638E+03  0.43571180423E+03  0.55159181451E+03  0.12699999809E+01 0.  1.
</event>
<event>
 5   0  0.2467448E-03  0.1103828E+04  0.7818609E-02  0.9201469E-01
       -2   -1    0    0    0  501  0.00000000000E+00  0.00000000000E+00  0.17547577402E+03  0.17547577404E+03  0.25500000920E-02 0.  1.
        2   -1    0    0  501    0  0.00000000000E+00  0.00000000000E+00 -0.17359023279E+04  0.17359023279E+04  0.25500000920E-02 0. -1.
    10030    2    1    2    0    0  0.00000000000E+00  0.00000000000E+00 -0.15604265539E+04  0.19113781020E+04  0.11038275312E+04 0.  0.
        1    1    3    3  502    0 -0.35786129082E+03 -0.91534909069E+02 -0.70122640137E+02  0.37597942461E+03  0.50400001928E-02 0.  1.
       -1    1    3    3    0  502  0.35786129082E+03  0.91534909069E+02 -0.14903039138E+04  0.15353986774E+04  0.50400001928E-02 0. -1.
</event>
<event>
 5   0  0.2392585E-03  0.1103486E+04  0.7818609E-02  0.9201801E-01
       -2   -1    0    0    0  501  0.00000000000E+00  0.00000000000E+00  0.60584896098E+03  0.60584896099E+03  0.25500000920E-02 0.  1.
        2   -1    0    0  501    0  0.00000000000E+00  0.00000000000E+00 -0.50246912527E+03  0.50246912528E+03  0.25500000920E-02 0. -1.
    10030    2    1    2    0    0  0.00000000000E+00  0.00000000000E+00  0.10337983571E+03  0.11083180863E+04  0.11034861077E+04 0.  0.
        5    1    3    3  502    0  0.11310229554E+03 -0.49576800904E+03 -0.16330407344E+03  0.53410519418E+03  0.46999998093E+01 0.  1.
       -5    1    3    3    0  502 -0.11310229554E+03  0.49576800904E+03  0.26668390915E+03  0.57421289209E+03  0.46999998093E+01 0. -1.
</event>
<event>
 5   0  0.1509004E-03  0.1115764E+04  0.7818609E-02  0.9189962E-01
        1   -1    0    0  501    0  0.00000000000E+00  0.00000000000E+00  0.15740731949E+04  0.15740731949E+04  0.50400001928E-02 0.  1.
       -1   -1    0    0    0  501  0.00000000000E+00  0.00000000000E+00 -0.19772406918E+03  0.19772406924E+03  0.50400001928E-02 0. -1.
    10030    2    1    2    0    0  0.00000000000E+00  0.00000000000E+00  0.13763491257E+04  0.17717972641E+04  0.11157636978E+04 0.  0.
        3    1    3    3  502    0 -0.35099084679E+03 -0.42822855594E+03  0.79655122794E+03  0.97008666602E+03  0.10100000352E+00 0. -1.
       -3    1    3    3    0  502  0.35099084679E+03  0.42822855594E+03  0.57979789775E+03  0.80171059809E+03  0.10100000352E+00 0.  1.
</event>
<event>
 5   0  0.1480937E-03  0.1087532E+04  0.7818609E-02  0.9217430E-01
       -1   -1    0    0    0  501  0.00000000000E+00  0.00000000000E+00  0.49583121017E+03  0.49583121019E+03  0.50400001928E-02 0.  1.
        1   -1    0    0  501    0  0.00000000000E+00  0.00000000000E+00 -0.59633489873E+03  0.59633489875E+03  0.50400001928E-02 0. -1.
    10030    2    1    2    0    0  0.00000000000E+00  0.00000000000E+00 -0.10050368856E+03  0.10921661089E+04  0.10875319849E+04 0.  0.
        1    1    3    3  502    0 -0.15087556551E+02 -0.30990529907E+03 -0.49871097865E+03  0.58735131651E+03  0.50400001928E-02 0. -1.
       -1    1    3    3    0  502  0.15087556551E+02  0.30990529907E+03  0.39820729009E+03  0.50481479243E+03  0.50400001928E-02 0.  1.
</event>
<event>
 5   0  0.2488472E-03  0.1094324E+04  0.7818609E-02  0.9210742E-01
        2   -1    0    0  501    0  0.00000000000E+00  0.00000000000E+00  0.72462961772E+03  0.72462961772E+03  0.25500000920E-02 0. -1.
       -2   -1    0    0    0  501  0.00000000000E+00  0.00000000000E+00 -0.41315754664E+03  0.41315754664E+03  0.25500000920E-02 0.  1.
    10030    2    1    2    0    0  0.00000000000E+00  0.00000000000E+00  0.31147207108E+03  0.11377871644E+04  0.10943238919E+04 0.  0.
        2    1    3    3  502    0  0.11679850249E+03 -0.28771326269E+03  0.62414601131E+03  0.69712198011E+03  0.25500000920E-02 0. -1.
       -2    1    3    3    0  502 -0.11679850249E+03  0.28771326269E+03 -0.31267394023E+03  0.44066518426E+03  0.25500000920E-02 0.  1.
</event>
<event>
 5   0  0.1468556E-03  0.1100505E+04  0.7818609E-02  0.9204700E-01
        1   -1    0    0  501    0  0.00000000000E+00  0.00000000000E+00  0.21619101700E+03  0.21619101706E+03  0.50400001928E-02 0. -1.
       -1   -1    0    0    0  501  0.00000000000E+00  0.00000000000E+00 -0.14005104550E+04  0.14005104550E+04  0.50400001928E-02 0.  1.
    10030    2    1    2    0    0  0.00000000000E+00  0.00000000000E+00 -0.11843194380E+04  0.16167014720E+04  0.11005049380E+04 0.  0.
        5    1    3    3  502    0  0.35873634185E+03  0.38009711714E+03 -0.84486313627E+03  0.99346937066E+03  0.46999998093E+01 0.  1.
       -5    1    3    3    0  502 -0.35873634185E+03 -0.38009711714E+03 -0.33945630170E+03  0.62323210138E+03  0.46999998093E+01 0. -1.
</event>
<event>
 5   0  0.1480937E-03  0.1107277E+04  0.7818609E-02  0.9198128E-01
        1   -1    0    0  501    0  0.00000000000E+00  0.00000000000E+00  0.13392217144E+04  0.13392217145E+04  0.50400001928E-02 0. -1.
       -1   -1    0    0    0  501  0.00000000000E+00  0.00000000000E+00 -0.22887594617E+03  0.22887594622E+03  0.50400001928E-02 0.  1.
    10030    2    1    2    0    0  0.00000000000E+00  0.00000000000E+00  0.11103457683E+04  0.15680976607E+04  0.11072770874E+04 0.  0.
        1    1    3    3  502    0 -0.42635696765E+02 -0.55174000864E+03  0.57890373100E+03  0.80085227699E+03  0.50400001928E-02 0.  1.
       -1    1    3    3    0  502  0.42635696765E+02  0.55174000864E+03  0.53144203728E+03  0.76724538368E+03  0.50400001928E-02 0. -1.
</event>
<event>
 5   0  0.1415400E-03  0.1099434E+04  0.7818609E-02  0.9205744E-01
        1   -1    0    0  501    0  0.00000000000E+00  0.00000000000E+00  0.94649870789E+03  0.94649870790E+03  0.50400001928E-02 0. -1.
       -1   -1    0    0    0  501  0.00000000000E+00  0.00000000000E+00 -0.31927015666E+03  0.31927015670E+03  0.50400001928E-02 0.  1.
    10030    2    1    2    0    0  0.00000000000E+00  0.00000000000E+00  0.62722855124E+03  0.12657688646E+04  0.10994340194E+04 0.  0.
        2    1    3    3  502    0 -0.41287692397E+03 -0.21294260854E+03 -0.24749606330E+02  0.46521441497E+03  0.25500000920E-02 0.  1.
       -2    1    3    3    0  502  0.41287692397E+03  0.21294260854E+03  0.65197815757E+03  0.80055444963E+03  0.25500000920E-02 0. -1.
</event>
<event>
 5   0  0.2488472E-03  0.1095252E+04  0.7818609E-02  0.9209832E-01
        2   -1    0    0  501    0  0.00000000000E+00  0.00000000000E+00  0.12769633682E+04  0.12769633682E+04  0.25500000920E-02 0. -1.
       -2   -1    0    0    0  501  0.00000000000E+00  0.00000000000E+00 -0.23484942576E+03  0.23484942578E+03  0.25500000920E-02 0.  1.
    10030    2    1    2    0    0  0.00000000000E+00  0.00000000000E+00  0.10421139424E+04  0.15118127939E+04  0.10952517770E+04 0.  0.
        2    1    3    3  502    0 -0.45811800106E+03  0.28423952782E+03  0.65366889853E+03  0.84731767418E+03  0.25500000920E-02 0. -1.
       -2    1    3    3    0  502  0.45811800106E+03 -0.28423952782E+03  0.38844504386E+03  0.66449511976E+03  0.25500000920E-02 0.  1.
</event>
<event>
 5   0  0.2483036E-03  0.1097624E+04  0.7818609E-02  0.9207511E-01
        2   -1    0    0  501    0  0.00000000000E+00  0.00000000000E+00  0.92712360903E+03  0.92712360904E+03  0.25500000920E-02 0. -1.
       -2   -1    0    0    0  501  0.00000000000E+00  0.00000000000E+00 -0.32486984876E+03  0.32486984877E+03  0.25500000920E-02 0.  1.
    10030    2    1    2    0    0  0.00000000000E+00  0.00000000000E+00  0.60225376028E+03  0.12519934578E+04  0.10976238092E+04 0.  0.
        3    1    3    3  502    0  0.93605144538E+02  0.36769638294E+03  0.75341890664E+03  0.84356541667E+03  0.10100000352E+00 0.  1.
       -3    1    3    3    0  502 -0.93605144538E+02 -0.36769638294E+03 -0.15116514636E+03  0.40842804114E+03  0.10100000352E+00 0. -1.
</event>
<event>
 5   0  0.1468556E-03  0.1083264E+04  0.7818609E-02  0.9221659E-01
        1   -1    0    0  501    0  0.00000000000E+00  0.00000000000E+00  0.62923330790E+03  0.62923330792E+03  0.50400001928E-02 0.  1.
       -1   -1    0    0    0  501  0.00000000000E+00  0.00000000000E+00 -0.46622617889E+03  0.46622617892E+03  0.50400001928E-02 0. -1.
    10030    2    1    2    0    0  0.00000000000E+00  0.00000000000E+00  0.16300712900E+03  0.10954594868E+04  0.10832636628E+04 0.  0.
        5    1    3    3  502    0 -0.52184722059E+03 -0.15444162890E+02  0.22727886494E+03  0.56942147505E+03  0.46999998093E+01 0.  1.
       -5    1    3    3    0  502  0.52184722059E+03  0.15444162890E+02 -0.64271735935E+02  0.52603801179E+03  0.46999998093E+01 0. -1.
</event>
<event>
 5   0  0.1480937E-03  0.1154082E+04  0.7818609E-02  0.9154026E-01
        1   -1    0    0  501    0  0.00000000000E+00  0.00000000000E+00  0.29777932721E+03  0.29777932725E+03  0.50400001928E-02 0.  1.
       -1   -1    0    0    0  501  0.00000000000E+00  0.00000000000E+00 -0.11181977125E+04  0.11181977125E+04  0.50400001928E-02 0. -1.
    10030    2    1    2    0    0  0.00000000000E+00  0.00000000000E+00 -0.82041838530E+03  0.14159770398E+04  0.11540817346E+04 0.  0.
        1    1    3    3  502    0  0.10573626452E+03  0.45623125933E+03  0.34117642340E+01  0.46833616109E+03  0.50400001928E-02 0.  1.
       -1    1    3    3    0  502 -0.10573626452E+03 -0.45623125933E+03 -0.82383014954E+03  0.94764087867E+03  0.50400001928E-02 0. -1.
</event>
<event>
 5   0  0.1509004E-03  0.1100830E+04  0.7818609E-02  0.9204383E-01
        1   -1    0    0  501    0  0.00000000000E+00  0.00000000000E+00  0.12808471781E+04  0.12808471781E+04  0.50400001928E-02 0. -1.
       -1   -1    0    0    0  501  0.00000000000E+00  0.00000000000E+00 -0.23652842520E+03  0.23652842526E+03  0.50400001928E-02 0.  1.
    10030    2    1    2    0    0  0.00000000000E+00  0.00000000000E+00  0.10443187529E+04  0.15173756033E+04  0.11008301704E+04 0.  0.
        3    1    3    3  502    0 -0.29193942610E+03 -0.34347247614E+03  0.95751047308E+03  0.10583138885E+04  0.10100000352E+00 0. -1.
       -3    1    3    3    0  502  0.29193942610E+03  0.34347247614E+03  0.86808279796E+02  0.45906171483E+03  0.10100000352E+00 0.  1.
</event>
<event>
 5   0  0.2392585E-03  0.1095304E+04  0.7818609E-02  0.9209781E-01
        2   -1    0    0  501    0  0.00000000000E+00  0.00000000000E+00  0.11455965018E+04  0.11455965018E+04  0.25500000920E-02 0. -1.
       -2   -1    0    0    0  501  0.00000000000E+00  0.00000000000E+00 -0.26180492065E+03  0.26180492066E+03  0.25500000920E-02 0.  1.
    10030    2    1    2    0    0  0.00000000000E+00  0.00000000000E+00  0.88379158114E+03  0.14074014225E+04  0.10953041610E+04 0.  0.
        5    1    3    3  502    0  0.38072723125E+03 -0.30762317123E+03  0.12632440950E+03  0.50553455523E+03  0.46999998093E+01 0.  1.
       -5    1    3    3    0  502 -0.38072723125E+03  0.30762317123E+03  0.75746717164E+03  0.90186686723E+03  0.46999998093E+01 0. -1.
</event>
<event>
 5   0  0.9631750E-04  0.1097549E+04  0.7818609E-02  0.9207584E-01
       -3   -1    0    0    0  501  0.00000000000E+00  0.00000000000E+00  0.10686794329E+04  0.10686794376E+04  0.10100000352E+00 0. -1.
        3   -1    0    0  501    0  0.00000000000E+00  0.00000000000E+00 -0.28179971718E+03  0.28179973528E+03  0.10100000352E+00 0.  1.
    10030    2    1    2    0    0  0.00000000000E+00  0.00000000000E+00  0.78687971567E+03  0.13504791729E+04  0.10975492288E+04 0.  0.
        2    1    3    3  502    0 -0.12200401820E+03 -0.40418305820E+03  0.82480797556E+03  0.92658357504E+03  0.25500000920E-02 0.  1.
       -2    1    3    3    0  502  0.12200401820E+03  0.40418305820E+03 -0.37928259886E+02  0.42389559787E+03  0.25500000920E-02 0. -1.
</event>
<event>
 5   0  0.2488472E-03  0.1106611E+04  0.7818609E-02  0.9198772E-01
       -2   -1    0    0    0  501  0.00000000000E+00  0.00000000000E+00  0.18843658900E+03  0.18843658901E+03  0.25500000920E-02 0.  1.
        2   -1    0    0  501    0  0.00000000000E+00  0.00000000000E+00 -0.16246696340E+04  0.16246696340E+04  0.25500000920E-02 0. -1.
    10030    2    1    2    0    0  0.00000000000E+00  0.00000000000E+00 -0.14362330450E+04  0.18131062231E+04  0.11066114117E+04 0.  0.
        2    1    3    3  502    0  0.24007498672E+03  0.31808813303E+03 -0.89225514303E+02  0.40838370686E+03  0.25500000920E-02 0.  1.
       -2    1    3    3    0  502 -0.24007498672E+03 -0.31808813303E+03 -0.13470075307E+04  0.14047225162E+04  0.25500000920E-02 0. -1.
</event>
<event>
 5   0  0.2488472E-03  0.1101421E+04  0.7818609E-02  0.9203808E-01
       -2   -1    0    0    0  501  0.00000000000E+00  0.00000000000E+00  0.33761598871E+03  0.33761598872E+03  0.25500000920E-02 0. -1.
        2   -1    0    0  501    0  0.00000000000E+00  0.00000000000E+00 -0.89830445313E+03  0.89830445313E+03  0.25500000920E-02 0.  1.
    10030    2    1    2    0    0  0.00000000000E+00  0.00000000000E+00 -0.56068846442E+03  0.12359204418E+04  0.11014208026E+04 0.  0.
        2    1    3    3  502    0  0.39093051339E+03  0.38757045983E+03 -0.26280121625E+03  0.61000164500E+03  0.25500000920E-02 0.  1.
       -2    1    3    3    0  502 -0.39093051339E+03 -0.38757045983E+03 -0.29788724817E+03  0.62591879685E+03  0.25500000920E-02 0. -1.
</event>
<event>
 5   0  0.2392585E-03  0.1095647E+04  0.7818609E-02  0.9209445E-01
       -2   -1    0    0    0  501  0.00000000000E+00  0.00000000000E+00  0.11464766218E+04  0.11464766218E+04  0.25500000920E-02 0.  1.
        2   -1    0    0  501    0  0.00000000000E+00  0.00000000000E+00 -0.26176762106E+03  0.26176762107E+03  0.25500000920E-02 0. -1.
    10030    2    1    2    0    0  0.00000000000E+00  0.00000000000E+00  0.88470900076E+03  0.14082442429E+04  0.10956467641E+04 0.  0.
        5    1    3    3  502    0 -0.23413878004E+03  0.20996109317E+03 -0.13415153948E+03  0.34194057160E+03  0.46999998093E+01 0. -1.
       -5    1    3    3    0  502  0.23413878004E+03 -0.20996109317E+03  0.10188605402E+04  0.10663036713E+04  0.46999998093E+01 0.  1.
</event>
<event>
 5   0  0.2467448E-03  0.1048569E+04  0.7818609E-02  0.9256823E-01
        2   -1    0    0  501    0  0.00000000000E+00  0.00000000000E+00  0.16830543710E+04  0.16830543710E+04  0.25500000920E-02 0. -1.
       -2   -1    0    0    0  501  0.00000000000E+00  0.00000000000E+00 -0.16331860405E+03  0.16331860407E+03  0.25500000920E-02 0.  1.
    10030    2    1    2    0    0  0.00000000000E+00  0.00000000000E+00  0.15197357669E+04  0.18463729751E+04  0.10485687206E+04 0.  0.
        1    1    3    3  502    0  0.55301767327E+02  0.38461267901E+03  0.13796495438E+04  0.14333241302E+04  0.50400001928E-02 0. -1.
       -1    1    3    3    0  502 -0.55301767327E+02 -0.38461267901E+03  0.14008622309E+03  0.41304884487E+03  0.50400001928E-02 0.  1.
</event>
<event>
 5   0  0.2488472E-03  0.1034776E+04  0.7818609E-02  0.9271204E-01
       -2   -1    0    0    0  501  0.00000000000E+00  0.00000000000E+00  0.31008158130E+03  0.31008158131E+03  0.25500000920E-02 0.  1.
        2   -1    0    0  501    0  0.00000000000E+00  0.00000000000E+00 -0.86329065961E+03  0.86329065961E+03  0.25500000920E-02 0. -1.
    10030    2    1    2    0    0  0.00000000000E+00  0.00000000000E+00 -0.55320907831E+03  0.11733722409E+04  0.10347763678E+04 0.  0.
        2    1    3    3  502    0  0.38902089576E+02  0.41060385595E+03  0.77615682454E+02  0.41968213360E+03  0.25500000920E-02 0.  1.
       -2    1    3    3    0  502 -0.38902089576E+02 -0.41060385595E+03 -0.63082476076E+03  0.75369010733E+03  0.25500000920E-02 0. -1.
</event>
<event>
 5   0  0.2467448E-03  0.1096886E+04  0.7818609E-02  0.9208232E-01
        2   -1    0    0  501    0  0.00000000000E+00  0.00000000000E+00  0.14632353450E+04  0.14632353450E+04  0.25500000920E-02 0. -1.
       -2   -1    0    0    0  501  0.00000000000E+00  0.00000000000E+00 -0.20556477766E+03  0.20556477767E+03  0.25500000920E-02 0.  1.
    10030    2    1    2    0    0  0.00000000000E+00  0.00000000000E+00  0.12576705673E+04  0.16688001227E+04  0.10968858616E+04 0.  0.
        1    1    3    3  502    0  0.14719463722E+03  0.31047762568E+03 -0.21510431610E+02  0.34427505859E+03  0.50400001928E-02 0.  1.
       -1    1    3    3    0  502 -0.14719463722E+03 -0.31047762568E+03  0.12791809990E+04  0.13245250641E+04  0.50400001928E-02 0. -1.
</event>
<event>
 5   0  0.1415400E-03  0.1102515E+04  0.7818609E-02  0.9202744E-01
        1   -1    0    0  501    0  0.00000000000E+00  0.00000000000E+00  0.13561051238E+04  0.13561051238E+04  0.50400001928E-02 0.  1.
       -1   -1    0    0    0  501  0.00000000000E+00  0.00000000000E+00 -0.22408639528E+03  0.22408639533E+03  0.50400001928E-02 0. -1.
    10030    2    1    2    0    0  0.00000000000E+00  0.00000000000E+00  0.11320187285E+04  0.15801915191E+04  0.11025147779E+04 0.  0.
        2    1    3    3  502    0  0.43446462976E+03 -0.16218205912E+03  0.99316486825E+03  0.10961017244E+04  0.25500000920E-02 0.  1.
       -2    1    3    3    0  502 -0.43446462976E+03  0.16218205912E+03  0.13885386027E+03  0.48408979470E+03  0.25500000920E-02 0. -1.
</event>
<event>
 5   0  0.1479573E-03  0.1079121E+04  0.7818609E-02  0.9225784E-01
        1   -1    0    0  501    0  0.00000000000E+00  0.00000000000E+00  0.11322755607E+04  0.11322755607E+04  0.50400001928E-02 0. -1.
       -1   -1    0    0    0  501  0.00000000000E+00  0.00000000000E+00 -0.25711555265E+03  0.25711555270E+03  0.50400001928E-02 0.  1.
    10030    2    1    2    0    0  0.00000000000E+00  0.00000000000E+00  0.87516000808E+03  0.13893911134E+04  0.10791212288E+04 0.  0.
        4    1    3    3  502    0 -0.63705033309E+02  0.34639435444E+03  0.96385432278E+03  0.10261891388E+04  0.12699999809E+01 0. -1.
       -4    1    3    3    0  502  0.63705033309E+02 -0.34639435444E+03 -0.88694314704E+02  0.36320197469E+03  0.12699999809E+01 0.  1.
</event>
<event>
 5   0  0.1479573E-03  0.1101342E+04  0.7818609E-02  0.9203885E-01
        1   -1    0    0  501    0  0.00000000000E+00  0.00000000000E+00  0.88010252268E+03  0.88010252269E+03  0.50400001928E-02 0. -1.
       -1   -1    0    0    0  501  0.00000000000E+00  0.00000000000E+00 -0.34454909864E+03  0.34454909868E+03  0.50400001928E-02 0.  1.
    10030    2    1    2    0    0  0.00000000000E+00  0.00000000000E+00  0.53555342404E+03  0.12246516214E+04  0.11013419649E+04 0.  0.
        4    1    3    3  502    0  0.40277177609E+03 -0.16729838401E+03  0.64160650878E+03  0.77580563153E+03  0.12699999809E+01 0. -1.
       -4    1    3    3    0  502 -0.40277177609E+03  0.16729838401E+03 -0.10605308474E+03  0.44884598983E+03  0.12699999809E+01 0.  1.
</event>
<event>
 5   0  0.2438115E-03  0.1113754E+04  0.7818609E-02  0.9191889E-01
        2   -1    0    0  501    0  0.00000000000E+00  0.00000000000E+00  0.17576756622E+04  0.17576756622E+04  0.25500000920E-02 0.  1.
       -2   -1    0    0    0  501  0.00000000000E+00  0.00000000000E+00 -0.17643291639E+03  0.17643291641E+03  0.25500000920E-02 0. -1.
    10030    2    1    2    0    0  0.00000000000E+00  0.00000000000E+00  0.15812427458E+04  0.19341085786E+04  0.11137537307E+04 0.  0.
        4    1    3    3  502    0 -0.25116286534E+03  0.24084777308E+03  0.35624202524E+02  0.34980156007E+03  0.12699999809E+01 0. -1.
       -4    1    3    3    0  502  0.25116286534E+03 -0.24084777308E+03  0.15456185433E+04  0.15843070185E+04  0.12699999809E+01 0.  1.
</event>
<event>
 5   0  0.1468556E-03  0.1100624E+04  0.7818609E-02  0.9204584E-01
        1   -1    0    0  501    0  0.00000000000E+00  0.00000000000E+00  0.58997520943E+03  0.58997520945E+03  0.50400001928E-02 0.  1.
       -1   -1    0    0    0  501  0.00000000000E+00  0.00000000000E+00 -0.51331541470E+03  0.51331541473E+03  0.50400001928E-02 0. -1.
    10030    2    1    2    0    0  0.00000000000E+00  0.00000000000E+00  0.76659794724E+02  0.11032906242E+04  0.11006241308E+04 0.  0.
        5    1    3    3  502    0 -0.21346760701E+03  0.31371030837E+03 -0.36118139800E+03  0.52388612224E+03  0.46999998093E+01 0. -1.
       -5    1    3    3    0  502  0.21346760701E+03 -0.31371030837E+03  0.43784119272E+03  0.57940450194E+03  0.46999998093E+01 0.  1.
</event>
<event>
 5   0  0.1415400E-03  0.1088440E+04  0.7818609E-02  0.9216533E-01
       -1   -1    0    0    0  501  0.00000000000E+00  0.00000000000E+00  0.13429308792E+03  0.13429308801E+03  0.50400001928E-02 0.  1.
        1   -1    0    0  501    0  0.00000000000E+00  0.00000000000E+00 -0.22054416546E+04  0.22054416546E+04  0.50400001928E-02 0. -1.
    10030    2    1    2    0    0  0.00000000000E+00  0.00000000000E+00 -0.20711485666E+04  0.23397347426E+04  0.10884402972E+04 0.  0.
        2    1    3    3  502    0 -0.39259510052E+03 -0.67154342776E+02 -0.18327765978E+04  0.18755560978E+04  0.25500000920E-02 0. -1.
       -2    1    3    3    0  502  0.39259510052E+03  0.67154342776E+02 -0.23837196886E+03  0.46417864476E+03  0.25500000920E-02 0.  1.
</event>
<event>
 5   0  0.1479573E-03  0.1100067E+04  0.7818609E-02  0.9205127E-01
        1   -1    0    0  501    0  0.00000000000E+00  0.00000000000E+00  0.67220134535E+03  0.67220134537E+03  0.50400001928E-02 0.  1.
       -1   -1    0    0    0  501  0.00000000000E+00  0.00000000000E+00 -0.45006840767E+03  0.45006840770E+03  0.50400001928E-02 0. -1.
    10030    2    1    2    0    0  0.00000000000E+00  0.00000000000E+00  0.22213293768E+03  0.11222697531E+04  0.11000665237E+04 0.  0.
        4    1    3    3  502    0 -0.22980854737E+03 -0.28149463920E+03 -0.31016405794E+03  0.47775993562E+03  0.12699999809E+01 0. -1.
       -4    1    3    3    0  502  0.22980854737E+03  0.28149463920E+03  0.53229699562E+03  0.64450981745E+03  0.12699999809E+01 0.  1.
</event>
<event>
 5   0  0.1479573E-03  0.1098920E+04  0.7818609E-02  0.9206245E-01
        1   -1    0    0  501    0  0.00000000000E+00  0.00000000000E+00  0.13224928841E+04  0.13224928841E+04  0.50400001928E-02 0. -1.
       -1   -1    0    0    0  501  0.00000000000E+00  0.00000000000E+00 -0.22828581316E+03  0.22828581322E+03  0.50400001928E-02 0.  1.
    10030    2    1    2    0    0  0.00000000000E+00  0.00000000000E+00  0.10942070710E+04  0.15507786974E+04  0.10989201309E+04 0.  0.
        4    1    3    3  502    0  0.44827537574E+02 -0.18552185088E+03  0.12742084068E+04  0.12884240537E+04  0.12699999809E+01 0. -1.
       -4    1    3    3    0  502 -0.44827537574E+02  0.18552185088E+03 -0.18000133580E+03  0.26235464369E+03  0.12699999809E+01 0.  1.
</event>
<event>
 5   0  0.2483036E-03  0.1132459E+04  0.7818609E-02  0.9174120E-01
       -2   -1    0    0    0  501  0.00000000000E+00  0.00000000000E+00  0.13627066308E+03  0.13627066311E+03  0.25500000920E-02 0. -1.
        2   -1    0    0  501    0  0.00000000000E+00  0.00000000000E+00 -0.23527885574E+04  0.23527885574E+04  0.25500000920E-02 0.  1.
    10030    2    1    2    0    0  0.00000000000E+00  0.00000000000E+00 -0.22165178943E+04  0.24890592205E+04  0.11324593712E+04 0.  0.
        3    1    3    3  502    0  0.22892146282E+03  0.48539187703E+02  0.25015199838E+02  0.23534412954E+03  0.10100000352E+00 0. -1.
       -3    1    3    3    0  502 -0.22892146282E+03 -0.48539187703E+02 -0.22415330941E+04  0.22537150909E+04  0.10100000352E+00 0.  1.
</event>
<event>
 5   0  0.1415400E-03  0.1139181E+04  0.7818609E-02  0.9167823E-01
        1   -1    0    0  501    0  0.00000000000E+00  0.00000000000E+00  0.47325106401E+03  0.47325106404E+03  0.50400001928E-02 0.  1.
       -1   -1    0    0    0  501  0.00000000000E+00  0.00000000000E+00 -0.68554152898E+03  0.68554152900E+03  0.50400001928E-02 0. -1.
    10030    2    1    2    0    0  0.00000000000E+00  0.00000000000E+00 -0.21229046497E+03  0.11587925930E+04  0.11391808602E+04 0.  0.
        2    1    3    3  502    0 -0.25858275256E+03 -0.33684001461E+03  0.28000438032E+03  0.50865380011E+03  0.25500000920E-02 0.  1.
       -2    1    3    3    0  502  0.25858275256E+03  0.33684001461E+03 -0.49229484530E+03  0.65013879293E+03  0.25500000920E-02 0. -1.
</event>
<event>
 5   0  0.2483036E-03  0.1101667E+04  0.7818609E-02  0.9203568E-01
        2   -1    0    0  501    0  0.00000000000E+00  0.00000000000E+00  0.44931061310E+03  0.44931061310E+03  0.25500000920E-02 0. -1.
       -2   -1    0    0    0  501  0.00000000000E+00  0.00000000000E+00 -0.67529603231E+03  0.67529603232E+03  0.25500000920E-02 0.  1.
    10030    2    1    2    0    0  0.00000000000E+00  0.00000000000E+00 -0.22598541921E+03  0.11246066454E+04  0.11016672353E+04 0.  0.
        3    1    3    3  502    0 -0.19585694446E+03  0.18942516014E+03 -0.60168402230E+03  0.66050397946E+03  0.10100000352E+00 0.  1.
       -3    1    3    3    0  502  0.19585694446E+03 -0.18942516014E+03  0.37569860309E+03  0.46410266596E+03  0.10100000352E+00 0. -1.
</event>
<event>
 5   0  0.1468556E-03  0.1086416E+04  0.7818609E-02  0.9218534E-01
        1   -1    0    0  501    0  0.00000000000E+00  0.00000000000E+00  0.71130423951E+03  0.71130423953E+03  0.50400001928E-02 0.  1.
       -1   -1    0    0    0  501  0.00000000000E+00  0.00000000000E+00 -0.41483619013E+03  0.41483619016E+03  0.50400001928E-02 0. -1.
    10030    2    1    2    0    0  0.00000000000E+00  0.00000000000E+00  0.29646804938E+03  0.11261404297E+04  0.10864156493E+04 0.  0.
        5    1    3    3  502    0  0.16690122106E+03  0.51446668722E+03  0.20027599759E+03  0.57677079941E+03  0.46999998093E+01 0. -1.
       -5    1    3    3    0  502 -0.16690122106E+03 -0.51446668722E+03  0.96192051792E+02  0.54936963028E+03  0.46999998093E+01 0.  1.
</event>
<event>
 5   0  0.2483036E-03  0.1081001E+04  0.7818609E-02  0.9223910E-01
        2   -1    0    0  501    0  0.00000000000E+00  0.00000000000E+00  0.12374186596E+04  0.12374186596E+04  0.25500000920E-02 0.  1.
       -2   -1    0    0    0  501  0.00000000000E+00  0.00000000000E+00 -0.23608905036E+03  0.23608905038E+03  0.25500000920E-02 0. -1.
    10030    2    1    2    0    0  0.00000000000E+00  0.00000000000E+00  0.10013296092E+04  0.14735077100E+04  0.10810013807E+04 0.  0.
        3    1    3    3  502    0 -0.46875910477E+03 -0.26574122350E+03  0.44303489207E+03  0.69759115674E+03  0.10100000352E+00 0. -1.
       -3    1    3    3    0  502  0.46875910477E+03  0.26574122350E+03  0.55829471716E+03  0.77591655323E+03  0.10100000352E+00 0.  1.
</event>
<event>
 5   0  0.1480937E-03  0.1082867E+04  0.7818609E-02  0.9222054E-01
       -1   -1    0    0    0  501  0.00000000000E+00  0.00000000000E+00  0.13279721967E+03  0.13279721977E+03  0.50400001928E-02 0.  1.
        1   -1    0    0  501    0  0.00000000000E+00  0.00000000000E+00 -0.22075011827E+04  0.22075011827E+04  0.50400001928E-02 0. -1.
    10030    2    1    2    0    0  0.00000000000E+00  0.00000000000E+00 -0.20747039630E+04  0.23402984025E+04  0.10828666023E+04 0.  0.
        1    1    3    3  502    0 -0.97404426626E+02 -0.48771311539E+03 -0.14998618711E+04  0.15801700344E+04  0.50400001928E-02 0. -1.
       -1    1    3    3    0  502  0.97404426626E+02  0.48771311539E+03 -0.57484209192E+03  0.76012836805E+03  0.50400001928E-02 0.  1.
</event>
<event>
 5   0  0.1468556E-03  0.1106173E+04  0.7818609E-02  0.9199196E-01
       -1   -1    0    0    0  501  0.00000000000E+00  0.00000000000E+00  0.97496052908E+03  0.97496052910E+03  0.50400001928E-02 0.  1.
        1   -1    0    0  501    0  0.00000000000E+00  0.00000000000E+00 -0.31376095174E+03  0.31376095178E+03  0.50400001928E-02 0. -1.
    10030    2    1    2    0    0  0.00000000000E+00  0.00000000000E+00  0.66119957735E+03  0.12887214809E+04  0.11061727596E+04 0.  0.
        5    1    3    3  502    0  0.36531396348E+03  0.32400445769E+03  0.28030569338E+02  0.48912266696E+03  0.46999998093E+01 0. -1.
       -5    1    3    3    0  502 -0.36531396348E+03 -0.32400445769E+03  0.63316900801E+03  0.79959881392E+03  0.46999998093E+01 0.  1.
</event>
<event>
 5   0  0.2392585E-03  0.1099464E+04  0.7818609E-02  0.9205715E-01
       -2   -1    0    0    0  501  0.00000000000E+00  0.00000000000E+00  0.27864803513E+03  0.27864803514E+03  0.25500000920E-02 0. -1.
        2   -1    0    0  501    0  0.00000000000E+00  0.00000000000E+00 -0.10845407194E+04  0.10845407194E+04  0.25500000920E-02 0.  1.
    10030    2    1    2    0    0  0.00000000000E+00  0.00000000000E+00 -0.80589268426E+03  0.13631887545E+04  0.10994637611E+04 0.  0.
        5    1    3    3  502    0  0.22595139913E+03  0.24076084301E+03  0.14197937867E+03  0.35944408781E+03  0.46999998093E+01 0. -1.
       -5    1    3    3    0  502 -0.22595139913E+03 -0.24076084301E+03 -0.94787206293E+03  0.10037446667E+04  0.46999998093E+01 0.  1.
</event>
<event>
 5   0  0.1480937E-03  0.1100857E+04  0.7818609E-02  0.9204357E-01
       -1   -1    0    0    0  501  0.00000000000E+00  0.00000000000E+00  0.78068747180E+03  0.78068747182E+03  0.50400001928E-02 0.  1.
        1   -1    0    0  501    0  0.00000000000E+00  0.00000000000E+00 -0.38808287159E+03  0.38808287162E+03  0.50400001928E-02 0. -1.
    10030    2    1    2    0    0  0.00000000000E+00  0.00000000000E+00  0.39260460022E+03  0.11687703434E+04  0.11008568225E+04 0.  0.
        1    1    3    3  502    0  0.31775923880E+02  0.19148959786E+03  0.74314399068E+03  0.76807614618E+03  0.50400001928E-02 0.  1.
       -1    1    3    3    0  502 -0.31775923880E+02 -0.19148959786E+03 -0.35053939046E+03  0.40069419726E+03  0.50400001928E-02 0. -1.
</event>
<event>
 5   0  0.1415400E-03  0.1098010E+04  0.7818609E-02  0.9207133E-01
        1   -1    0    0  501    0  0.00000000000E+00  0.00000000000E+00  0.95189466082E+03  0.95189466083E+03  0.50400001928E-02 0.  1.
       -1   -1    0    0    0  501  0.00000000000E+00  0.00000000000E+00 -0.31663861193E+03  0.31663861197E+03  0.50400001928E-02 0. -1.
    10030    2    1    2    0    0  0.00000000000E+00  0.00000000000E+00  0.63525604888E+03  0.12685332728E+04  0.10980102079E+04 0.  0.
        2    1    3    3  502    0 -0.50837762591E+03  0.63840632872E+02  0.89816179206E+02  0.52018302835E+03  0.25500000920E-02 0. -1.
       -2    1    3    3    0  502  0.50837762591E+03 -0.63840632872E+02  0.54543986968E+03  0.74835024445E+03  0.25500000920E-02 0.  1.
</event>
<event>
 5   0  0.2488472E-03  0.1105215E+04  0.7818609E-02  0.9200124E-01
        2   -1    0    0  501    0  0.00000000000E+00  0.00000000000E+00  0.62512164026E+03  0.62512164026E+03  0.25500000920E-02 0.  1.
       -2   -1    0    0    0  501  0.00000000000E+00  0.00000000000E+00 -0.48850529510E+03  0.48850529511E+03  0.25500000920E-02 0. -1.
    10030    2    1    2    0    0  0.00000000000E+00  0.00000000000E+00  0.13661634516E+03  0.11136269354E+04  0.11052153299E+04 0.  0.
        2    1    3    3  502    0 -0.46234410286E+03 -0.27762257564E+03  0.18980309115E+03  0.57171809257E+03  0.25500000920E-02 0. -1.
       -2    1    3    3    0  502  0.46234410286E+03  0.27762257564E+03 -0.53186745996E+02  0.54190884280E+03  0.25500000920E-02 0.  1.
</event>
<event>
 5   0  0.2488472E-03  0.1099490E+04  0.7818609E-02  0.9205690E-01
        2   -1    0    0  501    0  0.00000000000E+00  0.00000000000E+00  0.78881703442E+03  0.78881703443E+03  0.25500000920E-02 0.  1.
       -2   -1    0    0    0  501  0.00000000000E+00  0.00000000000E+00 -0.38312977485E+03  0.38312977486E+03  0.25500000920E-02 0. -1.
    10030    2    1    2    0    0  0.00000000000E+00  0.00000000000E+00  0.40568725957E+03  0.11719468093E+04  0.10994895048E+04 0.  0.
        2    1    3    3  502    0  0.35141020719E+03  0.19009701242E+03 -0.19965680129E+03  0.44664174252E+03  0.25500000920E-02 0. -1.
       -2    1    3    3    0  502 -0.35141020719E+03 -0.19009701242E+03  0.60534406086E+03  0.72530506677E+03  0.25500000920E-02 0.  1.
</event>
<event>
 5   0  0.2438115E-03  0.1091970E+04  0.7818609E-02  0.9213054E-01
       -2   -1    0    0    0  501  0.00000000000E+00  0.00000000000E+00  0.65227796226E+03  0.65227796226E+03  0.25500000920E-02 0. -1.
        2   -1    0    0  501    0  0.00000000000E+00  0.00000000000E+00 -0.45701284393E+03  0.45701284394E+03  0.25500000920E-02 0.  1.
    10030    2    1    2    0    0  0.00000000000E+00  0.00000000000E+00  0.19526511833E+03  0.11092908062E+04  0.10919696087E+04 0.  0.
        4    1    3    3  502    0  0.16107355861E+03 -0.51156237067E+03 -0.62492047518E+01  0.53635940919E+03  0.12699999809E+01 0.  1.
       -4    1    3    3    0  502 -0.16107355861E+03  0.51156237067E+03  0.20151432308E+03  0.57293139701E+03  0.12699999809E+01 0. -1.
</event>
<event>
 5   0  0.2467448E-03  0.1095957E+04  0.7818609E-02  0.9209141E-01
        2   -1    0    0  501    0  0.00000000000E+00  0.00000000000E+00  0.33302989407E+03  0.33302989408E+03  0.25500000920E-02 0.  1.
       -2   -1    0    0    0  501  0.00000000000E+00  0.00000000000E+00 -0.90166257517E+03  0.90166257517E+03  0.25500000920E-02 0. -1.
    10030    2    1    2    0    0  0.00000000000E+00  0.00000000000E+00 -0.56863268110E+03  0.12346924692E+04  0.10959572837E+04 0.  0.
        1    1    3    3  502    0 -0.33140644182E+03  0.14434203697E+03 -0.74829525647E+03  0.83102986962E+03  0.50400001928E-02 0. -1.
       -1    1    3    3    0  502  0.33140644182E+03 -0.14434203697E+03  0.17966257537E+03  0.40366259962E+03  0.50400001928E-02 0.  1.
</event>
<event>
 5   0  0.2392585E-03  0.1209138E+04  0.7818609E-02  0.9104895E-01
       -2   -1    0    0    0  501  0.00000000000E+00  0.00000000000E+00  0.16743179154E+03  0.16743179156E+03  0.25500000920E-02 0. -1.
        2   -1    0    0  501    0  0.00000000000E+00  0.00000000000E+00 -0.21830011190E+04  0.21830011190E+04  0.25500000920E-02 0.  1.
    10030    2    1    2    0    0  0.00000000000E+00  0.00000000000E+00 -0.20155693274E+04  0.23504329105E+04  0.12091381862E+04 0.  0.
        5    1    3    3  502    0 -0.16159584728E+03 -0.13770890822E+03 -0.21081106927E+04  0.21187802491E+04  0.46999998093E+01 0.  1.
       -5    1    3    3    0  502  0.16159584728E+03  0.13770890822E+03  0.92541365284E+02  0.23165266143E+03  0.46999998093E+01 0. -1.
</event>
<event>
 5   0  0.2438115E-03  0.1099931E+04  0.7818609E-02  0.9205259E-01
        2   -1    0    0  501    0  0.00000000000E+00  0.00000000000E+00  0.10393265521E+04  0.10393265521E+04  0.25500000920E-02 0.  1.
       -2   -1    0    0    0  501  0.00000000000E+00  0.00000000000E+00 -0.29101740352E+03  0.29101740353E+03  0.25500000920E-02 0. -1.
    10030    2    1    2    0    0  0.00000000000E+00  0.00000000000E+00  0.74830914859E+03  0.13303439557E+04  0.10999311153E+04 0.  0.
        4    1    3    3  502    0 -0.59083288372E+02 -0.40203639349E+03  0.82237463550E+03  0.91729261998E+03  0.12699999809E+01 0.  1.
       -4    1    3    3    0  502  0.59083288372E+02  0.40203639349E+03 -0.74065486909E+02  0.41305133568E+03  0.12699999809E+01 0. -1.
</event>
<event>
 5   0  0.2467448E-03  0.1043463E+04  0.7818609E-02  0.9262120E-01
       -2   -1    0    0    0  501  0.00000000000E+00  0.00000000000E+00  0.29984833565E+03  0.29984833566E+03  0.25500000920E-02 0. -1.
        2   -1    0    0  501    0  0.00000000000E+00  0.00000000000E+00 -0.90780398959E+03  0.90780398960E+03  0.25500000920E-02 0.  1.
    10030    2    1    2    0    0  0.00000000000E+00  0.00000000000E+00 -0.60795565395E+03  0.12076523253E+04  0.10434625348E+04 0.  0.
        1    1    3    3  502    0  0.16567890590E+03  0.42792468687E+03 -0.59130514695E+03  0.74847232035E+03  0.50400001928E-02 0.  1.
       -1    1    3    3    0  502 -0.16567890590E+03 -0.42792468687E+03 -0.16650506997E+02  0.45918000490E+03  0.50400001928E-02 0. -1.
</event>
<event>
 5   0  0.9631750E-04  0.1100253E+04  0.7818609E-02  0.9204946E-01
        3   -1    0    0  501    0  0.00000000000E+00  0.00000000000E+00  0.18809839499E+03  0.18809842210E+03  0.10100000352E+00 0. -1.
       -3   -1    0    0    0  501  0.00000000000E+00  0.00000000000E+00 -0.16089399813E+04  0.16089399845E+04  0.10100000352E+00 0.  1.
    10030    2    1    2    0    0  0.00000000000E+00  0.00000000000E+00 -0.14208415863E+04  0.17970384066E+04  0.11002527988E+04 0.  0.
        4    1    3    3  502    0 -0.16270765529E+03 -0.17470868179E+03 -0.15199171468E+04  0.15385534280E+04  0.12699999809E+01 0.  1.
       -4    1    3    3    0  502  0.16270765529E+03  0.17470868179E+03  0.99075560509E+02  0.25848497862E+03  0.12699999809E+01 0. -1.
</event>
<event>
 5   0  0.9631750E-04  0.1116919E+04  0.7818609E-02  0.9188857E-01
       -3   -1    0    0    0  501  0.00000000000E+00  0.00000000000E+00  0.20573758323E+03  0.20573760802E+03  0.10100000352E+00 0. -1.
        3   -1    0    0  501    0  0.00000000000E+00  0.00000000000E+00 -0.15158961739E+04  0.15158961773E+04  0.10100000352E+00 0.  1.
    10030    2    1    2    0    0  0.00000000000E+00  0.00000000000E+00 -0.13101585907E+04  0.17216337853E+04  0.11169186891E+04 0.  0.
        4    1    3    3  502    0 -0.15968947371E+03 -0.51788085546E+03 -0.44728027189E+03  0.70268240549E+03  0.12699999809E+01 0. -1.
       -4    1    3    3    0  502  0.15968947371E+03  0.51788085546E+03 -0.86287831883E+03  0.10189513798E+04  0.12699999809E+01 0.  1.
</event>
<event>
 5   0  0.1509004E-03  0.1096406E+04  0.7818609E-02  0.9208702E-01
        1   -1    0    0  501    0  0.00000000000E+00  0.00000000000E+00  0.42294927812E+03  0.42294927815E+03  0.50400001928E-02 0.  1.
       -1   -1    0    0    0  501  0.00000000000E+00  0.00000000000E+00 -0.71054931457E+03  0.71054931459E+03  0.50400001928E-02 0. -1.
    10030    2    1    2    0    0  0.00000000000E+00  0.00000000000E+00 -0.28760003645E+03  0.11334985927E+04  0.10964056178E+04 0.  0.
        3    1    3    3  502    0  0.79960506186E+02  0.36147839852E+03 -0.56178766175E+03  0.67280435659E+03  0.10100000352E+00 0. -1.
       -3    1    3    3    0  502 -0.79960506186E+02 -0.36147839852E+03  0.27418762531E+03  0.46069423615E+03  0.10100000352E+00 0.  1.
</event>
<event>
 5   0  0.2392585E-03  0.1086260E+04  0.7818609E-02  0.9218688E-01
       -2   -1    0    0    0  501  0.00000000000E+00  0.00000000000E+00  0.20002819021E+03  0.20002819022E+03  0.25500000920E-02 0.  1.
        2   -1    0    0  501    0  0.00000000000E+00  0.00000000000E+00 -0.14747427153E+04  0.14747427153E+04  0.25500000920E-02 0. -1.
    10030    2    1    2    0    0  0.00000000000E+00  0.00000000000E+00 -0.12747145251E+04  0.16747709055E+04  0.10862598517E+04 0.  0.
        5    1    3    3  502    0  0.40146903763E+03  0.39475488489E+02 -0.11980055434E+04  0.12641103885E+04  0.46999998093E+01 0. -1.
       -5    1    3    3    0  502 -0.40146903763E+03 -0.39475488489E+02 -0.76708981727E+02  0.41066051703E+03  0.46999998093E+01 0.  1.
</event>
<event>
 5   0  0.1479573E-03  0.1066346E+04  0.7818609E-02  0.9238629E-01
       -1   -1    0    0    0  501  0.00000000000E+00  0.00000000000E+00  0.98511703932E+03  0.98511703933E+03  0.50400001928E-02 0.  1.
        1   -1    0    0  501    0  0.00000000000E+00  0.00000000000E+00 -0.28856825471E+03  0.28856825476E+03  0.50400001928E-02 0. -1.
    10030    2    1    2    0    0  0.00000000000E+00  0.00000000000E+00  0.69654878460E+03  0.12736852941E+04  0.10663461066E+04 0.  0.
        4    1    3    3  502    0  0.40502595309E+02  0.37837026600E+02 -0.28511595960E+03  0.29045623445E+03  0.12699999809E+01 0. -1.
       -4    1    3    3    0  502 -0.40502595309E+02 -0.37837026600E+02  0.98166474421E+03  0.98322905964E+03  0.12699999809E+01 0.  1.
</event>
<event>
 5   0  0.2467448E-03  0.1096202E+04  0.7818609E-02  0.9208901E-01
       -2   -1    0    0    0  501  0.00000000000E+00  0.00000000000E+00  0.58470358087E+03  0.58470358087E+03  0.25500000920E-02 0. -1.
        2   -1    0    0  501    0  0.00000000000E+00  0.00000000000E+00 -0.51379013142E+03  0.51379013143E+03  0.25500000920E-02 0.  1.
    10030    2    1    2    0    0  0.00000000000E+00  0.00000000000E+00  0.70913449445E+02  0.10984937123E+04  0.10962024077E+04 0.  0.
        1    1    3    3  502    0  0.52324967853E+03  0.15898705492E+03 -0.13326799718E+01  0.54687190984E+03  0.50400001928E-02 0.  1.
       -1    1    3    3    0  502 -0.52324967853E+03 -0.15898705492E+03  0.72246129417E+02  0.55162180246E+03  0.50400001928E-02 0. -1.
</event>
<event>
 5   0  0.9631750E-04  0.1097189E+04  0.7818609E-02  0.9207936E-01
        3   -1    0    0  501    0  0.00000000000E+00  0.00000000000E+00  0.19242031152E+03  0.19242033803E+03  0.10100000352E+00 0.  1.
       -3   -1    0    0    0  501  0.00000000000E+00  0.00000000000E+00 -0.15640533985E+04  0.15640534017E+04  0.10100000352E+00 0. -1.
    10030    2    1    2    0    0  0.00000000000E+00  0.00000000000E+00 -0.13716330870E+04  0.17564737398E+04  0.10971885313E+04 0.  0.
        3    1    3    3  502    0  0.19524954178E+03 -0.11047493458E+03 -0.14872651612E+04  0.15040893473E+04  0.10100000352E+00 0. -1.
       -3    1    3    3    0  502 -0.19524954178E+03  0.11047493458E+03  0.11563207429E+03  0.25238439242E+03  0.10100000352E+00 0.  1.
</event>
<event>
 5   0  0.2488472E-03  0.1107756E+04  0.7818609E-02  0.9197665E-01
        2   -1    0    0  501    0  0.00000000000E+00  0.00000000000E+00  0.15018342645E+04  0.15018342645E+04  0.25500000920E-02 0.  1.
       -2   -1    0    0    0  501  0.00000000000E+00  0.00000000000E+00 -0.20427074776E+03  0.20427074778E+03  0.25500000920E-02 0. -1.
    10030    2    1    2    0    0  0.00000000000E+00  0.00000000000E+00  0.12975635167E+04  0.17061050122E+04  0.11077559447E+04 0.  0.
        2    1    3    3  502    0  0.34404468401E+03 -0.26087618430E+03  0.11830982435E+04  0.12594223207E+04  0.25500000920E-02 0.  1.
       -2    1    3    3    0  502 -0.34404468401E+03  0.26087618430E+03  0.11446527317E+03  0.44668269151E+03  0.25500000920E-02 0. -1.
</event>
<event>
 5   0  0.1468556E-03  0.1097965E+04  0.7818609E-02  0.9207178E-01
        1   -1    0    0  501    0  0.00000000000E+00  0.00000000000E+00  0.57093320067E+03  0.57093320070E+03  0.50400001928E-02 0. -1.
       -1   -1    0    0    0  501  0.00000000000E+00  0.00000000000E+00 -0.52787548885E+03  0.52787548888E+03  0.50400001928E-02 0.  1.
    10030    2    1    2    0    0  0.00000000000E+00  0.00000000000E+00  0.43057711822E+02  0.10988086896E+04  0.10979647397E+04 0.  0.
        5    1    3    3  502    0  0.14964047008E+02 -0.34453556975E+03 -0.40591871913E+03  0.53265446405E+03  0.46999998093E+01 0.  1.
       -5    1    3    3    0  502 -0.14964047008E+02  0.34453556975E+03  0.44897643096E+03  0.56615422552E+03  0.46999998093E+01 0. -1.
</event>
<event>
 5   0  0.2438115E-03  0.1106936E+04  0.7818609E-02  0.9198457E-01
       -2   -1    0    0    0  501  0.00000000000E+00  0.00000000000E+00  0.38827878854E+03  0.38827878855E+03  0.25500000920E-02 0.  1.
        2   -1    0    0  501    0  0.00000000000E+00  0.00000000000E+00 -0.78893584132E+03  0.78893584132E+03  0.25500000920E-02 0. -1.
    10030    2    1    2    0    0  0.00000000000E+00  0.00000000000E+00 -0.40065705277E+03  0.11772146299E+04  0.11069364078E+04 0.  0.
        4    1    3    3  502    0  0.34605855678E+03  0.43082896280E+03 -0.16745794445E+03  0.57742003426E+03  0.12699999809E+01 0. -1.
       -4    1    3    3    0  502 -0.34605855678E+03 -0.43082896280E+03 -0.23319910832E+03  0.59979459561E+03  0.12699999809E+01 0.  1.
</event>
<event>
 5   0  0.2392585E-03  0.1089928E+04  0.7818609E-02  0.9215064E-01
        2   -1    0    0  501    0  0.00000000000E+00  0.00000000000E+00  0.55052526068E+03  0.55052526068E+03  0.25500000920E-02 0.  1.
       -2   -1    0    0    0  501  0.00000000000E+00  0.00000000000E+00 -0.53945920258E+03  0.53945920259E+03  0.25500000920E-02 0. -1.
    10030    2    1    2    0    0  0.00000000000E+00  0.00000000000E+00  0.11066058096E+02  0.10899844633E+04  0.10899282878E+04 0.  0.
        5    1    3    3  502    0  0.25112101697E+03 -0.24549077778E+03  0.42225144725E+03  0.54922296187E+03  0.46999998093E+01 0.  1.
       -5    1    3    3    0  502 -0.25112101697E+03  0.24549077778E+03 -0.41118538916E+03  0.54076150140E+03  0.46999998093E+01 0. -1.
</event>
<event>
 5   0  0.1479573E-03  0.1105793E+04  0.7818609E-02  0.9199564E-01
       -1   -1    0    0    0  501  0.00000000000E+00  0.00000000000E+00  0.10814707241E+03  0.10814707253E+03  0.50400001928E-02 0.  1.
        1   -1    0    0  501    0  0.00000000000E+00  0.00000000000E+00 -0.28266551425E+04  0.28266551425E+04  0.50400001928E-02 0. -1.
    10030    2    1    2    0    0  0.00000000000E+00  0.00000000000E+00 -0.27185080701E+04  0.29348022150E+04  0.11057928894E+04 0.  0.
        4    1    3    3  502    0  0.18981877907E+03 -0.27647302435E+03 -0.19261638496E+03  0.38674434286E+03  0.12699999809E+01 0.  1.
       -4    1    3    3    0  502 -0.18981877907E+03  0.27647302435E+03 -0.25258916851E+04  0.25480578721E+04  0.12699999809E+01 0. -1.
</event>
<event>
 5   0  0.2467448E-03  0.1124379E+04  0.7818609E-02  0.9181751E-01
       -2   -1    0    0    0  501  0.00000000000E+00  0.00000000000E+00  0.26143437507E+03  0.26143437508E+03  0.25500000920E-02 0. -1.
        2   -1    0    0  501    0  0.00000000000E+00  0.00000000000E+00 -0.12089353587E+04  0.12089353587E+04  0.25500000920E-02 0.  1.
    10030    2    1    2    0    0  0.00000000000E+00  0.00000000000E+00 -0.94750098362E+03  0.14703697338E+04  0.11243794022E+04 0.  0.
        1    1    3    3  502    0  0.18677059609E+02  0.34319213022E+03  0.10804029694E+03  0.36028096895E+03  0.50400001928E-02 0. -1.
       -1    1    3    3    0  502 -0.18677059609E+02 -0.34319213022E+03 -0.10555412806E+04  0.11100887648E+04  0.50400001928E-02 0.  1.
</event>
<event>
 5   0  0.1468556E-03  0.1097699E+04  0.7818609E-02  0.9207437E-01
       -1   -1    0    0    0  501  0.00000000000E+00  0.00000000000E+00  0.73295519212E+03  0.73295519214E+03  0.50400001928E-02 0.  1.
        1   -1    0    0  501    0  0.00000000000E+00  0.00000000000E+00 -0.41098820884E+03  0.41098820887E+03  0.50400001928E-02 0. -1.
    10030    2    1    2    0    0  0.00000000000E+00  0.00000000000E+00  0.32196698328E+03  0.11439434010E+04  0.10976993060E+04 0.  0.
        5    1    3    3  502    0 -0.13660609301E+03 -0.59154676845E+02 -0.38952594627E+03  0.41702883984E+03  0.46999998093E+01 0. -1.
       -5    1    3    3    0  502  0.13660609301E+03  0.59154676845E+02  0.71149292955E+03  0.72691456117E+03  0.46999998093E+01 0.  1.
</event>
<event>
 5   0  0.1509004E-03  0.1101308E+04  0.7818609E-02  0.9203918E-01
       -1   -1    0    0    0  501  0.00000000000E+00  0.00000000000E+00  0.40900014609E+03  0.40900014612E+03  0.50400001928E-02 0. -1.
        1   -1    0    0  501    0  0.00000000000E+00  0.00000000000E+00 -0.74136883763E+03  0.74136883764E+03  0.50400001928E-02 0.  1.
    10030    2    1    2    0    0  0.00000000000E+00  0.00000000000E+00 -0.33236869154E+03  0.11503689838E+04  0.11013082455E+04 0.  0.
        3    1    3    3  502    0  0.34778912112E+03 -0.31286493288E+03  0.13723511803E+03  0.48751946302E+03  0.10100000352E+00 0. -1.
       -3    1    3    3    0  502 -0.34778912112E+03  0.31286493288E+03 -0.46960380956E+03  0.66284952075E+03  0.10100000352E+00 0.  1.
</event>
<event>
 5   0  0.1509004E-03  0.1098685E+04  0.7818609E-02  0.9206475E-01
       -1   -1    0    0    0  501  0.00000000000E+00  0.00000000000E+00  0.61225164987E+03  0.61225164989E+03  0.50400001928E-02 0. -1.
        1   -1    0    0  501    0  0.00000000000E+00  0.00000000000E+00 -0.49289701169E+03  0.49289701171E+03  0.50400001928E-02 0.  1.
    10030    2    1    2    0    0  0.00000000000E+00  0.00000000000E+00  0.11935463818E+03  0.11051486616E+04  0.10986846839E+04 0.  0.
        3    1    3    3  502    0  0.47118887622E+03 -0.25804042570E+03  0.17512705558E+03  0.56504275429E+03  0.10100000352E+00 0. -1.
       -3    1    3    3    0  502 -0.47118887622E+03  0.25804042570E+03 -0.55772417401E+02  0.54010590732E+03  0.10100000352E+00 0.  1.
</event>
<event>
 5   0  0.1479573E-03  0.1109983E+04  0.7818609E-02  0.9195516E-01
        1   -1    0    0  501    0  0.00000000000E+00  0.00000000000E+00  0.49559947953E+03  0.49559947955E+03  0.50400001928E-02 0. -1.
       -1   -1    0    0    0  501  0.00000000000E+00  0.00000000000E+00 -0.62150098456E+03  0.62150098458E+03  0.50400001928E-02 0.  1.
    10030    2    1    2    0    0  0.00000000000E+00  0.00000000000E+00 -0.12590150503E+03  0.11171004641E+04  0.11099829990E+04 0.  0.
        4    1    3    3  502    0  0.33533018330E+03 -0.40763919374E+03  0.10960685661E+03  0.53910232797E+03  0.12699999809E+01 0. -1.
       -4    1    3    3    0  502 -0.33533018330E+03  0.40763919374E+03 -0.23550836164E+03  0.57799813616E+03  0.12699999809E+01 0.  1.
</event>
<event>
 5   0  0.2483036E-03  0.1101203E+04  0.7818609E-02  0.9204020E-01
        2   -1    0    0  501    0  0.00000000000E+00  0.00000000000E+00  0.10847742191E+04  0.10847742191E+04  0.25500000920E-02 0.  1.
       -2   -1    0    0    0  501  0.00000000000E+00  0.00000000000E+00 -0.27947004087E+03  0.27947004088E+03  0.25500000920E-02 0. -1.
    10030    2    1    2    0    0  0.00000000000E+00  0.00000000000E+00  0.80530417823E+03  0.13642442600E+04  0.11012027885E+04 0.  0.
        3    1    3    3  502    0 -0.14600124737E+02  0.37207740770E+03  0.90513024661E+03  0.97873159471E+03  0.10100000352E+00 0.  1.
       -3    1    3    3    0  502  0.14600124737E+02 -0.37207740770E+03 -0.99826068373E+02  0.38551266527E+03  0.10100000352E+00 0. -1.
</event>
<event>
 5   0  0.1468556E-03  0.1093433E+04  0.7818609E-02  0.9211616E-01
       -1   -1    0    0    0  501  0.00000000000E+00  0.00000000000E+00  0.63516680912E+03  0.63516680914E+03  0.50400001928E-02 0. -1.
        1   -1    0    0  501    0  0.00000000000E+00  0.00000000000E+00 -0.47058351360E+03  0.47058351363E+03  0.50400001928E-02 0.  1.
    10030    2    1    2    0    0  0.00000000000E+00  0.00000000000E+00  0.16458329552E+03  0.11057503228E+04  0.10934331782E+04 0.  0.
        5    1    3    3  502    0 -0.36779594583E+03  0.40426123881E+03  0.95704990273E+02  0.55487164474E+03  0.46999998093E+01 0.  1.
       -5    1    3    3    0  502  0.36779594583E+03 -0.40426123881E+03  0.68878305250E+02  0.55087867803E+03  0.46999998093E+01 0. -1.
</event>
<event>
 5   0  0.2483036E-03  0.1101535E+04  0.7818609E-02  0.9203697E-01
       -2   -1    0    0    0  501  0.00000000000E+00  0.00000000000E+00  0.56552256586E+03  0.56552256587E+03  0.25500000920E-02 0. -1.
        2   -1    0    0  501    0  0.00000000000E+00  0.00000000000E+00 -0.53639751593E+03  0.53639751593E+03  0.25500000920E-02 0.  1.
    10030    2    1    2    0    0  0.00000000000E+00  0.00000000000E+00  0.29125049935E+02  0.11019200818E+04  0.11015351098E+04 0.  0.
        3    1    3    3  502    0  0.18573561659E+03 -0.32520694315E+03 -0.38941968758E+03  0.54028231362E+03  0.10100000352E+00 0.  1.
       -3    1    3    3    0  502 -0.18573561659E+03  0.32520694315E+03  0.41854473751E+03  0.56163776818E+03  0.10100000352E+00 0. -1.
</event>
<event>
 5   0  0.2392585E-03  0.1102416E+04  0.7818609E-02  0.9202840E-01
        2   -1    0    0  501    0  0.00000000000E+00  0.00000000000E+00  0.14589621649E+04  0.14589621649E+04  0.25500000920E-02 0.  1.
       -2   -1    0    0    0  501  0.00000000000E+00  0.00000000000E+00 -0.20825106598E+03  0.20825106599E+03  0.25500000920E-02 0. -1.
    10030    2    1    2    0    0  0.00000000000E+00  0.00000000000E+00  0.12507110989E+04  0.16672132309E+04  0.11024163026E+04 0.  0.
        5    1    3    3  502    0 -0.32124153111E+03 -0.39189327108E+03  0.95333126289E+03  0.10796476481E+04  0.46999998093E+01 0.  1.
       -5    1    3    3    0  502  0.32124153111E+03  0.39189327108E+03  0.29737983604E+03  0.58756558281E+03  0.46999998093E+01 0. -1.
</event>
<event>
 5   0  0.1415400E-03  0.1104749E+04  0.7818609E-02  0.9200575E-01
       -1   -1    0    0    0  501  0.00000000000E+00  0.00000000000E+00  0.53887401744E+03  0.53887401747E+03  0.50400001928E-02 0.  1.
        1   -1    0    0  501    0  0.00000000000E+00  0.00000000000E+00 -0.56621328523E+03  0.56621328526E+03  0.50400001928E-02 0. -1.
    10030    2    1    2    0    0  0.00000000000E+00  0.00000000000E+00 -0.27339267792E+02  0.11050873027E+04  0.11047490715E+04 0.  0.
        2    1    3    3  502    0 -0.37764880875E+03 -0.38016014906E+03 -0.14779001134E+03  0.55586171764E+03  0.25500000920E-02 0. -1.
       -2    1    3    3    0  502  0.37764880875E+03  0.38016014906E+03  0.12045074354E+03  0.54922558508E+03  0.25500000920E-02 0.  1.
</event>
<event>
 5   0  0.1479573E-03  0.1103377E+04  0.7818609E-02  0.9201906E-01
        1   -1    0    0  501    0  0.00000000000E+00  0.00000000000E+00  0.95075873068E+03  0.95075873069E+03  0.50400001928E-02 0.  1.
       -1   -1    0    0    0  501  0.00000000000E+00  0.00000000000E+00 -0.32012373233E+03  0.32012373237E+03  0.50400001928E-02 0. -1.
    10030    2    1    2    0    0  0.00000000000E+00  0.00000000000E+00  0.63063499835E+03  0.12708824631E+04  0.11033774213E+04 0.  0.
        4    1    3    3  502    0  0.54069540798E+03  0.63346140478E+02  0.41830360911E+03  0.68654481283E+03  0.12699999809E+01 0.  1.
       -4    1    3    3    0  502 -0.54069540798E+03 -0.63346140478E+02  0.21233138924E+03  0.58433765023E+03  0.12699999809E+01 0. -1.
</event>
<event>
 5   0  0.2488472E-03  0.1101050E+04  0.7818609E-02  0.9204169E-01
       -2   -1    0    0    0  501  0.00000000000E+00  0.00000000000E+00  0.64490016154E+03  0.64490016154E+03  0.25500000920E-02 0. -1.
        2   -1    0    0  501    0  0.00000000000E+00  0.00000000000E+00 -0.46996111176E+03  0.46996111177E+03  0.25500000920E-02 0.  1.
    10030    2    1    2    0    0  0.00000000000E+00  0.00000000000E+00  0.17493904978E+03  0.11148612733E+04  0.11010504019E+04 0.  0.
        2    1    3    3  502    0 -0.25375557665E+02  0.54464480347E+03  0.16455670602E+03  0.56952681269E+03  0.25500000920E-02 0. -1.
       -2    1    3    3    0  502  0.25375557665E+02 -0.54464480347E+03  0.10382343757E+02  0.54533446062E+03  0.25500000920E-02 0.  1.
</event>
<event>
 5   0  0.2483036E-03  0.1099593E+04  0.7818609E-02  0.9205589E-01
       -2   -1    0    0    0  501  0.00000000000E+00  0.00000000000E+00  0.26845661014E+03  0.26845661016E+03  0.25500000920E-02 0. -1.
        2   -1    0    0  501    0  0.00000000000E+00  0.00000000000E+00 -0.11259777096E+04  0.11259777097E+04  0.25500000920E-02 0.  1.
    10030    2    1    2    0    0  0.00000000000E+00  0.00000000000E+00 -0.85752109951E+03  0.13944343198E+04  0.10995929411E+04 0.  0.
        3    1    3    3  502    0  0.38508172221E+03  0.10701160140E+03  0.50012306549E+02  0.40279108309E+03  0.10100000352E+00 0. -1.
       -3    1    3    3    0  502 -0.38508172221E+03 -0.10701160140E+03 -0.90753340605E+03  0.99164323671E+03  0.10100000352E+00 0.  1.
</event>
<event>
 5   0  0.1480937E-03  0.1089824E+04  0.7818609E-02  0.9215167E-01
        1   -1    0    0  501    0  0.00000000000E+00  0.00000000000E+00  0.10235786214E+04  0.10235786214E+04  0.50400001928E-02 0. -1.
       -1   -1    0    0    0  501  0.00000000000E+00  0.00000000000E+00 -0.29008939018E+03  0.29008939022E+03  0.50400001928E-02 0.  1.
    10030    2    1    2    0    0  0.00000000000E+00  0.00000000000E+00  0.73348923122E+03  0.13136680116E+04  0.10898243861E+04 0.  0.
        1    1    3    3  502    0 -0.14891275427E+03  0.17742912688E+03  0.96127798107E+03  0.98879293098E+03  0.50400001928E-02 0. -1.
       -1    1    3    3    0  502  0.14891275427E+03 -0.17742912688E+03 -0.22778874984E+03  0.32487508065E+03  0.50400001928E-02 0.  1.
</event>
<event>
 5   0  0.2392585E-03  0.1101195E+04  0.7818609E-02  0.9204027E-01
        2   -1    0    0  501    0  0.00000000000E+00  0.00000000000E+00  0.16592326698E+04  0.16592326698E+04  0.25500000920E-02 0. -1.
       -2   -1    0    0    0  501  0.00000000000E+00  0.00000000000E+00 -0.18270967216E+03  0.18270967218E+03  0.25500000920E-02 0.  1.
    10030    2    1    2    0    0  0.00000000000E+00  0.00000000000E+00  0.14765229976E+04  0.18419423419E+04  0.11011954543E+04 0.  0.
        5    1    3    3  502    0  0.27690536713E+03  0.31393881895E+03  0.14005708266E+03  0.44144336080E+03  0.46999998093E+01 0.  1.
       -5    1    3    3    0  502 -0.27690536713E+03 -0.31393881895E+03  0.13364659149E+04  0.14004989811E+04  0.46999998093E+01 0. -1.
</event>
<event>
 5   0  0.1479573E-03  0.1103703E+04  0.7818609E-02  0.9201590E-01
       -1   -1    0    0    0  501  0.00000000000E+00  0.00000000000E+00  0.15038476837E+03  0.15038476846E+03  0.50400001928E-02 0. -1.
        1   -1    0    0  501    0  0.00000000000E+00  0.00000000000E+00 -0.20250725025E+04  0.20250725026E+04  0.50400001928E-02 0.  1.
    10030    2    1    2    0    0  0.00000000000E+00  0.00000000000E+00 -0.18746877342E+04  0.21754572710E+04  0.11037029661E+04 0.  0.
        4    1    3    3  502    0  0.45089804824E+03  0.31816418146E+03 -0.93542255816E+03  0.10860729586E+04  0.12699999809E+01 0. -1.
       -4    1    3    3    0  502 -0.45089804824E+03 -0.31816418146E+03 -0.93926517602E+03  0.10893843124E+04  0.12699999809E+01 0.  1.
</event>
<event>
 5   0  0.1468556E-03  0.1191496E+04  0.7818609E-02  0.9120333E-01
        1   -1    0    0  501    0  0.00000000000E+00  0.00000000000E+00  0.68245158312E+03  0.68245158314E+03  0.50400001928E-02 0.  1.
       -1   -1    0    0    0  501  0.00000000000E+00  0.00000000000E+00 -0.52005950840E+03  0.52005950842E+03  0.50400001928E-02 0. -1.
    10030    2    1    2    0    0  0.00000000000E+00  0.00000000000E+00  0.16239207472E+03  0.12025110916E+04  0.11914955893E+04 0.  0.
        5    1    3    3  502    0  0.56553142283E+03 -0.15994979149E+03 -0.17088160488E+02  0.58798284093E+03  0.46999998093E+01 0. -1.
       -5    1    3    3    0  502 -0.56553142283E+03  0.15994979149E+03  0.17948023521E+03  0.61452825063E+03  0.46999998093E+01 0.  1.
</event>
<event>
 5   0  0.2488472E-03  0.1089119E+04  0.7818609E-02  0.9215862E-01
       -2   -1    0    0    0  501  0.00000000000E+00  0.00000000000E+00  0.25917445238E+03  0.25917445239E+03  0.25500000920E-02 0.  1.
        2   -1    0    0  501    0  0.00000000000E+00  0.00000000000E+00 -0.11441913416E+04  0.11441913416E+04  0.25500000920E-02 0. -1.
    10030    2    1    2    0    0  0.00000000000E+00  0.00000000000E+00 -0.88501688923E+03  0.14033657940E+04  0.10891192118E+04 0.  0.
        2    1    3    3  502    0  0.22363564220E+03 -0.33084163466E+03  0.34555176861E+02  0.40082807779E+03  0.25500000920E-02 0.  1.
       -2    1    3    3    0  502 -0.22363564220E+03  0.33084163466E+03 -0.91957206609E+03  0.10025377162E+04  0.25500000920E-02 0. -1.
</event>
<event>
 5   0  0.1480937E-03  0.1097582E+04  0.7818609E-02  0.9207552E-01
        1   -1    0    0  501    0  0.00000000000E+00  0.00000000000E+00  0.18290967251E+04  0.18290967251E+04  0.50400001928E-02 0. -1.
       -1   -1    0    0    0  501  0.00000000000E+00  0.00000000000E+00 -0.16465597243E+03  0.16465597251E+03  0.50400001928E-02 0.  1.
    10030    2    1    2    0    0  0.00000000000E+00  0.00000000000E+00  0.16644407526E+04  0.19937526976E+04  0.10975822521E+04 0.  0.
        1    1    3    3  502    0  0.54517403099E+01  0.41345092229E+03  0.14876713710E+04  0.15440652496E+04  0.50400001928E-02 0.  1.
       -1    1    3    3    0  502 -0.54517403099E+01 -0.41345092229E+03  0.17676938157E+03  0.44968744801E+03  0.50400001928E-02 0. -1.
</event>
<event>
 5   0  0.1415400E-03  0.1103397E+04  0.7818609E-02  0.9201887E-01
        1   -1    0    0  501    0  0.00000000000E+00  0.00000000000E+00  0.14436403626E+04  0.14436403626E+04  0.50400001928E-02 0. -1.
       -1   -1    0    0    0  501  0.00000000000E+00  0.00000000000E+00 -0.21083610117E+03  0.21083610123E+03  0.50400001928E-02 0.  1.
    10030    2    1    2    0    0  0.00000000000E+00  0.00000000000E+00  0.12328042614E+04  0.16544764638E+04  0.11033974907E+04 0.  0.
        2    1    3    3  502    0  0.45456211902E+03  0.29730361089E+03  0.76143237764E+03  0.93530498920E+03  0.25500000920E-02 0. -1.
       -2    1    3    3    0  502 -0.45456211902E+03 -0.29730361089E+03  0.47137188380E+03  0.71917147464E+03  0.25500000920E-02 0.  1.
</event>
<event>
 5   0  0.2392585E-03  0.1051031E+04  0.7818609E-02  0.9254281E-01
       -2   -1    0    0    0  501  0.00000000000E+00  0.00000000000E+00  0.63312490124E+03  0.63312490125E+03  0.25500000920E-02 0. -1.
        2   -1    0    0  501    0  0.00000000000E+00  0.00000000000E+00 -0.43619558845E+03  0.43619558845E+03  0.25500000920E-02 0.  1.
    10030    2    1    2    0    0  0.00000000000E+00  0.00000000000E+00  0.19692931280E+03  0.10693204897E+04  0.10510305207E+04 0.  0.
        5    1    3    3  502    0 -0.94426125414E+02 -0.13717242450E+03  0.60554704186E+03  0.62804607881E+03  0.46999998093E+01 0. -1.
       -5    1    3    3    0  502  0.94426125414E+02  0.13717242450E+03 -0.40861772907E+03  0.44127441089E+03  0.46999998093E+01 0.  1.
</event>
<event>
 5   0  0.2438115E-03  0.1081535E+04  0.7818609E-02  0.9223378E-01
        2   -1    0    0  501    0  0.00000000000E+00  0.00000000000E+00  0.41755915927E+03  0.41755915928E+03  0.25500000920E-02 0. -1.
       -2   -1    0    0    0  501  0.00000000000E+00  0.00000000000E+00 -0.70033132512E+03  0.70033132513E+03  0.25500000920E-02 0.  1.
    10030    2    1    2    0    0  0.00000000000E+00  0.00000000000E+00 -0.28277216585E+03  0.11178904844E+04  0.10815354998E+04 0.  0.
        4    1    3    3  502    0 -0.77900417330E+02 -0.53502975535E+03 -0.15186757894E+03  0.56159655320E+03  0.12699999809E+01 0. -1.
       -4    1    3    3    0  502  0.77900417330E+02  0.53502975535E+03 -0.13090458691E+03  0.55629393121E+03  0.12699999809E+01 0.  1.
</event>
<event>
 5   0  0.1415400E-03  0.1084345E+04  0.7818609E-02  0.9220586E-01
        1   -1    0    0  501    0  0.00000000000E+00  0.00000000000E+00  0.24058898738E+03  0.24058898743E+03  0.50400001928E-02 0. -1.
       -1   -1    0    0    0  501  0.00000000000E+00  0.00000000000E+00 -0.12217983625E+04  0.12217983626E+04  0.50400001928E-02 0.  1.
    10030    2    1    2    0    0  0.00000000000E+00  0.00000000000E+00 -0.98120937516E+03  0.14623873500E+04  0.10843453894E+04 0.  0.
        2    1    3    3  502    0 -0.48721514368E+03 -0.18185970087E+03 -0.28386407725E+03  0.59247815267E+03  0.25500000920E-02 0. -1.
       -2    1    3    3    0  502  0.48721514368E+03  0.18185970087E+03 -0.69734529791E+03  0.86990919731E+03  0.25500000920E-02 0.  1.
</event>
<event>
 5   0  0.1509004E-03  0.1016474E+04  0.7818609E-02  0.9290658E-01
       -1   -1    0    0    0  501  0.00000000000E+00  0.00000000000E+00  0.23195256479E+03  0.23195256484E+03  0.50400001928E-02 0.  1.
        1   -1    0    0  501    0  0.00000000000E+00  0.00000000000E+00 -0.11136116704E+04  0.11136116704E+04  0.50400001928E-02 0. -1.
    10030    2    1    2    0    0  0.00000000000E+00  0.00000000000E+00 -0.88165910557E+03  0.13455642352E+04  0.10164744624E+04 0.  0.
        3    1    3    3  502    0  0.17410076292E+02  0.66125599632E+02 -0.11074946711E+04  0.11096036060E+04  0.10100000352E+00 0. -1.
       -3    1    3    3    0  502 -0.17410076292E+02 -0.66125599632E+02  0.22583556554E+03  0.23596062923E+03  0.10100000352E+00 0.  1.
</event>
<event>
 5   0  0.1415400E-03  0.1096412E+04  0.7818609E-02  0.9208696E-01
       -1   -1    0    0    0  501  0.00000000000E+00  0.00000000000E+00  0.40632846786E+03  0.40632846789E+03  0.50400001928E-02 0. -1.
        1   -1    0    0  501    0  0.00000000000E+00  0.00000000000E+00 -0.73962324763E+03  0.73962324765E+03  0.50400001928E-02 0.  1.
    10030    2    1    2    0    0  0.00000000000E+00  0.00000000000E+00 -0.33329477977E+03  0.11459517155E+04  0.10964122966E+04 0.  0.
        2    1    3    3  502    0  0.16588256976E+03 -0.24070966328E+03 -0.65135983288E+03  0.71395223989E+03  0.25500000920E-02 0.  1.
       -2    1    3    3    0  502 -0.16588256976E+03  0.24070966328E+03  0.31806505311E+03  0.43199947565E+03  0.25500000920E-02 0. -1.
</event>
<event>
 5   0  0.2483036E-03  0.1091463E+04  0.7818609E-02  0.9213553E-01
        2   -1    0    0  501    0  0.00000000000E+00  0.00000000000E+00  0.92192522725E+03  0.92192522725E+03  0.25500000920E-02 0. -1.
       -2   -1    0    0    0  501  0.00000000000E+00  0.00000000000E+00 -0.32304440255E+03  0.32304440256E+03  0.25500000920E-02 0.  1.
    10030    2    1    2    0    0  0.00000000000E+00  0.00000000000E+00  0.59888082470E+03  0.12449696298E+04  0.10914628427E+04 0.  0.
        3    1    3    3  502    0 -0.13121336503E+03  0.52492137259E+03  0.21827517928E+03  0.58344104986E+03  0.10100000352E+00 0. -1.
       -3    1    3    3    0  502  0.13121336503E+03 -0.52492137259E+03  0.38060564542E+03  0.66152857995E+03  0.10100000352E+00 0.  1.
</event>
<event>
 5   0  0.1468556E-03  0.1111093E+04  0.7818609E-02  0.9194447E-01
        1   -1    0    0  501    0  0.00000000000E+00  0.00000000000E+00  0.66860488145E+03  0.66860488147E+03  0.50400001928E-02 0. -1.
       -1   -1    0    0    0  501  0.00000000000E+00  0.00000000000E+00 -0.46160610244E+03  0.46160610247E+03  0.50400001928E-02 0.  1.
    10030    2    1    2    0    0  0.00000000000E+00  0.00000000000E+00  0.20699877901E+03  0.11302109839E+04  0.11110933236E+04 0.  0.
        5    1    3    3  502    0  0.16433339037E+03 -0.33834859584E+03  0.51934238855E+03  0.64126737173E+03  0.46999998093E+01 0. -1.
       -5    1    3    3    0  502 -0.16433339037E+03  0.33834859584E+03 -0.31234360954E+03  0.48894361221E+03  0.46999998093E+01 0.  1.
</event>
<event>
 5   0  0.1479573E-03  0.1087516E+04  0.7818609E-02  0.9217446E-01
        1   -1    0    0  501    0  0.00000000000E+00  0.00000000000E+00  0.76489654838E+03  0.76489654840E+03  0.50400001928E-02 0.  1.
       -1   -1    0    0    0  501  0.00000000000E+00  0.00000000000E+00 -0.38655238008E+03  0.38655238011E+03  0.50400001928E-02 0. -1.
    10030    2    1    2    0    0  0.00000000000E+00  0.00000000000E+00  0.37834416830E+03  0.11514489285E+04  0.10875156667E+04 0.  0.
        4    1    3    3  502    0 -0.19075771331E+03 -0.50805277586E+03  0.15303589694E+03  0.56385080198E+03  0.12699999809E+01 0.  1.
       -4    1    3    3    0  502  0.19075771331E+03  0.50805277586E+03  0.22530827136E+03  0.58759812652E+03  0.12699999809E+01 0. -1.
</event>
<event>
 5   0  0.1480937E-03  0.1089602E+04  0.7818609E-02  0.9215386E-01
        1   -1    0    0  501    0  0.00000000000E+00  0.00000000000E+00  0.14952647500E+04  0.14952647500E+04  0.50400001928E-02 0. -1.
       -1   -1    0    0    0  501  0.00000000000E+00  0.00000000000E+00 -0.19849863030E+03  0.19849863036E+03  0.50400001928E-02 0.  1.
    10030    2    1    2    0    0  0.00000000000E+00  0.00000000000E+00  0.12967661197E+04  0.16937633803E+04  0.10896017710E+04 0.  0.
        1    1    3    3  502    0  0.31257525262E+03 -0.43658491768E+03  0.79168485486E+03  0.95659531064E+03  0.50400001928E-02 0. -1.
       -1    1    3    3    0  502 -0.31257525262E+03  0.43658491768E+03  0.50508126480E+03  0.73716806969E+03  0.50400001928E-02 0.  1.
</event>
<event>
 5   0  0.2467448E-03  0.1162707E+04  0.7818609E-02  0.9146141E-01
        2   -1    0    0  501    0  0.00000000000E+00  0.00000000000E+00  0.14511629125E+04  0.14511629125E+04  0.25500000920E-02 0.  1.
       -2   -1    0    0    0  501  0.00000000000E+00  0.00000000000E+00 -0.23289712130E+03  0.23289712131E+03  0.25500000920E-02 0. -1.
    10030    2    1    2    0    0  0.00000000000E+00  0.00000000000E+00  0.12182657912E+04  0.16840600338E+04  0.11627066094E+04 0.  0.
        1    1    3    3  502    0 -0.35493074434E+01 -0.30713796603E+03 -0.10577263129E+03  0.32486024275E+03  0.50400001928E-02 0. -1.
       -1    1    3    3    0  502  0.35493074434E+01  0.30713796603E+03  0.13240384225E+04  0.13591997911E+04  0.50400001928E-02 0.  1.
</event>
<event>
 5   0  0.1480937E-03  0.1102039E+04  0.7818609E-02  0.9203207E-01
        1   -1    0    0  501    0  0.00000000000E+00  0.00000000000E+00  0.10418363352E+04  0.10418363352E+04  0.50400001928E-02 0. -1.
       -1   -1    0    0    0  501  0.00000000000E+00  0.00000000000E+00 -0.29143006693E+03  0.29143006698E+03  0.50400001928E-02 0.  1.
    10030    2    1    2    0    0  0.00000000000E+00  0.00000000000E+00  0.75040626824E+03  0.13332664022E+04  0.11020388975E+04 0.  0.
        1    1    3    3  502    0  0.10264822749E+03 -0.53412789704E+03  0.48200452698E+03  0.72674454456E+03  0.50400001928E-02 0. -1.
       -1    1    3    3    0  502 -0.10264822749E+03  0.53412789704E+03  0.26840174126E+03  0.60652185759E+03  0.50400001928E-02 0.  1.
</event>
<event>
 5   0  0.2483036E-03  0.1100670E+04  0.7818609E-02  0.9204539E-01
       -2   -1    0    0    0  501  0.00000000000E+00  0.00000000000E+00  0.17425445775E+03  0.17425445776E+03  0.25500000920E-02 0. -1.
        2   -1    0    0  501    0  0.00000000000E+00  0.00000000000E+00 -0.17380822353E+04  0.17380822353E+04  0.25500000920E-02 0.  1.
    10030    2    1    2    0    0  0.00000000000E+00  0.00000000000E+00 -0.15638277776E+04  0.19123366931E+04  0.11006699368E+04 0.  0.
        3    1    3    3  502    0  0.44797124094E+03  0.31967048299E+03 -0.78375002507E+03  0.95766986086E+03  0.10100000352E+00 0. -1.
       -3    1    3    3    0  502 -0.44797124094E+03 -0.31967048299E+03 -0.78007775251E+03  0.95466683223E+03  0.10100000352E+00 0.  1.
</event>
<event>
 5   0  0.2483036E-03  0.1100356E+04  0.7818609E-02  0.9204845E-01
       -2   -1    0    0    0  501  0.00000000000E+00  0.00000000000E+00  0.21052393534E+03  0.21052393535E+03  0.25500000920E-02 0.  1.
        2   -1    0    0  501    0  0.00000000000E+00  0.00000000000E+00 -0.14378213737E+04  0.14378213737E+04  0.25500000920E-02 0. -1.
    10030    2    1    2    0    0  0.00000000000E+00  0.00000000000E+00 -0.12272974384E+04  0.16483453091E+04  0.11003559677E+04 0.  0.
        3    1    3    3  502    0 -0.15630237861E+03 -0.11551588891E+03  0.15738532573E+03  0.25008899438E+03  0.10100000352E+00 0.  1.
       -3    1    3    3    0  502  0.15630237861E+03  0.11551588891E+03 -0.13846827641E+04  0.13982563147E+04  0.10100000352E+00 0. -1.
</event>
<event>
 5   0  0.2438115E-03  0.1100308E+04  0.7818609E-02  0.9204892E-01
       -2   -1    0    0    0  501  0.00000000000E+00  0.00000000000E+00  0.35587192672E+03  0.35587192673E+03  0.25500000920E-02 0. -1.
        2   -1    0    0  501    0  0.00000000000E+00  0.00000000000E+00 -0.85050116438E+03  0.85050116438E+03  0.25500000920E-02 0.  1.
    10030    2    1    2    0    0  0.00000000000E+00  0.00000000000E+00 -0.49462923765E+03  0.12063730911E+04  0.11003081170E+04 0.  0.
        4    1    3    3  502    0  0.24030764337E+03  0.43518496756E+03 -0.50568778755E+03  0.70912302940E+03  0.12699999809E+01 0.  1.
       -4    1    3    3    0  502 -0.24030764337E+03 -0.43518496756E+03  0.11058549890E+02  0.49725006172E+03  0.12699999809E+01 0. -1.
</event>
<event>
 5   0  0.1509004E-03  0.1098500E+04  0.7818609E-02  0.9206655E-01
       -1   -1    0    0    0  501  0.00000000000E+00  0.00000000000E+00  0.44013346069E+03  0.44013346072E+03  0.50400001928E-02 0.  1.
        1   -1    0    0  501    0  0.00000000000E+00  0.00000000000E+00 -0.68541856912E+03  0.68541856914E+03  0.50400001928E-02 0. -1.
    10030    2    1    2    0    0  0.00000000000E+00  0.00000000000E+00 -0.24528510843E+03  0.11255520299E+04  0.10985001536E+04 0.  0.
        3    1    3    3  502    0 -0.48625131228E+03  0.12685711639E+03 -0.34978295410E+03  0.61227542156E+03  0.10100000352E+00 0. -1.
       -3    1    3    3    0  502  0.48625131228E+03 -0.12685711639E+03  0.10449784567E+03  0.51327660829E+03  0.10100000352E+00 0.  1.
</event>
<event>
 5   0  0.2438115E-03  0.1104758E+04  0.7818609E-02  0.9200567E-01
        2   -1    0    0  501    0  0.00000000000E+00  0.00000000000E+00  0.12625099499E+04  0.12625099499E+04  0.25500000920E-02 0.  1.
       -2   -1    0    0    0  501  0.00000000000E+00  0.00000000000E+00 -0.24167932293E+03  0.24167932294E+03  0.25500000920E-02 0. -1.
    10030    2    1    2    0    0  0.00000000000E+00  0.00000000000E+00  0.10208306269E+04  0.15041892728E+04  0.11047579823E+04 0.  0.
        4    1    3    3  502    0  0.12060151480E+03 -0.30013961300E+03  0.11200705699E+04  0.11658422737E+04  0.12699999809E+01 0.  1.
       -4    1    3    3    0  502 -0.12060151480E+03  0.30013961300E+03 -0.99239942922E+02  0.33834699915E+03  0.12699999809E+01 0. -1.
</event>
<event>
 5   0  0.1468556E-03  0.1002473E+04  0.7818609E-02  0.9305836E-01
        1   -1    0    0  501    0  0.00000000000E+00  0.00000000000E+00  0.10884669288E+04  0.10884669288E+04  0.50400001928E-02 0.  1.
       -1   -1    0    0    0  501  0.00000000000E+00  0.00000000000E+00 -0.23081840574E+03  0.23081840580E+03  0.50400001928E-02 0. -1.
    10030    2    1    2    0    0  0.00000000000E+00  0.00000000000E+00  0.85764852306E+03  0.13192853346E+04  0.10024733438E+04 0.  0.
        5    1    3    3  502    0  0.30772075077E+03 -0.26731040788E+03  0.44982638341E+02  0.41011271910E+03  0.46999998093E+01 0. -1.
       -5    1    3    3    0  502 -0.30772075077E+03  0.26731040788E+03  0.81266588472E+03  0.90917261551E+03  0.46999998093E+01 0.  1.
</event>
<event>
 5   0  0.2467448E-03  0.1097257E+04  0.7818609E-02  0.9207869E-01
        2   -1    0    0  501    0  0.00000000000E+00  0.00000000000E+00  0.69808026604E+03  0.69808026605E+03  0.25500000920E-02 0. -1.
       -2   -1    0    0    0  501  0.00000000000E+00  0.00000000000E+00 -0.43117309586E+03  0.43117309586E+03  0.25500000920E-02 0.  1.
    10030    2    1    2    0    0  0.00000000000E+00  0.00000000000E+00  0.26690717019E+03  0.11292533619E+04  0.10972573617E+04 0.  0.
        1    1    3    3  502    0 -0.25509457462E+03  0.30000188735E+01  0.63332368176E+03  0.68277458068E+03  0.50400001928E-02 0. -1.
       -1    1    3    3    0  502  0.25509457462E+03 -0.30000188735E+01 -0.36641651158E+03  0.44647878123E+03  0.50400001928E-02 0.  1.
</event>
<event>
 5   0  0.1415400E-03  0.1102033E+04  0.7818609E-02  0.9203213E-01
        1   -1    0    0  501    0  0.00000000000E+00  0.00000000000E+00  0.18152338648E+04  0.18152338648E+04  0.50400001928E-02 0.  1.
       -1   -1    0    0    0  501  0.00000000000E+00  0.00000000000E+00 -0.16726171266E+03  0.16726171274E+03  0.50400001928E-02 0. -1.
    10030    2    1    2    0    0  0.00000000000E+00  0.00000000000E+00  0.16479721522E+04  0.19824955776E+04  0.11020328946E+04 0.  0.
        2    1    3    3  502    0 -0.51170564033E+03 -0.20437941431E+03  0.81976033694E+03  0.98773509473E+03  0.25500000920E-02 0.  1.
       -2    1    3    3    0  502  0.51170564033E+03  0.20437941431E+03  0.82821181522E+03  0.99476048284E+03  0.25500000920E-02 0. -1.
</event>
<event>
 5   0  0.2392585E-03  0.1120422E+04  0.7818609E-02  0.9185513E-01
       -2   -1    0    0    0  501  0.00000000000E+00  0.00000000000E+00  0.41671907939E+03  0.41671907940E+03  0.25500000920E-02 0. -1.
        2   -1    0    0  501    0  0.00000000000E+00  0.00000000000E+00 -0.75311274675E+03  0.75311274676E+03  0.25500000920E-02 0.  1.
    10030    2    1    2    0    0  0.00000000000E+00  0.00000000000E+00 -0.33639366736E+03  0.11698318262E+04  0.11204221535E+04 0.  0.
        5    1    3    3  502    0 -0.35175895123E+03  0.23899340518E+02  0.28632679113E+03  0.45421433219E+03  0.46999998093E+01 0. -1.
       -5    1    3    3    0  502  0.35175895123E+03 -0.23899340518E+02 -0.62272045849E+03  0.71561749397E+03  0.46999998093E+01 0.  1.
</event>
<event>
 5   0  0.1509004E-03  0.1094929E+04  0.7818609E-02  0.9210149E-01
        1   -1    0    0  501    0  0.00000000000E+00  0.00000000000E+00  0.67214875845E+03  0.67214875847E+03  0.50400001928E-02 0.  1.
       -1   -1    0    0    0  501  0.00000000000E+00  0.00000000000E+00 -0.44590890899E+03  0.44590890901E+03  0.50400001928E-02 0. -1.
    10030    2    1    2    0    0  0.00000000000E+00  0.00000000000E+00  0.22623984947E+03  0.11180576675E+04  0.10949285266E+04 0.  0.
        3    1    3    3  502    0 -0.45498654915E+03  0.17673589190E+01  0.42402024703E+03  0.62193975879E+03  0.10100000352E+00 0.  1.
       -3    1    3    3    0  502  0.45498654915E+03 -0.17673589190E+01 -0.19778039757E+03  0.49611790870E+03  0.10100000352E+00 0. -1.
</event>
<event>
 5   0  0.1480937E-03  0.1092896E+04  0.7818609E-02  0.9212144E-01
       -1   -1    0    0    0  501  0.00000000000E+00  0.00000000000E+00  0.67074464018E+03  0.67074464020E+03  0.50400001928E-02 0.  1.
        1   -1    0    0  501    0  0.00000000000E+00  0.00000000000E+00 -0.44518478671E+03  0.44518478674E+03  0.50400001928E-02 0. -1.
    10030    2    1    2    0    0  0.00000000000E+00  0.00000000000E+00  0.22555985347E+03  0.11159294269E+04  0.10928958040E+04 0.  0.
        1    1    3    3  502    0 -0.43786461079E+03  0.13026203775E+03 -0.19339248901E+03  0.49607889563E+03  0.50400001928E-02 0.  1.
       -1    1    3    3    0  502  0.43786461079E+03 -0.13026203775E+03  0.41895234247E+03  0.61985053130E+03  0.50400001928E-02 0. -1.
</event>
<event>
 5   0  0.9631750E-04  0.1104296E+04  0.7818609E-02  0.9201015E-01
        3   -1    0    0  501    0  0.00000000000E+00  0.00000000000E+00  0.65775434109E+03  0.65775434885E+03  0.10100000352E+00 0. -1.
       -3   -1    0    0    0  501  0.00000000000E+00  0.00000000000E+00 -0.46349749187E+03  0.46349750287E+03  0.10100000352E+00 0.  1.
    10030    2    1    2    0    0  0.00000000000E+00  0.00000000000E+00  0.19425684922E+03  0.11212518517E+04  0.11042961521E+04 0.  0.
        2    1    3    3  502    0  0.31881285794E+03  0.35162439735E+03  0.38357019050E+03  0.61025195309E+03  0.25500000920E-02 0. -1.
       -2    1    3    3    0  502 -0.31881285794E+03 -0.35162439735E+03 -0.18931334128E+03  0.51099989863E+03  0.25500000920E-02 0.  1.
</event>
<event>
 5   0  0.1480937E-03  0.1084616E+04  0.7818609E-02  0.9220317E-01
        1   -1    0    0  501    0  0.00000000000E+00  0.00000000000E+00  0.77933778816E+03  0.77933778818E+03  0.50400001928E-02 0.  1.
       -1   -1    0    0    0  501  0.00000000000E+00  0.00000000000E+00 -0.37736898005E+03  0.37736898008E+03  0.50400001928E-02 0. -1.
    10030    2    1    2    0    0  0.00000000000E+00  0.00000000000E+00  0.40196880811E+03  0.11567067683E+04  0.10846158882E+04 0.  0.
        1    1    3    3  502    0  0.15396808812E+03  0.29442371357E+03  0.65808256190E+03  0.73720021268E+03  0.50400001928E-02 0.  1.
       -1    1    3    3    0  502 -0.15396808812E+03 -0.29442371357E+03 -0.25611375379E+03  0.41950655558E+03  0.50400001928E-02 0. -1.
</event>
<event>
 5   0  0.1415400E-03  0.1102333E+04  0.7818609E-02  0.9202921E-01
        1   -1    0    0  501    0  0.00000000000E+00  0.00000000000E+00  0.72774496597E+03  0.72774496599E+03  0.50400001928E-02 0. -1.
       -1   -1    0    0    0  501  0.00000000000E+00  0.00000000000E+00 -0.41743263541E+03  0.41743263544E+03  0.50400001928E-02 0.  1.
    10030    2    1    2    0    0  0.00000000000E+00  0.00000000000E+00  0.31031233056E+03  0.11451776014E+04  0.11023329789E+04 0.  0.
        2    1    3    3  502    0  0.33791178115E+03  0.34253459415E+03  0.43443601995E+03  0.64826613013E+03  0.25500000920E-02 0. -1.
       -2    1    3    3    0  502 -0.33791178115E+03 -0.34253459415E+03 -0.12412368940E+03  0.49691147130E+03  0.25500000920E-02 0.  1.
</event>
<event>
 5   0  0.1468556E-03  0.1101367E+04  0.7818609E-02  0.9203861E-01
       -1   -1    0    0    0  501  0.00000000000E+00  0.00000000000E+00  0.49771793257E+03  0.49771793259E+03  0.50400001928E-02 0.  1.
        1   -1    0    0  501    0  0.00000000000E+00  0.00000000000E+00 -0.60928517304E+03  0.60928517306E+03  0.50400001928E-02 0. -1.
    10030    2    1    2    0    0  0.00000000000E+00  0.00000000000E+00 -0.11156724047E+03  0.11070031057E+04  0.11013667086E+04 0.  0.
        5    1    3    3  502    0 -0.26330635256E+03 -0.21123755407E+03  0.38150438862E+03  0.50943029757E+03  0.46999998093E+01 0.  1.
       -5    1    3    3    0  502  0.26330635256E+03  0.21123755407E+03 -0.49307162910E+03  0.59757280809E+03  0.46999998093E+01 0. -1.
</event>
<event>
 5   0  0.2392585E-03  0.1102014E+04  0.7818609E-02  0.9203231E-01
        2   -1    0    0  501    0  0.00000000000E+00  0.00000000000E+00  0.13828542735E+04  0.13828542735E+04  0.25500000920E-02 0. -1.
       -2   -1    0    0    0  501  0.00000000000E+00  0.00000000000E+00 -0.21955233478E+03  0.21955233479E+03  0.25500000920E-02 0.  1.
    10030    2    1    2    0    0  0.00000000000E+00  0.00000000000E+00  0.11633019387E+04  0.16024066083E+04  0.11020143092E+04 0.  0.
        5    1    3    3  502    0  0.12740667017E+03 -0.16974771054E+03 -0.15769789052E+03  0.26445691428E+03  0.46999998093E+01 0.  1.
       -5    1    3    3    0  502 -0.12740667017E+03  0.16974771054E+03  0.13209998292E+04  0.13379496940E+04  0.46999998093E+01 0. -1.
</event>
<event>
 5   0  0.1468556E-03  0.1144447E+04  0.7818609E-02  0.9162921E-01
        1   -1    0    0  501    0  0.00000000000E+00  0.00000000000E+00  0.82805202946E+03  0.82805202947E+03  0.50400001928E-02 0.  1.
       -1   -1    0    0    0  501  0.00000000000E+00  0.00000000000E+00 -0.39543396159E+03  0.39543396162E+03  0.50400001928E-02 0. -1.
    10030    2    1    2    0    0  0.00000000000E+00  0.00000000000E+00  0.43261806787E+03  0.12234859911E+04  0.11444472805E+04 0.  0.
        5    1    3    3  502    0 -0.84610448805E+02  0.56587908612E+03  0.20957001286E+03  0.60936011393E+03  0.46999998093E+01 0.  1.
       -5    1    3    3    0  502  0.84610448805E+02 -0.56587908612E+03  0.22304805501E+03  0.61412587716E+03  0.46999998093E+01 0. -1.
</event>
<event>
 5   0  0.2467448E-03  0.1102532E+04  0.7818609E-02  0.9202727E-01
       -2   -1    0    0    0  501  0.00000000000E+00  0.00000000000E+00  0.46186693440E+03  0.46186693441E+03  0.25500000920E-02 0.  1.
        2   -1    0    0  501    0  0.00000000000E+00  0.00000000000E+00 -0.65796962993E+03  0.65796962994E+03  0.25500000920E-02 0. -1.
    10030    2    1    2    0    0  0.00000000000E+00  0.00000000000E+00 -0.19610269553E+03  0.11198365643E+04  0.11025323867E+04 0.  0.
        1    1    3    3  502    0 -0.97086945894E+02 -0.37032858764E+03  0.30481643841E+03  0.48936918481E+03  0.50400001928E-02 0.  1.
       -1    1    3    3    0  502  0.97086945894E+02  0.37032858764E+03 -0.50091913394E+03  0.63046737954E+03  0.50400001928E-02 0. -1.
</event>
<event>
 5   0  0.1480937E-03  0.1101893E+04  0.7818609E-02  0.9203348E-01
        1   -1    0    0  501    0  0.00000000000E+00  0.00000000000E+00  0.20888548480E+03  0.20888548486E+03  0.50400001928E-02 0. -1.
       -1   -1    0    0    0  501  0.00000000000E+00  0.00000000000E+00 -0.14531515932E+04  0.14531515932E+04  0.50400001928E-02 0.  1.
    10030    2    1    2    0    0  0.00000000000E+00  0.00000000000E+00 -0.12442661084E+04  0.16620370781E+04  0.11018934161E+04 0.  0.
        1    1    3    3  502    0  0.12383871084E+03  0.50105728608E+03 -0.91284838281E+03  0.10486594301E+04  0.50400001928E-02 0.  1.
       -1    1    3    3    0  502 -0.12383871084E+03 -0.50105728608E+03 -0.33141772560E+03  0.61337764803E+03  0.50400001928E-02 0. -1.
</event>
<event>
 5   0  0.2438115E-03  0.1104860E+04  0.7818609E-02  0.9200468E-01
        2   -1    0    0  501    0  0.00000000000E+00  0.00000000000E+00  0.65789288019E+03  0.65789288019E+03  0.25500000920E-02 0.  1.
       -2   -1    0    0    0  501  0.00000000000E+00  0.00000000000E+00 -0.46387319042E+03  0.46387319043E+03  0.25500000920E-02 0. -1.
    10030    2    1    2    0    0  0.00000000000E+00  0.00000000000E+00  0.19401968977E+03  0.11217660706E+04  0.11048599355E+04 0.  0.
        4    1    3    3  502    0  0.37596026884E+02 -0.51719246415E+03  0.29038615801E+03  0.59432923525E+03  0.12699999809E+01 0.  1.
       -4    1    3    3    0  502 -0.37596026884E+02  0.51719246415E+03 -0.96366468241E+02  0.52743683537E+03  0.12699999809E+01 0. -1.
</event>
<event>
 5   0  0.2483036E-03  0.1098152E+04  0.7818609E-02  0.9206995E-01
        2   -1    0    0  501    0  0.00000000000E+00  0.00000000000E+00  0.65303425111E+03  0.65303425111E+03  0.25500000920E-02 0.  1.
       -2   -1    0    0    0  501  0.00000000000E+00  0.00000000000E+00 -0.46166679176E+03  0.46166679177E+03  0.25500000920E-02 0. -1.
    10030    2    1    2    0    0  0.00000000000E+00  0.00000000000E+00  0.19136745935E+03  0.11147010429E+04  0.10981515881E+04 0.  0.
        3    1    3    3  502    0  0.32958284209E+01 -0.27258798056E+03  0.57948921482E+03  0.64040833062E+03  0.10100000352E+00 0.  1.
       -3    1    3    3    0  502 -0.32958284209E+01  0.27258798056E+03 -0.38812175547E+03  0.47429271226E+03  0.10100000352E+00 0. -1.
</event>
<event>
 5   0  0.1509004E-03  0.1103449E+04  0.7818609E-02  0.9201837E-01
       -1   -1    0    0    0  501  0.00000000000E+00  0.00000000000E+00  0.35767216361E+03  0.35767216365E+03  0.50400001928E-02 0. -1.
        1   -1    0    0  501    0  0.00000000000E+00  0.00000000000E+00 -0.85105867882E+03  0.85105867883E+03  0.50400001928E-02 0.  1.
    10030    2    1    2    0    0  0.00000000000E+00  0.00000000000E+00 -0.49338651520E+03  0.12087308425E+04  0.11034491362E+04 0.  0.
        3    1    3    3  502    0  0.28296236837E+03 -0.88706004425E+02 -0.75634047200E+03  0.81239607145E+03  0.10100000352E+00 0.  1.
       -3    1    3    3    0  502 -0.28296236837E+03  0.88706004425E+02  0.26295395679E+03  0.39633477103E+03  0.10100000352E+00 0. -1.
</event>
<event>
 5   0  0.1468556E-03  0.1107289E+04  0.7818609E-02  0.9198117E-01
        1   -1    0    0  501    0  0.00000000000E+00  0.00000000000E+00  0.49182703621E+03  0.49182703623E+03  0.50400001928E-02 0. -1.
       -1   -1    0    0    0  501  0.00000000000E+00  0.00000000000E+00 -0.62323148093E+03  0.62323148095E+03  0.50400001928E-02 0.  1.
    10030    2    1    2    0    0  0.00000000000E+00  0.00000000000E+00 -0.13140444473E+03  0.11150585172E+04  0.11072887467E+04 0.  0.
        5    1    3    3  502    0 -0.24595757429E+03 -0.18176997007E+03  0.39901678241E+03  0.50276429170E+03  0.46999998093E+01 0. -1.
       -5    1    3    3    0  502  0.24595757429E+03  0.18176997007E+03 -0.53042122713E+03  0.61229422549E+03  0.46999998093E+01 0.  1.
</event>
<event>
 5   0  0.9631750E-04  0.1099991E+04  0.7818609E-02  0.9205200E-01
       -3   -1    0    0    0  501  0.00000000000E+00  0.00000000000E+00  0.17841539146E+03  0.17841542004E+03  0.10100000352E+00 0. -1.
        3   -1    0    0  501    0  0.00000000000E+00  0.00000000000E+00 -0.16954550885E+04  0.16954550915E+04  0.10100000352E+00 0.  1.
    10030    2    1    2    0    0  0.00000000000E+00  0.00000000000E+00 -0.15170396970E+04  0.18738705115E+04  0.10999914780E+04 0.  0.
        4    1    3    3  502    0 -0.79122352185E+02  0.79557192072E+02 -0.16757479779E+04  0.16795006971E+04  0.12699999809E+01 0.  1.
       -4    1    3    3    0  502  0.79122352185E+02 -0.79557192072E+02  0.15870828087E+03  0.19436981438E+03  0.12699999809E+01 0. -1.
</event>
<event>
 5   0  0.1415400E-03  0.1103687E+04  0.7818609E-02  0.9201606E-01
        1   -1    0    0  501    0  0.00000000000E+00  0.00000000000E+00  0.13087314874E+04  0.13087314874E+04  0.50400001928E-02 0.  1.
       -1   -1    0    0    0  501  0.00000000000E+00  0.00000000000E+00 -0.23269194561E+03  0.23269194567E+03  0.50400001928E-02 0. -1.
    10030    2    1    2    0    0  0.00000000000E+00  0.00000000000E+00  0.10760395417E+04  0.15414234330E+04  0.11036870501E+04 0.  0.
        2    1    3    3  502    0  0.29749370182E+03 -0.38290767895E+03  0.17006999477E+03  0.51385269908E+03  0.25500000920E-02 0. -1.
       -2    1    3    3    0  502 -0.29749370182E+03  0.38290767895E+03  0.90596954698E+03  0.10275707340E+04  0.25500000920E-02 0.  1.
</event>
<event>
 5   0  0.2483036E-03  0.1109896E+04  0.7818609E-02  0.9195600E-01
       -2   -1    0    0    0  501  0.00000000000E+00  0.00000000000E+00  0.39289337403E+03  0.39289337403E+03  0.25500000920E-02 0.  1.
        2   -1    0    0  501    0  0.00000000000E+00  0.00000000000E+00 -0.78384461917E+03  0.78384461918E+03  0.25500000920E-02 0. -1.
    10030    2    1    2    0    0  0.00000000000E+00  0.00000000000E+00 -0.39095124515E+03  0.11767379932E+04  0.11098961341E+04 0.  0.
        3    1    3    3  502    0 -0.51579797701E+03 -0.19753138704E+03 -0.25258167687E+03  0.60734151484E+03  0.10100000352E+00 0. -1.
       -3    1    3    3    0  502  0.51579797701E+03  0.19753138704E+03 -0.13836956828E+03  0.56939647837E+03  0.10100000352E+00 0.  1.
</event>
<event>
 5   0  0.2488472E-03  0.1054679E+04  0.7818609E-02  0.9250527E-01
        2   -1    0    0  501    0  0.00000000000E+00  0.00000000000E+00  0.51463953129E+03  0.51463953129E+03  0.25500000920E-02 0. -1.
       -2   -1    0    0    0  501  0.00000000000E+00  0.00000000000E+00 -0.54035258248E+03  0.54035258249E+03  0.25500000920E-02 0.  1.
    10030    2    1    2    0    0  0.00000000000E+00  0.00000000000E+00 -0.25713051199E+02  0.10549921138E+04  0.10546787184E+04 0.  0.
        2    1    3    3  502    0  0.76979443876E+02 -0.25064131963E+03 -0.47052924939E+03  0.53865079637E+03  0.25500000920E-02 0.  1.
       -2    1    3    3    0  502 -0.76979443876E+02  0.25064131963E+03  0.44481619819E+03  0.51634131741E+03  0.25500000920E-02 0. -1.
</event>
<event>
 5   0  0.2483036E-03  0.1093825E+04  0.7818609E-02  0.9211231E-01
       -2   -1    0    0    0  501  0.00000000000E+00  0.00000000000E+00  0.80096745162E+03  0.80096745162E+03  0.25500000920E-02 0. -1.
        2   -1    0    0  501    0  0.00000000000E+00  0.00000000000E+00 -0.37344012679E+03  0.37344012680E+03  0.25500000920E-02 0.  1.
    10030    2    1    2    0    0  0.00000000000E+00  0.00000000000E+00  0.42752732483E+03  0.11744075784E+04  0.10938251902E+04 0.  0.
        3    1    3    3  502    0 -0.13741978665E+03  0.32286162796E+03 -0.23665291085E+03  0.42323567783E+03  0.10100000352E+00 0.  1.
       -3    1    3    3    0  502  0.13741978665E+03 -0.32286162796E+03  0.66418023568E+03  0.75117190059E+03  0.10100000352E+00 0. -1.
</event>
<event>
 5   0  0.2488472E-03  0.1099116E+04  0.7818609E-02  0.9206054E-01
        2   -1    0    0  501    0  0.00000000000E+00  0.00000000000E+00  0.91445723502E+03  0.91445723502E+03  0.25500000920E-02 0.  1.
       -2   -1    0    0    0  501  0.00000000000E+00  0.00000000000E+00 -0.33026572363E+03  0.33026572364E+03  0.25500000920E-02 0. -1.
    10030    2    1    2    0    0  0.00000000000E+00  0.00000000000E+00  0.58419151139E+03  0.12447229587E+04  0.10991157909E+04 0.  0.
        2    1    3    3  502    0  0.46026978662E+03  0.15876644865E+03  0.34612079638E+01  0.48689530873E+03  0.25500000920E-02 0. -1.
       -2    1    3    3    0  502 -0.46026978662E+03 -0.15876644865E+03  0.58073030342E+03  0.75782764994E+03  0.25500000920E-02 0.  1.
</event>
<event>
 5   0  0.2483036E-03  0.1083337E+04  0.7818609E-02  0.9221587E-01
        2   -1    0    0  501    0  0.00000000000E+00  0.00000000000E+00  0.12076090524E+04  0.12076090524E+04  0.25500000920E-02 0.  1.
       -2   -1    0    0    0  501  0.00000000000E+00  0.00000000000E+00 -0.24296320804E+03  0.24296320805E+03  0.25500000920E-02 0. -1.
    10030    2    1    2    0    0  0.00000000000E+00  0.00000000000E+00  0.96464584434E+03  0.14505722604E+04  0.10833366410E+04 0.  0.
        3    1    3    3  502    0  0.53303119400E+02 -0.44521761985E+02 -0.23697683764E+03  0.24694420748E+03  0.10100000352E+00 0. -1.
       -3    1    3    3    0  502 -0.53303119400E+02  0.44521761985E+02  0.12016226820E+04  0.12036280530E+04  0.10100000352E+00 0.  1.
</event>
<event>
 5   0  0.2392585E-03  0.1097609E+04  0.7818609E-02  0.9207525E-01
        2   -1    0    0  501    0  0.00000000000E+00  0.00000000000E+00  0.31663033185E+04  0.31663033185E+04  0.25500000920E-02 0.  1.
       -2   -1    0    0    0  501  0.00000000000E+00  0.00000000000E+00 -0.95122398577E+02  0.95122398612E+02  0.25500000920E-02 0. -1.
    10030    2    1    2    0    0  0.00000000000E+00  0.00000000000E+00  0.30711809199E+04  0.32614257171E+04  0.10976089765E+04 0.  0.
        5    1    3    3  502    0  0.22792938880E+03 -0.76737380016E+02  0.69866537507E+02  0.25048723487E+03  0.46999998093E+01 0. -1.
       -5    1    3    3    0  502 -0.22792938880E+03  0.76737380016E+02  0.30013143824E+04  0.30109384822E+04  0.46999998093E+01 0.  1.
</event>
<event>
 5   0  0.2438115E-03  0.1104026E+04  0.7818609E-02  0.9201277E-01
       -2   -1    0    0    0  501  0.00000000000E+00  0.00000000000E+00  0.12626201064E+04  0.12626201064E+04  0.25500000920E-02 0.  1.
        2   -1    0    0  501    0  0.00000000000E+00  0.00000000000E+00 -0.24133820295E+03  0.24133820297E+03  0.25500000920E-02 0. -1.
    10030    2    1    2    0    0  0.00000000000E+00  0.00000000000E+00  0.10212819034E+04  0.15039583093E+04  0.11040262089E+04 0.  0.
        4    1    3    3  502    0  0.50325378724E+03 -0.99345692609E+02  0.78842920179E+03  0.94061477777E+03  0.12699999809E+01 0.  1.
       -4    1    3    3    0  502 -0.50325378724E+03  0.99345692609E+02  0.23285270163E+03  0.56334353158E+03  0.12699999809E+01 0. -1.
</event>
<event>
 5   0  0.2438115E-03  0.1099094E+04  0.7818609E-02  0.9206075E-01
       -2   -1    0    0    0  501  0.00000000000E+00  0.00000000000E+00  0.78717157513E+03  0.78717157514E+03  0.25500000920E-02 0. -1.
        2   -1    0    0  501    0  0.00000000000E+00  0.00000000000E+00 -0.38365447794E+03  0.38365447795E+03  0.25500000920E-02 0.  1.
    10030    2    1    2    0    0  0.00000000000E+00  0.00000000000E+00  0.40351709720E+03  0.11708260531E+04  0.10990939900E+04 0.  0.
        4    1    3    3  502    0  0.39518405883E+02  0.52995161604E+03  0.52660043496E+02  0.53402725850E+03  0.12699999809E+01 0.  1.
       -4    1    3    3    0  502 -0.39518405883E+02 -0.52995161604E+03  0.35085705370E+03  0.63679879458E+03  0.12699999809E+01 0. -1.
</event>
<event>
 5   0  0.1480937E-03  0.1099116E+04  0.7818609E-02  0.9206053E-01
        1   -1    0    0  501    0  0.00000000000E+00  0.00000000000E+00  0.30735311505E+03  0.30735311509E+03  0.50400001928E-02 0. -1.
       -1   -1    0    0    0  501  0.00000000000E+00  0.00000000000E+00 -0.98262948623E+03  0.98262948624E+03  0.50400001928E-02 0.  1.
    10030    2    1    2    0    0  0.00000000000E+00  0.00000000000E+00 -0.67527637118E+03  0.12899826013E+04  0.10991164334E+04 0.  0.
        1    1    3    3  502    0 -0.36015054754E+03  0.38089111693E+03 -0.53130099049E+03  0.74636934715E+03  0.50400001928E-02 0.  1.
       -1    1    3    3    0  502  0.36015054754E+03 -0.38089111693E+03 -0.14397538069E+03  0.54361325418E+03  0.50400001928E-02 0. -1.
</event>
<event>
 5   0  0.2488472E-03  0.1104412E+04  0.7818609E-02  0.9200902E-01
       -2   -1    0    0    0  501  0.00000000000E+00  0.00000000000E+00  0.82404915468E+03  0.82404915468E+03  0.25500000920E-02 0. -1.
        2   -1    0    0  501    0  0.00000000000E+00  0.00000000000E+00 -0.37004069801E+03  0.37004069802E+03  0.25500000920E-02 0.  1.
    10030    2    1    2    0    0  0.00000000000E+00  0.00000000000E+00  0.45400845667E+03  0.11940898527E+04  0.11044124672E+04 0.  0.
        2    1    3    3  502    0 -0.52466927932E+03 -0.15252735139E+03  0.14058077275E+03  0.56418560710E+03  0.25500000920E-02 0.  1.
       -2    1    3    3    0  502  0.52466927932E+03  0.15252735139E+03  0.31342768392E+03  0.62990424561E+03  0.25500000920E-02 0. -1.
</event>
<event>
 5   0  0.1468556E-03  0.1104997E+04  0.7818609E-02  0.9200335E-01
       -1   -1    0    0    0  501  0.00000000000E+00  0.00000000000E+00  0.69536145722E+03  0.69536145724E+03  0.50400001928E-02 0.  1.
        1   -1    0    0  501    0  0.00000000000E+00  0.00000000000E+00 -0.43898731341E+03  0.43898731344E+03  0.50400001928E-02 0. -1.
    10030    2    1    2    0    0  0.00000000000E+00  0.00000000000E+00  0.25637414381E+03  0.11343487707E+04  0.11049974805E+04 0.  0.
        5    1    3    3  502    0 -0.55963610460E+02 -0.54540304457E+03  0.58287590879E+02  0.55137640498E+03  0.46999998093E+01 0. -1.
       -5    1    3    3    0  502  0.55963610460E+02  0.54540304457E+03  0.19808655293E+03  0.58297236570E+03  0.46999998093E+01 0.  1.
</event>
<event>
 5   0  0.1479573E-03  0.1058605E+04  0.7818609E-02  0.9246504E-01
       -1   -1    0    0    0  501  0.00000000000E+00  0.00000000000E+00  0.64968732579E+03  0.64968732581E+03  0.50400001928E-02 0. -1.
        1   -1    0    0  501    0  0.00000000000E+00  0.00000000000E+00 -0.43122476497E+03  0.43122476500E+03  0.50400001928E-02 0.  1.
    10030    2    1    2    0    0  0.00000000000E+00  0.00000000000E+00  0.21846256082E+03  0.10809120908E+04  0.10586052416E+04 0.  0.
        4    1    3    3  502    0 -0.19508726473E+03  0.42128203016E+03  0.36879664389E+03  0.59291666129E+03  0.12699999809E+01 0. -1.
       -4    1    3    3    0  502  0.19508726473E+03 -0.42128203016E+03 -0.15033408307E+03  0.48799542951E+03  0.12699999809E+01 0.  1.
</event>
<event>
 5   0  0.1468556E-03  0.1102713E+04  0.7818609E-02  0.9202552E-01
       -1   -1    0    0    0  501  0.00000000000E+00  0.00000000000E+00  0.31982669654E+03  0.31982669658E+03  0.50400001928E-02 0.  1.
        1   -1    0    0  501    0  0.00000000000E+00  0.00000000000E+00 -0.95049613747E+03  0.95049613748E+03  0.50400001928E-02 0. -1.
    10030    2    1    2    0    0  0.00000000000E+00  0.00000000000E+00 -0.63066944093E+03  0.12703228341E+04  0.11027130901E+04 0.  0.
        5    1    3    3  502    0  0.34357274798E+03 -0.14163737561E+03 -0.78450838383E+03  0.86808920833E+03  0.46999998093E+01 0. -1.
       -5    1    3    3    0  502 -0.34357274798E+03  0.14163737561E+03  0.15383894290E+03  0.40223362574E+03  0.46999998093E+01 0.  1.
</event>
<event>
 5   0  0.2467448E-03  0.1072280E+04  0.7818609E-02  0.9232638E-01
        2   -1    0    0  501    0  0.00000000000E+00  0.00000000000E+00  0.76821464183E+03  0.76821464183E+03  0.25500000920E-02 0.  1.
       -2   -1    0    0    0  501  0.00000000000E+00  0.00000000000E+00 -0.37417448469E+03  0.37417448470E+03  0.25500000920E-02 0. -1.
    10030    2    1    2    0    0  0.00000000000E+00  0.00000000000E+00  0.39404015713E+03  0.11423891265E+04  0.10722804069E+04 0.  0.
        1    1    3    3  502    0 -0.94341642804E+02  0.52084102968E+03  0.28786290450E+03  0.60252865125E+03  0.50400001928E-02 0. -1.
       -1    1    3    3    0  502  0.94341642804E+02 -0.52084102968E+03  0.10617725263E+03  0.53986047528E+03  0.50400001928E-02 0.  1.
</event>
<event>
 5   0  0.2483036E-03  0.1097601E+04  0.7818609E-02  0.9207533E-01
        2   -1    0    0  501    0  0.00000000000E+00  0.00000000000E+00  0.15499571791E+04  0.15499571791E+04  0.25500000920E-02 0. -1.
       -2   -1    0    0    0  501  0.00000000000E+00  0.00000000000E+00 -0.19431650456E+03  0.19431650458E+03  0.25500000920E-02 0.  1.
    10030    2    1    2    0    0  0.00000000000E+00  0.00000000000E+00  0.13556406746E+04  0.17442736837E+04  0.10976014965E+04 0.  0.
        3    1    3    3  502    0 -0.50684352314E+03  0.49020554353E+02  0.35256883655E+03  0.61935302244E+03  0.10100000352E+00 0.  1.
       -3    1    3    3    0  502  0.50684352314E+03 -0.49020554353E+02  0.10030718380E+04  0.11249206613E+04  0.10100000352E+00 0. -1.
</event>
<event>
 5   0  0.2392585E-03  0.1099890E+04  0.7818609E-02  0.9205299E-01
       -2   -1    0    0    0  501  0.00000000000E+00  0.00000000000E+00  0.15018334247E+03  0.15018334249E+03  0.25500000920E-02 0.  1.
        2   -1    0    0  501    0  0.00000000000E+00  0.00000000000E+00 -0.20138020529E+04  0.20138020529E+04  0.25500000920E-02 0. -1.
    10030    2    1    2    0    0  0.00000000000E+00  0.00000000000E+00 -0.18636187104E+04  0.21639853954E+04  0.10998900371E+04 0.  0.
        5    1    3    3  502    0 -0.54681312634E+02  0.43852157657E+03 -0.28785818580E+03  0.52742359087E+03  0.46999998093E+01 0.  1.
       -5    1    3    3    0  502  0.54681312634E+02 -0.43852157657E+03 -0.15757605246E+04  0.16365618045E+04  0.46999998093E+01 0. -1.
</event>
<event>
 5   0  0.1468556E-03  0.1104185E+04  0.7818609E-02  0.9201122E-01
       -1   -1    0    0    0  501  0.00000000000E+00  0.00000000000E+00  0.31226933426E+03  0.31226933430E+03  0.50400001928E-02 0. -1.
        1   -1    0    0  501    0  0.00000000000E+00  0.00000000000E+00 -0.97610068530E+03  0.97610068531E+03  0.50400001928E-02 0.  1.
    10030    2    1    2    0    0  0.00000000000E+00  0.00000000000E+00 -0.66383135104E+03  0.12883700196E+04  0.11041853308E+04 0.  0.
        5    1    3    3  502    0  0.37879077556E+03  0.22081495609E+03  0.59516898636E+02  0.44249977141E+03  0.46999998093E+01 0. -1.
       -5    1    3    3    0  502 -0.37879077556E+03 -0.22081495609E+03 -0.72334824968E+03  0.84587024820E+03  0.46999998093E+01 0.  1.
</event>
<event>
 5   0  0.2483036E-03  0.1088375E+04  0.7818609E-02  0.9216597E-01
       -2   -1    0    0    0  501  0.00000000000E+00  0.00000000000E+00  0.34121535075E+03  0.34121535076E+03  0.25500000920E-02 0. -1.
        2   -1    0    0  501    0  0.00000000000E+00  0.00000000000E+00 -0.86789791772E+03  0.86789791773E+03  0.25500000920E-02 0.  1.
    10030    2    1    2    0    0  0.00000000000E+00  0.00000000000E+00 -0.52668256697E+03  0.12091132685E+04  0.10883751052E+04 0.  0.
        3    1    3    3  502    0  0.10426592099E+03 -0.16650993652E+03  0.30044354085E+03  0.35897530929E+03  0.10100000352E+00 0. -1.
       -3    1    3    3    0  502 -0.10426592099E+03  0.16650993652E+03 -0.82712610782E+03  0.85013795920E+03  0.10100000352E+00 0.  1.
</event>
<event>
 5   0  0.2438115E-03  0.1099623E+04  0.7818609E-02  0.9205559E-01
       -2   -1    0    0    0  501  0.00000000000E+00  0.00000000000E+00  0.84449949632E+03  0.84449949632E+03  0.25500000920E-02 0.  1.
        2   -1    0    0  501    0  0.00000000000E+00  0.00000000000E+00 -0.35795482667E+03  0.35795482668E+03  0.25500000920E-02 0. -1.
    10030    2    1    2    0    0  0.00000000000E+00  0.00000000000E+00  0.48654466965E+03  0.12024543230E+04  0.10996229733E+04 0.  0.
        4    1    3    3  502    0 -0.40746099184E+02  0.93449820732E+01  0.84275750240E+03  0.84379463973E+03  0.12699999809E+01 0.  1.
       -4    1    3    3    0  502  0.40746099184E+02 -0.93449820732E+01 -0.35621283275E+03  0.35865968327E+03  0.12699999809E+01 0. -1.
</event>
<event>
 5   0  0.2392585E-03  0.1091385E+04  0.7818609E-02  0.9213630E-01
        2   -1    0    0  501    0  0.00000000000E+00  0.00000000000E+00  0.18358842406E+04  0.18358842406E+04  0.25500000920E-02 0.  1.
       -2   -1    0    0    0  501  0.00000000000E+00  0.00000000000E+00 -0.16219986638E+03  0.16219986640E+03  0.25500000920E-02 0. -1.
    10030    2    1    2    0    0  0.00000000000E+00  0.00000000000E+00  0.16736843742E+04  0.19980841070E+04  0.10913847691E+04 0.  0.
        5    1    3    3  502    0 -0.34591887174E+03 -0.99460496981E+02  0.85986625712E+02  0.37009194274E+03  0.46999998093E+01 0. -1.
       -5    1    3    3    0  502  0.34591887174E+03  0.99460496981E+02  0.15876977485E+04  0.16279921643E+04  0.46999998093E+01 0.  1.
</event>
<event>
 5   0  0.1468556E-03  0.1100186E+04  0.7818609E-02  0.9205010E-01
       -1   -1    0    0    0  501  0.00000000000E+00  0.00000000000E+00  0.52154016174E+03  0.52154016177E+03  0.50400001928E-02 0. -1.
        1   -1    0    0  501    0  0.00000000000E+00  0.00000000000E+00 -0.58020935645E+03  0.58020935647E+03  0.50400001928E-02 0.  1.
    10030    2    1    2    0    0  0.00000000000E+00  0.00000000000E+00 -0.58669194703E+02  0.11017495182E+04  0.11001863145E+04 0.  0.
        5    1    3    3  502    0 -0.42373000148E+03 -0.21895263064E+03 -0.30375501753E+03  0.56548790375E+03  0.46999998093E+01 0.  1.
       -5    1    3    3    0  502  0.42373000148E+03  0.21895263064E+03  0.24508582283E+03  0.53626161448E+03  0.46999998093E+01 0. -1.
</event>
<event>
 5   0  0.2483036E-03  0.1102482E+04  0.7818609E-02  0.9202777E-01
        2   -1    0    0  501    0  0.00000000000E+00  0.00000000000E+00  0.76335139694E+03  0.76335139694E+03  0.25500000920E-02 0. -1.
       -2   -1    0    0    0  501  0.00000000000E+00  0.00000000000E+00 -0.39806882048E+03  0.39806882049E+03  0.25500000920E-02 0.  1.
    10030    2    1    2    0    0  0.00000000000E+00  0.00000000000E+00  0.36528257645E+03  0.11614202174E+04  0.11024815467E+04 0.  0.
        3    1    3    3  502    0  0.10696831166E+02  0.55012361290E+03  0.14744928511E+03  0.56964174141E+03  0.10100000352E+00 0. -1.
       -3    1    3    3    0  502 -0.10696831166E+02 -0.55012361290E+03  0.21783329135E+03  0.59177847603E+03  0.10100000352E+00 0.  1.
</event>
<event>
 5   0  0.2467448E-03  0.1108545E+04  0.7818609E-02  0.9196903E-01
       -2   -1    0    0    0  501  0.00000000000E+00  0.00000000000E+00  0.15792587643E+03  0.15792587646E+03  0.25500000920E-02 0. -1.
        2   -1    0    0  501    0  0.00000000000E+00  0.00000000000E+00 -0.19453311399E+04  0.19453311399E+04  0.25500000920E-02 0.  1.
    10030    2    1    2    0    0  0.00000000000E+00  0.00000000000E+00 -0.17874052635E+04  0.21032570164E+04  0.11085452183E+04 0.  0.
        1    1    3    3  502    0 -0.51035053511E+03  0.35409376035E+00 -0.48342511096E+03  0.70296346420E+03  0.50400001928E-02 0. -1.
       -1    1    3    3    0  502  0.51035053511E+03 -0.35409376035E+00 -0.13039801525E+04  0.14002935522E+04  0.50400001928E-02 0.  1.
</event>
<event>
 5   0  0.2438115E-03  0.1099069E+04  0.7818609E-02  0.9206100E-01
        2   -1    0    0  501    0  0.00000000000E+00  0.00000000000E+00  0.17912649769E+03  0.17912649771E+03  0.25500000920E-02 0.  1.
       -2   -1    0    0    0  501  0.00000000000E+00  0.00000000000E+00 -0.16858927810E+04  0.16858927810E+04  0.25500000920E-02 0. -1.
    10030    2    1    2    0    0  0.00000000000E+00  0.00000000000E+00 -0.15067662833E+04  0.18650192787E+04  0.10990688229E+04 0.  0.
        4    1    3    3  502    0  0.31093495372E+03  0.22708601368E+03 -0.88035160544E+02  0.39496886643E+03  0.12699999809E+01 0.  1.
       -4    1    3    3    0  502 -0.31093495372E+03 -0.22708601368E+03 -0.14187311228E+04  0.14700504123E+04  0.12699999809E+01 0. -1.
</event>
<event>
 5   0  0.2467448E-03  0.1100297E+04  0.7818609E-02  0.9204903E-01
       -2   -1    0    0    0  501  0.00000000000E+00  0.00000000000E+00  0.62839932169E+03  0.62839932169E+03  0.25500000920E-02 0. -1.
        2   -1    0    0  501    0  0.00000000000E+00  0.00000000000E+00 -0.48164139885E+03  0.48164139885E+03  0.25500000920E-02 0.  1.
    10030    2    1    2    0    0  0.00000000000E+00  0.00000000000E+00  0.14675792284E+03  0.11100407205E+04  0.11002965570E+04 0.  0.
        1    1    3    3  502    0 -0.13401595227E+03  0.37502004564E+03  0.45629636889E+03  0.60564567726E+03  0.50400001928E-02 0. -1.
       -1    1    3    3    0  502  0.13401595227E+03 -0.37502004564E+03 -0.30953844604E+03  0.50439504329E+03  0.50400001928E-02 0.  1.
</event>
<event>
 5   0  0.2483036E-03  0.1099210E+04  0.7818609E-02  0.9205962E-01
       -2   -1    0    0    0  501  0.00000000000E+00  0.00000000000E+00  0.46516725049E+03  0.46516725050E+03  0.25500000920E-02 0.  1.
        2   -1    0    0  501    0  0.00000000000E+00  0.00000000000E+00 -0.64936971788E+03  0.64936971788E+03  0.25500000920E-02 0. -1.
    10030    2    1    2    0    0  0.00000000000E+00  0.00000000000E+00 -0.18420246739E+03  0.11145369684E+04  0.10992097638E+04 0.  0.
        3    1    3    3  502    0  0.23098563076E+03 -0.35552571312E+03 -0.44671005786E+03  0.61587562080E+03  0.10100000352E+00 0. -1.
       -3    1    3    3    0  502 -0.23098563076E+03  0.35552571312E+03  0.26250759048E+03  0.49866134757E+03  0.10100000352E+00 0.  1.
</event>
<event>
 5   0  0.2488472E-03  0.1107085E+04  0.7818609E-02  0.9198314E-01
        2   -1    0    0  501    0  0.00000000000E+00  0.00000000000E+00  0.18263618869E+04  0.18263618869E+04  0.25500000920E-02 0. -1.
       -2   -1    0    0    0  501  0.00000000000E+00  0.00000000000E+00 -0.16777029252E+03  0.16777029254E+03  0.25500000920E-02 0.  1.
    10030    2    1    2    0    0  0.00000000000E+00  0.00000000000E+00  0.16585915943E+04  0.19941321794E+04  0.11070849435E+04 0.  0.
        2    1    3    3  502    0  0.27746697083E+03 -0.10618988521E+03 -0.11994122364E+02  0.29733494682E+03  0.25500000920E-02 0.  1.
       -2    1    3    3    0  502 -0.27746697083E+03  0.10618988521E+03  0.16705857167E+04  0.16967972326E+04  0.25500000920E-02 0. -1.
</event>
<event>
 5   0  0.2467448E-03  0.1118350E+04  0.7818609E-02  0.9187489E-01
       -2   -1    0    0    0  501  0.00000000000E+00  0.00000000000E+00  0.29332476158E+03  0.29332476159E+03  0.25500000920E-02 0. -1.
        2   -1    0    0  501    0  0.00000000000E+00  0.00000000000E+00 -0.10659747116E+04  0.10659747116E+04  0.25500000920E-02 0.  1.
    10030    2    1    2    0    0  0.00000000000E+00  0.00000000000E+00 -0.77264994998E+03  0.13592994732E+04  0.11183501744E+04 0.  0.
        1    1    3    3  502    0  0.44137043842E+03 -0.68692931684E+02 -0.79517590763E+03  0.91204786436E+03  0.50400001928E-02 0.  1.
       -1    1    3    3    0  502 -0.44137043842E+03  0.68692931684E+02  0.22525957655E+02  0.44725160880E+03  0.50400001928E-02 0. -1.
</event>
<event>
 5   0  0.2488472E-03  0.1194966E+04  0.7818609E-02  0.9117274E-01
       -2   -1    0    0    0  501  0.00000000000E+00  0.00000000000E+00  0.23486522612E+03  0.23486522613E+03  0.25500000920E-02 0. -1.
        2   -1    0    0  501    0  0.00000000000E+00  0.00000000000E+00 -0.15199608040E+04  0.15199608040E+04  0.25500000920E-02 0.  1.
    10030    2    1    2    0    0  0.00000000000E+00  0.00000000000E+00 -0.12850955778E+04  0.17548260301E+04  0.11949660044E+04 0.  0.
        2    1    3    3  502    0 -0.18960537038E+03  0.36659681171E+03 -0.12769779354E+04  0.13420193987E+04  0.25500000920E-02 0.  1.
       -2    1    3    3    0  502  0.18960537038E+03 -0.36659681171E+03 -0.81176424335E+01  0.41280663144E+03  0.25500000920E-02 0. -1.
</event>
<event>
 5   0  0.1480937E-03  0.1033265E+04  0.7818609E-02  0.9272795E-01
       -1   -1    0    0    0  501  0.00000000000E+00  0.00000000000E+00  0.55469984525E+03  0.55469984527E+03  0.50400001928E-02 0. -1.
        1   -1    0    0  501    0  0.00000000000E+00  0.00000000000E+00 -0.48117750144E+03  0.48117750147E+03  0.50400001928E-02 0.  1.
    10030    2    1    2    0    0  0.00000000000E+00  0.00000000000E+00  0.73522343807E+02  0.10358773467E+04  0.10332648946E+04 0.  0.
        1    1    3    3  502    0  0.41386118706E+03  0.37497794418E+02 -0.27097080979E+03  0.49609711401E+03  0.50400001928E-02 0.  1.
       -1    1    3    3    0  502 -0.41386118706E+03 -0.37497794418E+02  0.34449315360E+03  0.53978023273E+03  0.50400001928E-02 0. -1.
</event>
<event>
 5   0  0.1415400E-03  0.1103165E+04  0.7818609E-02  0.9202112E-01
        1   -1    0    0  501    0  0.00000000000E+00  0.00000000000E+00  0.93126538588E+03  0.93126538589E+03  0.50400001928E-02 0.  1.
       -1   -1    0    0    0  501  0.00000000000E+00  0.00000000000E+00 -0.32669886042E+03  0.32669886046E+03  0.50400001928E-02 0. -1.
    10030    2    1    2    0    0  0.00000000000E+00  0.00000000000E+00  0.60456652546E+03  0.12579642463E+04  0.11031651560E+04 0.  0.
        2    1    3    3  502    0  0.36282542139E+03 -0.23387442470E+03  0.69383727337E+03  0.81715952840E+03  0.25500000920E-02 0.  1.
       -2    1    3    3    0  502 -0.36282542139E+03  0.23387442470E+03 -0.89270747911E+02  0.44080471795E+03  0.25500000920E-02 0. -1.
</event>
<event>
 5   0  0.1479573E-03  0.1089824E+04  0.7818609E-02  0.9215167E-01
        1   -1    0    0  501    0  0.00000000000E+00  0.00000000000E+00  0.89231464781E+03  0.89231464783E+03  0.50400001928E-02 0.  1.
       -1   -1    0    0    0  501  0.00000000000E+00  0.00000000000E+00 -0.33276284386E+03  0.33276284389E+03  0.50400001928E-02 0. -1.
    10030    2    1    2    0    0  0.00000000000E+00  0.00000000000E+00  0.55955180396E+03  0.12250774917E+04  0.10898241323E+04 0.  0.
        4    1    3    3  502    0 -0.77106752703E+02 -0.38725348641E+03  0.70190240364E+03  0.80534421906E+03  0.12699999809E+01 0.  1.
       -4    1    3    3    0  502  0.77106752703E+02  0.38725348641E+03 -0.14235059968E+03  0.41973327266E+03  0.12699999809E+01 0. -1.
</event>
<event>
 5   0  0.1468556E-03  0.1113836E+04  0.7818609E-02  0.9191810E-01
       -1   -1    0    0    0  501  0.00000000000E+00  0.00000000000E+00  0.60986227540E+03  0.60986227543E+03  0.50400001928E-02 0. -1.
        1   -1    0    0  501    0  0.00000000000E+00  0.00000000000E+00 -0.50857003964E+03  0.50857003967E+03  0.50400001928E-02 0.  1.
    10030    2    1    2    0    0  0.00000000000E+00  0.00000000000E+00  0.10129223576E+03  0.11184323151E+04  0.11138360411E+04 0.  0.
        5    1    3    3  502    0 -0.44346533819E+03 -0.15485095155E+03 -0.24974596154E+03  0.53201076933E+03  0.46999998093E+01 0. -1.
       -5    1    3    3    0  502  0.44346533819E+03  0.15485095155E+03  0.35103819730E+03  0.58642154577E+03  0.46999998093E+01 0.  1.
</event>
<event>
 5   0  0.2483036E-03  0.1105389E+04  0.7818609E-02  0.9199956E-01
        2   -1    0    0  501    0  0.00000000000E+00  0.00000000000E+00  0.79638926976E+03  0.79638926977E+03  0.25500000920E-02 0. -1.
       -2   -1    0    0    0  501  0.00000000000E+00  0.00000000000E+00 -0.38357002161E+03  0.38357002162E+03  0.25500000920E-02 0.  1.
    10030    2    1    2    0    0  0.00000000000E+00  0.00000000000E+00  0.41281924816E+03  0.11799592914E+04  0.11053887089E+04 0.  0.
        3    1    3    3  502    0  0.49421622555E+02 -0.16131989959E+03 -0.35540800091E+03  0.39342275492E+03  0.10100000352E+00 0.  1.
       -3    1    3    3    0  502 -0.49421622555E+02  0.16131989959E+03  0.76822724907E+03  0.78653653646E+03  0.10100000352E+00 0. -1.
</event>
<event>
 5   0  0.9631750E-04  0.1098920E+04  0.7818609E-02  0.9206245E-01
       -3   -1    0    0    0  501  0.00000000000E+00  0.00000000000E+00  0.61850452084E+03  0.61850452908E+03  0.10100000352E+00 0. -1.
        3   -1    0    0  501    0  0.00000000000E+00  0.00000000000E+00 -0.48812328078E+03  0.48812329123E+03  0.10100000352E+00 0.  1.
    10030    2    1    2    0    0  0.00000000000E+00  0.00000000000E+00  0.13038124006E+03  0.11066278203E+04  0.10989203178E+04 0.  0.
        1    1    3    3  502    0  0.25966767328E+03  0.27993162900E+03  0.46307886039E+03  0.60019250947E+03  0.50400001928E-02 0. -1.
       -1    1    3    3    0  502 -0.25966767328E+03 -0.27993162900E+03 -0.33269762033E+03  0.50643531084E+03  0.50400001928E-02 0.  1.
</event>
<event>
 5   0  0.2483036E-03  0.1100956E+04  0.7818609E-02  0.9204261E-01
        2   -1    0    0  501    0  0.00000000000E+00  0.00000000000E+00  0.61571466919E+03  0.61571466919E+03  0.25500000920E-02 0. -1.
       -2   -1    0    0    0  501  0.00000000000E+00  0.00000000000E+00 -0.49215314218E+03  0.49215314219E+03  0.25500000920E-02 0.  1.
    10030    2    1    2    0    0  0.00000000000E+00  0.00000000000E+00  0.12356152701E+03  0.11078678114E+04  0.11009557832E+04 0.  0.
        3    1    3    3  502    0  0.22194352808E+03  0.24344035957E+03 -0.38201389267E+03  0.50443707509E+03  0.10100000352E+00 0.  1.
       -3    1    3    3    0  502 -0.22194352808E+03 -0.24344035957E+03  0.50557541968E+03  0.60343073630E+03  0.10100000352E+00 0. -1.
</event>
<event>
 5   0  0.1509004E-03  0.1095590E+04  0.7818609E-02  0.9209501E-01
       -1   -1    0    0    0  501  0.00000000000E+00  0.00000000000E+00  0.46179695170E+03  0.46179695172E+03  0.50400001928E-02 0.  1.
        1   -1    0    0  501    0  0.00000000000E+00  0.00000000000E+00 -0.64980816848E+03  0.64980816850E+03  0.50400001928E-02 0. -1.
    10030    2    1    2    0    0  0.00000000000E+00  0.00000000000E+00 -0.18801121679E+03  0.11116051202E+04  0.10955901267E+04 0.  0.
        3    1    3    3  502    0 -0.59911417648E+02  0.51916488746E+03 -0.26059416250E+03  0.58397849794E+03  0.10100000352E+00 0. -1.
       -3    1    3    3    0  502  0.59911417648E+02 -0.51916488746E+03  0.72582945713E+02  0.52762662228E+03  0.10100000352E+00 0.  1.
</event>
<event>
 5   0  0.1415400E-03  0.1070230E+04  0.7818609E-02  0.9234703E-01
        1   -1    0    0  501    0  0.00000000000E+00  0.00000000000E+00  0.66692455454E+03  0.66692455456E+03  0.50400001928E-02 0.  1.
       -1   -1    0    0    0  501  0.00000000000E+00  0.00000000000E+00 -0.42935605405E+03  0.42935605408E+03  0.50400001928E-02 0. -1.
    10030    2    1    2    0    0  0.00000000000E+00  0.00000000000E+00  0.23756850049E+03  0.10962806086E+04  0.10702300596E+04 0.  0.
        2    1    3    3  502    0 -0.34183752610E+03 -0.29860421962E+03 -0.17154140810E+03  0.48522554439E+03  0.25500000920E-02 0. -1.
       -2    1    3    3    0  502  0.34183752610E+03  0.29860421962E+03  0.40910990859E+03  0.61105506425E+03  0.25500000920E-02 0.  1.
</event>
<event>
 5   0  0.1468556E-03  0.1098533E+04  0.7818609E-02  0.9206623E-01
        1   -1    0    0  501    0  0.00000000000E+00  0.00000000000E+00  0.17744269961E+04  0.17744269961E+04  0.50400001928E-02 0.  1.
       -1   -1    0    0    0  501  0.00000000000E+00  0.00000000000E+00 -0.17002320393E+03  0.17002320401E+03  0.50400001928E-02 0. -1.
    10030    2    1    2    0    0  0.00000000000E+00  0.00000000000E+00  0.16044037922E+04  0.19444502001E+04  0.10985331367E+04 0.  0.
        5    1    3    3  502    0 -0.10812236448E+03  0.47221736209E+03  0.34406517469E+03  0.59420755397E+03  0.46999998093E+01 0. -1.
       -5    1    3    3    0  502  0.10812236448E+03 -0.47221736209E+03  0.12603386175E+04  0.13502426462E+04  0.46999998093E+01 0.  1.
</event>
<event>
 5   0  0.2438115E-03  0.1101628E+04  0.7818609E-02  0.9203606E-01
        2   -1    0    0  501    0  0.00000000000E+00  0.00000000000E+00  0.62230934247E+03  0.62230934248E+03  0.25500000920E-02 0.  1.
       -2   -1    0    0    0  501  0.00000000000E+00  0.00000000000E+00 -0.48753276622E+03  0.48753276623E+03  0.25500000920E-02 0. -1.
    10030    2    1    2    0    0  0.00000000000E+00  0.00000000000E+00  0.13477657625E+03  0.11098421087E+04  0.11016282407E+04 0.  0.
        4    1    3    3  502    0 -0.50060287381E+03 -0.34827336986E+02  0.29619042567E+03  0.58270623974E+03  0.12699999809E+01 0. -1.
       -4    1    3    3    0  502  0.50060287381E+03  0.34827336986E+02 -0.16141384942E+03  0.52713586897E+03  0.12699999809E+01 0.  1.
</event>
<event>
 5   0  0.2438115E-03  0.1094725E+04  0.7818609E-02  0.9210349E-01
        2   -1    0    0  501    0  0.00000000000E+00  0.00000000000E+00  0.71405871284E+03  0.71405871284E+03  0.25500000920E-02 0.  1.
       -2   -1    0    0    0  501  0.00000000000E+00  0.00000000000E+00 -0.41958123571E+03  0.41958123572E+03  0.25500000920E-02 0. -1.
    10030    2    1    2    0    0  0.00000000000E+00  0.00000000000E+00  0.29447747712E+03  0.11336399486E+04  0.10947248734E+04 0.  0.
        4    1    3    3  502    0 -0.47588997773E+03  0.17777334683E+03 -0.63793076500E+02  0.51200176099E+03  0.12699999809E+01 0. -1.
       -4    1    3    3    0  502  0.47588997773E+03 -0.17777334683E+03  0.35827055362E+03  0.62163818757E+03  0.12699999809E+01 0.  1.
</event>
<event>
 5   0  0.2483036E-03  0.1109304E+04  0.7818609E-02  0.9196170E-01
       -2   -1    0    0    0  501  0.00000000000E+00  0.00000000000E+00  0.58264828444E+03  0.58264828444E+03  0.25500000920E-02 0.  1.
        2   -1    0    0  501    0  0.00000000000E+00  0.00000000000E+00 -0.52800139653E+03  0.52800139654E+03  0.25500000920E-02 0. -1.
    10030    2    1    2    0    0  0.00000000000E+00  0.00000000000E+00  0.54646887904E+02  0.11106496810E+04  0.11093044810E+04 0.  0.
        3    1    3    3  502    0 -0.24619121058E+03 -0.41719425603E+03  0.29779532643E+03  0.56863276908E+03  0.10100000352E+00 0.  1.
       -3    1    3    3    0  502  0.24619121058E+03  0.41719425603E+03 -0.24314843853E+03  0.54201691190E+03  0.10100000352E+00 0. -1.
</event>
<event>
 5   0  0.1480937E-03  0.1097314E+04  0.7818609E-02  0.9207813E-01
        1   -1    0    0  501    0  0.00000000000E+00  0.00000000000E+00  0.79413096384E+03  0.79413096385E+03  0.50400001928E-02 0.  1.
       -1   -1    0    0    0  501  0.00000000000E+00  0.00000000000E+00 -0.37906180630E+03  0.37906180634E+03  0.50400001928E-02 0. -1.
    10030    2    1    2    0    0  0.00000000000E+00  0.00000000000E+00  0.41506915753E+03  0.11731927702E+04  0.10973143900E+04 0.  0.
        1    1    3    3  502    0  0.29686259739E+03  0.45932029090E+03  0.25440901258E+03  0.60318030229E+03  0.50400001928E-02 0. -1.
       -1    1    3    3    0  502 -0.29686259739E+03 -0.45932029090E+03  0.16066014495E+03  0.57001246790E+03  0.50400001928E-02 0.  1.
</event>
<event>
 5   0  0.2438115E-03  0.1100340E+04  0.7818609E-02  0.9204860E-01
        2   -1    0    0  501    0  0.00000000000E+00  0.00000000000E+00  0.99417011371E+03  0.99417011371E+03  0.25500000920E-02 0. -1.
       -2   -1    0    0    0  501  0.00000000000E+00  0.00000000000E+00 -0.30446209787E+03  0.30446209788E+03  0.25500000920E-02 0.  1.
    10030    2    1    2    0    0  0.00000000000E+00  0.00000000000E+00  0.68970801583E+03  0.12986322116E+04  0.11003401628E+04 0.  0.
        4    1    3    3  502    0  0.27108277177E+02  0.41448092357E+02  0.99153218235E+03  0.99276909933E+03  0.12699999809E+01 0. -1.
       -4    1    3    3    0  502 -0.27108277177E+02 -0.41448092357E+02 -0.30182416651E+03  0.30586311226E+03  0.12699999809E+01 0.  1.
</event>
<event>
 5   0  0.1479573E-03  0.1098297E+04  0.7818609E-02  0.9206854E-01
       -1   -1    0    0    0  501  0.00000000000E+00  0.00000000000E+00  0.11852678501E+04  0.11852678501E+04  0.50400001928E-02 0. -1.
        1   -1    0    0  501    0  0.00000000000E+00  0.00000000000E+00 -0.25442682811E+03  0.25442682816E+03  0.50400001928E-02 0.  1.
    10030    2    1    2    0    0  0.00000000000E+00  0.00000000000E+00  0.93084102203E+03  0.14396946783E+04  0.10982967534E+04 0.  0.
        4    1    3    3  502    0 -0.36983257122E+03  0.33068650285E+03  0.77404718078E+03  0.91939129041E+03  0.12699999809E+01 0.  1.
       -4    1    3    3    0  502  0.36983257122E+03 -0.33068650285E+03  0.15679384125E+03  0.52030338789E+03  0.12699999809E+01 0. -1.
</event>
<event>
 5   0  0.2467448E-03  0.1101707E+04  0.7818609E-02  0.9203530E-01
        2   -1    0    0  501    0  0.00000000000E+00  0.00000000000E+00  0.15006814798E+04  0.15006814798E+04  0.25500000920E-02 0. -1.
       -2   -1    0    0    0  501  0.00000000000E+00  0.00000000000E+00 -0.20220104727E+03  0.20220104729E+03  0.25500000920E-02 0.  1.
    10030    2    1    2    0    0  0.00000000000E+00  0.00000000000E+00  0.12984804325E+04  0.17028825271E+04  0.11017066159E+04 0.  0.
        1    1    3    3  502    0 -0.36673762866E+03 -0.29422572009E+03  0.20561718580E+03  0.51317023468E+03  0.50400001928E-02 0.  1.
       -1    1    3    3    0  502  0.36673762866E+03  0.29422572009E+03  0.10928632467E+04  0.11897122924E+04  0.50400001928E-02 0. -1.
</event>
<event>
 5   0  0.2392585E-03  0.1099784E+04  0.7818609E-02  0.9205403E-01
        2   -1    0    0  501    0  0.00000000000E+00  0.00000000000E+00  0.22192853298E+04  0.22192853298E+04  0.25500000920E-02 0. -1.
       -2   -1    0    0    0  501  0.00000000000E+00  0.00000000000E+00 -0.13625153487E+03  0.13625153489E+03  0.25500000920E-02 0.  1.
    10030    2    1    2    0    0  0.00000000000E+00  0.00000000000E+00  0.20830337949E+04  0.23555368647E+04  0.10997836742E+04 0.  0.
        5    1    3    3  502    0  0.15483599507E+03  0.93754213952E+02 -0.70569366923E+02  0.19433518351E+03  0.46999998093E+01 0.  1.
       -5    1    3    3    0  502 -0.15483599507E+03 -0.93754213952E+02  0.21536031619E+04  0.21612016812E+04  0.46999998093E+01 0. -1.
</event>
<event>
 5   0  0.1479573E-03  0.1097427E+04  0.7818609E-02  0.9207703E-01
       -1   -1    0    0    0  501  0.00000000000E+00  0.00000000000E+00  0.56783084500E+03  0.56783084502E+03  0.50400001928E-02 0. -1.
        1   -1    0    0  501    0  0.00000000000E+00  0.00000000000E+00 -0.53023987594E+03  0.53023987597E+03  0.50400001928E-02 0.  1.
    10030    2    1    2    0    0  0.00000000000E+00  0.00000000000E+00  0.37590969054E+02  0.10980707210E+04  0.10974270943E+04 0.  0.
        4    1    3    3  502    0  0.28610990743E+03 -0.43803112997E+03 -0.14669436364E+03  0.54337003891E+03  0.12699999809E+01 0.  1.
       -4    1    3    3    0  502 -0.28610990743E+03  0.43803112997E+03  0.18428533269E+03  0.55470068208E+03  0.12699999809E+01 0. -1.
</event>
<event>
 5   0  0.1480937E-03  0.1094286E+04  0.7818609E-02  0.9210779E-01
        1   -1    0    0  501    0  0.00000000000E+00  0.00000000000E+00  0.70646761194E+03  0.70646761196E+03  0.50400001928E-02 0.  1.
       -1   -1    0    0    0  501  0.00000000000E+00  0.00000000000E+00 -0.42374946345E+03  0.42374946348E+03  0.50400001928E-02 0. -1.
    10030    2    1    2    0    0  0.00000000000E+00  0.00000000000E+00  0.28271814849E+03  0.11302170754E+04  0.10942856511E+04 0.  0.
        1    1    3    3  502    0  0.23531797048E+03 -0.38711489453E+03  0.45824402061E+03  0.64437572211E+03  0.50400001928E-02 0.  1.
       -1    1    3    3    0  502 -0.23531797048E+03  0.38711489453E+03 -0.17552587212E+03  0.48584135333E+03  0.50400001928E-02 0. -1.
</event>
<event>
 5   0  0.1479573E-03  0.1103485E+04  0.7818609E-02  0.9201801E-01
       -1   -1    0    0    0  501  0.00000000000E+00  0.00000000000E+00  0.19855937786E+03  0.19855937792E+03  0.50400001928E-02 0. -1.
        1   -1    0    0  501    0  0.00000000000E+00  0.00000000000E+00 -0.15331433217E+04  0.15331433217E+04  0.50400001928E-02 0.  1.
    10030    2    1    2    0    0  0.00000000000E+00  0.00000000000E+00 -0.13345839438E+04  0.17317026996E+04  0.11034853586E+04 0.  0.
        4    1    3    3  502    0 -0.74295100526E+02 -0.38417697618E+03 -0.12777218487E+04  0.13362957930E+04  0.12699999809E+01 0.  1.
       -4    1    3    3    0  502  0.74295100526E+02  0.38417697618E+03 -0.56862095121E+02  0.39540690656E+03  0.12699999809E+01 0. -1.
</event>
<event>
 5   0  0.2438115E-03  0.1107984E+04  0.7818609E-02  0.9197445E-01
        2   -1    0    0  501    0  0.00000000000E+00  0.00000000000E+00  0.51614170298E+03  0.51614170298E+03  0.25500000920E-02 0.  1.
       -2   -1    0    0    0  501  0.00000000000E+00  0.00000000000E+00 -0.59461751786E+03  0.59461751787E+03  0.25500000920E-02 0. -1.
    10030    2    1    2    0    0  0.00000000000E+00  0.00000000000E+00 -0.78475814888E+02  0.11107592209E+04  0.11079835708E+04 0.  0.
        4    1    3    3  502    0 -0.10916799915E+03  0.67036625975E+02 -0.57956280973E+03  0.59355389358E+03  0.12699999809E+01 0. -1.
       -4    1    3    3    0  502  0.10916799915E+03 -0.67036625975E+02  0.50108699484E+03  0.51720532727E+03  0.12699999809E+01 0.  1.
</event>
<event>
 5   0  0.1480937E-03  0.1095720E+04  0.7818609E-02  0.9209373E-01
       -1   -1    0    0    0  501  0.00000000000E+00  0.00000000000E+00  0.38986292234E+03  0.38986292237E+03  0.50400001928E-02 0. -1.
        1   -1    0    0  501    0  0.00000000000E+00  0.00000000000E+00 -0.76988781043E+03  0.76988781044E+03  0.50400001928E-02 0.  1.
    10030    2    1    2    0    0  0.00000000000E+00  0.00000000000E+00 -0.38002488809E+03  0.11597507328E+04  0.10957202411E+04 0.  0.
        1    1    3    3  502    0 -0.25698469686E+03 -0.13104006808E+03  0.30297160225E+03  0.41833530291E+03  0.50400001928E-02 0. -1.
       -1    1    3    3    0  502  0.25698469686E+03  0.13104006808E+03 -0.68299649034E+03  0.74141542991E+03  0.50400001928E-02 0.  1.
</event>
<event>
 5   0  0.2467448E-03  0.1104647E+04  0.7818609E-02  0.9200675E-01
        2   -1    0    0  501    0  0.00000000000E+00  0.00000000000E+00  0.37920439230E+03  0.37920439230E+03  0.25500000920E-02 0. -1.
       -2   -1    0    0    0  501  0.00000000000E+00  0.00000000000E+00 -0.80447674981E+03  0.80447674982E+03  0.25500000920E-02 0.  1.
    10030    2    1    2    0    0  0.00000000000E+00  0.00000000000E+00 -0.42527235752E+03  0.11836811421E+04  0.11046467617E+04 0.  0.
        1    1    3    3  502    0  0.38069057451E+03 -0.22626154103E+03  0.14104179781E+03  0.46477132788E+03  0.50400001928E-02 0. -1.
       -1    1    3    3    0  502 -0.38069057451E+03  0.22626154103E+03 -0.56631415533E+03  0.71890981424E+03  0.50400001928E-02 0.  1.
</event>
<event>
 5   0  0.9631750E-04  0.1096368E+04  0.7818609E-02  0.9208739E-01
       -3   -1    0    0    0  501  0.00000000000E+00  0.00000000000E+00  0.55374542131E+03  0.55374543052E+03  0.10100000352E+00 0. -1.
        3   -1    0    0  501    0  0.00000000000E+00  0.00000000000E+00 -0.54267870036E+03  0.54267870976E+03  0.10100000352E+00 0.  1.
    10030    2    1    2    0    0  0.00000000000E+00  0.00000000000E+00  0.11066720951E+02  0.10964241403E+04  0.10963682881E+04 0.  0.
        4    1    3    3  502    0 -0.53169998232E+03 -0.92085305856E+02  0.10207670661E+03  0.54918652723E+03  0.12699999809E+01 0.  1.
       -4    1    3    3    0  502  0.53169998232E+03  0.92085305856E+02 -0.91009985662E+02  0.54723761306E+03  0.12699999809E+01 0. -1.
</event>
<event>
 5   0  0.1468556E-03  0.1097829E+04  0.7818609E-02  0.9207310E-01
       -1   -1    0    0    0  501  0.00000000000E+00  0.00000000000E+00  0.32723509997E+03  0.32723510001E+03  0.50400001928E-02 0.  1.
        1   -1    0    0  501    0  0.00000000000E+00  0.00000000000E+00 -0.92076704469E+03  0.92076704471E+03  0.50400001928E-02 0. -1.
    10030    2    1    2    0    0  0.00000000000E+00  0.00000000000E+00 -0.59353194472E+03  0.12480021447E+04  0.10978293054E+04 0.  0.
        5    1    3    3  502    0 -0.38316561714E+03  0.41260482021E+02  0.14755327681E+03  0.41268920150E+03  0.46999998093E+01 0.  1.
       -5    1    3    3    0  502  0.38316561714E+03 -0.41260482021E+02 -0.74108522153E+03  0.83531294322E+03  0.46999998093E+01 0. -1.
</event>
<event>
 5   0  0.2483036E-03  0.1099999E+04  0.7818609E-02  0.9205193E-01
        2   -1    0    0  501    0  0.00000000000E+00  0.00000000000E+00  0.12942410909E+04  0.12942410909E+04  0.25500000920E-02 0. -1.
       -2   -1    0    0    0  501  0.00000000000E+00  0.00000000000E+00 -0.23372732627E+03  0.23372732628E+03  0.25500000920E-02 0.  1.
    10030    2    1    2    0    0  0.00000000000E+00  0.00000000000E+00  0.10605137646E+04  0.15279684172E+04  0.10999991086E+04 0.  0.
        3    1    3    3  502    0  0.52464723318E+03 -0.10047014788E+03  0.34834510692E+03  0.63772509251E+03  0.10100000352E+00 0. -1.
       -3    1    3    3    0  502 -0.52464723318E+03  0.10047014788E+03  0.71216865770E+03  0.89024332466E+03  0.10100000352E+00 0.  1.
</event>
<event>
 5   0  0.1480937E-03  0.1150586E+04  0.7818609E-02  0.9157243E-01
       -1   -1    0    0    0  501  0.00000000000E+00  0.00000000000E+00  0.31234399506E+03  0.31234399510E+03  0.50400001928E-02 0. -1.
        1   -1    0    0  501    0  0.00000000000E+00  0.00000000000E+00 -0.10596070248E+04  0.10596070248E+04  0.50400001928E-02 0.  1.
    10030    2    1    2    0    0  0.00000000000E+00  0.00000000000E+00 -0.74726302973E+03  0.13719510199E+04  0.11505857488E+04 0.  0.
        1    1    3    3  502    0 -0.37791155962E+02 -0.54051318706E+03 -0.14309766576E+03  0.56041022370E+03  0.50400001928E-02 0. -1.
       -1    1    3    3    0  502  0.37791155962E+02  0.54051318706E+03 -0.60416536397E+03  0.81154079620E+03  0.50400001928E-02 0.  1.
</event>
<event>
 5   0  0.1468556E-03  0.1101906E+04  0.7818609E-02  0.9203336E-01
        1   -1    0    0  501    0  0.00000000000E+00  0.00000000000E+00  0.20621047689E+03  0.20621047695E+03  0.50400001928E-02 0.  1.
       -1   -1    0    0    0  501  0.00000000000E+00  0.00000000000E+00 -0.14720371500E+04  0.14720371500E+04  0.50400001928E-02 0. -1.
    10030    2    1    2    0    0  0.00000000000E+00  0.00000000000E+00 -0.12658266731E+04  0.16782476269E+04  0.11019064983E+04 0.  0.
        5    1    3    3  502    0  0.52853822917E+03 -0.80778185897E+02 -0.43057463933E+03  0.68650883828E+03  0.46999998093E+01 0.  1.
       -5    1    3    3    0  502 -0.52853822917E+03  0.80778185897E+02 -0.83525203376E+03  0.99173878865E+03  0.46999998093E+01 0. -1.
</event>
<event>
 5   0  0.9631750E-04  0.1100329E+04  0.7818609E-02  0.9204871E-01
       -3   -1    0    0    0  501  0.00000000000E+00  0.00000000000E+00  0.10764684254E+04  0.10764684301E+04  0.10100000352E+00 0.  1.
        3   -1    0    0  501    0  0.00000000000E+00  0.00000000000E+00 -0.28117968101E+03  0.28117969915E+03  0.10100000352E+00 0. -1.
    10030    2    1    2    0    0  0.00000000000E+00  0.00000000000E+00  0.79528874439E+03  0.13576481293E+04  0.11003291580E+04 0.  0.
        1    1    3    3  502    0  0.16057447183E+03 -0.33898678166E+03  0.89423877793E+03  0.96972119247E+03  0.50400001928E-02 0.  1.
       -1    1    3    3    0  502 -0.16057447183E+03  0.33898678166E+03 -0.98950033535E+02  0.38792693682E+03  0.50400001928E-02 0. -1.
</event>
<event>
 5   0  0.2392585E-03  0.1071150E+04  0.7818609E-02  0.9233776E-01
       -2   -1    0    0    0  501  0.00000000000E+00  0.00000000000E+00  0.55704559711E+03  0.55704559712E+03  0.25500000920E-02 0. -1.
        2   -1    0    0  501    0  0.00000000000E+00  0.00000000000E+00 -0.51493198571E+03  0.51493198572E+03  0.25500000920E-02 0.  1.
    10030    2    1    2    0    0  0.00000000000E+00  0.00000000000E+00  0.42113611400E+02  0.10719775828E+04  0.10711500277E+04 0.  0.
        5    1    3    3  502    0  0.36085325438E+03 -0.39372224577E+01  0.41707445832E+03  0.55154670401E+03  0.46999998093E+01 0. -1.
       -5    1    3    3    0  502 -0.36085325438E+03  0.39372224577E+01 -0.37496084692E+03  0.52043087883E+03  0.46999998093E+01 0.  1.
</event>
<event>
 5   0  0.1480937E-03  0.1094621E+04  0.7818609E-02  0.9210451E-01
       -1   -1    0    0    0  501  0.00000000000E+00  0.00000000000E+00  0.20247636400E+03  0.20247636406E+03  0.50400001928E-02 0. -1.
        1   -1    0    0  501    0  0.00000000000E+00  0.00000000000E+00 -0.14794250487E+04  0.14794250487E+04  0.50400001928E-02 0.  1.
    10030    2    1    2    0    0  0.00000000000E+00  0.00000000000E+00 -0.12769486847E+04  0.16819014128E+04  0.10946206735E+04 0.  0.
        1    1    3    3  502    0 -0.50358715949E+03 -0.93517672410E+01 -0.96752232060E+03  0.10907735437E+04  0.50400001928E-02 0.  1.
       -1    1    3    3    0  502  0.50358715949E+03  0.93517672410E+01 -0.30942636409E+03  0.59112786906E+03  0.50400001928E-02 0. -1.
</event>
<event>
 5   0  0.1468556E-03  0.1093036E+04  0.7818609E-02  0.9212006E-01
       -1   -1    0    0    0  501  0.00000000000E+00  0.00000000000E+00  0.36478401551E+03  0.36478401554E+03  0.50400001928E-02 0. -1.
        1   -1    0    0  501    0  0.00000000000E+00  0.00000000000E+00 -0.81879141584E+03  0.81879141585E+03  0.50400001928E-02 0.  1.
    10030    2    1    2    0    0  0.00000000000E+00  0.00000000000E+00 -0.45400740033E+03  0.11835754314E+04  0.10930361761E+04 0.  0.
        5    1    3    3  502    0 -0.46361309937E+02  0.43984065719E+03  0.12060208534E+03  0.45844970037E+03  0.46999998093E+01 0. -1.
       -5    1    3    3    0  502  0.46361309937E+02 -0.43984065719E+03 -0.57460948567E+03  0.72512573103E+03  0.46999998093E+01 0.  1.
</event>
<event>
 5   0  0.1509004E-03  0.1114731E+04  0.7818609E-02  0.9190952E-01
       -1   -1    0    0    0  501  0.00000000000E+00  0.00000000000E+00  0.46999032533E+03  0.46999032535E+03  0.50400001928E-02 0.  1.
        1   -1    0    0  501    0  0.00000000000E+00  0.00000000000E+00 -0.66098395245E+03  0.66098395247E+03  0.50400001928E-02 0. -1.
    10030    2    1    2    0    0  0.00000000000E+00  0.00000000000E+00 -0.19099362712E+03  0.11309742778E+04  0.11147305735E+04 0.  0.
        3    1    3    3  502    0  0.52223161613E+03  0.11236389626E+03  0.65895220512E+02  0.53823200979E+03  0.10100000352E+00 0.  1.
       -3    1    3    3    0  502 -0.52223161613E+03 -0.11236389626E+03 -0.25688884763E+03  0.59274226803E+03  0.10100000352E+00 0. -1.
</event>
<event>
 5   0  0.2438115E-03  0.1090747E+04  0.7818609E-02  0.9214258E-01
        2   -1    0    0  501    0  0.00000000000E+00  0.00000000000E+00  0.30852439782E+03  0.30852439783E+03  0.25500000920E-02 0. -1.
       -2   -1    0    0    0  501  0.00000000000E+00  0.00000000000E+00 -0.96404714000E+03  0.96404714001E+03  0.25500000920E-02 0.  1.
    10030    2    1    2    0    0  0.00000000000E+00  0.00000000000E+00 -0.65552274218E+03  0.12725715378E+04  0.10907466495E+04 0.  0.
        4    1    3    3  502    0 -0.52334481165E+03 -0.26147202526E+02 -0.15137388743E+03  0.54542564551E+03  0.12699999809E+01 0. -1.
       -4    1    3    3    0  502  0.52334481165E+03  0.26147202526E+02 -0.50414885475E+03  0.72714589233E+03  0.12699999809E+01 0.  1.
</event>
<event>
 5   0  0.1415400E-03  0.1102891E+04  0.7818609E-02  0.9202378E-01
       -1   -1    0    0    0  501  0.00000000000E+00  0.00000000000E+00  0.91962933638E+03  0.91962933640E+03  0.50400001928E-02 0. -1.
        1   -1    0    0  501    0  0.00000000000E+00  0.00000000000E+00 -0.33066826991E+03  0.33066826994E+03  0.50400001928E-02 0.  1.
    10030    2    1    2    0    0  0.00000000000E+00  0.00000000000E+00  0.58896106648E+03  0.12502976063E+04  0.11028911853E+04 0.  0.
        2    1    3    3  502    0  0.35256324748E+02 -0.32324729698E+03  0.79938387096E+03  0.86298690407E+03  0.25500000920E-02 0. -1.
       -2    1    3    3    0  502 -0.35256324748E+02  0.32324729698E+03 -0.21042280448E+03  0.38731070227E+03  0.25500000920E-02 0.  1.
</event>
<event>
 5   0  0.9631750E-04  0.1103534E+04  0.7818609E-02  0.9201754E-01
       -3   -1    0    0    0  501  0.00000000000E+00  0.00000000000E+00  0.40399509825E+03  0.40399511087E+03  0.10100000352E+00 0. -1.
        3   -1    0    0  501    0  0.00000000000E+00  0.00000000000E+00 -0.75359053928E+03  0.75359054605E+03  0.10100000352E+00 0.  1.
    10030    2    1    2    0    0  0.00000000000E+00  0.00000000000E+00 -0.34959544104E+03  0.11575856569E+04  0.11035341321E+04 0.  0.
        2    1    3    3  502    0 -0.51625265664E+03 -0.18964285674E+03 -0.12829017735E+03  0.56474736671E+03  0.25500000920E-02 0.  1.
       -2    1    3    3    0  502  0.51625265664E+03  0.18964285674E+03 -0.22130526368E+03  0.59283829021E+03  0.25500000920E-02 0. -1.
</event>
<event>
 5   0  0.2467448E-03  0.1099001E+04  0.7818609E-02  0.9206166E-01
       -2   -1    0    0    0  501  0.00000000000E+00  0.00000000000E+00  0.43492480680E+03  0.43492480681E+03  0.25500000920E-02 0. -1.
        2   -1    0    0  501    0  0.00000000000E+00  0.00000000000E+00 -0.69425982542E+03  0.69425982542E+03  0.25500000920E-02 0.  1.
    10030    2    1    2    0    0  0.00000000000E+00  0.00000000000E+00 -0.25933501861E+03  0.11291846322E+04  0.10990010381E+04 0.  0.
        1    1    3    3  502    0 -0.25874931656E+01  0.30904743971E+03  0.33716088688E+03  0.45737782935E+03  0.50400001928E-02 0. -1.
       -1    1    3    3    0  502  0.25874931656E+01 -0.30904743971E+03 -0.59649590549E+03  0.67180680289E+03  0.50400001928E-02 0.  1.
</event>
<event>
 5   0  0.2438115E-03  0.1098345E+04  0.7818609E-02  0.9206806E-01
        2   -1    0    0  501    0  0.00000000000E+00  0.00000000000E+00  0.10777631766E+04  0.10777631766E+04  0.25500000920E-02 0. -1.
       -2   -1    0    0    0  501  0.00000000000E+00  0.00000000000E+00 -0.27983019878E+03  0.27983019880E+03  0.25500000920E-02 0.  1.
    10030    2    1    2    0    0  0.00000000000E+00  0.00000000000E+00  0.79793297786E+03  0.13575933754E+04  0.10983454538E+04 0.  0.
        4    1    3    3  502    0 -0.40645825702E+01  0.29270975620E+03 -0.17534907528E+03  0.34123955414E+03  0.12699999809E+01 0.  1.
       -4    1    3    3    0  502  0.40645825702E+01 -0.29270975620E+03  0.97328205314E+03  0.10163538213E+04  0.12699999809E+01 0. -1.
</event>
<event>
 5   0  0.2438115E-03  0.1109628E+04  0.7818609E-02  0.9195858E-01
        2   -1    0    0  501    0  0.00000000000E+00  0.00000000000E+00  0.18876441530E+04  0.18876441530E+04  0.25500000920E-02 0. -1.
       -2   -1    0    0    0  501  0.00000000000E+00  0.00000000000E+00 -0.16307037262E+03  0.16307037264E+03  0.25500000920E-02 0.  1.
    10030    2    1    2    0    0  0.00000000000E+00  0.00000000000E+00  0.17245737804E+04  0.20507145256E+04  0.11096284701E+04 0.  0.
        4    1    3    3  502    0 -0.22530991787E+02  0.55387079637E+03  0.81947142809E+03  0.98935106965E+03  0.12699999809E+01 0.  1.
       -4    1    3    3    0  502  0.22530991787E+02 -0.55387079637E+03  0.90510235229E+03  0.10613634560E+04  0.12699999809E+01 0. -1.
</event>
<event>
 5   0  0.2488472E-03  0.1102451E+04  0.7818609E-02  0.9202806E-01
       -2   -1    0    0    0  501  0.00000000000E+00  0.00000000000E+00  0.14830303871E+03  0.14830303873E+03  0.25500000920E-02 0. -1.
        2   -1    0    0  501    0  0.00000000000E+00  0.00000000000E+00 -0.20488421243E+04  0.20488421243E+04  0.25500000920E-02 0.  1.
    10030    2    1    2    0    0  0.00000000000E+00  0.00000000000E+00 -0.19005390856E+04  0.21971451630E+04  0.11024509293E+04 0.  0.
        2    1    3    3  502    0  0.67966835437E+02 -0.34142895397E+03 -0.98510405176E+02  0.36179762473E+03  0.25500000920E-02 0. -1.
       -2    1    3    3    0  502 -0.67966835437E+02  0.34142895397E+03 -0.18020286804E+04  0.18353475383E+04  0.25500000920E-02 0.  1.
</event>
<event>
 5   0  0.2483036E-03  0.1098138E+04  0.7818609E-02  0.9207009E-01
        2   -1    0    0  501    0  0.00000000000E+00  0.00000000000E+00  0.53304364972E+03  0.53304364973E+03  0.25500000920E-02 0.  1.
       -2   -1    0    0    0  501  0.00000000000E+00  0.00000000000E+00 -0.56557580490E+03  0.56557580491E+03  0.25500000920E-02 0. -1.
    10030    2    1    2    0    0  0.00000000000E+00  0.00000000000E+00 -0.32532155180E+02  0.10986194546E+04  0.10981376803E+04 0.  0.
        3    1    3    3  502    0 -0.32504561960E+03  0.34515439448E+03  0.26078567942E+03  0.54110571207E+03  0.10100000352E+00 0.  1.
       -3    1    3    3    0  502  0.32504561960E+03 -0.34515439448E+03 -0.29331783460E+03  0.55751374256E+03  0.10100000352E+00 0. -1.
</event>
<event>
 5   0  0.1509004E-03  0.1133767E+04  0.7818609E-02  0.9172891E-01
       -1   -1    0    0    0  501  0.00000000000E+00  0.00000000000E+00  0.43163456867E+03  0.43163456870E+03  0.50400001928E-02 0. -1.
        1   -1    0    0  501    0  0.00000000000E+00  0.00000000000E+00 -0.74451156183E+03  0.74451156184E+03  0.50400001928E-02 0.  1.
    10030    2    1    2    0    0  0.00000000000E+00  0.00000000000E+00 -0.31287699315E+03  0.11761461305E+04  0.11337670429E+04 0.  0.
        3    1    3    3  502    0  0.54243585853E+01  0.51541214416E+03  0.88342977725E+02  0.52295658895E+03  0.10100000352E+00 0. -1.
       -3    1    3    3    0  502 -0.54243585853E+01 -0.51541214416E+03 -0.40121997088E+03  0.65318954159E+03  0.10100000352E+00 0.  1.
</event>
<event>
 5   0  0.1479573E-03  0.1100670E+04  0.7818609E-02  0.9204539E-01
        1   -1    0    0  501    0  0.00000000000E+00  0.00000000000E+00  0.65836709431E+03  0.65836709433E+03  0.50400001928E-02 0.  1.
       -1   -1    0    0    0  501  0.00000000000E+00  0.00000000000E+00 -0.46003025503E+03  0.46003025506E+03  0.50400001928E-02 0. -1.
    10030    2    1    2    0    0  0.00000000000E+00  0.00000000000E+00  0.19833683928E+03  0.11183973494E+04  0.11006703091E+04 0.  0.
        4    1    3    3  502    0 -0.14759146861E+03  0.21614909193E+03  0.59107639437E+03  0.64643374636E+03  0.12699999809E+01 0.  1.
       -4    1    3    3    0  502  0.14759146861E+03 -0.21614909193E+03 -0.39273955509E+03  0.47196360303E+03  0.12699999809E+01 0. -1.
</event>
<event>
 5   0  0.2483036E-03  0.1096419E+04  0.7818609E-02  0.9208689E-01
       -2   -1    0    0    0  501  0.00000000000E+00  0.00000000000E+00  0.27043352217E+03  0.27043352219E+03  0.25500000920E-02 0. -1.
        2   -1    0    0  501    0  0.00000000000E+00  0.00000000000E+00 -0.11113041909E+04  0.11113041909E+04  0.25500000920E-02 0.  1.
    10030    2    1    2    0    0  0.00000000000E+00  0.00000000000E+00 -0.84087066874E+03  0.13817377131E+04  0.10964194573E+04 0.  0.
        3    1    3    3  502    0  0.40836304850E+03 -0.84476006272E+02 -0.86890155347E+03  0.96378757766E+03  0.10100000352E+00 0.  1.
       -3    1    3    3    0  502 -0.40836304850E+03  0.84476006272E+02  0.28030884737E+02  0.41795013544E+03  0.10100000352E+00 0. -1.
</event>
<event>
 5   0  0.2488472E-03  0.1106633E+04  0.7818609E-02  0.9198751E-01
        2   -1    0    0  501    0  0.00000000000E+00  0.00000000000E+00  0.19101439920E+04  0.19101439920E+04  0.25500000920E-02 0. -1.
       -2   -1    0    0    0  501  0.00000000000E+00  0.00000000000E+00 -0.16028077096E+03  0.16028077098E+03  0.25500000920E-02 0.  1.
    10030    2    1    2    0    0  0.00000000000E+00  0.00000000000E+00  0.17498632210E+04  0.20704247630E+04  0.11066333660E+04 0.  0.
        2    1    3    3  502    0  0.51422893572E+03 -0.78398301178E+02  0.52201768610E+03  0.73693972384E+03  0.25500000920E-02 0. -1.
       -2    1    3    3    0  502 -0.51422893572E+03  0.78398301178E+02  0.12278455349E+04  0.13334850391E+04  0.25500000920E-02 0.  1.
</event>
<event>
 5   0  0.1480937E-03  0.1104586E+04  0.7818609E-02  0.9200733E-01
        1   -1    0    0  501    0  0.00000000000E+00  0.00000000000E+00  0.50743468257E+03  0.50743468259E+03  0.50400001928E-02 0.  1.
       -1   -1    0    0    0  501  0.00000000000E+00  0.00000000000E+00 -0.60111724159E+03  0.60111724161E+03  0.50400001928E-02 0. -1.
    10030    2    1    2    0    0  0.00000000000E+00  0.00000000000E+00 -0.93682559023E+02  0.11085519242E+04  0.11045863238E+04 0.  0.
        1    1    3    3  502    0 -0.44527279442E+03  0.30602597214E+03  0.68059839109E+02  0.54456578923E+03  0.50400001928E-02 0. -1.
       -1    1    3    3    0  502  0.44527279442E+03 -0.30602597214E+03 -0.16174239813E+03  0.56398613498E+03  0.50400001928E-02 0.  1.
</event>
<event>
 5   0  0.2467448E-03  0.1099097E+04  0.7818609E-02  0.9206072E-01
       -2   -1    0    0    0  501  0.00000000000E+00  0.00000000000E+00  0.17175624450E+03  0.17175624452E+03  0.25500000920E-02 0.  1.
        2   -1    0    0  501    0  0.00000000000E+00  0.00000000000E+00 -0.17583271811E+04  0.17583271811E+04  0.25500000920E-02 0. -1.
    10030    2    1    2    0    0  0.00000000000E+00  0.00000000000E+00 -0.15865709366E+04  0.19300834256E+04  0.10990972173E+04 0.  0.
        1    1    3    3  502    0  0.48822515513E+03  0.14241134267E+03 -0.42762416424E+03  0.66446009548E+03  0.50400001928E-02 0.  1.
       -1    1    3    3    0  502 -0.48822515513E+03 -0.14241134267E+03 -0.11589467724E+04  0.12656233302E+04  0.50400001928E-02 0. -1.
</event>
<event>
 5   0  0.1415400E-03  0.1093825E+04  0.7818609E-02  0.9211232E-01
       -1   -1    0    0    0  501  0.00000000000E+00  0.00000000000E+00  0.15366984894E+03  0.15366984902E+03  0.50400001928E-02 0. -1.
        1   -1    0    0  501    0  0.00000000000E+00  0.00000000000E+00 -0.19464658248E+04  0.19464658248E+04  0.50400001928E-02 0.  1.
    10030    2    1    2    0    0  0.00000000000E+00  0.00000000000E+00 -0.17927959759E+04  0.21001356739E+04  0.10938246831E+04 0.  0.
        2    1    3    3  502    0 -0.13255836496E+03  0.52440869205E+03 -0.10516316787E+04  0.11825841974E+04  0.25500000920E-02 0. -1.
       -2    1    3    3    0  502  0.13255836496E+03 -0.52440869205E+03 -0.74116429723E+03  0.91755147644E+03  0.25500000920E-02 0.  1.
</event>
<event>
 5   0  0.2392585E-03  0.1086862E+04  0.7818609E-02  0.9218093E-01
        2   -1    0    0  501    0  0.00000000000E+00  0.00000000000E+00  0.86351453560E+03  0.86351453560E+03  0.25500000920E-02 0.  1.
       -2   -1    0    0    0  501  0.00000000000E+00  0.00000000000E+00 -0.34199442749E+03  0.34199442750E+03  0.25500000920E-02 0. -1.
    10030    2    1    2    0    0  0.00000000000E+00  0.00000000000E+00  0.52152010810E+03  0.12055089631E+04  0.10868618297E+04 0.  0.
        5    1    3    3  502    0 -0.40028946816E+03  0.79833241077E-01 -0.14686883325E+03  0.42640850000E+03  0.46999998093E+01 0. -1.
       -5    1    3    3    0  502  0.40028946816E+03 -0.79833241077E-01  0.66838894135E+03  0.77910046311E+03  0.46999998093E+01 0.  1.
</event>
<event>
 5   0  0.1415400E-03  0.1104635E+04  0.7818609E-02  0.9200686E-01
       -1   -1    0    0    0  501  0.00000000000E+00  0.00000000000E+00  0.12985055203E+04  0.12985055203E+04  0.50400001928E-02 0.  1.
        1   -1    0    0  501    0  0.00000000000E+00  0.00000000000E+00 -0.23492739561E+03  0.23492739566E+03  0.50400001928E-02 0. -1.
    10030    2    1    2    0    0  0.00000000000E+00  0.00000000000E+00  0.10635781247E+04  0.15334329160E+04  0.11046348177E+04 0.  0.
        2    1    3    3  502    0 -0.39686221306E+03  0.26857741917E+03  0.91302375013E+03  0.10311381161E+04  0.25500000920E-02 0.  1.
       -2    1    3    3    0  502  0.39686221306E+03 -0.26857741917E+03  0.15055437458E+03  0.50229479985E+03  0.25500000920E-02 0. -1.
</event>
<event>
 5   0  0.1480937E-03  0.1137351E+04  0.7818609E-02  0.9169533E-01
       -1   -1    0    0    0  501  0.00000000000E+00  0.00000000000E+00  0.94888538491E+03  0.94888538493E+03  0.50400001928E-02 0.  1.
        1   -1    0    0  501    0  0.00000000000E+00  0.00000000000E+00 -0.34081203438E+03  0.34081203442E+03  0.50400001928E-02 0. -1.
    10030    2    1    2    0    0  0.00000000000E+00  0.00000000000E+00  0.60807335053E+03  0.12896974193E+04  0.11373505325E+04 0.  0.
        1    1    3    3  502    0 -0.17760214414E+03 -0.53878526040E+03  0.34881660438E+03  0.66596178715E+03  0.50400001928E-02 0. -1.
       -1    1    3    3    0  502  0.17760214414E+03  0.53878526040E+03  0.25925674615E+03  0.62373563220E+03  0.50400001928E-02 0.  1.
</event>
<event>
 5   0  0.1468556E-03  0.1098257E+04  0.7818609E-02  0.9206892E-01
        1   -1    0    0  501    0  0.00000000000E+00  0.00000000000E+00  0.30990930845E+03  0.30990930850E+03  0.50400001928E-02 0. -1.
       -1   -1    0    0    0  501  0.00000000000E+00  0.00000000000E+00 -0.97300100652E+03  0.97300100653E+03  0.50400001928E-02 0.  1.
    10030    2    1    2    0    0  0.00000000000E+00  0.00000000000E+00 -0.66309169806E+03  0.12829103150E+04  0.10982569264E+04 0.  0.
        5    1    3    3  502    0  0.11436337176E+03  0.40842964689E+03  0.75840013991E+02  0.43089158147E+03  0.46999998093E+01 0. -1.
       -5    1    3    3    0  502 -0.11436337176E+03 -0.40842964689E+03 -0.73893171205E+03  0.85201873356E+03  0.46999998093E+01 0.  1.
</event>
<event>
 5   0  0.2467448E-03  0.1101914E+04  0.7818609E-02  0.9203328E-01
        2   -1    0    0  501    0  0.00000000000E+00  0.00000000000E+00  0.15668283862E+04  0.15668283862E+04  0.25500000920E-02 0. -1.
       -2   -1    0    0    0  501  0.00000000000E+00  0.00000000000E+00 -0.19373777032E+03  0.19373777034E+03  0.25500000920E-02 0.  1.
    10030    2    1    2    0    0  0.00000000000E+00  0.00000000000E+00  0.13730906159E+04  0.17605661566E+04  0.11019144033E+04 0.  0.
        1    1    3    3  502    0  0.32959961300E+02  0.28536908862E+03  0.14377045740E+04  0.14661228863E+04  0.50400001928E-02 0. -1.
       -1    1    3    3    0  502 -0.32959961300E+02 -0.28536908862E+03 -0.64613958063E+02  0.29444327024E+03  0.50400001928E-02 0.  1.
</event>
<event>
 5   0  0.1509004E-03  0.1107104E+04  0.7818609E-02  0.9198295E-01
        1   -1    0    0  501    0  0.00000000000E+00  0.00000000000E+00  0.13615035944E+04  0.13615035945E+04  0.50400001928E-02 0.  1.
       -1   -1    0    0    0  501  0.00000000000E+00  0.00000000000E+00 -0.22505990219E+03  0.22505990225E+03  0.50400001928E-02 0. -1.
    10030    2    1    2    0    0  0.00000000000E+00  0.00000000000E+00  0.11364436922E+04  0.15865634967E+04  0.11071040888E+04 0.  0.
        3    1    3    3  502    0 -0.32034362153E+03  0.40639351807E+03  0.84993735786E+03  0.99507248474E+03  0.10100000352E+00 0.  1.
       -3    1    3    3    0  502  0.32034362153E+03 -0.40639351807E+03  0.28650633438E+03  0.59149101196E+03  0.10100000352E+00 0. -1.
</event>
<event>
 5   0  0.2488472E-03  0.1096886E+04  0.7818609E-02  0.9208232E-01
       -2   -1    0    0    0  501  0.00000000000E+00  0.00000000000E+00  0.53292033468E+03  0.53292033469E+03  0.25500000920E-02 0. -1.
        2   -1    0    0  501    0  0.00000000000E+00  0.00000000000E+00 -0.56441767451E+03  0.56441767452E+03  0.25500000920E-02 0.  1.
    10030    2    1    2    0    0  0.00000000000E+00  0.00000000000E+00 -0.31497339828E+02  0.10973380092E+04  0.10968858756E+04 0.  0.
        2    1    3    3  502    0 -0.17729560060E+03 -0.45858909643E+03 -0.25885494056E+03  0.55564698291E+03  0.25500000920E-02 0.  1.
       -2    1    3    3    0  502  0.17729560060E+03  0.45858909643E+03  0.22735760073E+03  0.54169102630E+03  0.25500000920E-02 0. -1.
</event>
<event>
 5   0  0.1479573E-03  0.1109189E+04  0.7818609E-02  0.9196281E-01
        1   -1    0    0  501    0  0.00000000000E+00  0.00000000000E+00  0.32672682913E+03  0.32672682917E+03  0.50400001928E-02 0.  1.
       -1   -1    0    0    0  501  0.00000000000E+00  0.00000000000E+00 -0.94138359142E+03  0.94138359143E+03  0.50400001928E-02 0. -1.
    10030    2    1    2    0    0  0.00000000000E+00  0.00000000000E+00 -0.61465676228E+03  0.12681104206E+04  0.11091893902E+04 0.  0.
        4    1    3    3  502    0 -0.54371698263E+03  0.12275396880E+02 -0.18316399938E+03  0.57387237792E+03  0.12699999809E+01 0.  1.
       -4    1    3    3    0  502  0.54371698263E+03 -0.12275396880E+02 -0.43149276291E+03  0.69423804268E+03  0.12699999809E+01 0. -1.
</event>
<event>
 5   0  0.1468556E-03  0.1047026E+04  0.7818609E-02  0.9258420E-01
        1   -1    0    0  501    0  0.00000000000E+00  0.00000000000E+00  0.33765835514E+03  0.33765835518E+03  0.50400001928E-02 0. -1.
       -1   -1    0    0    0  501  0.00000000000E+00  0.00000000000E+00 -0.81166644188E+03  0.81166644190E+03  0.50400001928E-02 0.  1.
    10030    2    1    2    0    0  0.00000000000E+00  0.00000000000E+00 -0.47400808674E+03  0.11493247971E+04  0.10470261806E+04 0.  0.
        5    1    3    3  502    0  0.93387876613E+02  0.11949367605E+03 -0.78700065384E+03  0.80149370132E+03  0.46999998093E+01 0.  1.
       -5    1    3    3    0  502 -0.93387876613E+02 -0.11949367605E+03  0.31299256710E+03  0.34783109575E+03  0.46999998093E+01 0. -1.
</event>
<event>
 5   0  0.2392585E-03  0.1131082E+04  0.7818609E-02  0.9175415E-01
        2   -1    0    0  501    0  0.00000000000E+00  0.00000000000E+00  0.83851841149E+03  0.83851841149E+03  0.25500000920E-02 0. -1.
       -2   -1    0    0    0  501  0.00000000000E+00  0.00000000000E+00 -0.38143095975E+03  0.38143095976E+03  0.25500000920E-02 0.  1.
    10030    2    1    2    0    0  0.00000000000E+00  0.00000000000E+00  0.45708745173E+03  0.12199493713E+04  0.11310824594E+04 0.  0.
        5    1    3    3  502    0  0.20764896903E+03  0.45155209108E+03  0.51955210615E+03  0.71900894730E+03  0.46999998093E+01 0. -1.
       -5    1    3    3    0  502 -0.20764896903E+03 -0.45155209108E+03 -0.62464654416E+02  0.50094042395E+03  0.46999998093E+01 0.  1.
</event>
<event>
 5   0  0.1468556E-03  0.1079114E+04  0.7818609E-02  0.9225792E-01
        1   -1    0    0  501    0  0.00000000000E+00  0.00000000000E+00  0.17352599186E+04  0.17352599186E+04  0.50400001928E-02 0. -1.
       -1   -1    0    0    0  501  0.00000000000E+00  0.00000000000E+00 -0.16776825268E+03  0.16776825276E+03  0.50400001928E-02 0.  1.
    10030    2    1    2    0    0  0.00000000000E+00  0.00000000000E+00  0.15674916659E+04  0.19030281714E+04  0.10791135706E+04 0.  0.
        5    1    3    3  502    0  0.24654124317E+03 -0.35443259610E+03  0.13543563315E+04  0.14215161668E+04  0.46999998093E+01 0. -1.
       -5    1    3    3    0  502 -0.24654124317E+03  0.35443259610E+03  0.21313533437E+03  0.48151200454E+03  0.46999998093E+01 0.  1.
</event>
<event>
 5   0  0.9631750E-04  0.1097414E+04  0.7818609E-02  0.9207716E-01
        4   -1    0    0  501    0  0.00000000000E+00  0.00000000000E+00  0.46202651680E+03  0.46202826225E+03  0.12699999809E+01 0.  1.
       -4   -1    0    0    0  501  0.00000000000E+00  0.00000000000E+00 -0.65164553551E+03  0.65164677307E+03  0.12699999809E+01 0. -1.
    10030    2    1    2    0    0  0.00000000000E+00  0.00000000000E+00 -0.18961901872E+03  0.11136750353E+04  0.10974136467E+04 0.  0.
        5    1    3    3  502    0 -0.12067013893E+02  0.18792724129E+03  0.42818596892E+03  0.46779009697E+03  0.46999998093E+01 0.  1.
       -5    1    3    3    0  502  0.12067013893E+02 -0.18792724129E+03 -0.61780498764E+03  0.64588493835E+03  0.46999998093E+01 0. -1.
</event>
<event>
 5   0  0.2467448E-03  0.1105808E+04  0.7818609E-02  0.9199549E-01
        2   -1    0    0  501    0  0.00000000000E+00  0.00000000000E+00  0.14782251350E+04  0.14782251350E+04  0.25500000920E-02 0.  1.
       -2   -1    0    0    0  501  0.00000000000E+00  0.00000000000E+00 -0.20680397874E+03  0.20680397875E+03  0.25500000920E-02 0. -1.
    10030    2    1    2    0    0  0.00000000000E+00  0.00000000000E+00  0.12714211563E+04  0.16850291138E+04  0.11058080112E+04 0.  0.
        1    1    3    3  502    0 -0.30315880152E+03 -0.33661360877E+03  0.11187545138E+04  0.12069903242E+04  0.50400001928E-02 0.  1.
       -1    1    3    3    0  502  0.30315880152E+03  0.33661360877E+03  0.15266664243E+03  0.47803878952E+03  0.50400001928E-02 0. -1.
</event>
<event>
 5   0  0.1479573E-03  0.1097728E+04  0.7818609E-02  0.9207410E-01
       -1   -1    0    0    0  501  0.00000000000E+00  0.00000000000E+00  0.30025675518E+03  0.30025675522E+03  0.50400001928E-02 0. -1.
        1   -1    0    0  501    0  0.00000000000E+00  0.00000000000E+00 -0.10033127772E+04  0.10033127772E+04  0.50400001928E-02 0.  1.
    10030    2    1    2    0    0  0.00000000000E+00  0.00000000000E+00 -0.70305602201E+03  0.13035695324E+04  0.10977275417E+04 0.  0.
        4    1    3    3  502    0 -0.29740656920E+03 -0.44974943216E+03 -0.22970128228E+03  0.58607978221E+03  0.12699999809E+01 0. -1.
       -4    1    3    3    0  502  0.29740656920E+03  0.44974943216E+03 -0.47335473973E+03  0.71748975021E+03  0.12699999809E+01 0.  1.
</event>
<event>
 5   0  0.2467448E-03  0.1084574E+04  0.7818609E-02  0.9220359E-01
        2   -1    0    0  501    0  0.00000000000E+00  0.00000000000E+00  0.86033906760E+03  0.86033906760E+03  0.25500000920E-02 0. -1.
       -2   -1    0    0    0  501  0.00000000000E+00  0.00000000000E+00 -0.34181281967E+03  0.34181281968E+03  0.25500000920E-02 0.  1.
    10030    2    1    2    0    0  0.00000000000E+00  0.00000000000E+00  0.51852624793E+03  0.12021518873E+04  0.10845735062E+04 0.  0.
        1    1    3    3  502    0  0.32031645191E+03 -0.94450921120E+02  0.73284256010E+03  0.80534577902E+03  0.50400001928E-02 0.  1.
       -1    1    3    3    0  502 -0.32031645191E+03  0.94450921120E+02 -0.21431631217E+03  0.39680610826E+03  0.50400001928E-02 0. -1.
</event>
<event>
 5   0  0.2467448E-03  0.1104194E+04  0.7818609E-02  0.9201113E-01
       -2   -1    0    0    0  501  0.00000000000E+00  0.00000000000E+00  0.25428803024E+03  0.25428803025E+03  0.25500000920E-02 0. -1.
        2   -1    0    0  501    0  0.00000000000E+00  0.00000000000E+00 -0.11986852398E+04  0.11986852398E+04  0.25500000920E-02 0.  1.
    10030    2    1    2    0    0  0.00000000000E+00  0.00000000000E+00 -0.94439720955E+03  0.14529732700E+04  0.11041943824E+04 0.  0.
        1    1    3    3  502    0  0.20629190184E+03  0.42919331239E+03 -0.83981354109E+03  0.96542738307E+03  0.50400001928E-02 0.  1.
       -1    1    3    3    0  502 -0.20629190184E+03 -0.42919331239E+03 -0.10458366846E+03  0.48754588697E+03  0.50400001928E-02 0. -1.
</event>
<event>
 5   0  0.1479573E-03  0.1098538E+04  0.7818609E-02  0.9206618E-01
       -1   -1    0    0    0  501  0.00000000000E+00  0.00000000000E+00  0.78869124512E+03  0.78869124514E+03  0.50400001928E-02 0. -1.
        1   -1    0    0  501    0  0.00000000000E+00  0.00000000000E+00 -0.38252805075E+03  0.38252805078E+03  0.50400001928E-02 0.  1.
    10030    2    1    2    0    0  0.00000000000E+00  0.00000000000E+00  0.40616319438E+03  0.11712192959E+04  0.10985381644E+04 0.  0.
        4    1    3    3  502    0  0.36398812523E+03 -0.95705696120E+02 -0.22344700835E+03  0.43769522961E+03  0.12699999809E+01 0.  1.
       -4    1    3    3    0  502 -0.36398812523E+03  0.95705696120E+02  0.62961020273E+03  0.73352406631E+03  0.12699999809E+01 0. -1.
</event>
<event>
 5   0  0.1509004E-03  0.1101540E+04  0.7818609E-02  0.9203693E-01
       -1   -1    0    0    0  501  0.00000000000E+00  0.00000000000E+00  0.22919576131E+03  0.22919576136E+03  0.50400001928E-02 0. -1.
        1   -1    0    0  501    0  0.00000000000E+00  0.00000000000E+00 -0.13235294976E+04  0.13235294976E+04  0.50400001928E-02 0.  1.
    10030    2    1    2    0    0  0.00000000000E+00  0.00000000000E+00 -0.10943337363E+04  0.15527252590E+04  0.11015395606E+04 0.  0.
        3    1    3    3  502    0 -0.10715125927E+03  0.43665940409E+03 -0.98759230135E+02  0.46033273105E+03  0.10100000352E+00 0. -1.
       -3    1    3    3    0  502  0.10715125927E+03 -0.43665940409E+03 -0.99557450615E+03  0.10923925279E+04  0.10100000352E+00 0.  1.
</event>
<event>
 5   0  0.2438115E-03  0.1091618E+04  0.7818609E-02  0.9213400E-01
       -2   -1    0    0    0  501  0.00000000000E+00  0.00000000000E+00  0.66055648702E+03  0.66055648702E+03  0.25500000920E-02 0.  1.
        2   -1    0    0  501    0  0.00000000000E+00  0.00000000000E+00 -0.45099498168E+03  0.45099498169E+03  0.25500000920E-02 0. -1.
    10030    2    1    2    0    0  0.00000000000E+00  0.00000000000E+00  0.20956150533E+03  0.11115514687E+04  0.10916183596E+04 0.  0.
        4    1    3    3  502    0  0.56898276784E+02  0.30680828053E+03  0.56077182644E+03  0.64174402150E+03  0.12699999809E+01 0.  1.
       -4    1    3    3    0  502 -0.56898276784E+02 -0.30680828053E+03 -0.35121032111E+03  0.46980744721E+03  0.12699999809E+01 0. -1.
</event>
<event>
 5   0  0.1479573E-03  0.1098269E+04  0.7818609E-02  0.9206880E-01
       -1   -1    0    0    0  501  0.00000000000E+00  0.00000000000E+00  0.23858495954E+03  0.23858495959E+03  0.50400001928E-02 0. -1.
        1   -1    0    0  501    0  0.00000000000E+00  0.00000000000E+00 -0.12639053790E+04  0.12639053790E+04  0.50400001928E-02 0.  1.
    10030    2    1    2    0    0  0.00000000000E+00  0.00000000000E+00 -0.10253204195E+04  0.15024903386E+04  0.10982692088E+04 0.  0.
        4    1    3    3  502    0  0.25480537024E+03 -0.26387498722E+03  0.46388890615E+02  0.36974224489E+03  0.12699999809E+01 0. -1.
       -4    1    3    3    0  502 -0.25480537024E+03  0.26387498722E+03 -0.10717093101E+04  0.11327480937E+04  0.12699999809E+01 0.  1.
</event>
<event>
 5   0  0.1480937E-03  0.1109196E+04  0.7818609E-02  0.9196275E-01
        1   -1    0    0  501    0  0.00000000000E+00  0.00000000000E+00  0.90817137446E+03  0.90817137447E+03  0.50400001928E-02 0. -1.
       -1   -1    0    0    0  501  0.00000000000E+00  0.00000000000E+00 -0.33867910166E+03  0.33867910169E+03  0.50400001928E-02 0.  1.
    10030    2    1    2    0    0  0.00000000000E+00  0.00000000000E+00  0.56949227280E+03  0.12468504762E+04  0.11091955018E+04 0.  0.
        1    1    3    3  502    0 -0.52876812030E+03 -0.44291023043E+02  0.46607640955E+03  0.70624686855E+03  0.50400001928E-02 0. -1.
       -1    1    3    3    0  502  0.52876812030E+03  0.44291023043E+02  0.10341586325E+03  0.54060360762E+03  0.50400001928E-02 0.  1.
</event>
<event>
 5   0  0.1468556E-03  0.1147449E+04  0.7818609E-02  0.9160140E-01
       -1   -1    0    0    0  501  0.00000000000E+00  0.00000000000E+00  0.20798068632E+03  0.20798068638E+03  0.50400001928E-02 0. -1.
        1   -1    0    0  501    0  0.00000000000E+00  0.00000000000E+00 -0.15826467619E+04  0.15826467619E+04  0.50400001928E-02 0.  1.
    10030    2    1    2    0    0  0.00000000000E+00  0.00000000000E+00 -0.13746660756E+04  0.17906274483E+04  0.11474492752E+04 0.  0.
        5    1    3    3  502    0 -0.12264975118E+03 -0.45277844670E+03 -0.12027484699E+04  0.12909985496E+04  0.46999998093E+01 0.  1.
       -5    1    3    3    0  502  0.12264975118E+03  0.45277844670E+03 -0.17191760571E+03  0.49962889870E+03  0.46999998093E+01 0. -1.
</event>
<event>
 5   0  0.2438115E-03  0.1094998E+04  0.7818609E-02  0.9210081E-01
        2   -1    0    0  501    0  0.00000000000E+00  0.00000000000E+00  0.40738700982E+03  0.40738700983E+03  0.25500000920E-02 0. -1.
       -2   -1    0    0    0  501  0.00000000000E+00  0.00000000000E+00 -0.73579933667E+03  0.73579933668E+03  0.25500000920E-02 0.  1.
    10030    2    1    2    0    0  0.00000000000E+00  0.00000000000E+00 -0.32841232685E+03  0.11431863465E+04  0.10949978842E+04 0.  0.
        4    1    3    3  502    0 -0.38463673138E+02  0.21264925975E+03 -0.68938912034E+03  0.72246670094E+03  0.12699999809E+01 0.  1.
       -4    1    3    3    0  502  0.38463673138E+02 -0.21264925975E+03  0.36097679349E+03  0.42071964556E+03  0.12699999809E+01 0. -1.
</event>
<event>
 5   0  0.2488472E-03  0.1099083E+04  0.7818609E-02  0.9206087E-01
        2   -1    0    0  501    0  0.00000000000E+00  0.00000000000E+00  0.22340669665E+04  0.22340669665E+04  0.25500000920E-02 0. -1.
       -2   -1    0    0    0  501  0.00000000000E+00  0.00000000000E+00 -0.13517751940E+03  0.13517751942E+03  0.25500000920E-02 0.  1.
    10030    2    1    2    0    0  0.00000000000E+00  0.00000000000E+00  0.20988894471E+04  0.23692444859E+04  0.10990825824E+04 0.  0.
        2    1    3    3  502    0 -0.52531725654E+03 -0.15660756467E+03  0.11332518510E+04  0.12588661196E+04  0.25500000920E-02 0.  1.
       -2    1    3    3    0  502  0.52531725654E+03  0.15660756467E+03  0.96563759611E+03  0.11103783663E+04  0.25500000920E-02 0. -1.
</event>
<event>
 5   0  0.1468556E-03  0.1098969E+04  0.7818609E-02  0.9206197E-01
        1   -1    0    0  501    0  0.00000000000E+00  0.00000000000E+00  0.83837536768E+03  0.83837536769E+03  0.50400001928E-02 0. -1.
       -1   -1    0    0    0  501  0.00000000000E+00  0.00000000000E+00 -0.36014107080E+03  0.36014107083E+03  0.50400001928E-02 0.  1.
    10030    2    1    2    0    0  0.00000000000E+00  0.00000000000E+00  0.47823429688E+03  0.11985164385E+04  0.10989693402E+04 0.  0.
        5    1    3    3  502    0 -0.18063478777E+03  0.39167715476E+03  0.61035011164E+03  0.74738829861E+03  0.46999998093E+01 0. -1.
       -5    1    3    3    0  502  0.18063478777E+03 -0.39167715476E+03 -0.13211581477E+03  0.45112813992E+03  0.46999998093E+01 0.  1.
</event>
<event>
 5   0  0.1480937E-03  0.1105969E+04  0.7818609E-02  0.9199393E-01
       -1   -1    0    0    0  501  0.00000000000E+00  0.00000000000E+00  0.23148523118E+03  0.23148523124E+03  0.50400001928E-02 0.  1.
        1   -1    0    0  501    0  0.00000000000E+00  0.00000000000E+00 -0.13210005423E+04  0.13210005423E+04  0.50400001928E-02 0. -1.
    10030    2    1    2    0    0  0.00000000000E+00  0.00000000000E+00 -0.10895153111E+04  0.15524857735E+04  0.11059694679E+04 0.  0.
        1    1    3    3  502    0  0.95787702761E+02  0.24483675107E+03 -0.12276586511E+04  0.12554943577E+04  0.50400001928E-02 0. -1.
       -1    1    3    3    0  502 -0.95787702761E+02 -0.24483675107E+03  0.13814333996E+03  0.29699141583E+03  0.50400001928E-02 0.  1.
</event>
<event>
 5   0  0.2483036E-03  0.1105438E+04  0.7818609E-02  0.9199907E-01
        2   -1    0    0  501    0  0.00000000000E+00  0.00000000000E+00  0.29380054219E+03  0.29380054220E+03  0.25500000920E-02 0.  1.
       -2   -1    0    0    0  501  0.00000000000E+00  0.00000000000E+00 -0.10398159345E+04  0.10398159345E+04  0.25500000920E-02 0. -1.
    10030    2    1    2    0    0  0.00000000000E+00  0.00000000000E+00 -0.74601539228E+03  0.13336164767E+04  0.11054383480E+04 0.  0.
        3    1    3    3  502    0 -0.15305574602E+03 -0.49183399070E+03 -0.61480794534E+03  0.80206954540E+03  0.10100000352E+00 0. -1.
       -3    1    3    3    0  502  0.15305574602E+03  0.49183399070E+03 -0.13120744694E+03  0.53154693126E+03  0.10100000352E+00 0.  1.
</event>
<event>
 5   0  0.2438115E-03  0.1099358E+04  0.7818609E-02  0.9205818E-01
       -2   -1    0    0    0  501  0.00000000000E+00  0.00000000000E+00  0.18682057761E+03  0.18682057763E+03  0.25500000920E-02 0. -1.
        2   -1    0    0  501    0  0.00000000000E+00  0.00000000000E+00 -0.16173098472E+04  0.16173098472E+04  0.25500000920E-02 0.  1.
    10030    2    1    2    0    0  0.00000000000E+00  0.00000000000E+00 -0.14304892696E+04  0.18041304249E+04  0.10993575576E+04 0.  0.
        4    1    3    3  502    0  0.27178342419E+03 -0.35504089859E+03 -0.19054922626E+03  0.48603589359E+03  0.12699999809E+01 0. -1.
       -4    1    3    3    0  502 -0.27178342419E+03  0.35504089859E+03 -0.12399400434E+04  0.13180945313E+04  0.12699999809E+01 0.  1.
</event>
<event>
 5   0  0.2438115E-03  0.1099608E+04  0.7818609E-02  0.9205574E-01
        2   -1    0    0  501    0  0.00000000000E+00  0.00000000000E+00  0.20291358943E+04  0.20291358943E+04  0.25500000920E-02 0.  1.
       -2   -1    0    0    0  501  0.00000000000E+00  0.00000000000E+00 -0.14897211279E+03  0.14897211281E+03  0.25500000920E-02 0. -1.
    10030    2    1    2    0    0  0.00000000000E+00  0.00000000000E+00  0.18801637815E+04  0.21781080071E+04  0.10996084054E+04 0.  0.
        4    1    3    3  502    0  0.12275373338E+03  0.87925229772E+02 -0.10709396616E+03  0.18512173178E+03  0.12699999809E+01 0. -1.
       -4    1    3    3    0  502 -0.12275373338E+03 -0.87925229772E+02  0.19872577477E+04  0.19929862754E+04  0.12699999809E+01 0.  1.
</event>
<event>
 5   0  0.1509004E-03  0.1107374E+04  0.7818609E-02  0.9198034E-01
       -1   -1    0    0    0  501  0.00000000000E+00  0.00000000000E+00  0.87584015323E+03  0.87584015324E+03  0.50400001928E-02 0.  1.
        1   -1    0    0  501    0  0.00000000000E+00  0.00000000000E+00 -0.35002907087E+03  0.35002907091E+03  0.50400001928E-02 0. -1.
    10030    2    1    2    0    0  0.00000000000E+00  0.00000000000E+00  0.52581108235E+03  0.12258692242E+04  0.11073743994E+04 0.  0.
        3    1    3    3  502    0 -0.25457361019E+03  0.55858529470E+02 -0.27787710305E+03  0.38097715538E+03  0.10100000352E+00 0. -1.
       -3    1    3    3    0  502  0.25457361019E+03 -0.55858529470E+02  0.80368818540E+03  0.84489206877E+03  0.10100000352E+00 0.  1.
</event>
<event>
 5   0  0.1509004E-03  0.1054675E+04  0.7818609E-02  0.9250531E-01
        1   -1    0    0  501    0  0.00000000000E+00  0.00000000000E+00  0.10628291742E+04  0.10628291742E+04  0.50400001928E-02 0.  1.
       -1   -1    0    0    0  501  0.00000000000E+00  0.00000000000E+00 -0.26164561124E+03  0.26164561129E+03  0.50400001928E-02 0. -1.
    10030    2    1    2    0    0  0.00000000000E+00  0.00000000000E+00  0.80118356297E+03  0.13244747855E+04  0.10546745260E+04 0.  0.
        3    1    3    3  502    0  0.23403237748E+03 -0.40031874832E+03  0.71594440837E+03  0.85299628372E+03  0.10100000352E+00 0.  1.
       -3    1    3    3    0  502 -0.23403237748E+03  0.40031874832E+03  0.85239154596E+02  0.47147850178E+03  0.10100000352E+00 0. -1.
</event>
<event>
 5   0  0.1480937E-03  0.1105703E+04  0.7818609E-02  0.9199651E-01
       -1   -1    0    0    0  501  0.00000000000E+00  0.00000000000E+00  0.17242254463E+04  0.17242254463E+04  0.50400001928E-02 0. -1.
        1   -1    0    0  501    0  0.00000000000E+00  0.00000000000E+00 -0.17726490066E+03  0.17726490073E+03  0.50400001928E-02 0.  1.
    10030    2    1    2    0    0  0.00000000000E+00  0.00000000000E+00  0.15469605457E+04  0.19014903471E+04  0.11057027675E+04 0.  0.
        1    1    3    3  502    0 -0.25898689153E+03  0.45590598456E+03  0.10748971573E+04  0.11959633671E+04  0.50400001928E-02 0. -1.
       -1    1    3    3    0  502  0.25898689153E+03 -0.45590598456E+03  0.47206338839E+03  0.70552697994E+03  0.50400001928E-02 0.  1.
</event>
<event>
 5   0  0.9631750E-04  0.1089235E+04  0.7818609E-02  0.9215748E-01
        4   -1    0    0  501    0  0.00000000000E+00  0.00000000000E+00  0.47800702631E+03  0.47800871341E+03  0.12699999809E+01 0. -1.
       -4   -1    0    0    0  501  0.00000000000E+00  0.00000000000E+00 -0.62050684708E+03  0.62050814675E+03  0.12699999809E+01 0.  1.
    10030    2    1    2    0    0  0.00000000000E+00  0.00000000000E+00 -0.14249982078E+03  0.10985168602E+04  0.10892350954E+04 0.  0.
        3    1    3    3  502    0 -0.46019420686E+03 -0.10844239916E+03  0.20136779848E+03  0.51389440786E+03  0.10100000352E+00 0. -1.
       -3    1    3    3    0  502  0.46019420686E+03  0.10844239916E+03 -0.34386761926E+03  0.58462245230E+03  0.10100000352E+00 0.  1.
</event>
<event>
 5   0  0.2483036E-03  0.1098022E+04  0.7818609E-02  0.9207122E-01
       -2   -1    0    0    0  501  0.00000000000E+00  0.00000000000E+00  0.10067552882E+04  0.10067552882E+04  0.25500000920E-02 0. -1.
        2   -1    0    0  501    0  0.00000000000E+00  0.00000000000E+00 -0.29939065538E+03  0.29939065539E+03  0.25500000920E-02 0.  1.
    10030    2    1    2    0    0  0.00000000000E+00  0.00000000000E+00  0.70736463286E+03  0.13061459436E+04  0.10980220864E+04 0.  0.
        3    1    3    3  502    0  0.47680132780E+03  0.21106420910E+03  0.55808157935E+03  0.76376872544E+03  0.10100000352E+00 0. -1.
       -3    1    3    3    0  502 -0.47680132780E+03 -0.21106420910E+03  0.14928305351E+03  0.54237721820E+03  0.10100000352E+00 0.  1.
</event>
<event>
 5   0  0.2483036E-03  0.1097155E+04  0.7818609E-02  0.9207969E-01
       -2   -1    0    0    0  501  0.00000000000E+00  0.00000000000E+00  0.31570130959E+03  0.31570130960E+03  0.25500000920E-02 0.  1.
        2   -1    0    0  501    0  0.00000000000E+00  0.00000000000E+00 -0.95323419160E+03  0.95323419160E+03  0.25500000920E-02 0. -1.
    10030    2    1    2    0    0  0.00000000000E+00  0.00000000000E+00 -0.63753288201E+03  0.12689355012E+04  0.10971550167E+04 0.  0.
        3    1    3    3  502    0  0.33986508862E+03 -0.42927275909E+03 -0.35805392258E+03  0.65420639085E+03  0.10100000352E+00 0.  1.
       -3    1    3    3    0  502 -0.33986508862E+03  0.42927275909E+03 -0.27947895943E+03  0.61472911036E+03  0.10100000352E+00 0. -1.
</event>
<event>
 5   0  0.1509004E-03  0.1106639E+04  0.7818609E-02  0.9198745E-01
        1   -1    0    0  501    0  0.00000000000E+00  0.00000000000E+00  0.44207024945E+03  0.44207024948E+03  0.50400001928E-02 0. -1.
       -1   -1    0    0    0  501  0.00000000000E+00  0.00000000000E+00 -0.69256550936E+03  0.69256550937E+03  0.50400001928E-02 0.  1.
    10030    2    1    2    0    0  0.00000000000E+00  0.00000000000E+00 -0.25049525990E+03  0.11346357589E+04  0.11066392502E+04 0.  0.
        3    1    3    3  502    0  0.40126792044E+03  0.37561485082E+03 -0.19057884727E+03  0.58174115151E+03  0.10100000352E+00 0. -1.
       -3    1    3    3    0  502 -0.40126792044E+03 -0.37561485082E+03 -0.59916412632E+02  0.55289460735E+03  0.10100000352E+00 0.  1.
</event>
<event>
 5   0  0.2488472E-03  0.1097851E+04  0.7818609E-02  0.9207289E-01
        2   -1    0    0  501    0  0.00000000000E+00  0.00000000000E+00  0.80583695261E+03  0.80583695261E+03  0.25500000920E-02 0. -1.
       -2   -1    0    0    0  501  0.00000000000E+00  0.00000000000E+00 -0.37392103161E+03  0.37392103162E+03  0.25500000920E-02 0.  1.
    10030    2    1    2    0    0  0.00000000000E+00  0.00000000000E+00  0.43191592100E+03  0.11797579842E+04  0.10978513281E+04 0.  0.
        2    1    3    3  502    0  0.42715597300E+03  0.23150514994E+03 -0.58566678816E+02  0.48937400379E+03  0.25500000920E-02 0. -1.
       -2    1    3    3    0  502 -0.42715597300E+03 -0.23150514994E+03  0.49048259982E+03  0.69038398044E+03  0.25500000920E-02 0.  1.
</event>
<event>
 5   0  0.2467448E-03  0.1102009E+04  0.7818609E-02  0.9203236E-01
       -2   -1    0    0    0  501  0.00000000000E+00  0.00000000000E+00  0.22024894723E+03  0.22024894724E+03  0.25500000920E-02 0.  1.
        2   -1    0    0  501    0  0.00000000000E+00  0.00000000000E+00 -0.13784669579E+04  0.13784669579E+04  0.25500000920E-02 0. -1.
    10030    2    1    2    0    0  0.00000000000E+00  0.00000000000E+00 -0.11582180107E+04  0.15987159052E+04  0.11020088861E+04 0.  0.
        1    1    3    3  502    0 -0.36295103591E+02 -0.54867834094E+03 -0.52801039718E+03  0.76233866222E+03  0.50400001928E-02 0. -1.
       -1    1    3    3    0  502  0.36295103591E+02  0.54867834094E+03 -0.63020761352E+03  0.83637724295E+03  0.50400001928E-02 0.  1.
</event>
<event>
 5   0  0.2438115E-03  0.1089488E+04  0.7818609E-02  0.9215499E-01
        2   -1    0    0  501    0  0.00000000000E+00  0.00000000000E+00  0.51972967666E+03  0.51972967666E+03  0.25500000920E-02 0. -1.
       -2   -1    0    0    0  501  0.00000000000E+00  0.00000000000E+00 -0.57096211743E+03  0.57096211744E+03  0.25500000920E-02 0.  1.
    10030    2    1    2    0    0  0.00000000000E+00  0.00000000000E+00 -0.51232440775E+02  0.10906917941E+04  0.10894878736E+04 0.  0.
        4    1    3    3  502    0 -0.13045181464E+03 -0.35958880748E+03 -0.41388827057E+03  0.56358397762E+03  0.12699999809E+01 0.  1.
       -4    1    3    3    0  502  0.13045181464E+03  0.35958880748E+03  0.36265582980E+03  0.52710781648E+03  0.12699999809E+01 0. -1.
</event>
<event>
 5   0  0.1468556E-03  0.1097432E+04  0.7818609E-02  0.9207699E-01
       -1   -1    0    0    0  501  0.00000000000E+00  0.00000000000E+00  0.59476699760E+03  0.59476699763E+03  0.50400001928E-02 0.  1.
        1   -1    0    0  501    0  0.00000000000E+00  0.00000000000E+00 -0.50623041686E+03  0.50623041689E+03  0.50400001928E-02 0. -1.
    10030    2    1    2    0    0  0.00000000000E+00  0.00000000000E+00  0.88536580742E+02  0.11009974145E+04  0.10974318114E+04 0.  0.
        5    1    3    3  502    0 -0.19159496533E+03  0.42362245731E+03 -0.24805864592E+03  0.52699127022E+03  0.46999998093E+01 0. -1.
       -5    1    3    3    0  502  0.19159496533E+03 -0.42362245731E+03  0.33659522666E+03  0.57400614429E+03  0.46999998093E+01 0.  1.
</event>
<event>
 5   0  0.2467448E-03  0.1152655E+04  0.7818609E-02  0.9155338E-01
       -2   -1    0    0    0  501  0.00000000000E+00  0.00000000000E+00  0.47161373640E+03  0.47161373640E+03  0.25500000920E-02 0. -1.
        2   -1    0    0  501    0  0.00000000000E+00  0.00000000000E+00 -0.70429104368E+03  0.70429104369E+03  0.25500000920E-02 0.  1.
    10030    2    1    2    0    0  0.00000000000E+00  0.00000000000E+00 -0.23267730729E+03  0.11759047801E+04  0.11526549017E+04 0.  0.
        1    1    3    3  502    0 -0.35122451780E+03 -0.41056431813E+03  0.88285340354E+02  0.54746326139E+03  0.50400001928E-02 0. -1.
       -1    1    3    3    0  502  0.35122451780E+03  0.41056431813E+03 -0.32096264764E+03  0.62844151870E+03  0.50400001928E-02 0.  1.
</event>
<event>
 5   0  0.2483036E-03  0.1081095E+04  0.7818609E-02  0.9223817E-01
        2   -1    0    0  501    0  0.00000000000E+00  0.00000000000E+00  0.95958333956E+03  0.95958333956E+03  0.25500000920E-02 0.  1.
       -2   -1    0    0    0  501  0.00000000000E+00  0.00000000000E+00 -0.30449817462E+03  0.30449817463E+03  0.25500000920E-02 0. -1.
    10030    2    1    2    0    0  0.00000000000E+00  0.00000000000E+00  0.65508516494E+03  0.12640815142E+04  0.10810945848E+04 0.  0.
        3    1    3    3  502    0 -0.49200466056E+02 -0.16266843666E+03 -0.27244848343E+03  0.32110729122E+03  0.10100000352E+00 0. -1.
       -3    1    3    3    0  502  0.49200466056E+02  0.16266843666E+03  0.92753364837E+03  0.94297422298E+03  0.10100000352E+00 0.  1.
</event>
<event>
 5   0  0.1479573E-03  0.1081407E+04  0.7818609E-02  0.9223506E-01
        1   -1    0    0  501    0  0.00000000000E+00  0.00000000000E+00  0.79580005618E+03  0.79580005620E+03  0.50400001928E-02 0.  1.
       -1   -1    0    0    0  501  0.00000000000E+00  0.00000000000E+00 -0.36737911917E+03  0.36737911920E+03  0.50400001928E-02 0. -1.
    10030    2    1    2    0    0  0.00000000000E+00  0.00000000000E+00  0.42842093702E+03  0.11631791754E+04  0.10814070902E+04 0.  0.
        4    1    3    3  502    0  0.31352940109E+03  0.43895681305E+03  0.25409454615E+03  0.59627964945E+03  0.12699999809E+01 0.  1.
       -4    1    3    3    0  502 -0.31352940109E+03 -0.43895681305E+03  0.17432639087E+03  0.56689952595E+03  0.12699999809E+01 0. -1.
</event>
<event>
 5   0  0.2392585E-03  0.1105826E+04  0.7818609E-02  0.9199532E-01
        2   -1    0    0  501    0  0.00000000000E+00  0.00000000000E+00  0.17421044562E+04  0.17421044562E+04  0.25500000920E-02 0.  1.
       -2   -1    0    0    0  501  0.00000000000E+00  0.00000000000E+00 -0.17548477149E+03  0.17548477151E+03  0.25500000920E-02 0. -1.
    10030    2    1    2    0    0  0.00000000000E+00  0.00000000000E+00  0.15666196847E+04  0.19175892277E+04  0.11058260305E+04 0.  0.
        5    1    3    3  502    0 -0.51982094087E+03 -0.18301367047E+03  0.70609176356E+03  0.89570948566E+03  0.46999998093E+01 0. -1.
       -5    1    3    3    0  502  0.51982094087E+03  0.18301367047E+03  0.86052792117E+03  0.10218797421E+04  0.46999998093E+01 0.  1.
</event>
<event>
 5   0  0.2488472E-03  0.1109765E+04  0.7818609E-02  0.9195727E-01
       -2   -1    0    0    0  501  0.00000000000E+00  0.00000000000E+00  0.17471534608E+03  0.17471534610E+03  0.25500000920E-02 0. -1.
        2   -1    0    0  501    0  0.00000000000E+00  0.00000000000E+00 -0.17622627642E+04  0.17622627642E+04  0.25500000920E-02 0.  1.
    10030    2    1    2    0    0  0.00000000000E+00  0.00000000000E+00 -0.15875474181E+04  0.19369781103E+04  0.11097645674E+04 0.  0.
        2    1    3    3  502    0  0.79428535437E+02 -0.36381345324E+03 -0.75770456005E+02  0.38001353004E+03  0.25500000920E-02 0. -1.
       -2    1    3    3    0  502 -0.79428535437E+02  0.36381345324E+03 -0.15117769621E+04  0.15569645803E+04  0.25500000920E-02 0.  1.
</event>
<event>
 5   0  0.2488472E-03  0.1109184E+04  0.7818609E-02  0.9196287E-01
        2   -1    0    0  501    0  0.00000000000E+00  0.00000000000E+00  0.12666973879E+04  0.12666973879E+04  0.25500000920E-02 0.  1.
       -2   -1    0    0    0  501  0.00000000000E+00  0.00000000000E+00 -0.24281424255E+03  0.24281424257E+03  0.25500000920E-02 0. -1.
    10030    2    1    2    0    0  0.00000000000E+00  0.00000000000E+00  0.10238831453E+04  0.15095116305E+04  0.11091837842E+04 0.  0.
        2    1    3    3  502    0 -0.40446161791E+03 -0.36400658456E+03  0.36611220539E+03  0.65584155168E+03  0.25500000920E-02 0.  1.
       -2    1    3    3    0  502  0.40446161791E+03  0.36400658456E+03  0.65777093994E+03  0.85367007877E+03  0.25500000920E-02 0. -1.
</event>
<event>
 5   0  0.1509004E-03  0.1107382E+04  0.7818609E-02  0.9198027E-01
       -1   -1    0    0    0  501  0.00000000000E+00  0.00000000000E+00  0.58779911293E+03  0.58779911295E+03  0.50400001928E-02 0. -1.
        1   -1    0    0  501    0  0.00000000000E+00  0.00000000000E+00 -0.52156199042E+03  0.52156199045E+03  0.50400001928E-02 0.  1.
    10030    2    1    2    0    0  0.00000000000E+00  0.00000000000E+00  0.66237122507E+02  0.11093611034E+04  0.11073819130E+04 0.  0.
        3    1    3    3  502    0  0.30884009965E+02 -0.33344615592E+03  0.47485279758E+03  0.58105537648E+03  0.10100000352E+00 0. -1.
       -3    1    3    3    0  502 -0.30884009965E+02  0.33344615592E+03 -0.40861567507E+03  0.52830572691E+03  0.10100000352E+00 0.  1.
</event>
<event>
 5   0  0.1415400E-03  0.1102818E+04  0.7818609E-02  0.9202449E-01
       -1   -1    0    0    0  501  0.00000000000E+00  0.00000000000E+00  0.50502093557E+03  0.50502093560E+03  0.50400001928E-02 0. -1.
        1   -1    0    0  501    0  0.00000000000E+00  0.00000000000E+00 -0.60205827207E+03  0.60205827209E+03  0.50400001928E-02 0.  1.
    10030    2    1    2    0    0  0.00000000000E+00  0.00000000000E+00 -0.97037336502E+02  0.11070792077E+04  0.11028182658E+04 0.  0.
        2    1    3    3  502    0  0.17572424008E+03 -0.41730421545E+03  0.26738786288E+03  0.52584987022E+03  0.25500000920E-02 0. -1.
       -2    1    3    3    0  502 -0.17572424008E+03  0.41730421545E+03 -0.36442519939E+03  0.58122933747E+03  0.25500000920E-02 0.  1.
</event>
<event>
 5   0  0.2467448E-03  0.1126417E+04  0.7818609E-02  0.9179820E-01
        2   -1    0    0  501    0  0.00000000000E+00  0.00000000000E+00  0.10543729704E+04  0.10543729704E+04  0.25500000920E-02 0.  1.
       -2   -1    0    0    0  501  0.00000000000E+00  0.00000000000E+00 -0.30084591693E+03  0.30084591694E+03  0.25500000920E-02 0. -1.
    10030    2    1    2    0    0  0.00000000000E+00  0.00000000000E+00  0.75352705350E+03  0.13552188874E+04  0.11264169798E+04 0.  0.
        1    1    3    3  502    0  0.12586368690E+03 -0.54071116556E+03  0.26266597216E+03  0.61416906890E+03  0.50400001928E-02 0. -1.
       -1    1    3    3    0  502 -0.12586368690E+03  0.54071116556E+03  0.49086108134E+03  0.74104981846E+03  0.50400001928E-02 0.  1.
</event>
<event>
 5   0  0.9631750E-04  0.1087470E+04  0.7818609E-02  0.9217491E-01
       -4   -1    0    0    0  501  0.00000000000E+00  0.00000000000E+00  0.45055974933E+03  0.45056153921E+03  0.12699999809E+01 0.  1.
        4   -1    0    0  501    0  0.00000000000E+00  0.00000000000E+00 -0.65617553607E+03  0.65617676509E+03  0.12699999809E+01 0. -1.
    10030    2    1    2    0    0  0.00000000000E+00  0.00000000000E+00 -0.20561578675E+03  0.11067383043E+04  0.10874703777E+04 0.  0.
        4    1    3    3  502    0  0.21460589406E+03 -0.49239812874E+03 -0.18877186103E+03  0.56933999979E+03  0.12699999809E+01 0. -1.
       -4    1    3    3    0  502 -0.21460589406E+03  0.49239812874E+03 -0.16843925716E+02  0.53739830450E+03  0.12699999809E+01 0.  1.
</event>
<event>
 5   0  0.1468556E-03  0.1099277E+04  0.7818609E-02  0.9205897E-01
       -1   -1    0    0    0  501  0.00000000000E+00  0.00000000000E+00  0.62192394605E+03  0.62192394607E+03  0.50400001928E-02 0. -1.
        1   -1    0    0  501    0  0.00000000000E+00  0.00000000000E+00 -0.48575455200E+03  0.48575455202E+03  0.50400001928E-02 0.  1.
    10030    2    1    2    0    0  0.00000000000E+00  0.00000000000E+00  0.13616939406E+03  0.11076784981E+04  0.10992768310E+04 0.  0.
        5    1    3    3  502    0  0.33706120741E+03 -0.38471259491E+03 -0.13461503867E+03  0.52892091739E+03  0.46999998093E+01 0.  1.
       -5    1    3    3    0  502 -0.33706120741E+03  0.38471259491E+03  0.27078443272E+03  0.57875758071E+03  0.46999998093E+01 0. -1.
</event>
<event>
 5   0  0.2392585E-03  0.1100180E+04  0.7818609E-02  0.9205016E-01
        2   -1    0    0  501    0  0.00000000000E+00  0.00000000000E+00  0.20176348114E+04  0.20176348114E+04  0.25500000920E-02 0.  1.
       -2   -1    0    0    0  501  0.00000000000E+00  0.00000000000E+00 -0.14997713597E+03  0.14997713599E+03  0.25500000920E-02 0. -1.
    10030    2    1    2    0    0  0.00000000000E+00  0.00000000000E+00  0.18676576754E+04  0.21676119474E+04  0.11001801497E+04 0.  0.
        5    1    3    3  502    0 -0.53480223105E+03  0.12675517697E+03  0.97773894360E+03  0.11216397965E+04  0.46999998093E+01 0. -1.
       -5    1    3    3    0  502  0.53480223105E+03 -0.12675517697E+03  0.88991873182E+03  0.10459721509E+04  0.46999998093E+01 0.  1.
</event>
<event>
 5   0  0.9631750E-04  0.1102714E+04  0.7818609E-02  0.9202551E-01
        4   -1    0    0  501    0  0.00000000000E+00  0.00000000000E+00  0.10180871580E+04  0.10180879501E+04  0.12699999809E+01 0. -1.
       -4   -1    0    0    0  501  0.00000000000E+00  0.00000000000E+00 -0.29859133029E+03  0.29859403113E+03  0.12699999809E+01 0.  1.
    10030    2    1    2    0    0  0.00000000000E+00  0.00000000000E+00  0.71949582767E+03  0.13166819812E+04  0.11027135592E+04 0.  0.
        1    1    3    3  502    0 -0.35136744076E+03  0.33409217771E+03  0.46287021309E+02  0.48705148598E+03  0.50400001928E-02 0. -1.
       -1    1    3    3    0  502  0.35136744076E+03 -0.33409217771E+03  0.67320880636E+03  0.82963049523E+03  0.50400001928E-02 0.  1.
</event>
<event>
 5   0  0.1509004E-03  0.1184340E+04  0.7818609E-02  0.9126675E-01
       -1   -1    0    0    0  501  0.00000000000E+00  0.00000000000E+00  0.30887830621E+03  0.30887830625E+03  0.50400001928E-02 0. -1.
        1   -1    0    0  501    0  0.00000000000E+00  0.00000000000E+00 -0.11352869926E+04  0.11352869926E+04  0.50400001928E-02 0.  1.
    10030    2    1    2    0    0  0.00000000000E+00  0.00000000000E+00 -0.82640868641E+03  0.14441652989E+04  0.11843403622E+04 0.  0.
        3    1    3    3  502    0 -0.34683764722E+03 -0.34268827216E+03 -0.82298603687E+03  0.95657599410E+03  0.10100000352E+00 0.  1.
       -3    1    3    3    0  502  0.34683764722E+03  0.34268827216E+03 -0.34226495379E+01  0.48758930478E+03  0.10100000352E+00 0. -1.
</event>
<event>
 5   0  0.1509004E-03  0.1097996E+04  0.7818609E-02  0.9207147E-01
       -1   -1    0    0    0  501  0.00000000000E+00  0.00000000000E+00  0.22734314130E+03  0.22734314136E+03  0.50400001928E-02 0.  1.
        1   -1    0    0  501    0  0.00000000000E+00  0.00000000000E+00 -0.13257451235E+04  0.13257451235E+04  0.50400001928E-02 0. -1.
    10030    2    1    2    0    0  0.00000000000E+00  0.00000000000E+00 -0.10984019822E+04  0.15530882649E+04  0.10979964681E+04 0.  0.
        3    1    3    3  502    0  0.24571087592E+03 -0.74780834837E+02  0.13712256177E+03  0.29115050224E+03  0.10100000352E+00 0.  1.
       -3    1    3    3    0  502 -0.24571087592E+03  0.74780834837E+02 -0.12355245440E+04  0.12619377627E+04  0.10100000352E+00 0. -1.
</event>
<event>
 5   0  0.2488472E-03  0.1088284E+04  0.7818609E-02  0.9216687E-01
        2   -1    0    0  501    0  0.00000000000E+00  0.00000000000E+00  0.15200095324E+04  0.15200095324E+04  0.25500000920E-02 0. -1.
       -2   -1    0    0    0  501  0.00000000000E+00  0.00000000000E+00 -0.19479528343E+03  0.19479528345E+03  0.25500000920E-02 0.  1.
    10030    2    1    2    0    0  0.00000000000E+00  0.00000000000E+00  0.13252142489E+04  0.17148048158E+04  0.10882843152E+04 0.  0.
        2    1    3    3  502    0 -0.46815818651E+03  0.24410409460E+03  0.45516638719E+03  0.69709062297E+03  0.25500000920E-02 0.  1.
       -2    1    3    3    0  502  0.46815818651E+03 -0.24410409460E+03  0.87004786172E+03  0.10177141928E+04  0.25500000920E-02 0. -1.
</event>
<event>
 5   0  0.2467448E-03  0.1088256E+04  0.7818609E-02  0.9216715E-01
       -2   -1    0    0    0  501  0.00000000000E+00  0.00000000000E+00  0.27744636088E+03  0.27744636089E+03  0.25500000920E-02 0. -1.
        2   -1    0    0  501    0  0.00000000000E+00  0.00000000000E+00 -0.10671437055E+04  0.10671437055E+04  0.25500000920E-02 0.  1.
    10030    2    1    2    0    0  0.00000000000E+00  0.00000000000E+00 -0.78969734462E+03  0.13445900664E+04  0.10882557377E+04 0.  0.
        1    1    3    3  502    0  0.26021746031E+03 -0.27148370690E+03 -0.88074764531E+03  0.95767058246E+03  0.50400001928E-02 0.  1.
       -1    1    3    3    0  502 -0.26021746031E+03  0.27148370690E+03  0.91050300694E+02  0.38691948393E+03  0.50400001928E-02 0. -1.
</event>
<event>
 5   0  0.1480937E-03  0.1108809E+04  0.7818609E-02  0.9196648E-01
        1   -1    0    0  501    0  0.00000000000E+00  0.00000000000E+00  0.52077415167E+03  0.52077415169E+03  0.50400001928E-02 0. -1.
       -1   -1    0    0    0  501  0.00000000000E+00  0.00000000000E+00 -0.59020653802E+03  0.59020653804E+03  0.50400001928E-02 0.  1.
    10030    2    1    2    0    0  0.00000000000E+00  0.00000000000E+00 -0.69432386352E+02  0.11109806897E+04  0.11088089270E+04 0.  0.
        1    1    3    3  502    0 -0.48935065845E+02  0.16405856970E+03  0.49362530683E+03  0.52247085902E+03  0.50400001928E-02 0. -1.
       -1    1    3    3    0  502  0.48935065845E+02 -0.16405856970E+03 -0.56305769318E+03  0.58850983071E+03  0.50400001928E-02 0.  1.
</event>
<event>
 5   0  0.2467448E-03  0.1089993E+04  0.7818609E-02  0.9215001E-01
       -2   -1    0    0    0  501  0.00000000000E+00  0.00000000000E+00  0.17296959775E+03  0.17296959777E+03  0.25500000920E-02 0. -1.
        2   -1    0    0  501    0  0.00000000000E+00  0.00000000000E+00 -0.17171871313E+04  0.17171871313E+04  0.25500000920E-02 0.  1.
    10030    2    1    2    0    0  0.00000000000E+00  0.00000000000E+00 -0.15442175335E+04  0.18901567290E+04  0.10899929676E+04 0.  0.
        1    1    3    3  502    0  0.45669809884E+03  0.21299133386E+03 -0.11320450313E+04  0.12391385777E+04  0.50400001928E-02 0.  1.
       -1    1    3    3    0  502 -0.45669809884E+03 -0.21299133386E+03 -0.41217250222E+03  0.65101815136E+03  0.50400001928E-02 0. -1.
</event>
<event>
 5   0  0.2467448E-03  0.1062023E+04  0.7818609E-02  0.9243019E-01
        2   -1    0    0  501    0  0.00000000000E+00  0.00000000000E+00  0.67055682343E+03  0.67055682343E+03  0.25500000920E-02 0. -1.
       -2   -1    0    0    0  501  0.00000000000E+00  0.00000000000E+00 -0.42050576626E+03  0.42050576627E+03  0.25500000920E-02 0.  1.
    10030    2    1    2    0    0  0.00000000000E+00  0.00000000000E+00  0.25005105717E+03  0.10910625897E+04  0.10620226191E+04 0.  0.
        1    1    3    3  502    0 -0.44550207474E+02 -0.49989656145E+03  0.30323853139E+03  0.58637436854E+03  0.50400001928E-02 0. -1.
       -1    1    3    3    0  502  0.44550207474E+02  0.49989656145E+03 -0.53187474222E+02  0.50468822116E+03  0.50400001928E-02 0.  1.
</event>
<event>
 5   0  0.2392585E-03  0.1092384E+04  0.7818609E-02  0.9212647E-01
       -2   -1    0    0    0  501  0.00000000000E+00  0.00000000000E+00  0.17183144560E+03  0.17183144562E+03  0.25500000920E-02 0. -1.
        2   -1    0    0  501    0  0.00000000000E+00  0.00000000000E+00 -0.17361534584E+04  0.17361534584E+04  0.25500000920E-02 0.  1.
    10030    2    1    2    0    0  0.00000000000E+00  0.00000000000E+00 -0.15643220128E+04  0.19079849040E+04  0.10923841056E+04 0.  0.
        5    1    3    3  502    0  0.28258192197E+03  0.53561362890E+02  0.28811476976E+02  0.28909090858E+03  0.46999998093E+01 0. -1.
       -5    1    3    3    0  502 -0.28258192197E+03 -0.53561362890E+02 -0.15931334897E+04  0.16188939954E+04  0.46999998093E+01 0.  1.
</event>
<event>
 5   0  0.2483036E-03  0.1097673E+04  0.7818609E-02  0.9207463E-01
       -2   -1    0    0    0  501  0.00000000000E+00  0.00000000000E+00  0.25751119014E+03  0.25751119015E+03  0.25500000920E-02 0.  1.
        2   -1    0    0  501    0  0.00000000000E+00  0.00000000000E+00 -0.11697405471E+04  0.11697405471E+04  0.25500000920E-02 0. -1.
    10030    2    1    2    0    0  0.00000000000E+00  0.00000000000E+00 -0.91222935692E+03  0.14272517372E+04  0.10976725932E+04 0.  0.
        3    1    3    3  502    0  0.31547005646E+03 -0.43837573336E+03 -0.58302513644E+03  0.79474081312E+03  0.10100000352E+00 0. -1.
       -3    1    3    3    0  502 -0.31547005646E+03  0.43837573336E+03 -0.32920422048E+03  0.63251092410E+03  0.10100000352E+00 0.  1.
</event>
<event>
 5   0  0.1479573E-03  0.1101992E+04  0.7818609E-02  0.9203253E-01
       -1   -1    0    0    0  501  0.00000000000E+00  0.00000000000E+00  0.64621000475E+03  0.64621000477E+03  0.50400001928E-02 0.  1.
        1   -1    0    0  501    0  0.00000000000E+00  0.00000000000E+00 -0.46981086188E+03  0.46981086191E+03  0.50400001928E-02 0. -1.
    10030    2    1    2    0    0  0.00000000000E+00  0.00000000000E+00  0.17639914287E+03  0.11160208667E+04  0.11019917955E+04 0.  0.
        4    1    3    3  502    0 -0.50074577984E+03 -0.17221286849E+03 -0.66025901381E+02  0.53363343285E+03  0.12699999809E+01 0. -1.
       -4    1    3    3    0  502  0.50074577984E+03  0.17221286849E+03  0.24242504425E+03  0.58238743383E+03  0.12699999809E+01 0.  1.
</event>
<event>
 5   0  0.1480937E-03  0.1098553E+04  0.7818609E-02  0.9206603E-01
       -1   -1    0    0    0  501  0.00000000000E+00  0.00000000000E+00  0.93970168806E+03  0.93970168807E+03  0.50400001928E-02 0.  1.
        1   -1    0    0  501    0  0.00000000000E+00  0.00000000000E+00 -0.32106424636E+03  0.32106424640E+03  0.50400001928E-02 0. -1.
    10030    2    1    2    0    0  0.00000000000E+00  0.00000000000E+00  0.61863744170E+03  0.12607659345E+04  0.10985528923E+04 0.  0.
        1    1    3    3  502    0 -0.14786243228E+03 -0.37053857532E+03 -0.12397824569E+03  0.41777115758E+03  0.50400001928E-02 0. -1.
       -1    1    3    3    0  502  0.14786243228E+03  0.37053857532E+03  0.74261568739E+03  0.84299477689E+03  0.50400001928E-02 0.  1.
</event>
<event>
 5   0  0.1480937E-03  0.1069386E+04  0.7818609E-02  0.9235555E-01
        1   -1    0    0  501    0  0.00000000000E+00  0.00000000000E+00  0.11193594475E+04  0.11193594475E+04  0.50400001928E-02 0.  1.
       -1   -1    0    0    0  501  0.00000000000E+00  0.00000000000E+00 -0.25541096618E+03  0.25541096623E+03  0.50400001928E-02 0. -1.
    10030    2    1    2    0    0  0.00000000000E+00  0.00000000000E+00  0.86394848134E+03  0.13747704138E+04  0.10693861380E+04 0.  0.
        1    1    3    3  502    0 -0.46251065745E+02  0.50494465509E+03  0.65009875803E+03  0.82446143694E+03  0.50400001928E-02 0.  1.
       -1    1    3    3    0  502  0.46251065745E+02 -0.50494465509E+03  0.21384972331E+03  0.55030897682E+03  0.50400001928E-02 0. -1.
</event>
<event>
 5   0  0.2392585E-03  0.1099855E+04  0.7818609E-02  0.9205333E-01
       -2   -1    0    0    0  501  0.00000000000E+00  0.00000000000E+00  0.11612613102E+04  0.11612613102E+04  0.25500000920E-02 0.  1.
        2   -1    0    0  501    0  0.00000000000E+00  0.00000000000E+00 -0.26042413068E+03  0.26042413069E+03  0.25500000920E-02 0. -1.
    10030    2    1    2    0    0  0.00000000000E+00  0.00000000000E+00  0.90083717957E+03  0.14216854409E+04  0.10998553854E+04 0.  0.
        5    1    3    3  502    0 -0.25080152741E+03  0.15707268259E+03 -0.14869681358E+03  0.33121906065E+03  0.46999998093E+01 0. -1.
       -5    1    3    3    0  502  0.25080152741E+03 -0.15707268259E+03  0.10495339931E+04  0.10904663803E+04  0.46999998093E+01 0.  1.
</event>
<event>
 5   0  0.2467448E-03  0.1094144E+04  0.7818609E-02  0.9210918E-01
        2   -1    0    0  501    0  0.00000000000E+00  0.00000000000E+00  0.53298795405E+03  0.53298795406E+03  0.25500000920E-02 0.  1.
       -2   -1    0    0    0  501  0.00000000000E+00  0.00000000000E+00 -0.56152848333E+03  0.56152848334E+03  0.25500000920E-02 0. -1.
    10030    2    1    2    0    0  0.00000000000E+00  0.00000000000E+00 -0.28540529277E+02  0.10945164374E+04  0.10941442638E+04 0.  0.
        1    1    3    3  502    0 -0.39814497955E+02  0.99660788555E+02 -0.55089513753E+03  0.56125120900E+03  0.50400001928E-02 0. -1.
       -1    1    3    3    0  502  0.39814497955E+02 -0.99660788555E+02  0.52235460826E+03  0.53326522839E+03  0.50400001928E-02 0.  1.
</event>
<event>
 5   0  0.1468556E-03  0.1106386E+04  0.7818609E-02  0.9198990E-01
        1   -1    0    0  501    0  0.00000000000E+00  0.00000000000E+00  0.57876102963E+03  0.57876102965E+03  0.50400001928E-02 0.  1.
       -1   -1    0    0    0  501  0.00000000000E+00  0.00000000000E+00 -0.52875484858E+03  0.52875484860E+03  0.50400001928E-02 0. -1.
    10030    2    1    2    0    0  0.00000000000E+00  0.00000000000E+00  0.50006181050E+02  0.11075158783E+04  0.11063863712E+04 0.  0.
        5    1    3    3  502    0 -0.48648648457E+03  0.30739828854E+02  0.28677833095E+03  0.56557752594E+03  0.46999998093E+01 0.  1.
       -5    1    3    3    0  502  0.48648648457E+03 -0.30739828854E+02 -0.23677214990E+03  0.54193835232E+03  0.46999998093E+01 0. -1.
</event>
<event>
 5   0  0.1509004E-03  0.1101121E+04  0.7818609E-02  0.9204100E-01
       -1   -1    0    0    0  501  0.00000000000E+00  0.00000000000E+00  0.30073568242E+03  0.30073568246E+03  0.50400001928E-02 0.  1.
        1   -1    0    0  501    0  0.00000000000E+00  0.00000000000E+00 -0.10079184413E+04  0.10079184413E+04  0.50400001928E-02 0. -1.
    10030    2    1    2    0    0  0.00000000000E+00  0.00000000000E+00 -0.70718275889E+03  0.13086541238E+04  0.11011213199E+04 0.  0.
        3    1    3    3  502    0 -0.19680108920E+03  0.47506992993E+03 -0.11980634847E+03  0.52799211960E+03  0.10100000352E+00 0.  1.
       -3    1    3    3    0  502  0.19680108920E+03 -0.47506992993E+03 -0.58737641043E+03  0.78066200417E+03  0.10100000352E+00 0. -1.
</event>
<event>
 5   0  0.2467448E-03  0.1105596E+04  0.7818609E-02  0.9199754E-01
       -2   -1    0    0    0  501  0.00000000000E+00  0.00000000000E+00  0.28544761182E+03  0.28544761183E+03  0.25500000920E-02 0. -1.
        2   -1    0    0  501    0  0.00000000000E+00  0.00000000000E+00 -0.10705495056E+04  0.10705495056E+04  0.25500000920E-02 0.  1.
    10030    2    1    2    0    0  0.00000000000E+00  0.00000000000E+00 -0.78510189373E+03  0.13559971174E+04  0.11055963092E+04 0.  0.
        1    1    3    3  502    0  0.22876561917E+03  0.50247115964E+03 -0.35841091142E+03  0.65823199272E+03  0.50400001928E-02 0.  1.
       -1    1    3    3    0  502 -0.22876561917E+03 -0.50247115964E+03 -0.42669098231E+03  0.69776512467E+03  0.50400001928E-02 0. -1.
</event>
<event>
 5   0  0.1480937E-03  0.1091832E+04  0.7818609E-02  0.9213190E-01
       -1   -1    0    0    0  501  0.00000000000E+00  0.00000000000E+00  0.37471156177E+03  0.37471156180E+03  0.50400001928E-02 0. -1.
        1   -1    0    0  501    0  0.00000000000E+00  0.00000000000E+00 -0.79534278954E+03  0.79534278956E+03  0.50400001928E-02 0.  1.
    10030    2    1    2    0    0  0.00000000000E+00  0.00000000000E+00 -0.42063122777E+03  0.11700543514E+04  0.10918317431E+04 0.  0.
        1    1    3    3  502    0 -0.28444132915E+03  0.44003479706E+03 -0.46082463122E+02  0.52598582280E+03  0.50400001928E-02 0.  1.
       -1    1    3    3    0  502  0.28444132915E+03 -0.44003479706E+03 -0.37454876465E+03  0.64406852856E+03  0.50400001928E-02 0. -1.
</event>
<event>
 5   0  0.1415400E-03  0.1085916E+04  0.7818609E-02  0.9219029E-01
        1   -1    0    0  501    0  0.00000000000E+00  0.00000000000E+00  0.24577991900E+03  0.24577991905E+03  0.50400001928E-02 0.  1.
       -1   -1    0    0    0  501  0.00000000000E+00  0.00000000000E+00 -0.11994614382E+04  0.11994614383E+04  0.50400001928E-02 0. -1.
    10030    2    1    2    0    0  0.00000000000E+00  0.00000000000E+00 -0.95368151925E+03  0.14452413573E+04  0.10859162678E+04 0.  0.
        2    1    3    3  502    0 -0.22137913357E+03 -0.12731104817E+03  0.16086070631E+03  0.30181615366E+03  0.25500000920E-02 0.  1.
       -2    1    3    3    0  502  0.22137913357E+03  0.12731104817E+03 -0.11145422256E+04  0.11434252036E+04  0.25500000920E-02 0. -1.
</event>
<event>
 5   0  0.1479573E-03  0.1135345E+04  0.7818609E-02  0.9171411E-01
       -1   -1    0    0    0  501  0.00000000000E+00  0.00000000000E+00  0.11357142253E+04  0.11357142253E+04  0.50400001928E-02 0. -1.
        1   -1    0    0  501    0  0.00000000000E+00  0.00000000000E+00 -0.28374387575E+03  0.28374387580E+03  0.50400001928E-02 0.  1.
    10030    2    1    2    0    0  0.00000000000E+00  0.00000000000E+00  0.85197034950E+03  0.14194581011E+04  0.11353448041E+04 0.  0.
        4    1    3    3  502    0  0.79534336072E+02 -0.56184984646E+03  0.44572884351E+03  0.72157936183E+03  0.12699999809E+01 0.  1.
       -4    1    3    3    0  502 -0.79534336072E+02  0.56184984646E+03  0.40624150599E+03  0.69787873923E+03  0.12699999809E+01 0. -1.
</event>
<event>
 5   0  0.1415400E-03  0.1097354E+04  0.7818609E-02  0.9207775E-01
       -1   -1    0    0    0  501  0.00000000000E+00  0.00000000000E+00  0.28801651718E+03  0.28801651723E+03  0.50400001928E-02 0. -1.
        1   -1    0    0  501    0  0.00000000000E+00  0.00000000000E+00 -0.10452396740E+04  0.10452396740E+04  0.50400001928E-02 0.  1.
    10030    2    1    2    0    0  0.00000000000E+00  0.00000000000E+00 -0.75722315684E+03  0.13332561913E+04  0.10973537088E+04 0.  0.
        2    1    3    3  502    0 -0.22588641221E+02 -0.13996051115E+03  0.26537860816E+03  0.30087372280E+03  0.25500000920E-02 0. -1.
       -2    1    3    3    0  502  0.22588641221E+02  0.13996051115E+03 -0.10226017650E+04  0.10323824685E+04  0.25500000920E-02 0.  1.
</event>
<event>
 5   0  0.1480937E-03  0.1102491E+04  0.7818609E-02  0.9202767E-01
       -1   -1    0    0    0  501  0.00000000000E+00  0.00000000000E+00  0.21273534627E+03  0.21273534633E+03  0.50400001928E-02 0.  1.
        1   -1    0    0  501    0  0.00000000000E+00  0.00000000000E+00 -0.14284024310E+04  0.14284024310E+04  0.50400001928E-02 0. -1.
    10030    2    1    2    0    0  0.00000000000E+00  0.00000000000E+00 -0.12156670847E+04  0.16411377773E+04  0.11024911534E+04 0.  0.
        1    1    3    3  502    0 -0.98273398002E+02 -0.25333028295E+03  0.10611929727E+03  0.29171081278E+03  0.50400001928E-02 0.  1.
       -1    1    3    3    0  502  0.98273398002E+02  0.25333028295E+03 -0.13217863820E+04  0.13494269645E+04  0.50400001928E-02 0. -1.
</event>
<event>
 5   0  0.1509004E-03  0.1099615E+04  0.7818609E-02  0.9205567E-01
        1   -1    0    0  501    0  0.00000000000E+00  0.00000000000E+00  0.56799102168E+03  0.56799102170E+03  0.50400001928E-02 0. -1.
       -1   -1    0    0    0  501  0.00000000000E+00  0.00000000000E+00 -0.53220641004E+03  0.53220641007E+03  0.50400001928E-02 0.  1.
    10030    2    1    2    0    0  0.00000000000E+00  0.00000000000E+00  0.35784611638E+02  0.11001974318E+04  0.10996153193E+04 0.  0.
        3    1    3    3  502    0 -0.53589053301E+03 -0.89213270302E+02 -0.66714752887E+02  0.54734681823E+03  0.10100000352E+00 0.  1.
       -3    1    3    3    0  502  0.53589053301E+03  0.89213270302E+02  0.10249936452E+03  0.55285061355E+03  0.10100000352E+00 0. -1.
</event>
<event>
 5   0  0.1479573E-03  0.1090583E+04  0.7818609E-02  0.9214419E-01
       -1   -1    0    0    0  501  0.00000000000E+00  0.00000000000E+00  0.26991571746E+03  0.26991571751E+03  0.50400001928E-02 0.  1.
        1   -1    0    0  501    0  0.00000000000E+00  0.00000000000E+00 -0.11016131766E+04  0.11016131766E+04  0.50400001928E-02 0. -1.
    10030    2    1    2    0    0  0.00000000000E+00  0.00000000000E+00 -0.83169745914E+03  0.13715288941E+04  0.10905828001E+04 0.  0.
        4    1    3    3  502    0  0.47009504975E+03 -0.27090173142E+02 -0.76167543106E+03  0.89547434830E+03  0.12699999809E+01 0. -1.
       -4    1    3    3    0  502 -0.47009504975E+03  0.27090173142E+02 -0.70022028077E+02  0.47605454582E+03  0.12699999809E+01 0.  1.
</event>
<event>
 5   0  0.2483036E-03  0.1117546E+04  0.7818609E-02  0.9188257E-01
       -2   -1    0    0    0  501  0.00000000000E+00  0.00000000000E+00  0.27190409249E+03  0.27190409251E+03  0.25500000920E-02 0. -1.
        2   -1    0    0  501    0  0.00000000000E+00  0.00000000000E+00 -0.11482993178E+04  0.11482993178E+04  0.25500000920E-02 0.  1.
    10030    2    1    2    0    0  0.00000000000E+00  0.00000000000E+00 -0.87639522531E+03  0.14202034103E+04  0.11175460329E+04 0.  0.
        3    1    3    3  502    0 -0.15626818311E+03 -0.53603481328E+03 -0.46587145086E+03  0.72717899105E+03  0.10100000352E+00 0.  1.
       -3    1    3    3    0  502  0.15626818311E+03  0.53603481328E+03 -0.41052377446E+03  0.69302441926E+03  0.10100000352E+00 0. -1.
</event>
<event>
 5   0  0.1415400E-03  0.1072472E+04  0.7818609E-02  0.9232446E-01
        1   -1    0    0  501    0  0.00000000000E+00  0.00000000000E+00  0.16649795417E+04  0.16649795417E+04  0.50400001928E-02 0.  1.
       -1   -1    0    0    0  501  0.00000000000E+00  0.00000000000E+00 -0.17270414718E+03  0.17270414726E+03  0.50400001928E-02 0. -1.
    10030    2    1    2    0    0  0.00000000000E+00  0.00000000000E+00  0.14922753945E+04  0.18376836890E+04  0.10724716722E+04 0.  0.
        2    1    3    3  502    0 -0.34569554454E+03 -0.23088556739E+03  0.13265458326E+04  0.13901573295E+04  0.25500000920E-02 0.  1.
       -2    1    3    3    0  502  0.34569554454E+03  0.23088556739E+03  0.16572956194E+03  0.44752635950E+03  0.25500000920E-02 0. -1.
</event>
<event>
 5   0  0.1509004E-03  0.1081105E+04  0.7818609E-02  0.9223806E-01
       -1   -1    0    0    0  501  0.00000000000E+00  0.00000000000E+00  0.47773591802E+03  0.47773591805E+03  0.50400001928E-02 0. -1.
        1   -1    0    0  501    0  0.00000000000E+00  0.00000000000E+00 -0.61162893389E+03  0.61162893391E+03  0.50400001928E-02 0.  1.
    10030    2    1    2    0    0  0.00000000000E+00  0.00000000000E+00 -0.13389301587E+03  0.10893648520E+04  0.10811051942E+04 0.  0.
        3    1    3    3  502    0 -0.35958223154E+03 -0.40357900350E+03 -0.71641152229E+02  0.54525944118E+03  0.10100000352E+00 0. -1.
       -3    1    3    3    0  502  0.35958223154E+03  0.40357900350E+03 -0.62251863637E+02  0.54410541077E+03  0.10100000352E+00 0.  1.
</event>
<event>
 5   0  0.9631750E-04  0.1099386E+04  0.7818609E-02  0.9205791E-01
       -4   -1    0    0    0  501  0.00000000000E+00  0.00000000000E+00  0.34580191502E+03  0.34580424713E+03  0.12699999809E+01 0.  1.
        4   -1    0    0  501    0  0.00000000000E+00  0.00000000000E+00 -0.87379613780E+03  0.87379706073E+03  0.12699999809E+01 0. -1.
    10030    2    1    2    0    0  0.00000000000E+00  0.00000000000E+00 -0.52799422278E+03  0.12196013079E+04  0.10993859426E+04 0.  0.
        3    1    3    3  502    0  0.37109502978E+03  0.29602647171E+03  0.43472697027E+02  0.47668970900E+03  0.10100000352E+00 0.  1.
       -3    1    3    3    0  502 -0.37109502978E+03 -0.29602647171E+03 -0.57146691981E+03  0.74291159886E+03  0.10100000352E+00 0. -1.
</event>
<event>
 5   0  0.2467448E-03  0.1099179E+04  0.7818609E-02  0.9205993E-01
       -2   -1    0    0    0  501  0.00000000000E+00  0.00000000000E+00  0.35089000415E+03  0.35089000416E+03  0.25500000920E-02 0. -1.
        2   -1    0    0  501    0  0.00000000000E+00  0.00000000000E+00 -0.86080675161E+03  0.86080675161E+03  0.25500000920E-02 0.  1.
    10030    2    1    2    0    0  0.00000000000E+00  0.00000000000E+00 -0.50991674746E+03  0.12116967558E+04  0.10991787564E+04 0.  0.
        1    1    3    3  502    0 -0.36888380470E+03  0.35080827135E+03 -0.48330183539E+03  0.70194185566E+03  0.50400001928E-02 0.  1.
       -1    1    3    3    0  502  0.36888380470E+03 -0.35080827135E+03 -0.26614912071E+02  0.50975490011E+03  0.50400001928E-02 0. -1.
</event>
<event>
 5   0  0.1480937E-03  0.1098292E+04  0.7818609E-02  0.9206859E-01
        1   -1    0    0  501    0  0.00000000000E+00  0.00000000000E+00  0.35721923294E+03  0.35721923298E+03  0.50400001928E-02 0.  1.
       -1   -1    0    0    0  501  0.00000000000E+00  0.00000000000E+00 -0.84419067527E+03  0.84419067529E+03  0.50400001928E-02 0. -1.
    10030    2    1    2    0    0  0.00000000000E+00  0.00000000000E+00 -0.48697144233E+03  0.12014099083E+04  0.10982916653E+04 0.  0.
        1    1    3    3  502    0  0.24156109492E+03 -0.10388575467E+03  0.28387477124E+03  0.38694818565E+03  0.50400001928E-02 0.  1.
       -1    1    3    3    0  502 -0.24156109492E+03  0.10388575467E+03 -0.77084621357E+03  0.81446172261E+03  0.50400001928E-02 0. -1.
</event>
<event>
 5   0  0.2488472E-03  0.1110708E+04  0.7818609E-02  0.9194817E-01
       -2   -1    0    0    0  501  0.00000000000E+00  0.00000000000E+00  0.20582910902E+03  0.20582910904E+03  0.25500000920E-02 0. -1.
        2   -1    0    0  501    0  0.00000000000E+00  0.00000000000E+00 -0.14984190544E+04  0.14984190544E+04  0.25500000920E-02 0.  1.
    10030    2    1    2    0    0  0.00000000000E+00  0.00000000000E+00 -0.12925899453E+04  0.17042481634E+04  0.11107083486E+04 0.  0.
        2    1    3    3  502    0  0.50563268802E+03  0.22894442550E+03 -0.61807349270E+03  0.83071945177E+03  0.25500000920E-02 0. -1.
       -2    1    3    3    0  502 -0.50563268802E+03 -0.22894442550E+03 -0.67451645264E+03  0.87352871163E+03  0.25500000920E-02 0.  1.
</event>
<event>
 5   0  0.1468556E-03  0.1106399E+04  0.7818609E-02  0.9198977E-01
        1   -1    0    0  501    0  0.00000000000E+00  0.00000000000E+00  0.16463805106E+04  0.16463805106E+04  0.50400001928E-02 0. -1.
       -1   -1    0    0    0  501  0.00000000000E+00  0.00000000000E+00 -0.18588045650E+03  0.18588045657E+03  0.50400001928E-02 0.  1.
    10030    2    1    2    0    0  0.00000000000E+00  0.00000000000E+00  0.14605000541E+04  0.18322609672E+04  0.11063994956E+04 0.  0.
        5    1    3    3  502    0 -0.23195783080E+03 -0.48717700951E+03  0.52836042747E+03  0.75520375077E+03  0.46999998093E+01 0. -1.
       -5    1    3    3    0  502  0.23195783080E+03  0.48717700951E+03  0.93213962662E+03  0.10770572164E+04  0.46999998093E+01 0.  1.
</event>
<event>
 5   0  0.1479573E-03  0.1093332E+04  0.7818609E-02  0.9211715E-01
       -1   -1    0    0    0  501  0.00000000000E+00  0.00000000000E+00  0.52974999749E+03  0.52974999752E+03  0.50400001928E-02 0. -1.
        1   -1    0    0  501    0  0.00000000000E+00  0.00000000000E+00 -0.56412259168E+03  0.56412259170E+03  0.50400001928E-02 0.  1.
    10030    2    1    2    0    0  0.00000000000E+00  0.00000000000E+00 -0.34372594187E+02  0.10938725892E+04  0.10933324134E+04 0.  0.
        4    1    3    3  502    0  0.87029142799E+02 -0.44851548430E+03  0.28313215332E+03  0.53749943302E+03  0.12699999809E+01 0. -1.
       -4    1    3    3    0  502 -0.87029142799E+02  0.44851548430E+03 -0.31750474751E+03  0.55637315620E+03  0.12699999809E+01 0.  1.
</event>
<event>
 5   0  0.1509004E-03  0.1101861E+04  0.7818609E-02  0.9203380E-01
       -1   -1    0    0    0  501  0.00000000000E+00  0.00000000000E+00  0.43257351849E+03  0.43257351851E+03  0.50400001928E-02 0.  1.
        1   -1    0    0  501    0  0.00000000000E+00  0.00000000000E+00 -0.70167144903E+03  0.70167144904E+03  0.50400001928E-02 0. -1.
    10030    2    1    2    0    0  0.00000000000E+00  0.00000000000E+00 -0.26909793054E+03  0.11342449676E+04  0.11018611302E+04 0.  0.
        3    1    3    3  502    0 -0.16334981788E+03  0.26399896034E+03  0.33396024238E+03  0.45596937151E+03  0.10100000352E+00 0.  1.
       -3    1    3    3    0  502  0.16334981788E+03 -0.26399896034E+03 -0.60305817292E+03  0.67827559605E+03  0.10100000352E+00 0. -1.
</event>
<event>
 5   0  0.9631750E-04  0.1104510E+04  0.7818609E-02  0.9200807E-01
        3   -1    0    0  501    0  0.00000000000E+00  0.00000000000E+00  0.22246847019E+03  0.22246849312E+03  0.10100000352E+00 0.  1.
       -3   -1    0    0    0  501  0.00000000000E+00  0.00000000000E+00 -0.13709160618E+04  0.13709160655E+04  0.10100000352E+00 0. -1.
    10030    2    1    2    0    0  0.00000000000E+00  0.00000000000E+00 -0.11484475916E+04  0.15933845586E+04  0.11045100638E+04 0.  0.
        1    1    3    3  502    0 -0.46189462582E+03  0.14725495916E+03 -0.19266615233E+03  0.52168085515E+03  0.50400001928E-02 0.  1.
       -1    1    3    3    0  502  0.46189462582E+03 -0.14725495916E+03 -0.95578143929E+03  0.10717037035E+04  0.50400001928E-02 0. -1.
</event>
<event>
 5   0  0.2483036E-03  0.1093222E+04  0.7818609E-02  0.9211823E-01
        2   -1    0    0  501    0  0.00000000000E+00  0.00000000000E+00  0.54203140260E+03  0.54203140260E+03  0.25500000920E-02 0. -1.
       -2   -1    0    0    0  501  0.00000000000E+00  0.00000000000E+00 -0.55122929983E+03  0.55122929984E+03  0.25500000920E-02 0.  1.
    10030    2    1    2    0    0  0.00000000000E+00  0.00000000000E+00 -0.91978972333E+01  0.10932607024E+04  0.10932220096E+04 0.  0.
        3    1    3    3  502    0  0.52997459253E+03 -0.11325146860E+03 -0.75907969174E+02  0.54723029325E+03  0.10100000352E+00 0.  1.
       -3    1    3    3    0  502 -0.52997459253E+03  0.11325146860E+03  0.66710071940E+02  0.54603040919E+03  0.10100000352E+00 0. -1.
</event>
<event>
 5   0  0.2438115E-03  0.1100625E+04  0.7818609E-02  0.9204583E-01
        2   -1    0    0  501    0  0.00000000000E+00  0.00000000000E+00  0.10490762401E+04  0.10490762401E+04  0.25500000920E-02 0. -1.
       -2   -1    0    0    0  501  0.00000000000E+00  0.00000000000E+00 -0.28867656901E+03  0.28867656902E+03  0.25500000920E-02 0.  1.
    10030    2    1    2    0    0  0.00000000000E+00  0.00000000000E+00  0.76039967106E+03  0.13377528091E+04  0.11006247855E+04 0.  0.
        4    1    3    3  502    0  0.21775988288E+03 -0.46246253700E+03  0.13244158973E+03  0.52804673308E+03  0.12699999809E+01 0.  1.
       -4    1    3    3    0  502 -0.21775988288E+03  0.46246253700E+03  0.62795808132E+03  0.80970607601E+03  0.12699999809E+01 0. -1.
</event>
<event>
 5   0  0.1479573E-03  0.1095092E+04  0.7818609E-02  0.9209989E-01
        1   -1    0    0  501    0  0.00000000000E+00  0.00000000000E+00  0.89443899453E+03  0.89443899455E+03  0.50400001928E-02 0.  1.
       -1   -1    0    0    0  501  0.00000000000E+00  0.00000000000E+00 -0.33518949765E+03  0.33518949768E+03  0.50400001928E-02 0. -1.
    10030    2    1    2    0    0  0.00000000000E+00  0.00000000000E+00  0.55924949689E+03  0.12296284922E+04  0.10950918816E+04 0.  0.
        4    1    3    3  502    0  0.30559746061E+02  0.40217331815E+03 -0.13617661055E+03  0.42570289883E+03  0.12699999809E+01 0. -1.
       -4    1    3    3    0  502 -0.30559746061E+02 -0.40217331815E+03  0.69542610744E+03  0.80392559340E+03  0.12699999809E+01 0.  1.
</event>
<event>
 5   0  0.1468556E-03  0.1107482E+04  0.7818609E-02  0.9197930E-01
       -1   -1    0    0    0  501  0.00000000000E+00  0.00000000000E+00  0.40502273204E+03  0.40502273208E+03  0.50400001928E-02 0. -1.
        1   -1    0    0  501    0  0.00000000000E+00  0.00000000000E+00 -0.75706691068E+03  0.75706691070E+03  0.50400001928E-02 0.  1.
    10030    2    1    2    0    0  0.00000000000E+00  0.00000000000E+00 -0.35204417864E+03  0.11620896428E+04  0.11074823855E+04 0.  0.
        5    1    3    3  502    0 -0.13357407581E+03  0.31404562881E+03 -0.63357376545E+03  0.71965581840E+03  0.46999998093E+01 0.  1.
       -5    1    3    3    0  502  0.13357407581E+03 -0.31404562881E+03  0.28152958681E+03  0.44243382437E+03  0.46999998093E+01 0. -1.
</event>
<event>
 5   0  0.2483036E-03  0.1096547E+04  0.7818609E-02  0.9208564E-01
        2   -1    0    0  501    0  0.00000000000E+00  0.00000000000E+00  0.96192017780E+03  0.96192017781E+03  0.25500000920E-02 0. -1.
       -2   -1    0    0    0  501  0.00000000000E+00  0.00000000000E+00 -0.31250406899E+03  0.31250406900E+03  0.25500000920E-02 0.  1.
    10030    2    1    2    0    0  0.00000000000E+00  0.00000000000E+00  0.64941610881E+03  0.12744242468E+04  0.10965472532E+04 0.  0.
        3    1    3    3  502    0 -0.54759187524E+03 -0.23282615908E+02  0.30806695510E+03  0.62873221729E+03  0.10100000352E+00 0.  1.
       -3    1    3    3    0  502  0.54759187524E+03  0.23282615908E+02  0.34134915372E+03  0.64569202952E+03  0.10100000352E+00 0. -1.
</event>
<event>
 5   0  0.1479573E-03  0.1154477E+04  0.7818609E-02  0.9153663E-01
        1   -1    0    0  501    0  0.00000000000E+00  0.00000000000E+00  0.75444257876E+03  0.75444257877E+03  0.50400001928E-02 0.  1.
       -1   -1    0    0    0  501  0.00000000000E+00  0.00000000000E+00 -0.44165627058E+03  0.44165627061E+03  0.50400001928E-02 0. -1.
    10030    2    1    2    0    0  0.00000000000E+00  0.00000000000E+00  0.31278630818E+03  0.11960988494E+04  0.11544770171E+04 0.  0.
        4    1    3    3  502    0  0.32770862768E+03  0.44044029261E+03 -0.28425630207E+02  0.54971831456E+03  0.12699999809E+01 0. -1.
       -4    1    3    3    0  502 -0.32770862768E+03 -0.44044029261E+03  0.34121193838E+03  0.64638053483E+03  0.12699999809E+01 0.  1.
</event>
<event>
 5   0  0.2483036E-03  0.1100802E+04  0.7818609E-02  0.9204411E-01
       -2   -1    0    0    0  501  0.00000000000E+00  0.00000000000E+00  0.42671780921E+03  0.42671780922E+03  0.25500000920E-02 0.  1.
        2   -1    0    0  501    0  0.00000000000E+00  0.00000000000E+00 -0.70993344963E+03  0.70993344963E+03  0.25500000920E-02 0. -1.
    10030    2    1    2    0    0  0.00000000000E+00  0.00000000000E+00 -0.28321564042E+03  0.11366512589E+04  0.11008019737E+04 0.  0.
        3    1    3    3  502    0 -0.13310528836E+03  0.11816772508E+03 -0.67939618559E+03  0.70232458040E+03  0.10100000352E+00 0. -1.
       -3    1    3    3    0  502  0.13310528836E+03 -0.11816772508E+03  0.39618054517E+03  0.43432667845E+03  0.10100000352E+00 0.  1.
</event>
<event>
 5   0  0.1468556E-03  0.1093221E+04  0.7818609E-02  0.9211824E-01
        1   -1    0    0  501    0  0.00000000000E+00  0.00000000000E+00  0.67349980874E+03  0.67349980876E+03  0.50400001928E-02 0.  1.
       -1   -1    0    0    0  501  0.00000000000E+00  0.00000000000E+00 -0.44362747339E+03  0.44362747342E+03  0.50400001928E-02 0. -1.
    10030    2    1    2    0    0  0.00000000000E+00  0.00000000000E+00  0.22987233534E+03  0.11171272822E+04  0.10932209630E+04 0.  0.
        5    1    3    3  502    0 -0.16407291245E+03 -0.34951367004E+03 -0.28041073330E+03  0.47721273610E+03  0.46999998093E+01 0. -1.
       -5    1    3    3    0  502  0.16407291245E+03  0.34951367004E+03  0.51028306864E+03  0.63991454608E+03  0.46999998093E+01 0.  1.
</event>
<event>
 5   0  0.1415400E-03  0.1103519E+04  0.7818609E-02  0.9201768E-01
        1   -1    0    0  501    0  0.00000000000E+00  0.00000000000E+00  0.51287432206E+03  0.51287432208E+03  0.50400001928E-02 0.  1.
       -1   -1    0    0    0  501  0.00000000000E+00  0.00000000000E+00 -0.59359332843E+03  0.59359332845E+03  0.50400001928E-02 0. -1.
    10030    2    1    2    0    0  0.00000000000E+00  0.00000000000E+00 -0.80719006371E+02  0.11064676505E+04  0.11035194170E+04 0.  0.
        2    1    3    3  502    0  0.24113544913E+03 -0.99093932707E+01 -0.53786480894E+03  0.58952782259E+03  0.25500000920E-02 0. -1.
       -2    1    3    3    0  502 -0.24113544913E+03  0.99093932707E+01  0.45714580257E+03  0.51693982794E+03  0.25500000920E-02 0.  1.
</event>
<event>
 5   0  0.2392585E-03  0.1099725E+04  0.7818609E-02  0.9205460E-01
        2   -1    0    0  501    0  0.00000000000E+00  0.00000000000E+00  0.10989272556E+04  0.10989272556E+04  0.25500000920E-02 0. -1.
       -2   -1    0    0    0  501  0.00000000000E+00  0.00000000000E+00 -0.27513089082E+03  0.27513089083E+03  0.25500000920E-02 0.  1.
    10030    2    1    2    0    0  0.00000000000E+00  0.00000000000E+00  0.82379636473E+03  0.13740581464E+04  0.10997251198E+04 0.  0.
        5    1    3    3  502    0  0.45019445818E+03  0.31454273733E+03  0.37849863207E+03  0.66700486375E+03  0.46999998093E+01 0.  1.
       -5    1    3    3    0  502 -0.45019445818E+03 -0.31454273733E+03  0.44529773266E+03  0.70705328264E+03  0.46999998093E+01 0. -1.
</event>
<event>
 5   0  0.1480937E-03  0.1100427E+04  0.7818609E-02  0.9204776E-01
       -1   -1    0    0    0  501  0.00000000000E+00  0.00000000000E+00  0.50477516163E+03  0.50477516165E+03  0.50400001928E-02 0. -1.
        1   -1    0    0  501    0  0.00000000000E+00  0.00000000000E+00 -0.59974212570E+03  0.59974212572E+03  0.50400001928E-02 0.  1.
    10030    2    1    2    0    0  0.00000000000E+00  0.00000000000E+00 -0.94966964073E+02  0.11045172874E+04  0.11004270598E+04 0.  0.
        1    1    3    3  502    0 -0.31407808060E+03 -0.13631927350E+03 -0.47978955968E+03  0.58942854244E+03  0.50400001928E-02 0.  1.
       -1    1    3    3    0  502  0.31407808060E+03  0.13631927350E+03  0.38482259561E+03  0.51508874493E+03  0.50400001928E-02 0. -1.
</event>
<event>
 5   0  0.1480937E-03  0.1099400E+04  0.7818609E-02  0.9205777E-01
        1   -1    0    0  501    0  0.00000000000E+00  0.00000000000E+00  0.68808410555E+03  0.68808410557E+03  0.50400001928E-02 0. -1.
       -1   -1    0    0    0  501  0.00000000000E+00  0.00000000000E+00 -0.43914720194E+03  0.43914720197E+03  0.50400001928E-02 0.  1.
    10030    2    1    2    0    0  0.00000000000E+00  0.00000000000E+00  0.24893690361E+03  0.11272313075E+04  0.10994002177E+04 0.  0.
        1    1    3    3  502    0 -0.48864765685E+01  0.20890990727E+03  0.64577118611E+03  0.67873975266E+03  0.50400001928E-02 0. -1.
       -1    1    3    3    0  502  0.48864765685E+01 -0.20890990727E+03 -0.39683428249E+03  0.44849155488E+03  0.50400001928E-02 0.  1.
</event>
<event>
 5   0  0.2483036E-03  0.1101800E+04  0.7818609E-02  0.9203440E-01
       -2   -1    0    0    0  501  0.00000000000E+00  0.00000000000E+00  0.33750109720E+03  0.33750109721E+03  0.25500000920E-02 0.  1.
        2   -1    0    0  501    0  0.00000000000E+00  0.00000000000E+00 -0.89922846598E+03  0.89922846598E+03  0.25500000920E-02 0. -1.
    10030    2    1    2    0    0  0.00000000000E+00  0.00000000000E+00 -0.56172736878E+03  0.12367295632E+04  0.11017996077E+04 0.  0.
        3    1    3    3  502    0  0.47073582788E+03 -0.25201343284E+02 -0.60084103608E+03  0.76369973694E+03  0.10100000352E+00 0. -1.
       -3    1    3    3    0  502 -0.47073582788E+03  0.25201343284E+02  0.39113667302E+02  0.47302982625E+03  0.10100000352E+00 0.  1.
</event>
<event>
 5   0  0.1479573E-03  0.1100968E+04  0.7818609E-02  0.9204249E-01
       -1   -1    0    0    0  501  0.00000000000E+00  0.00000000000E+00  0.28419557332E+03  0.28419557336E+03  0.50400001928E-02 0.  1.
        1   -1    0    0  501    0  0.00000000000E+00  0.00000000000E+00 -0.10662817456E+04  0.10662817456E+04  0.50400001928E-02 0. -1.
    10030    2    1    2    0    0  0.00000000000E+00  0.00000000000E+00 -0.78208617225E+03  0.13504773189E+04  0.11009678506E+04 0.  0.
        4    1    3    3  502    0  0.30718048991E+03 -0.18046171412E+03  0.12370895325E+03  0.37713631708E+03  0.12699999809E+01 0.  1.
       -4    1    3    3    0  502 -0.30718048991E+03  0.18046171412E+03 -0.90579512550E+03  0.97334100187E+03  0.12699999809E+01 0. -1.
</event>
<event>
 5   0  0.1480937E-03  0.1099161E+04  0.7818609E-02  0.9206010E-01
       -1   -1    0    0    0  501  0.00000000000E+00  0.00000000000E+00  0.63966061175E+03  0.63966061177E+03  0.50400001928E-02 0. -1.
        1   -1    0    0  501    0  0.00000000000E+00  0.00000000000E+00 -0.47218572346E+03  0.47218572348E+03  0.50400001928E-02 0.  1.
    10030    2    1    2    0    0  0.00000000000E+00  0.00000000000E+00  0.16747488829E+03  0.11118463353E+04  0.10991607867E+04 0.  0.
        1    1    3    3  502    0 -0.52784878198E+03 -0.32443963749E+02  0.23500144232E+03  0.57870772013E+03  0.50400001928E-02 0. -1.
       -1    1    3    3    0  502  0.52784878198E+03  0.32443963749E+02 -0.67526554022E+02  0.53313861513E+03  0.50400001928E-02 0.  1.
</event>
<event>
 5   0  0.2392585E-03  0.1087092E+04  0.7818609E-02  0.9217865E-01
        2   -1    0    0  501    0  0.00000000000E+00  0.00000000000E+00  0.43387956530E+03  0.43387956530E+03  0.25500000920E-02 0. -1.
       -2   -1    0    0    0  501  0.00000000000E+00  0.00000000000E+00 -0.68093092322E+03  0.68093092323E+03  0.25500000920E-02 0.  1.
    10030    2    1    2    0    0  0.00000000000E+00  0.00000000000E+00 -0.24705135793E+03  0.11148104885E+04  0.10870915564E+04 0.  0.
        5    1    3    3  502    0  0.21308158418E+03  0.87705718909E+02 -0.62834157303E+03  0.66927668198E+03  0.46999998093E+01 0.  1.
       -5    1    3    3    0  502 -0.21308158418E+03 -0.87705718909E+02  0.38129021511E+03  0.44553380655E+03  0.46999998093E+01 0. -1.
</event>
<event>
 5   0  0.1468556E-03  0.1111983E+04  0.7818609E-02  0.9193590E-01
       -1   -1    0    0    0  501  0.00000000000E+00  0.00000000000E+00  0.35339760562E+03  0.35339760566E+03  0.50400001928E-02 0.  1.
        1   -1    0    0  501    0  0.00000000000E+00  0.00000000000E+00 -0.87472776022E+03  0.87472776023E+03  0.50400001928E-02 0. -1.
    10030    2    1    2    0    0  0.00000000000E+00  0.00000000000E+00 -0.52133015459E+03  0.12281253659E+04  0.11119832662E+04 0.  0.
        5    1    3    3  502    0 -0.43764720844E+03 -0.11950241968E+03 -0.61561807856E+03  0.76473761253E+03  0.46999998093E+01 0. -1.
       -5    1    3    3    0  502  0.43764720844E+03  0.11950241968E+03  0.94287923973E+02  0.46338775336E+03  0.46999998093E+01 0.  1.
</event>
<event>
 5   0  0.2483036E-03  0.1101873E+04  0.7818609E-02  0.9203368E-01
       -2   -1    0    0    0  501  0.00000000000E+00  0.00000000000E+00  0.21130390382E+03  0.21130390383E+03  0.25500000920E-02 0. -1.
        2   -1    0    0  501    0  0.00000000000E+00  0.00000000000E+00 -0.14364674839E+04  0.14364674839E+04  0.25500000920E-02 0.  1.
    10030    2    1    2    0    0  0.00000000000E+00  0.00000000000E+00 -0.12251635801E+04  0.16477713878E+04  0.11018732905E+04 0.  0.
        3    1    3    3  502    0 -0.67951226838E+01 -0.25090719023E+03 -0.13459979171E+04  0.13692008599E+04  0.10100000352E+00 0.  1.
       -3    1    3    3    0  502  0.67951226838E+01  0.25090719023E+03  0.12083433696E+03  0.27857052786E+03  0.10100000352E+00 0. -1.
</event>
<event>
 5   0  0.1415400E-03  0.1099735E+04  0.7818609E-02  0.9205450E-01
       -1   -1    0    0    0  501  0.00000000000E+00  0.00000000000E+00  0.11476712701E+03  0.11476712712E+03  0.50400001928E-02 0. -1.
        1   -1    0    0  501    0  0.00000000000E+00  0.00000000000E+00 -0.26345041573E+04  0.26345041573E+04  0.50400001928E-02 0.  1.
    10030    2    1    2    0    0  0.00000000000E+00  0.00000000000E+00 -0.25197370303E+04  0.27492712845E+04  0.10997353743E+04 0.  0.
        2    1    3    3  502    0  0.22240115270E+03 -0.50207608283E+03 -0.11886396560E+04  0.13093536182E+04  0.25500000920E-02 0.  1.
       -2    1    3    3    0  502 -0.22240115270E+03  0.50207608283E+03 -0.13310973743E+04  0.14399176662E+04  0.25500000920E-02 0. -1.
</event>
<event>
 5   0  0.1479573E-03  0.1104471E+04  0.7818609E-02  0.9200845E-01
        1   -1    0    0  501    0  0.00000000000E+00  0.00000000000E+00  0.42543090611E+03  0.42543090614E+03  0.50400001928E-02 0. -1.
       -1   -1    0    0    0  501  0.00000000000E+00  0.00000000000E+00 -0.71683518958E+03  0.71683518960E+03  0.50400001928E-02 0.  1.
    10030    2    1    2    0    0  0.00000000000E+00  0.00000000000E+00 -0.29140428347E+03  0.11422660957E+04  0.11044706320E+04 0.  0.
        4    1    3    3  502    0  0.29384257754E+03  0.37909351713E+03  0.13735489598E+03  0.49892217374E+03  0.12699999809E+01 0. -1.
       -4    1    3    3    0  502 -0.29384257754E+03 -0.37909351713E+03 -0.42875917946E+03  0.64334392200E+03  0.12699999809E+01 0.  1.
</event>
<event>
 5   0  0.1480937E-03  0.1099120E+04  0.7818609E-02  0.9206050E-01
        1   -1    0    0  501    0  0.00000000000E+00  0.00000000000E+00  0.18055252138E+04  0.18055252138E+04  0.50400001928E-02 0.  1.
       -1   -1    0    0    0  501  0.00000000000E+00  0.00000000000E+00 -0.16727324581E+03  0.16727324589E+03  0.50400001928E-02 0. -1.
    10030    2    1    2    0    0  0.00000000000E+00  0.00000000000E+00  0.16382519680E+04  0.19727984597E+04  0.10991197623E+04 0.  0.
        1    1    3    3  502    0 -0.53852391229E+03 -0.63832950039E+02  0.97899626735E+03  0.11191587649E+04  0.50400001928E-02 0. -1.
       -1    1    3    3    0  502  0.53852391229E+03  0.63832950039E+02  0.65925570061E+03  0.85363969473E+03  0.50400001928E-02 0.  1.
</event>
<event>
 5   0  0.1479573E-03  0.1107770E+04  0.7818609E-02  0.9197652E-01
        1   -1    0    0  501    0  0.00000000000E+00  0.00000000000E+00  0.88454280334E+03  0.88454280335E+03  0.50400001928E-02 0. -1.
       -1   -1    0    0    0  501  0.00000000000E+00  0.00000000000E+00 -0.34683280159E+03  0.34683280163E+03  0.50400001928E-02 0.  1.
    10030    2    1    2    0    0  0.00000000000E+00  0.00000000000E+00  0.53771000175E+03  0.12313756050E+04  0.11077697570E+04 0.  0.
        4    1    3    3  502    0  0.39132884442E+02 -0.12657453758E+02  0.88284142077E+03  0.88379985342E+03  0.12699999809E+01 0. -1.
       -4    1    3    3    0  502 -0.39132884442E+02  0.12657453758E+02 -0.34513141902E+03  0.34757575156E+03  0.12699999809E+01 0.  1.
</event>
<event>
 5   0  0.2488472E-03  0.1098725E+04  0.7818609E-02  0.9206435E-01
        2   -1    0    0  501    0  0.00000000000E+00  0.00000000000E+00  0.97774111506E+03  0.97774111506E+03  0.25500000920E-02 0.  1.
       -2   -1    0    0    0  501  0.00000000000E+00  0.00000000000E+00 -0.30866983163E+03  0.30866983164E+03  0.25500000920E-02 0. -1.
    10030    2    1    2    0    0  0.00000000000E+00  0.00000000000E+00  0.66907128343E+03  0.12864109467E+04  0.10987250527E+04 0.  0.
        2    1    3    3  502    0 -0.46247711445E+03 -0.88576498281E+02  0.66583532838E+03  0.81551674536E+03  0.25500000920E-02 0.  1.
       -2    1    3    3    0  502  0.46247711445E+03  0.88576498281E+02  0.32359550551E+01  0.47089420134E+03  0.25500000920E-02 0. -1.
</event>
<event>
 5   0  0.2467448E-03  0.1112767E+04  0.7818609E-02  0.9192836E-01
       -2   -1    0    0    0  501  0.00000000000E+00  0.00000000000E+00  0.53625878228E+03  0.53625878229E+03  0.25500000920E-02 0.  1.
        2   -1    0    0  501    0  0.00000000000E+00  0.00000000000E+00 -0.57726390636E+03  0.57726390636E+03  0.25500000920E-02 0. -1.
    10030    2    1    2    0    0  0.00000000000E+00  0.00000000000E+00 -0.41005124079E+02  0.11135226887E+04  0.11127674321E+04 0.  0.
        1    1    3    3  502    0 -0.22455408558E+03  0.26657725882E+03  0.41346777549E+03  0.54078052263E+03  0.50400001928E-02 0.  1.
       -1    1    3    3    0  502  0.22455408558E+03 -0.26657725882E+03 -0.45447289957E+03  0.57274216602E+03  0.50400001928E-02 0. -1.
</event>
<event>
 5   0  0.2483036E-03  0.1101159E+04  0.7818609E-02  0.9204063E-01
        2   -1    0    0  501    0  0.00000000000E+00  0.00000000000E+00  0.82296275300E+03  0.82296275301E+03  0.25500000920E-02 0. -1.
       -2   -1    0    0    0  501  0.00000000000E+00  0.00000000000E+00 -0.36834945314E+03  0.36834945315E+03  0.25500000920E-02 0.  1.
    10030    2    1    2    0    0  0.00000000000E+00  0.00000000000E+00  0.45461329986E+03  0.11913122062E+04  0.11011591711E+04 0.  0.
        3    1    3    3  502    0  0.15096958179E+03  0.10339673212E+03  0.78910423472E+03  0.81004209909E+03  0.10100000352E+00 0. -1.
       -3    1    3    3    0  502 -0.15096958179E+03 -0.10339673212E+03 -0.33449093486E+03  0.38127010707E+03  0.10100000352E+00 0.  1.
</event>
<event>
 5   0  0.2467448E-03  0.1098565E+04  0.7818609E-02  0.9206591E-01
        2   -1    0    0  501    0  0.00000000000E+00  0.00000000000E+00  0.16118260035E+04  0.16118260035E+04  0.25500000920E-02 0. -1.
       -2   -1    0    0    0  501  0.00000000000E+00  0.00000000000E+00 -0.18718614062E+03  0.18718614063E+03  0.25500000920E-02 0.  1.
    10030    2    1    2    0    0  0.00000000000E+00  0.00000000000E+00  0.14246398628E+04  0.17990121441E+04  0.10985654081E+04 0.  0.
        1    1    3    3  502    0  0.44102691358E+03 -0.32338479828E+03  0.62835356881E+03  0.83301300934E+03  0.50400001928E-02 0.  1.
       -1    1    3    3    0  502 -0.44102691358E+03  0.32338479828E+03  0.79628629403E+03  0.96599913475E+03  0.50400001928E-02 0. -1.
</event>
<event>
 5   0  0.2438115E-03  0.1120772E+04  0.7818609E-02  0.9185179E-01
       -2   -1    0    0    0  501  0.00000000000E+00  0.00000000000E+00  0.30557124316E+03  0.30557124317E+03  0.25500000920E-02 0.  1.
        2   -1    0    0  501    0  0.00000000000E+00  0.00000000000E+00 -0.10276895624E+04  0.10276895624E+04  0.25500000920E-02 0. -1.
    10030    2    1    2    0    0  0.00000000000E+00  0.00000000000E+00 -0.72211831926E+03  0.13332608056E+04  0.11207718362E+04 0.  0.
        4    1    3    3  502    0 -0.20198533268E+03 -0.25146128706E+03 -0.90619841703E+03  0.96188774680E+03  0.12699999809E+01 0. -1.
       -4    1    3    3    0  502  0.20198533268E+03  0.25146128706E+03  0.18408009777E+03  0.37137305880E+03  0.12699999809E+01 0.  1.
</event>
<event>
 5   0  0.1509004E-03  0.1089681E+04  0.7818609E-02  0.9215308E-01
        1   -1    0    0  501    0  0.00000000000E+00  0.00000000000E+00  0.37897079264E+03  0.37897079268E+03  0.50400001928E-02 0.  1.
       -1   -1    0    0    0  501  0.00000000000E+00  0.00000000000E+00 -0.78330949124E+03  0.78330949126E+03  0.50400001928E-02 0. -1.
    10030    2    1    2    0    0  0.00000000000E+00  0.00000000000E+00 -0.40433869860E+03  0.11622802839E+04  0.10896814559E+04 0.  0.
        3    1    3    3  502    0  0.29106779266E+03  0.21185686015E+03 -0.63837499591E+03  0.73288910124E+03  0.10100000352E+00 0. -1.
       -3    1    3    3    0  502 -0.29106779266E+03 -0.21185686015E+03  0.23403629731E+03  0.42939118269E+03  0.10100000352E+00 0.  1.
</event>
<event>
 5   0  0.1480937E-03  0.9685639E+03  0.7818609E-02  0.9343712E-01
       -1   -1    0    0    0  501  0.00000000000E+00  0.00000000000E+00  0.27244985228E+03  0.27244985233E+03  0.50400001928E-02 0. -1.
        1   -1    0    0  501    0  0.00000000000E+00  0.00000000000E+00 -0.86081529871E+03  0.86081529873E+03  0.50400001928E-02 0.  1.
    10030    2    1    2    0    0  0.00000000000E+00  0.00000000000E+00 -0.58836544643E+03  0.11332651511E+04  0.96856388743E+03 0.  0.
        1    1    3    3  502    0 -0.36862838002E+03  0.24949765020E+03 -0.70973346502E+02  0.45074735268E+03  0.50400001928E-02 0. -1.
       -1    1    3    3    0  502  0.36862838002E+03 -0.24949765020E+03 -0.51739209993E+03  0.68251779838E+03  0.50400001928E-02 0.  1.
</event>
<event>
 5   0  0.1468556E-03  0.1097667E+04  0.7818609E-02  0.9207469E-01
       -1   -1    0    0    0  501  0.00000000000E+00  0.00000000000E+00  0.37723123273E+03  0.37723123277E+03  0.50400001928E-02 0. -1.
        1   -1    0    0  501    0  0.00000000000E+00  0.00000000000E+00 -0.79849693469E+03  0.79849693470E+03  0.50400001928E-02 0.  1.
    10030    2    1    2    0    0  0.00000000000E+00  0.00000000000E+00 -0.42126570195E+03  0.11757281675E+04  0.10976665851E+04 0.  0.
        5    1    3    3  502    0  0.29877243875E+03 -0.20166990207E+03 -0.65389910437E+03  0.74668724929E+03  0.46999998093E+01 0.  1.
       -5    1    3    3    0  502 -0.29877243875E+03  0.20166990207E+03  0.23263340242E+03  0.42904091818E+03  0.46999998093E+01 0. -1.
</event>
<event>
 5   0  0.1480937E-03  0.1049730E+04  0.7818609E-02  0.9255623E-01
        1   -1    0    0  501    0  0.00000000000E+00  0.00000000000E+00  0.64399660378E+03  0.64399660380E+03  0.50400001928E-02 0.  1.
       -1   -1    0    0    0  501  0.00000000000E+00  0.00000000000E+00 -0.42777152462E+03  0.42777152465E+03  0.50400001928E-02 0. -1.
    10030    2    1    2    0    0  0.00000000000E+00  0.00000000000E+00  0.21622507916E+03  0.10717681284E+04  0.10497302684E+04 0.  0.
        1    1    3    3  502    0 -0.16991179480E+03  0.27987394778E+03  0.52694900447E+03  0.62038270285E+03  0.50400001928E-02 0.  1.
       -1    1    3    3    0  502  0.16991179480E+03 -0.27987394778E+03 -0.31072392531E+03  0.45138542560E+03  0.50400001928E-02 0. -1.
</event>
<event>
 5   0  0.1479573E-03  0.1106747E+04  0.7818609E-02  0.9198641E-01
        1   -1    0    0  501    0  0.00000000000E+00  0.00000000000E+00  0.53643894243E+03  0.53643894245E+03  0.50400001928E-02 0. -1.
       -1   -1    0    0    0  501  0.00000000000E+00  0.00000000000E+00 -0.57084278068E+03  0.57084278071E+03  0.50400001928E-02 0.  1.
    10030    2    1    2    0    0  0.00000000000E+00  0.00000000000E+00 -0.34403838257E+02  0.11072817232E+04  0.11067471212E+04 0.  0.
        4    1    3    3  502    0 -0.50285059424E+03  0.23009976232E+03 -0.37609417546E+02  0.55427493352E+03  0.12699999809E+01 0. -1.
       -4    1    3    3    0  502  0.50285059424E+03 -0.23009976232E+03  0.32055792893E+01  0.55300678964E+03  0.12699999809E+01 0.  1.
</event>
<event>
 5   0  0.1509004E-03  0.1096288E+04  0.7818609E-02  0.9208817E-01
       -1   -1    0    0    0  501  0.00000000000E+00  0.00000000000E+00  0.26057284110E+03  0.26057284115E+03  0.50400001928E-02 0.  1.
        1   -1    0    0  501    0  0.00000000000E+00  0.00000000000E+00 -0.11530819360E+04  0.11530819360E+04  0.50400001928E-02 0. -1.
    10030    2    1    2    0    0  0.00000000000E+00  0.00000000000E+00 -0.89250909492E+03  0.14136547772E+04  0.10962879843E+04 0.  0.
        3    1    3    3  502    0  0.48735743555E+03 -0.22930127009E+03 -0.31497003588E+03  0.62394108388E+03  0.10100000352E+00 0.  1.
       -3    1    3    3    0  502 -0.48735743555E+03  0.22930127009E+03 -0.57753905904E+03  0.78971369329E+03  0.10100000352E+00 0. -1.
</event>
<event>
 5   0  0.2438115E-03  0.1102521E+04  0.7818609E-02  0.9202739E-01
        2   -1    0    0  501    0  0.00000000000E+00  0.00000000000E+00  0.49132735629E+03  0.49132735629E+03  0.25500000920E-02 0. -1.
       -2   -1    0    0    0  501  0.00000000000E+00  0.00000000000E+00 -0.61850395057E+03  0.61850395057E+03  0.25500000920E-02 0.  1.
    10030    2    1    2    0    0  0.00000000000E+00  0.00000000000E+00 -0.12717659428E+03  0.11098313069E+04  0.11025205865E+04 0.  0.
        4    1    3    3  502    0 -0.10502804847E+03 -0.52707538898E+03 -0.18706765956E+03  0.56906526759E+03  0.12699999809E+01 0.  1.
       -4    1    3    3    0  502  0.10502804847E+03  0.52707538898E+03  0.59891065281E+02  0.54076603927E+03  0.12699999809E+01 0. -1.
</event>
<event>
 5   0  0.1415400E-03  0.1102646E+04  0.7818609E-02  0.9202617E-01
        1   -1    0    0  501    0  0.00000000000E+00  0.00000000000E+00  0.38420388191E+03  0.38420388194E+03  0.50400001928E-02 0.  1.
       -1   -1    0    0    0  501  0.00000000000E+00  0.00000000000E+00 -0.79113408244E+03  0.79113408245E+03  0.50400001928E-02 0. -1.
    10030    2    1    2    0    0  0.00000000000E+00  0.00000000000E+00 -0.40693020053E+03  0.11753379644E+04  0.11026455199E+04 0.  0.
        2    1    3    3  502    0  0.41037383922E+03 -0.17101058095E+03  0.14407479936E+03  0.46734233120E+03  0.25500000920E-02 0. -1.
       -2    1    3    3    0  502 -0.41037383922E+03  0.17101058095E+03 -0.55100499989E+03  0.70799563320E+03  0.25500000920E-02 0.  1.
</event>
<event>
 5   0  0.1509004E-03  0.1110863E+04  0.7818609E-02  0.9194668E-01
       -1   -1    0    0    0  501  0.00000000000E+00  0.00000000000E+00  0.34881286128E+03  0.34881286131E+03  0.50400001928E-02 0. -1.
        1   -1    0    0  501    0  0.00000000000E+00  0.00000000000E+00 -0.88444101833E+03  0.88444101834E+03  0.50400001928E-02 0.  1.
    10030    2    1    2    0    0  0.00000000000E+00  0.00000000000E+00 -0.53562815705E+03  0.12332538797E+04  0.11108634520E+04 0.  0.
        3    1    3    3  502    0 -0.32772673473E+03 -0.43149375303E+03 -0.40338615597E+03  0.67550875093E+03  0.10100000352E+00 0.  1.
       -3    1    3    3    0  502  0.32772673473E+03  0.43149375303E+03 -0.13224200108E+03  0.55774512872E+03  0.10100000352E+00 0. -1.
</event>
<event>
 5   0  0.2392585E-03  0.1092387E+04  0.7818609E-02  0.9212643E-01
        2   -1    0    0  501    0  0.00000000000E+00  0.00000000000E+00  0.79650568316E+03  0.79650568316E+03  0.25500000920E-02 0.  1.
       -2   -1    0    0    0  501  0.00000000000E+00  0.00000000000E+00 -0.37454549049E+03  0.37454549050E+03  0.25500000920E-02 0. -1.
    10030    2    1    2    0    0  0.00000000000E+00  0.00000000000E+00  0.42196019266E+03  0.11710511737E+04  0.10923874986E+04 0.  0.
        5    1    3    3  502    0  0.28449875259E+03 -0.46113697874E+03  0.28461926582E+03  0.61205969469E+03  0.46999998093E+01 0.  1.
       -5    1    3    3    0  502 -0.28449875259E+03  0.46113697874E+03  0.13734092684E+03  0.55899147898E+03  0.46999998093E+01 0. -1.
</event>
<event>
 5   0  0.1415400E-03  0.1099549E+04  0.7818609E-02  0.9205632E-01
        1   -1    0    0  501    0  0.00000000000E+00  0.00000000000E+00  0.53132568028E+03  0.53132568031E+03  0.50400001928E-02 0. -1.
       -1   -1    0    0    0  501  0.00000000000E+00  0.00000000000E+00 -0.56886350775E+03  0.56886350778E+03  0.50400001928E-02 0.  1.
    10030    2    1    2    0    0  0.00000000000E+00  0.00000000000E+00 -0.37537827468E+02  0.11001891881E+04  0.10995486170E+04 0.  0.
        2    1    3    3  502    0  0.21266042614E+03  0.21586515935E+03 -0.47776218212E+03  0.56575518252E+03  0.25500000920E-02 0.  1.
       -2    1    3    3    0  502 -0.21266042614E+03 -0.21586515935E+03  0.44022435465E+03  0.53443400557E+03  0.25500000920E-02 0. -1.
</event>
<event>
 5   0  0.1509004E-03  0.1102185E+04  0.7818609E-02  0.9203065E-01
        1   -1    0    0  501    0  0.00000000000E+00  0.00000000000E+00  0.73666953440E+03  0.73666953442E+03  0.50400001928E-02 0. -1.
       -1   -1    0    0    0  501  0.00000000000E+00  0.00000000000E+00 -0.41226481300E+03  0.41226481303E+03  0.50400001928E-02 0.  1.
    10030    2    1    2    0    0  0.00000000000E+00  0.00000000000E+00  0.32440472140E+03  0.11489343475E+04  0.11021849715E+04 0.  0.
        3    1    3    3  502    0  0.36678063664E+03 -0.40056684995E+03  0.64854617602E+02  0.54698077509E+03  0.10100000352E+00 0.  1.
       -3    1    3    3    0  502 -0.36678063664E+03  0.40056684995E+03  0.25955010380E+03  0.60195357236E+03  0.10100000352E+00 0. -1.
</event>
<event>
 5   0  0.1468556E-03  0.1105046E+04  0.7818609E-02  0.9200287E-01
        1   -1    0    0  501    0  0.00000000000E+00  0.00000000000E+00  0.11145938460E+04  0.11145938461E+04  0.50400001928E-02 0. -1.
       -1   -1    0    0    0  501  0.00000000000E+00  0.00000000000E+00 -0.27389518235E+03  0.27389518240E+03  0.50400001928E-02 0.  1.
    10030    2    1    2    0    0  0.00000000000E+00  0.00000000000E+00  0.84069866369E+03  0.13884890285E+04  0.11050463968E+04 0.  0.
        5    1    3    3  502    0  0.46537824157E+03  0.20474441657E+03  0.69206289344E+03  0.85876092268E+03  0.46999998093E+01 0. -1.
       -5    1    3    3    0  502 -0.46537824157E+03 -0.20474441657E+03  0.14863577026E+03  0.52972810577E+03  0.46999998093E+01 0.  1.
</event>
<event>
 5   0  0.2488472E-03  0.1110255E+04  0.7818609E-02  0.9195254E-01
        2   -1    0    0  501    0  0.00000000000E+00  0.00000000000E+00  0.11786659855E+04  0.11786659855E+04  0.25500000920E-02 0.  1.
       -2   -1    0    0    0  501  0.00000000000E+00  0.00000000000E+00 -0.26145365360E+03  0.26145365361E+03  0.25500000920E-02 0. -1.
    10030    2    1    2    0    0  0.00000000000E+00  0.00000000000E+00  0.91721233194E+03  0.14401196391E+04  0.11102549767E+04 0.  0.
        2    1    3    3  502    0 -0.15605687874E+03 -0.29816784410E+03 -0.11404674704E+03  0.35533712609E+03  0.25500000920E-02 0. -1.
       -2    1    3    3    0  502  0.15605687874E+03  0.29816784410E+03  0.10312590790E+04  0.10847825131E+04  0.25500000920E-02 0.  1.
</event>
<event>
 5   0  0.2488472E-03  0.1108587E+04  0.7818609E-02  0.9196862E-01
        2   -1    0    0  501    0  0.00000000000E+00  0.00000000000E+00  0.10739127711E+04  0.10739127711E+04  0.25500000920E-02 0. -1.
       -2   -1    0    0    0  501  0.00000000000E+00  0.00000000000E+00 -0.28609530157E+03  0.28609530158E+03  0.25500000920E-02 0.  1.
    10030    2    1    2    0    0  0.00000000000E+00  0.00000000000E+00  0.78781746956E+03  0.13600080727E+04  0.11085872056E+04 0.  0.
        2    1    3    3  502    0  0.20573074918E+03 -0.71013165029E+02 -0.23148356248E+03  0.31773046828E+03  0.25500000920E-02 0.  1.
       -2    1    3    3    0  502 -0.20573074918E+03  0.71013165029E+02  0.10193010320E+04  0.10422776044E+04  0.25500000920E-02 0. -1.
</event>
<event>
 5   0  0.2483036E-03  0.1110699E+04  0.7818609E-02  0.9194826E-01
        2   -1    0    0  501    0  0.00000000000E+00  0.00000000000E+00  0.70056606905E+03  0.70056606906E+03  0.25500000920E-02 0. -1.
       -2   -1    0    0    0  501  0.00000000000E+00  0.00000000000E+00 -0.44023439766E+03  0.44023439766E+03  0.25500000920E-02 0.  1.
    10030    2    1    2    0    0  0.00000000000E+00  0.00000000000E+00  0.26033167140E+03  0.11408004667E+04  0.11106993859E+04 0.  0.
        3    1    3    3  502    0 -0.17320484022E+03 -0.34454173494E+03 -0.28029481354E+03  0.47673275164E+03  0.10100000352E+00 0.  1.
       -3    1    3    3    0  502  0.17320484022E+03  0.34454173494E+03  0.54062648494E+03  0.66406771508E+03  0.10100000352E+00 0. -1.
</event>
<event>
 5   0  0.2438115E-03  0.1095528E+04  0.7818609E-02  0.9209562E-01
       -2   -1    0    0    0  501  0.00000000000E+00  0.00000000000E+00  0.17126379117E+03  0.17126379119E+03  0.25500000920E-02 0. -1.
        2   -1    0    0  501    0  0.00000000000E+00  0.00000000000E+00 -0.17519482134E+04  0.17519482134E+04  0.25500000920E-02 0.  1.
    10030    2    1    2    0    0  0.00000000000E+00  0.00000000000E+00 -0.15806844222E+04  0.19232120045E+04  0.10955278052E+04 0.  0.
        4    1    3    3  502    0  0.46201499104E+03 -0.92110640550E+01 -0.27402775904E+03  0.53724810030E+03  0.12699999809E+01 0. -1.
       -4    1    3    3    0  502 -0.46201499104E+03  0.92110640550E+01 -0.13066566631E+04  0.13859639043E+04  0.12699999809E+01 0.  1.
</event>
<event>
 5   0  0.1480937E-03  0.1100245E+04  0.7818609E-02  0.9204954E-01
        1   -1    0    0  501    0  0.00000000000E+00  0.00000000000E+00  0.90515968229E+03  0.90515968230E+03  0.50400001928E-02 0. -1.
       -1   -1    0    0    0  501  0.00000000000E+00  0.00000000000E+00 -0.33434377433E+03  0.33434377437E+03  0.50400001928E-02 0.  1.
    10030    2    1    2    0    0  0.00000000000E+00  0.00000000000E+00  0.57081590795E+03  0.12395034567E+04  0.11002445266E+04 0.  0.
        1    1    3    3  502    0 -0.15327446620E+03 -0.43121780576E+03 -0.58505644375E+02  0.46137270015E+03  0.50400001928E-02 0.  1.
       -1    1    3    3    0  502  0.15327446620E+03  0.43121780576E+03  0.62932155233E+03  0.77813075652E+03  0.50400001928E-02 0. -1.
</event>
<event>
 5   0  0.2438115E-03  0.1102711E+04  0.7818609E-02  0.9202554E-01
        2   -1    0    0  501    0  0.00000000000E+00  0.00000000000E+00  0.13489739335E+04  0.13489739335E+04  0.25500000920E-02 0. -1.
       -2   -1    0    0    0  501  0.00000000000E+00  0.00000000000E+00 -0.22535120109E+03  0.22535120110E+03  0.25500000920E-02 0.  1.
    10030    2    1    2    0    0  0.00000000000E+00  0.00000000000E+00  0.11236227324E+04  0.15743251346E+04  0.11027110159E+04 0.  0.
        4    1    3    3  502    0  0.48912624200E+03  0.24695266010E+03  0.64936922664E+03  0.84965410748E+03  0.12699999809E+01 0. -1.
       -4    1    3    3    0  502 -0.48912624200E+03 -0.24695266010E+03  0.47425350581E+03  0.72467102717E+03  0.12699999809E+01 0.  1.
</event>
<event>
 5   0  0.1479573E-03  0.1092261E+04  0.7818609E-02  0.9212767E-01
        1   -1    0    0  501    0  0.00000000000E+00  0.00000000000E+00  0.43366177005E+03  0.43366177008E+03  0.50400001928E-02 0. -1.
       -1   -1    0    0    0  501  0.00000000000E+00  0.00000000000E+00 -0.68776821529E+03  0.68776821531E+03  0.50400001928E-02 0.  1.
    10030    2    1    2    0    0  0.00000000000E+00  0.00000000000E+00 -0.25410644524E+03  0.11214299854E+04  0.10922614736E+04 0.  0.
        4    1    3    3  502    0  0.26570203804E+03  0.10321380554E+03 -0.60533289847E+03  0.66908907743E+03  0.12699999809E+01 0.  1.
       -4    1    3    3    0  502 -0.26570203804E+03 -0.10321380554E+03  0.35122645322E+03  0.45234090796E+03  0.12699999809E+01 0. -1.
</event>
<event>
 5   0  0.2467448E-03  0.1105759E+04  0.7818609E-02  0.9199597E-01
       -2   -1    0    0    0  501  0.00000000000E+00  0.00000000000E+00  0.10002820727E+04  0.10002820727E+04  0.25500000920E-02 0. -1.
        2   -1    0    0  501    0  0.00000000000E+00  0.00000000000E+00 -0.30558936537E+03  0.30558936538E+03  0.25500000920E-02 0.  1.
    10030    2    1    2    0    0  0.00000000000E+00  0.00000000000E+00  0.69469270731E+03  0.13058714381E+04  0.11057586785E+04 0.  0.
        1    1    3    3  502    0  0.19787658424E+03  0.38761399212E+03 -0.55356550217E+02  0.43870730238E+03  0.50400001928E-02 0.  1.
       -1    1    3    3    0  502 -0.19787658424E+03 -0.38761399212E+03  0.75004925753E+03  0.86716413569E+03  0.50400001928E-02 0. -1.
</event>
<event>
 5   0  0.1509004E-03  0.1099888E+04  0.7818609E-02  0.9205301E-01
       -1   -1    0    0    0  501  0.00000000000E+00  0.00000000000E+00  0.62263141333E+03  0.62263141335E+03  0.50400001928E-02 0.  1.
        1   -1    0    0  501    0  0.00000000000E+00  0.00000000000E+00 -0.48574261595E+03  0.48574261598E+03  0.50400001928E-02 0. -1.
    10030    2    1    2    0    0  0.00000000000E+00  0.00000000000E+00  0.13688879738E+03  0.11083740293E+04  0.10998883789E+04 0.  0.
        3    1    3    3  502    0 -0.61333510521E+02 -0.51116382125E+03 -0.12640805337E+03  0.53012192732E+03  0.10100000352E+00 0. -1.
       -3    1    3    3    0  502  0.61333510521E+02  0.51116382125E+03  0.26329685075E+03  0.57825210201E+03  0.10100000352E+00 0.  1.
</event>
<event>
 5   0  0.2483036E-03  0.1099161E+04  0.7818609E-02  0.9206010E-01
        2   -1    0    0  501    0  0.00000000000E+00  0.00000000000E+00  0.78358209542E+03  0.78358209543E+03  0.25500000920E-02 0.  1.
       -2   -1    0    0    0  501  0.00000000000E+00  0.00000000000E+00 -0.38545863956E+03  0.38545863957E+03  0.25500000920E-02 0. -1.
    10030    2    1    2    0    0  0.00000000000E+00  0.00000000000E+00  0.39812345586E+03  0.11690407350E+04  0.10991605679E+04 0.  0.
        3    1    3    3  502    0 -0.33573278142E+03 -0.22787573313E+03  0.59329509646E+03  0.71877877817E+03  0.10100000352E+00 0.  1.
       -3    1    3    3    0  502  0.33573278142E+03  0.22787573313E+03 -0.19517164060E+03  0.45026195683E+03  0.10100000352E+00 0. -1.
</event>
<event>
 5   0  0.1468556E-03  0.1104748E+04  0.7818609E-02  0.9200576E-01
       -1   -1    0    0    0  501  0.00000000000E+00  0.00000000000E+00  0.12797838127E+03  0.12797838137E+03  0.50400001928E-02 0.  1.
        1   -1    0    0  501    0  0.00000000000E+00  0.00000000000E+00 -0.23841308397E+04  0.23841308397E+04  0.50400001928E-02 0. -1.
    10030    2    1    2    0    0  0.00000000000E+00  0.00000000000E+00 -0.22561524585E+04  0.25121092211E+04  0.11047483075E+04 0.  0.
        5    1    3    3  502    0  0.60634558972E+02  0.11149329768E+03 -0.23504807156E+04  0.23539092993E+04  0.46999998093E+01 0. -1.
       -5    1    3    3    0  502 -0.60634558972E+02 -0.11149329768E+03  0.94328257100E+02  0.15819992179E+03  0.46999998093E+01 0.  1.
</event>
<event>
 5   0  0.2467448E-03  0.1104086E+04  0.7818609E-02  0.9201218E-01
        2   -1    0    0  501    0  0.00000000000E+00  0.00000000000E+00  0.94356666736E+03  0.94356666736E+03  0.25500000920E-02 0.  1.
       -2   -1    0    0    0  501  0.00000000000E+00  0.00000000000E+00 -0.32297824190E+03  0.32297824191E+03  0.25500000920E-02 0. -1.
    10030    2    1    2    0    0  0.00000000000E+00  0.00000000000E+00  0.62058842545E+03  0.12665449093E+04  0.11040860534E+04 0.  0.
        1    1    3    3  502    0 -0.31769800914E+03  0.34107408434E+03  0.64960040314E+03  0.79952751035E+03  0.50400001928E-02 0.  1.
       -1    1    3    3    0  502  0.31769800914E+03 -0.34107408434E+03 -0.29011977682E+02  0.46701739893E+03  0.50400001928E-02 0. -1.
</event>
<event>
 5   0  0.2483036E-03  0.1104642E+04  0.7818609E-02  0.9200679E-01
       -2   -1    0    0    0  501  0.00000000000E+00  0.00000000000E+00  0.45033457099E+03  0.45033457100E+03  0.25500000920E-02 0. -1.
        2   -1    0    0  501    0  0.00000000000E+00  0.00000000000E+00 -0.67740448262E+03  0.67740448263E+03  0.25500000920E-02 0.  1.
    10030    2    1    2    0    0  0.00000000000E+00  0.00000000000E+00 -0.22706991163E+03  0.11277390536E+04  0.11046423079E+04 0.  0.
        3    1    3    3  502    0  0.54551511584E+02  0.46528169051E+03  0.18514975507E+03  0.50372945213E+03  0.10100000352E+00 0. -1.
       -3    1    3    3    0  502 -0.54551511584E+02 -0.46528169051E+03 -0.41221966670E+03  0.62400960150E+03  0.10100000352E+00 0.  1.
</event>
<event>
 5   0  0.1468556E-03  0.1098542E+04  0.7818609E-02  0.9206614E-01
        1   -1    0    0  501    0  0.00000000000E+00  0.00000000000E+00  0.15680594975E+04  0.15680594975E+04  0.50400001928E-02 0. -1.
       -1   -1    0    0    0  501  0.00000000000E+00  0.00000000000E+00 -0.19240263378E+03  0.19240263385E+03  0.50400001928E-02 0.  1.
    10030    2    1    2    0    0  0.00000000000E+00  0.00000000000E+00  0.13756568637E+04  0.17604621313E+04  0.10985422656E+04 0.  0.
        5    1    3    3  502    0 -0.71364663544E+02 -0.45921517591E+03  0.11569803419E+04  0.12468348305E+04  0.46999998093E+01 0. -1.
       -5    1    3    3    0  502  0.71364663544E+02  0.45921517591E+03  0.21867652178E+03  0.51362730083E+03  0.46999998093E+01 0.  1.
</event>
<event>
 5   0  0.1479573E-03  0.1102338E+04  0.7818609E-02  0.9202916E-01
       -1   -1    0    0    0  501  0.00000000000E+00  0.00000000000E+00  0.36627817974E+03  0.36627817978E+03  0.50400001928E-02 0. -1.
        1   -1    0    0  501    0  0.00000000000E+00  0.00000000000E+00 -0.82938992769E+03  0.82938992770E+03  0.50400001928E-02 0.  1.
    10030    2    1    2    0    0  0.00000000000E+00  0.00000000000E+00 -0.46311174795E+03  0.11956681075E+04  0.11023383020E+04 0.  0.
        4    1    3    3  502    0  0.33272014607E+03 -0.16369348320E+03  0.21075298561E+03  0.42651692333E+03  0.12699999809E+01 0. -1.
       -4    1    3    3    0  502 -0.33272014607E+03  0.16369348320E+03 -0.67386473355E+03  0.76915118415E+03  0.12699999809E+01 0.  1.
</event>
<event>
 5   0  0.1415400E-03  0.1109328E+04  0.7818609E-02  0.9196148E-01
        1   -1    0    0  501    0  0.00000000000E+00  0.00000000000E+00  0.14088415063E+04  0.14088415063E+04  0.50400001928E-02 0. -1.
       -1   -1    0    0    0  501  0.00000000000E+00  0.00000000000E+00 -0.21837224883E+03  0.21837224889E+03  0.50400001928E-02 0.  1.
    10030    2    1    2    0    0  0.00000000000E+00  0.00000000000E+00  0.11904692575E+04  0.16272137552E+04  0.11093275225E+04 0.  0.
        2    1    3    3  502    0  0.28986107716E+03 -0.32008174593E+03  0.11058577873E+04  0.11871786782E+04  0.25500000920E-02 0. -1.
       -2    1    3    3    0  502 -0.28986107716E+03  0.32008174593E+03  0.84611470149E+02  0.44003507703E+03  0.25500000920E-02 0.  1.
</event>
<event>
 5   0  0.2438115E-03  0.1101340E+04  0.7818609E-02  0.9203887E-01
        2   -1    0    0  501    0  0.00000000000E+00  0.00000000000E+00  0.50255200619E+03  0.50255200620E+03  0.25500000920E-02 0. -1.
       -2   -1    0    0    0  501  0.00000000000E+00  0.00000000000E+00 -0.60339500559E+03  0.60339500559E+03  0.25500000920E-02 0.  1.
    10030    2    1    2    0    0  0.00000000000E+00  0.00000000000E+00 -0.10084299940E+03  0.11059470118E+04  0.11013398578E+04 0.  0.
        4    1    3    3  502    0  0.99771350391E+02  0.20724020747E+03  0.45200432675E+03  0.50716106934E+03  0.12699999809E+01 0. -1.
       -4    1    3    3    0  502 -0.99771350391E+02 -0.20724020747E+03 -0.55284732615E+03  0.59878594245E+03  0.12699999809E+01 0.  1.
</event>
<event>
 5   0  0.2467448E-03  0.1097272E+04  0.7818609E-02  0.9207855E-01
        2   -1    0    0  501    0  0.00000000000E+00  0.00000000000E+00  0.59622810699E+03  0.59622810699E+03  0.25500000920E-02 0.  1.
       -2   -1    0    0    0  501  0.00000000000E+00  0.00000000000E+00 -0.50484287711E+03  0.50484287712E+03  0.25500000920E-02 0. -1.
    10030    2    1    2    0    0  0.00000000000E+00  0.00000000000E+00  0.91385229874E+02  0.11010709841E+04  0.10972720956E+04 0.  0.
        1    1    3    3  502    0  0.45283684263E+03  0.29842094987E+03 -0.37572030470E+02  0.54362480340E+03  0.50400001928E-02 0. -1.
       -1    1    3    3    0  502 -0.45283684263E+03 -0.29842094987E+03  0.12895726034E+03  0.55744618071E+03  0.50400001928E-02 0.  1.
</event>
<event>
 5   0  0.1480937E-03  0.1108137E+04  0.7818609E-02  0.9197297E-01
        1   -1    0    0  501    0  0.00000000000E+00  0.00000000000E+00  0.76553097573E+03  0.76553097575E+03  0.50400001928E-02 0. -1.
       -1   -1    0    0    0  501  0.00000000000E+00  0.00000000000E+00 -0.40101822906E+03  0.40101822909E+03  0.50400001928E-02 0.  1.
    10030    2    1    2    0    0  0.00000000000E+00  0.00000000000E+00  0.36451274667E+03  0.11665492048E+04  0.11081369522E+04 0.  0.
        1    1    3    3  502    0 -0.43466796245E+03  0.28514707828E+03  0.38405550043E+03  0.64633096883E+03  0.50400001928E-02 0. -1.
       -1    1    3    3    0  502  0.43466796245E+03 -0.28514707828E+03 -0.19542753751E+02  0.52021823601E+03  0.50400001928E-02 0.  1.
</event>
<event>
 5   0  0.2392585E-03  0.1098401E+04  0.7818609E-02  0.9206751E-01
       -2   -1    0    0    0  501  0.00000000000E+00  0.00000000000E+00  0.76731168168E+03  0.76731168169E+03  0.25500000920E-02 0. -1.
        2   -1    0    0  501    0  0.00000000000E+00  0.00000000000E+00 -0.39308858023E+03  0.39308858024E+03  0.25500000920E-02 0.  1.
    10030    2    1    2    0    0  0.00000000000E+00  0.00000000000E+00  0.37422310145E+03  0.11604002619E+04  0.10984014923E+04 0.  0.
        5    1    3    3  502    0 -0.32476624720E+03  0.16973715715E+03 -0.24501888828E+03  0.44084029245E+03  0.46999998093E+01 0.  1.
       -5    1    3    3    0  502  0.32476624720E+03 -0.16973715715E+03  0.61924198973E+03  0.71955996948E+03  0.46999998093E+01 0. -1.
</event>
<event>
 5   0  0.1479573E-03  0.1100277E+04  0.7818609E-02  0.9204922E-01
       -1   -1    0    0    0  501  0.00000000000E+00  0.00000000000E+00  0.30972792867E+03  0.30972792871E+03  0.50400001928E-02 0.  1.
        1   -1    0    0  501    0  0.00000000000E+00  0.00000000000E+00 -0.97715519896E+03  0.97715519898E+03  0.50400001928E-02 0. -1.
    10030    2    1    2    0    0  0.00000000000E+00  0.00000000000E+00 -0.66742727030E+03  0.12868831277E+04  0.11002767939E+04 0.  0.
        4    1    3    3  502    0 -0.16229332419E+03  0.43455417767E+03 -0.67963478008E+03  0.82284962393E+03  0.12699999809E+01 0. -1.
       -4    1    3    3    0  502  0.16229332419E+03 -0.43455417767E+03  0.12207509782E+02  0.46403350375E+03  0.12699999809E+01 0.  1.
</event>
<event>
 5   0  0.1509004E-03  0.1104526E+04  0.7818609E-02  0.9200792E-01
       -1   -1    0    0    0  501  0.00000000000E+00  0.00000000000E+00  0.60957197046E+03  0.60957197048E+03  0.50400001928E-02 0. -1.
        1   -1    0    0  501    0  0.00000000000E+00  0.00000000000E+00 -0.50034207907E+03  0.50034207910E+03  0.50400001928E-02 0.  1.
    10030    2    1    2    0    0  0.00000000000E+00  0.00000000000E+00  0.10922989139E+03  0.11099140496E+04  0.11045261555E+04 0.  0.
        3    1    3    3  502    0 -0.10530934263E+03 -0.12653308850E+03  0.58434277117E+03  0.60708909111E+03  0.10100000352E+00 0. -1.
       -3    1    3    3    0  502  0.10530934263E+03  0.12653308850E+03 -0.47511287977E+03  0.50282495847E+03  0.10100000352E+00 0.  1.
</event>
<event>
 5   0  0.9631750E-04  0.1097510E+04  0.7818609E-02  0.9207622E-01
       -3   -1    0    0    0  501  0.00000000000E+00  0.00000000000E+00  0.62829268113E+03  0.62829268924E+03  0.10100000352E+00 0. -1.
        3   -1    0    0  501    0  0.00000000000E+00  0.00000000000E+00 -0.47928644746E+03  0.47928645810E+03  0.10100000352E+00 0.  1.
    10030    2    1    2    0    0  0.00000000000E+00  0.00000000000E+00  0.14900623367E+03  0.11075791473E+04  0.10975102323E+04 0.  0.
        1    1    3    3  502    0  0.15476063033E+03  0.61384702801E+02  0.60218959514E+03  0.62478095599E+03  0.50400001928E-02 0. -1.
       -1    1    3    3    0  502 -0.15476063033E+03 -0.61384702801E+02 -0.45318336148E+03  0.48279819136E+03  0.50400001928E-02 0.  1.
</event>
<event>
 5   0  0.1415400E-03  0.1092317E+04  0.7818609E-02  0.9212713E-01
        1   -1    0    0  501    0  0.00000000000E+00  0.00000000000E+00  0.35195045453E+03  0.35195045457E+03  0.50400001928E-02 0. -1.
       -1   -1    0    0    0  501  0.00000000000E+00  0.00000000000E+00 -0.84753089669E+03  0.84753089671E+03  0.50400001928E-02 0.  1.
    10030    2    1    2    0    0  0.00000000000E+00  0.00000000000E+00 -0.49558044216E+03  0.11994813513E+04  0.10923165921E+04 0.  0.
        2    1    3    3  502    0 -0.45127120901E+02  0.45106500272E+03 -0.58229481580E+03  0.73794535450E+03  0.25500000920E-02 0.  1.
       -2    1    3    3    0  502  0.45127120901E+02 -0.45106500272E+03  0.86714373640E+02  0.46153599677E+03  0.25500000920E-02 0. -1.
</event>
<event>
 5   0  0.9631750E-04  0.1104868E+04  0.7818609E-02  0.9200460E-01
       -3   -1    0    0    0  501  0.00000000000E+00  0.00000000000E+00  0.38963448377E+03  0.38963449686E+03  0.10100000352E+00 0. -1.
        3   -1    0    0  501    0  0.00000000000E+00  0.00000000000E+00 -0.78325591050E+03  0.78325591702E+03  0.10100000352E+00 0.  1.
    10030    2    1    2    0    0  0.00000000000E+00  0.00000000000E+00 -0.39362142674E+03  0.11728904139E+04  0.11048683611E+04 0.  0.
        5    1    3    3  502    0  0.27136165564E+03  0.31154636508E+03 -0.58607856380E+03  0.71708329968E+03  0.46999998093E+01 0.  1.
       -5    1    3    3    0  502 -0.27136165564E+03 -0.31154636508E+03  0.19245713706E+03  0.45580711419E+03  0.46999998093E+01 0. -1.
</event>
<event>
 5   0  0.2438115E-03  0.1095025E+04  0.7818609E-02  0.9210055E-01
       -2   -1    0    0    0  501  0.00000000000E+00  0.00000000000E+00  0.18021093379E+03  0.18021093381E+03  0.25500000920E-02 0. -1.
        2   -1    0    0  501    0  0.00000000000E+00  0.00000000000E+00 -0.16634381466E+04  0.16634381466E+04  0.25500000920E-02 0.  1.
    10030    2    1    2    0    0  0.00000000000E+00  0.00000000000E+00 -0.14832272128E+04  0.18436490805E+04  0.10950246422E+04 0.  0.
        4    1    3    3  502    0  0.40328779526E+03  0.34580058908E+03 -0.96465270249E+03  0.11012608876E+04  0.12699999809E+01 0. -1.
       -4    1    3    3    0  502 -0.40328779526E+03 -0.34580058908E+03 -0.51857451035E+03  0.74238819286E+03  0.12699999809E+01 0.  1.
</event>
<event>
 5   0  0.1480937E-03  0.1098156E+04  0.7818609E-02  0.9206991E-01
        1   -1    0    0  501    0  0.00000000000E+00  0.00000000000E+00  0.38048055836E+03  0.38048055840E+03  0.50400001928E-02 0.  1.
       -1   -1    0    0    0  501  0.00000000000E+00  0.00000000000E+00 -0.79238422106E+03  0.79238422108E+03  0.50400001928E-02 0. -1.
    10030    2    1    2    0    0  0.00000000000E+00  0.00000000000E+00 -0.41190366270E+03  0.11728647795E+04  0.10981562565E+04 0.  0.
        1    1    3    3  502    0 -0.16687977219E+03  0.46951565747E+03  0.40374571518E+02  0.49992391124E+03  0.50400001928E-02 0. -1.
       -1    1    3    3    0  502  0.16687977219E+03 -0.46951565747E+03 -0.45227823422E+03  0.67294086824E+03  0.50400001928E-02 0.  1.
</event>
<event>
 5   0  0.1509004E-03  0.1102174E+04  0.7818609E-02  0.9203075E-01
        1   -1    0    0  501    0  0.00000000000E+00  0.00000000000E+00  0.40747181807E+03  0.40747181810E+03  0.50400001928E-02 0. -1.
       -1   -1    0    0    0  501  0.00000000000E+00  0.00000000000E+00 -0.74532038741E+03  0.74532038742E+03  0.50400001928E-02 0.  1.
    10030    2    1    2    0    0  0.00000000000E+00  0.00000000000E+00 -0.33784856934E+03  0.11527922055E+04  0.11021743117E+04 0.  0.
        3    1    3    3  502    0  0.23746392161E+03  0.49195501744E+03 -0.92864644387E+02  0.55410531997E+03  0.10100000352E+00 0. -1.
       -3    1    3    3    0  502 -0.23746392161E+03 -0.49195501744E+03 -0.24498392495E+03  0.59868688555E+03  0.10100000352E+00 0.  1.
</event>
<event>
 5   0  0.2488472E-03  0.1096154E+04  0.7818609E-02  0.9208949E-01
       -2   -1    0    0    0  501  0.00000000000E+00  0.00000000000E+00  0.28089357507E+03  0.28089357508E+03  0.25500000920E-02 0.  1.
        2   -1    0    0  501    0  0.00000000000E+00  0.00000000000E+00 -0.10694024056E+04  0.10694024056E+04  0.25500000920E-02 0. -1.
    10030    2    1    2    0    0  0.00000000000E+00  0.00000000000E+00 -0.78850883051E+03  0.13502959807E+04  0.10961537573E+04 0.  0.
        2    1    3    3  502    0 -0.18858667793E+03  0.51460693431E+03 -0.39639973288E+03  0.67640075411E+03  0.25500000920E-02 0.  1.
       -2    1    3    3    0  502  0.18858667793E+03 -0.51460693431E+03 -0.39210909762E+03  0.67389522655E+03  0.25500000920E-02 0. -1.
</event>
<event>
 5   0  0.2438115E-03  0.1101200E+04  0.7818609E-02  0.9204023E-01
        2   -1    0    0  501    0  0.00000000000E+00  0.00000000000E+00  0.17213746710E+04  0.17213746710E+04  0.25500000920E-02 0.  1.
       -2   -1    0    0    0  501  0.00000000000E+00  0.00000000000E+00 -0.17611540247E+03  0.17611540249E+03  0.25500000920E-02 0. -1.
    10030    2    1    2    0    0  0.00000000000E+00  0.00000000000E+00  0.15452592686E+04  0.18974900735E+04  0.11012004232E+04 0.  0.
        4    1    3    3  502    0 -0.29834350441E+03 -0.41883187858E+03  0.11117367015E+04  0.12249037087E+04  0.12699999809E+01 0.  1.
       -4    1    3    3    0  502  0.29834350441E+03  0.41883187858E+03  0.43352256706E+03  0.67258636485E+03  0.12699999809E+01 0. -1.
</event>
<event>
 5   0  0.1468556E-03  0.1100882E+04  0.7818609E-02  0.9204333E-01
        1   -1    0    0  501    0  0.00000000000E+00  0.00000000000E+00  0.11541784532E+04  0.11541784532E+04  0.50400001928E-02 0. -1.
       -1   -1    0    0    0  501  0.00000000000E+00  0.00000000000E+00 -0.26251154130E+03  0.26251154135E+03  0.50400001928E-02 0.  1.
    10030    2    1    2    0    0  0.00000000000E+00  0.00000000000E+00  0.89166691190E+03  0.14166899946E+04  0.11008817643E+04 0.  0.
        5    1    3    3  502    0  0.30558819508E+03 -0.19518816779E+03 -0.87061403313E+02  0.37294013428E+03  0.46999998093E+01 0.  1.
       -5    1    3    3    0  502 -0.30558819508E+03  0.19518816779E+03  0.97872831522E+03  0.10437498603E+04  0.46999998093E+01 0. -1.
</event>
<event>
 5   0  0.2438115E-03  0.1113825E+04  0.7818609E-02  0.9191821E-01
        2   -1    0    0  501    0  0.00000000000E+00  0.00000000000E+00  0.10513234540E+04  0.10513234540E+04  0.25500000920E-02 0. -1.
       -2   -1    0    0    0  501  0.00000000000E+00  0.00000000000E+00 -0.29501059864E+03  0.29501059865E+03  0.25500000920E-02 0.  1.
    10030    2    1    2    0    0  0.00000000000E+00  0.00000000000E+00  0.75631285531E+03  0.13463340526E+04  0.11138250518E+04 0.  0.
        4    1    3    3  502    0 -0.44938186618E+03  0.25210546577E+03  0.63356787650E+03  0.81664624811E+03  0.12699999809E+01 0. -1.
       -4    1    3    3    0  502  0.44938186618E+03 -0.25210546577E+03  0.12274497882E+03  0.52968780451E+03  0.12699999809E+01 0.  1.
</event>
<event>
 5   0  0.1415400E-03  0.1098682E+04  0.7818609E-02  0.9206477E-01
        1   -1    0    0  501    0  0.00000000000E+00  0.00000000000E+00  0.13334489759E+04  0.13334489759E+04  0.50400001928E-02 0. -1.
       -1   -1    0    0    0  501  0.00000000000E+00  0.00000000000E+00 -0.22631222100E+03  0.22631222105E+03  0.50400001928E-02 0.  1.
    10030    2    1    2    0    0  0.00000000000E+00  0.00000000000E+00  0.11071367549E+04  0.15597611970E+04  0.10986824826E+04 0.  0.
        2    1    3    3  502    0  0.92103984072E+02 -0.46916665405E+03  0.16953569483E+03  0.50728970518E+03  0.25500000920E-02 0.  1.
       -2    1    3    3    0  502 -0.92103984072E+02  0.46916665405E+03  0.93760106008E+03  0.10524714918E+04  0.25500000920E-02 0. -1.
</event>
<event>
 5   0  0.2392585E-03  0.1101735E+04  0.7818609E-02  0.9203503E-01
        2   -1    0    0  501    0  0.00000000000E+00  0.00000000000E+00  0.18620704553E+04  0.18620704553E+04  0.25500000920E-02 0. -1.
       -2   -1    0    0    0  501  0.00000000000E+00  0.00000000000E+00 -0.16296631673E+03  0.16296631675E+03  0.25500000920E-02 0.  1.
    10030    2    1    2    0    0  0.00000000000E+00  0.00000000000E+00  0.16991041386E+04  0.20250367721E+04  0.11017345662E+04 0.  0.
        5    1    3    3  502    0 -0.16793078280E+03 -0.39771089341E+03  0.22068850244E+03  0.48487133103E+03  0.46999998093E+01 0.  1.
       -5    1    3    3    0  502  0.16793078280E+03  0.39771089341E+03  0.14784156362E+04  0.15401654411E+04  0.46999998093E+01 0. -1.
</event>
<event>
 5   0  0.1415400E-03  0.1091989E+04  0.7818609E-02  0.9213035E-01
        1   -1    0    0  501    0  0.00000000000E+00  0.00000000000E+00  0.11755825594E+04  0.11755825595E+04  0.50400001928E-02 0. -1.
       -1   -1    0    0    0  501  0.00000000000E+00  0.00000000000E+00 -0.25358494409E+03  0.25358494414E+03  0.50400001928E-02 0.  1.
    10030    2    1    2    0    0  0.00000000000E+00  0.00000000000E+00  0.92199761536E+03  0.14291675036E+04  0.10919890799E+04 0.  0.
        2    1    3    3  502    0  0.12283626645E+03 -0.44908656006E+03  0.83426936148E+03  0.95539146652E+03  0.25500000920E-02 0. -1.
       -2    1    3    3    0  502 -0.12283626645E+03  0.44908656006E+03  0.87728253878E+02  0.47377603709E+03  0.25500000920E-02 0.  1.
</event>
<event>
 5   0  0.2483036E-03  0.1140041E+04  0.7818609E-02  0.9167020E-01
       -2   -1    0    0    0  501  0.00000000000E+00  0.00000000000E+00  0.56384468277E+03  0.56384468277E+03  0.25500000920E-02 0. -1.
        2   -1    0    0  501    0  0.00000000000E+00  0.00000000000E+00 -0.57626429453E+03  0.57626429454E+03  0.25500000920E-02 0.  1.
    10030    2    1    2    0    0  0.00000000000E+00  0.00000000000E+00 -0.12419611764E+02  0.11401089773E+04  0.11400413297E+04 0.  0.
        3    1    3    3  502    0  0.17798978133E+03  0.26106773544E+03 -0.48067111784E+03  0.57522296413E+03  0.10100000352E+00 0.  1.
       -3    1    3    3    0  502 -0.17798978133E+03 -0.26106773544E+03  0.46825150607E+03  0.56488601318E+03  0.10100000352E+00 0. -1.
</event>
<event>
 5   0  0.9631750E-04  0.1096010E+04  0.7818609E-02  0.9209090E-01
       -4   -1    0    0    0  501  0.00000000000E+00  0.00000000000E+00  0.59570420466E+03  0.59570555843E+03  0.12699999809E+01 0. -1.
        4   -1    0    0  501    0  0.00000000000E+00  0.00000000000E+00 -0.50412212382E+03  0.50412372353E+03  0.12699999809E+01 0.  1.
    10030    2    1    2    0    0  0.00000000000E+00  0.00000000000E+00  0.91582080836E+02  0.10998292820E+04  0.10960096587E+04 0.  0.
        2    1    3    3  502    0  0.54248988905E+03  0.67538709084E+02  0.75460678093E+01  0.54673000657E+03  0.25500000920E-02 0.  1.
       -2    1    3    3    0  502 -0.54248988905E+03 -0.67538709084E+02  0.84036013027E+02  0.55309927539E+03  0.25500000920E-02 0. -1.
</event>
<event>
 5   0  0.2488472E-03  0.1094229E+04  0.7818609E-02  0.9210835E-01
        2   -1    0    0  501    0  0.00000000000E+00  0.00000000000E+00  0.62741683867E+03  0.62741683867E+03  0.25500000920E-02 0. -1.
       -2   -1    0    0    0  501  0.00000000000E+00  0.00000000000E+00 -0.47708955947E+03  0.47708955948E+03  0.25500000920E-02 0.  1.
    10030    2    1    2    0    0  0.00000000000E+00  0.00000000000E+00  0.15032727920E+03  0.11045063981E+04  0.10942285377E+04 0.  0.
        2    1    3    3  502    0  0.28359457596E+03  0.42971098544E+03 -0.11166023810E+03  0.52682579977E+03  0.25500000920E-02 0.  1.
       -2    1    3    3    0  502 -0.28359457596E+03 -0.42971098544E+03  0.26198751730E+03  0.57768059838E+03  0.25500000920E-02 0. -1.
</event>
<event>
 5   0  0.9631750E-04  0.1108742E+04  0.7818609E-02  0.9196713E-01
        3   -1    0    0  501    0  0.00000000000E+00  0.00000000000E+00  0.19708059108E+03  0.19708061696E+03  0.10100000352E+00 0. -1.
       -3   -1    0    0    0  501  0.00000000000E+00  0.00000000000E+00 -0.15593983701E+04  0.15593983733E+04  0.10100000352E+00 0.  1.
    10030    2    1    2    0    0  0.00000000000E+00  0.00000000000E+00 -0.13623177790E+04  0.17564789903E+04  0.11087419503E+04 0.  0.
        2    1    3    3  502    0 -0.39415438537E+03 -0.18989454466E+03 -0.12205106606E+04  0.12965584793E+04  0.25500000920E-02 0.  1.
       -2    1    3    3    0  502  0.39415438537E+03  0.18989454466E+03 -0.14180711836E+03  0.45992051098E+03  0.25500000920E-02 0. -1.
</event>
<event>
 5   0  0.2438115E-03  0.1092666E+04  0.7818609E-02  0.9212370E-01
        2   -1    0    0  501    0  0.00000000000E+00  0.00000000000E+00  0.72124422796E+03  0.72124422796E+03  0.25500000920E-02 0.  1.
       -2   -1    0    0    0  501  0.00000000000E+00  0.00000000000E+00 -0.41384014394E+03  0.41384014394E+03  0.25500000920E-02 0. -1.
    10030    2    1    2    0    0  0.00000000000E+00  0.00000000000E+00  0.30740408402E+03  0.11350843719E+04  0.10926661249E+04 0.  0.
        4    1    3    3  502    0 -0.11907992874E+03 -0.15501675624E+03 -0.37626765046E+03  0.42401554432E+03  0.12699999809E+01 0. -1.
       -4    1    3    3    0  502  0.11907992874E+03  0.15501675624E+03  0.68367173448E+03  0.71106882759E+03  0.12699999809E+01 0.  1.
</event>
<event>
 5   0  0.2392585E-03  0.1116130E+04  0.7818609E-02  0.9189612E-01
       -2   -1    0    0    0  501  0.00000000000E+00  0.00000000000E+00  0.17387655596E+03  0.17387655598E+03  0.25500000920E-02 0.  1.
        2   -1    0    0  501    0  0.00000000000E+00  0.00000000000E+00 -0.17911354580E+04  0.17911354580E+04  0.25500000920E-02 0. -1.
    10030    2    1    2    0    0  0.00000000000E+00  0.00000000000E+00 -0.16172589020E+04  0.19650120140E+04  0.11161298575E+04 0.  0.
        5    1    3    3  502    0 -0.47172397577E+03  0.88494252278E+02 -0.30738128142E+03  0.56996498503E+03  0.46999998093E+01 0.  1.
       -5    1    3    3    0  502  0.47172397577E+03 -0.88494252278E+02 -0.13098776206E+04  0.13950470289E+04  0.46999998093E+01 0. -1.
</event>
<event>
 5   0  0.1479573E-03  0.1096933E+04  0.7818609E-02  0.9208186E-01
        1   -1    0    0  501    0  0.00000000000E+00  0.00000000000E+00  0.50228084473E+03  0.50228084476E+03  0.50400001928E-02 0.  1.
       -1   -1    0    0    0  501  0.00000000000E+00  0.00000000000E+00 -0.59889918112E+03  0.59889918114E+03  0.50400001928E-02 0. -1.
    10030    2    1    2    0    0  0.00000000000E+00  0.00000000000E+00 -0.96618336383E+02  0.11011800259E+04  0.10969331550E+04 0.  0.
        4    1    3    3  502    0 -0.62147374334E+02 -0.52090701327E+03  0.11233400378E+03  0.53649506420E+03  0.12699999809E+01 0. -1.
       -4    1    3    3    0  502  0.62147374334E+02  0.52090701327E+03 -0.20895234016E+03  0.56468496169E+03  0.12699999809E+01 0.  1.
</event>
<event>
 5   0  0.9631750E-04  0.1090202E+04  0.7818609E-02  0.9214795E-01
       -4   -1    0    0    0  501  0.00000000000E+00  0.00000000000E+00  0.50075031564E+03  0.50075192612E+03  0.12699999809E+01 0.  1.
        4   -1    0    0  501    0  0.00000000000E+00  0.00000000000E+00 -0.59337607479E+03  0.59337743387E+03  0.12699999809E+01 0. -1.
    10030    2    1    2    0    0  0.00000000000E+00  0.00000000000E+00 -0.92625759148E+02  0.10941293600E+04  0.10902015984E+04 0.  0.
        4    1    3    3  502    0 -0.26476786863E+03 -0.18428991516E+03 -0.48729150218E+03  0.58439662737E+03  0.12699999809E+01 0. -1.
       -4    1    3    3    0  502  0.26476786863E+03  0.18428991516E+03  0.39466574303E+03  0.50973273262E+03  0.12699999809E+01 0.  1.
</event>
<event>
 5   0  0.2392585E-03  0.1098527E+04  0.7818609E-02  0.9206629E-01
        2   -1    0    0  501    0  0.00000000000E+00  0.00000000000E+00  0.16209650331E+04  0.16209650331E+04  0.25500000920E-02 0.  1.
       -2   -1    0    0    0  501  0.00000000000E+00  0.00000000000E+00 -0.18611764742E+03  0.18611764744E+03  0.25500000920E-02 0. -1.
    10030    2    1    2    0    0  0.00000000000E+00  0.00000000000E+00  0.14348473857E+04  0.18070826806E+04  0.10985266470E+04 0.  0.
        5    1    3    3  502    0  0.34146208127E+03  0.24240135915E+03  0.13020684120E+04  0.13677569270E+04  0.46999998093E+01 0.  1.
       -5    1    3    3    0  502 -0.34146208127E+03 -0.24240135915E+03  0.13277897367E+03  0.43932575352E+03  0.46999998093E+01 0. -1.
</event>
<event>
 5   0  0.1509004E-03  0.1084258E+04  0.7818609E-02  0.9220672E-01
       -1   -1    0    0    0  501  0.00000000000E+00  0.00000000000E+00  0.11612790719E+03  0.11612790730E+03  0.50400001928E-02 0. -1.
        1   -1    0    0  501    0  0.00000000000E+00  0.00000000000E+00 -0.25308629710E+04  0.25308629710E+04  0.50400001928E-02 0.  1.
    10030    2    1    2    0    0  0.00000000000E+00  0.00000000000E+00 -0.24147350638E+04  0.26469908783E+04  0.10842579405E+04 0.  0.
        3    1    3    3  502    0  0.20782825162E+03 -0.13669811747E+03 -0.31422325394E+02  0.25073159000E+03  0.10100000352E+00 0. -1.
       -3    1    3    3    0  502 -0.20782825162E+03  0.13669811747E+03 -0.23833127384E+04  0.23962592883E+04  0.10100000352E+00 0.  1.
</event>
<event>
 5   0  0.2467448E-03  0.1087024E+04  0.7818609E-02  0.9217932E-01
       -2   -1    0    0    0  501  0.00000000000E+00  0.00000000000E+00  0.27910264303E+03  0.27910264304E+03  0.25500000920E-02 0. -1.
        2   -1    0    0  501    0  0.00000000000E+00  0.00000000000E+00 -0.10584116433E+04  0.10584116433E+04  0.25500000920E-02 0.  1.
    10030    2    1    2    0    0  0.00000000000E+00  0.00000000000E+00 -0.77930900025E+03  0.13375142863E+04  0.10870243549E+04 0.  0.
        1    1    3    3  502    0  0.52207285263E+03 -0.57627607156E+02 -0.21772558591E+03  0.56858195130E+03  0.50400001928E-02 0.  1.
       -1    1    3    3    0  502 -0.52207285263E+03  0.57627607156E+02 -0.56158341434E+03  0.76893233502E+03  0.50400001928E-02 0. -1.
</event>
<event>
 5   0  0.1480937E-03  0.1098989E+04  0.7818609E-02  0.9206178E-01
        1   -1    0    0  501    0  0.00000000000E+00  0.00000000000E+00  0.19376998395E+04  0.19376998395E+04  0.50400001928E-02 0.  1.
       -1   -1    0    0    0  501  0.00000000000E+00  0.00000000000E+00 -0.15582606670E+03  0.15582606678E+03  0.50400001928E-02 0. -1.
    10030    2    1    2    0    0  0.00000000000E+00  0.00000000000E+00  0.17818737728E+04  0.20935259063E+04  0.10989888890E+04 0.  0.
        1    1    3    3  502    0  0.14457310692E+03  0.12491344848E+03  0.18723858584E+04  0.18821088055E+04  0.50400001928E-02 0.  1.
       -1    1    3    3    0  502 -0.14457310692E+03 -0.12491344848E+03 -0.90512085595E+02  0.21141710082E+03  0.50400001928E-02 0. -1.
</event>
<event>
 5   0  0.2467448E-03  0.1111741E+04  0.7818609E-02  0.9193824E-01
       -2   -1    0    0    0  501  0.00000000000E+00  0.00000000000E+00  0.17447842728E+03  0.17447842730E+03  0.25500000920E-02 0. -1.
        2   -1    0    0  501    0  0.00000000000E+00  0.00000000000E+00 -0.17709457818E+04  0.17709457818E+04  0.25500000920E-02 0.  1.
    10030    2    1    2    0    0  0.00000000000E+00  0.00000000000E+00 -0.15964673545E+04  0.19454242091E+04  0.11117406799E+04 0.  0.
        1    1    3    3  502    0  0.36435970929E+03  0.40610268388E+03 -0.98436843942E+03  0.11254592894E+04  0.50400001928E-02 0.  1.
       -1    1    3    3    0  502 -0.36435970929E+03 -0.40610268388E+03 -0.61209891511E+03  0.81996491968E+03  0.50400001928E-02 0. -1.
</event>
<event>
 5   0  0.2467448E-03  0.1091705E+04  0.7818609E-02  0.9213314E-01
        2   -1    0    0  501    0  0.00000000000E+00  0.00000000000E+00  0.97458063087E+03  0.97458063087E+03  0.25500000920E-02 0.  1.
       -2   -1    0    0    0  501  0.00000000000E+00  0.00000000000E+00 -0.30572650494E+03  0.30572650495E+03  0.25500000920E-02 0. -1.
    10030    2    1    2    0    0  0.00000000000E+00  0.00000000000E+00  0.66885412593E+03  0.12803071358E+04  0.10917053267E+04 0.  0.
        1    1    3    3  502    0  0.27478218950E+02 -0.43452477130E+03  0.72052718633E+03  0.84185880981E+03  0.50400001928E-02 0. -1.
       -1    1    3    3    0  502 -0.27478218950E+02  0.43452477130E+03 -0.51673060400E+02  0.43844832602E+03  0.50400001928E-02 0.  1.
</event>
<event>
 5   0  0.2392585E-03  0.1099613E+04  0.7818609E-02  0.9205569E-01
       -2   -1    0    0    0  501  0.00000000000E+00  0.00000000000E+00  0.10265059789E+04  0.10265059789E+04  0.25500000920E-02 0.  1.
        2   -1    0    0  501    0  0.00000000000E+00  0.00000000000E+00 -0.29448164120E+03  0.29448164121E+03  0.25500000920E-02 0. -1.
    10030    2    1    2    0    0  0.00000000000E+00  0.00000000000E+00  0.73202433768E+03  0.13209876201E+04  0.10996129599E+04 0.  0.
        5    1    3    3  502    0 -0.41846939694E+03 -0.32909140047E+01 -0.62335016787E+02  0.42312552583E+03  0.46999998093E+01 0. -1.
       -5    1    3    3    0  502  0.41846939694E+03  0.32909140047E+01  0.79435935446E+03  0.89786209426E+03  0.46999998093E+01 0.  1.
</event>
<event>
 5   0  0.2483036E-03  0.1098382E+04  0.7818609E-02  0.9206770E-01
       -2   -1    0    0    0  501  0.00000000000E+00  0.00000000000E+00  0.80716955780E+03  0.80716955780E+03  0.25500000920E-02 0. -1.
        2   -1    0    0  501    0  0.00000000000E+00  0.00000000000E+00 -0.37366477784E+03  0.37366477785E+03  0.25500000920E-02 0.  1.
    10030    2    1    2    0    0  0.00000000000E+00  0.00000000000E+00  0.43350477995E+03  0.11808343357E+04  0.10983821439E+04 0.  0.
        3    1    3    3  502    0 -0.20710438956E+03 -0.17049429444E+03  0.73194426887E+03  0.77955304858E+03  0.10100000352E+00 0. -1.
       -3    1    3    3    0  502  0.20710438956E+03  0.17049429444E+03 -0.29843948892E+03  0.40128128707E+03  0.10100000352E+00 0.  1.
</event>
<event>
 5   0  0.1415400E-03  0.1107895E+04  0.7818609E-02  0.9197531E-01
        1   -1    0    0  501    0  0.00000000000E+00  0.00000000000E+00  0.78918618883E+03  0.78918618885E+03  0.50400001928E-02 0.  1.
       -1   -1    0    0    0  501  0.00000000000E+00  0.00000000000E+00 -0.38882802668E+03  0.38882802672E+03  0.50400001928E-02 0. -1.
    10030    2    1    2    0    0  0.00000000000E+00  0.00000000000E+00  0.40035816215E+03  0.11780142156E+04  0.11078947757E+04 0.  0.
        2    1    3    3  502    0 -0.54814402096E+03  0.47783806270E+02  0.13199114561E+03  0.56583285728E+03  0.25500000920E-02 0. -1.
       -2    1    3    3    0  502  0.54814402096E+03 -0.47783806270E+02  0.26836701653E+03  0.61218135828E+03  0.25500000920E-02 0.  1.
</event>
<event>
 5   0  0.1509004E-03  0.1115540E+04  0.7818609E-02  0.9190177E-01
        1   -1    0    0  501    0  0.00000000000E+00  0.00000000000E+00  0.11365839653E+04  0.11365839653E+04  0.50400001928E-02 0. -1.
       -1   -1    0    0    0  501  0.00000000000E+00  0.00000000000E+00 -0.27372128509E+03  0.27372128513E+03  0.50400001928E-02 0.  1.
    10030    2    1    2    0    0  0.00000000000E+00  0.00000000000E+00  0.86286268022E+03  0.14103052504E+04  0.11155397324E+04 0.  0.
        3    1    3    3  502    0  0.26253533463E+03  0.48263419861E+03  0.55299957117E+03  0.77953133838E+03  0.10100000352E+00 0. -1.
       -3    1    3    3    0  502 -0.26253533463E+03 -0.48263419861E+03  0.30986310905E+03  0.63077391207E+03  0.10100000352E+00 0.  1.
</event>
<event>
 5   0  0.9631750E-04  0.1057470E+04  0.7818609E-02  0.9247666E-01
        3   -1    0    0  501    0  0.00000000000E+00  0.00000000000E+00  0.13194752748E+04  0.13194752787E+04  0.10100000352E+00 0.  1.
       -3   -1    0    0    0  501  0.00000000000E+00  0.00000000000E+00 -0.21187250558E+03  0.21187252965E+03  0.10100000352E+00 0. -1.
    10030    2    1    2    0    0  0.00000000000E+00  0.00000000000E+00  0.11076027693E+04  0.15313478084E+04  0.10574697233E+04 0.  0.
        4    1    3    3  502    0  0.11936622939E+03 -0.28262429668E+03  0.11773937075E+04  0.12167096388E+04  0.12699999809E+01 0.  1.
       -4    1    3    3    0  502 -0.11936622939E+03  0.28262429668E+03 -0.69790938225E+02  0.31463816957E+03  0.12699999809E+01 0. -1.
</event>
<event>
 5   0  0.1415400E-03  0.1082667E+04  0.7818609E-02  0.9222252E-01
       -1   -1    0    0    0  501  0.00000000000E+00  0.00000000000E+00  0.22889045094E+03  0.22889045100E+03  0.50400001928E-02 0. -1.
        1   -1    0    0  501    0  0.00000000000E+00  0.00000000000E+00 -0.12802714805E+04  0.12802714805E+04  0.50400001928E-02 0.  1.
    10030    2    1    2    0    0  0.00000000000E+00  0.00000000000E+00 -0.10513810295E+04  0.15091619315E+04  0.10826669230E+04 0.  0.
        2    1    3    3  502    0 -0.17422613160E+03 -0.35171420722E+03 -0.10453559440E+04  0.11166139342E+04  0.25500000920E-02 0.  1.
       -2    1    3    3    0  502  0.17422613160E+03  0.35171420722E+03 -0.60250855614E+01  0.39254799726E+03  0.25500000920E-02 0. -1.
</event>
<event>
 5   0  0.1480937E-03  0.1093276E+04  0.7818609E-02  0.9211770E-01
       -1   -1    0    0    0  501  0.00000000000E+00  0.00000000000E+00  0.50238212808E+03  0.50238212811E+03  0.50400001928E-02 0.  1.
        1   -1    0    0  501    0  0.00000000000E+00  0.00000000000E+00 -0.59479244122E+03  0.59479244124E+03  0.50400001928E-02 0. -1.
    10030    2    1    2    0    0  0.00000000000E+00  0.00000000000E+00 -0.92410313138E+02  0.10971745693E+04  0.10932759805E+04 0.  0.
        1    1    3    3  502    0 -0.15532383933E+03  0.51095601368E+03  0.70879424936E+02  0.53872575202E+03  0.50400001928E-02 0.  1.
       -1    1    3    3    0  502  0.15532383933E+03 -0.51095601368E+03 -0.16328973807E+03  0.55844881733E+03  0.50400001928E-02 0. -1.
</event>
<event>
 5   0  0.2438115E-03  0.1089969E+04  0.7818609E-02  0.9215024E-01
        2   -1    0    0  501    0  0.00000000000E+00  0.00000000000E+00  0.40141678529E+03  0.40141678530E+03  0.25500000920E-02 0.  1.
       -2   -1    0    0    0  501  0.00000000000E+00  0.00000000000E+00 -0.73989962945E+03  0.73989962945E+03  0.25500000920E-02 0. -1.
    10030    2    1    2    0    0  0.00000000000E+00  0.00000000000E+00 -0.33848284416E+03  0.11413164148E+04  0.10899690467E+04 0.  0.
        4    1    3    3  502    0 -0.13926332586E+02 -0.51810184921E+03 -0.34565069960E+03  0.62297631410E+03  0.12699999809E+01 0. -1.
       -4    1    3    3    0  502  0.13926332586E+02  0.51810184921E+03  0.71678554448E+01  0.51834010065E+03  0.12699999809E+01 0.  1.
</event>
<event>
 5   0  0.1509004E-03  0.1096006E+04  0.7818609E-02  0.9209093E-01
        1   -1    0    0  501    0  0.00000000000E+00  0.00000000000E+00  0.70819331894E+03  0.70819331896E+03  0.50400001928E-02 0. -1.
       -1   -1    0    0    0  501  0.00000000000E+00  0.00000000000E+00 -0.42404738512E+03  0.42404738515E+03  0.50400001928E-02 0.  1.
    10030    2    1    2    0    0  0.00000000000E+00  0.00000000000E+00  0.28414593382E+03  0.11322407041E+04  0.10960064326E+04 0.  0.
        3    1    3    3  502    0 -0.20349374997E+03  0.44267261416E+01 -0.38354888425E+03  0.43421084624E+03  0.10100000352E+00 0.  1.
       -3    1    3    3    0  502  0.20349374997E+03 -0.44267261416E+01  0.66769481808E+03  0.69802985786E+03  0.10100000352E+00 0. -1.
</event>
<event>
 5   0  0.2488472E-03  0.1044579E+04  0.7818609E-02  0.9260959E-01
       -2   -1    0    0    0  501  0.00000000000E+00  0.00000000000E+00  0.43922452780E+03  0.43922452781E+03  0.25500000920E-02 0. -1.
        2   -1    0    0  501    0  0.00000000000E+00  0.00000000000E+00 -0.62106344315E+03  0.62106344315E+03  0.25500000920E-02 0.  1.
    10030    2    1    2    0    0  0.00000000000E+00  0.00000000000E+00 -0.18183891535E+03  0.10602879710E+04  0.10445789536E+04 0.  0.
        2    1    3    3  502    0 -0.20695947196E+03  0.47937838522E+03 -0.78469675155E+02  0.52800885331E+03  0.25500000920E-02 0.  1.
       -2    1    3    3    0  502  0.20695947196E+03 -0.47937838522E+03 -0.10336924019E+03  0.53227911764E+03  0.25500000920E-02 0. -1.
</event>
<event>
 5   0  0.1468556E-03  0.1111641E+04  0.7818609E-02  0.9193919E-01
        1   -1    0    0  501    0  0.00000000000E+00  0.00000000000E+00  0.24952760580E+03  0.24952760585E+03  0.50400001928E-02 0. -1.
       -1   -1    0    0    0  501  0.00000000000E+00  0.00000000000E+00 -0.12380856640E+04  0.12380856640E+04  0.50400001928E-02 0.  1.
    10030    2    1    2    0    0  0.00000000000E+00  0.00000000000E+00 -0.98855805819E+03  0.14876132699E+04  0.11116412219E+04 0.  0.
        5    1    3    3  502    0 -0.54585222345E+03 -0.30395799584E+02 -0.36021763954E+03  0.65471932331E+03  0.46999998093E+01 0. -1.
       -5    1    3    3    0  502  0.54585222345E+03  0.30395799584E+02 -0.62834041865E+03  0.83289394654E+03  0.46999998093E+01 0.  1.
</event>
<event>
 5   0  0.2438115E-03  0.1098407E+04  0.7818609E-02  0.9206746E-01
        2   -1    0    0  501    0  0.00000000000E+00  0.00000000000E+00  0.49563400079E+03  0.49563400079E+03  0.25500000920E-02 0. -1.
       -2   -1    0    0    0  501  0.00000000000E+00  0.00000000000E+00 -0.60856261662E+03  0.60856261663E+03  0.25500000920E-02 0.  1.
    10030    2    1    2    0    0  0.00000000000E+00  0.00000000000E+00 -0.11292861584E+03  0.11041966174E+04  0.10984067087E+04 0.  0.
        4    1    3    3  502    0  0.20276970841E+03  0.51019296895E+03 -0.71042171573E+02  0.55358921888E+03  0.12699999809E+01 0. -1.
       -4    1    3    3    0  502 -0.20276970841E+03 -0.51019296895E+03 -0.41886444262E+02  0.55060739854E+03  0.12699999809E+01 0.  1.
</event>
<event>
 5   0  0.2467448E-03  0.1107612E+04  0.7818609E-02  0.9197805E-01
        2   -1    0    0  501    0  0.00000000000E+00  0.00000000000E+00  0.10338155045E+04  0.10338155045E+04  0.25500000920E-02 0. -1.
       -2   -1    0    0    0  501  0.00000000000E+00  0.00000000000E+00 -0.29666892224E+03  0.29666892225E+03  0.25500000920E-02 0.  1.
    10030    2    1    2    0    0  0.00000000000E+00  0.00000000000E+00  0.73714658225E+03  0.13304844268E+04  0.11076117217E+04 0.  0.
        1    1    3    3  502    0  0.13269232048E+03 -0.15606331528E+03  0.98663285274E+03  0.10076742511E+04  0.50400001928E-02 0. -1.
       -1    1    3    3    0  502 -0.13269232048E+03  0.15606331528E+03 -0.24948627049E+03  0.32281017561E+03  0.50400001928E-02 0.  1.
</event>
<event>
 5   0  0.2467448E-03  0.1112860E+04  0.7818609E-02  0.9192747E-01
        2   -1    0    0  501    0  0.00000000000E+00  0.00000000000E+00  0.14674769389E+04  0.14674769389E+04  0.25500000920E-02 0.  1.
       -2   -1    0    0    0  501  0.00000000000E+00  0.00000000000E+00 -0.21098430029E+03  0.21098430031E+03  0.25500000920E-02 0. -1.
    10030    2    1    2    0    0  0.00000000000E+00  0.00000000000E+00  0.12564926386E+04  0.16784612392E+04  0.11128604498E+04 0.  0.
        1    1    3    3  502    0 -0.21211661975E+03  0.48238634883E+03  0.35876232987E+03  0.63749545824E+03  0.50400001928E-02 0. -1.
       -1    1    3    3    0  502  0.21211661975E+03 -0.48238634883E+03  0.89773030877E+03  0.10409657810E+04  0.50400001928E-02 0.  1.
</event>
<event>
 5   0  0.1415400E-03  0.1105747E+04  0.7818609E-02  0.9199609E-01
       -1   -1    0    0    0  501  0.00000000000E+00  0.00000000000E+00  0.49736078929E+03  0.49736078932E+03  0.50400001928E-02 0. -1.
        1   -1    0    0  501    0  0.00000000000E+00  0.00000000000E+00 -0.61458197304E+03  0.61458197306E+03  0.50400001928E-02 0.  1.
    10030    2    1    2    0    0  0.00000000000E+00  0.00000000000E+00 -0.11722118375E+03  0.11119427624E+04  0.11057467616E+04 0.  0.
        2    1    3    3  502    0  0.76261187867E+02 -0.30731488723E+02  0.49117846804E+03  0.49801253061E+03  0.25500000920E-02 0. -1.
       -2    1    3    3    0  502 -0.76261187867E+02  0.30731488723E+02 -0.60839965179E+03  0.61393023177E+03  0.25500000920E-02 0.  1.
</event>
<event>
 5   0  0.2438115E-03  0.1097996E+04  0.7818609E-02  0.9207148E-01
        2   -1    0    0  501    0  0.00000000000E+00  0.00000000000E+00  0.58646626006E+03  0.58646626006E+03  0.25500000920E-02 0.  1.
       -2   -1    0    0    0  501  0.00000000000E+00  0.00000000000E+00 -0.51392310933E+03  0.51392310934E+03  0.25500000920E-02 0. -1.
    10030    2    1    2    0    0  0.00000000000E+00  0.00000000000E+00  0.72543150726E+02  0.11003893694E+04  0.10979955626E+04 0.  0.
        4    1    3    3  502    0  0.13297991647E+03  0.69541994149E+02 -0.49296799574E+03  0.51530457485E+03  0.12699999809E+01 0. -1.
       -4    1    3    3    0  502 -0.13297991647E+03 -0.69541994149E+02  0.56551114647E+03  0.58508479455E+03  0.12699999809E+01 0.  1.
</event>
<event>
 5   0  0.2438115E-03  0.1102264E+04  0.7818609E-02  0.9202988E-01
       -2   -1    0    0    0  501  0.00000000000E+00  0.00000000000E+00  0.25290569440E+03  0.25290569441E+03  0.25500000920E-02 0. -1.
        2   -1    0    0  501    0  0.00000000000E+00  0.00000000000E+00 -0.12010271531E+04  0.12010271531E+04  0.25500000920E-02 0.  1.
    10030    2    1    2    0    0  0.00000000000E+00  0.00000000000E+00 -0.94812145873E+03  0.14539328475E+04  0.11022642263E+04 0.  0.
        4    1    3    3  502    0  0.38284824689E+02 -0.38708040555E+03  0.40953865899E+02  0.39112120909E+03  0.12699999809E+01 0. -1.
       -4    1    3    3    0  502 -0.38284824689E+02  0.38708040555E+03 -0.98907532463E+03  0.10628116385E+04  0.12699999809E+01 0.  1.
</event>
<event>
 5   0  0.9631750E-04  0.1237873E+04  0.7818609E-02  0.9080337E-01
        4   -1    0    0  501    0  0.00000000000E+00  0.00000000000E+00  0.38139909683E+03  0.38140121127E+03  0.12699999809E+01 0.  1.
       -4   -1    0    0    0  501  0.00000000000E+00  0.00000000000E+00 -0.10044080042E+04  0.10044088071E+04  0.12699999809E+01 0. -1.
    10030    2    1    2    0    0  0.00000000000E+00  0.00000000000E+00 -0.62300890734E+03  0.13858100183E+04  0.12378728967E+04 0.  0.
        4    1    3    3  502    0 -0.42263058272E+03 -0.26541867572E+03  0.98329220184E+02  0.50865895383E+03  0.12699999809E+01 0. -1.
       -4    1    3    3    0  502  0.42263058272E+03  0.26541867572E+03 -0.72133812752E+03  0.87715106452E+03  0.12699999809E+01 0.  1.
</event>
<event>
 5   0  0.2467448E-03  0.1107185E+04  0.7818609E-02  0.9198217E-01
        2   -1    0    0  501    0  0.00000000000E+00  0.00000000000E+00  0.10647565903E+04  0.10647565903E+04  0.25500000920E-02 0.  1.
       -2   -1    0    0    0  501  0.00000000000E+00  0.00000000000E+00 -0.28782624438E+03  0.28782624440E+03  0.25500000920E-02 0. -1.
    10030    2    1    2    0    0  0.00000000000E+00  0.00000000000E+00  0.77693034594E+03  0.13525828347E+04  0.11071854236E+04 0.  0.
        1    1    3    3  502    0  0.17540225360E+03  0.34940984749E+03  0.86726684419E+03  0.95131749229E+03  0.50400001928E-02 0.  1.
       -1    1    3    3    0  502 -0.17540225360E+03 -0.34940984749E+03 -0.90336498246E+02  0.40126534243E+03  0.50400001928E-02 0. -1.
</event>
<event>
 5   0  0.1509004E-03  0.1090995E+04  0.7818609E-02  0.9214013E-01
        1   -1    0    0  501    0  0.00000000000E+00  0.00000000000E+00  0.20193553226E+04  0.20193553226E+04  0.50400001928E-02 0.  1.
       -1   -1    0    0    0  501  0.00000000000E+00  0.00000000000E+00 -0.14735775611E+03  0.14735775619E+03  0.50400001928E-02 0. -1.
    10030    2    1    2    0    0  0.00000000000E+00  0.00000000000E+00  0.18719975665E+04  0.21667130788E+04  0.10909952690E+04 0.  0.
        3    1    3    3  502    0  0.90406941102E+02  0.89270436849E+02  0.19895603040E+04  0.19936130114E+04  0.10100000352E+00 0.  1.
       -3    1    3    3    0  502 -0.90406941102E+02 -0.89270436849E+02 -0.11756273747E+03  0.17310006741E+03  0.10100000352E+00 0. -1.
</event>
<event>
 5   0  0.1468556E-03  0.1082368E+04  0.7818609E-02  0.9222549E-01
       -1   -1    0    0    0  501  0.00000000000E+00  0.00000000000E+00  0.48827674649E+03  0.48827674651E+03  0.50400001928E-02 0.  1.
        1   -1    0    0  501    0  0.00000000000E+00  0.00000000000E+00 -0.59982436813E+03  0.59982436815E+03  0.50400001928E-02 0. -1.
    10030    2    1    2    0    0  0.00000000000E+00  0.00000000000E+00 -0.11154762164E+03  0.10881011147E+04  0.10823683125E+04 0.  0.
        5    1    3    3  502    0  0.58463504297E+02  0.80346840296E+02  0.47900672317E+03  0.48922707092E+03  0.46999998093E+01 0.  1.
       -5    1    3    3    0  502 -0.58463504297E+02 -0.80346840296E+02 -0.59055434481E+03  0.59887404373E+03  0.46999998093E+01 0. -1.
</event>
<event>
 5   0  0.1468556E-03  0.1100061E+04  0.7818609E-02  0.9205132E-01
        1   -1    0    0  501    0  0.00000000000E+00  0.00000000000E+00  0.60417429306E+03  0.60417429308E+03  0.50400001928E-02 0.  1.
       -1   -1    0    0    0  501  0.00000000000E+00  0.00000000000E+00 -0.50073929410E+03  0.50073929413E+03  0.50400001928E-02 0. -1.
    10030    2    1    2    0    0  0.00000000000E+00  0.00000000000E+00  0.10343499895E+03  0.11049135872E+04  0.11000614693E+04 0.  0.
        5    1    3    3  502    0  0.75559689628E+02  0.54235473235E+03  0.10345973420E+03  0.55730057329E+03  0.46999998093E+01 0.  1.
       -5    1    3    3    0  502 -0.75559689628E+02 -0.54235473235E+03 -0.24735245019E-01  0.54761301391E+03  0.46999998093E+01 0. -1.
</event>
<event>
 5   0  0.9631750E-04  0.1087124E+04  0.7818609E-02  0.9217833E-01
        4   -1    0    0  501    0  0.00000000000E+00  0.00000000000E+00  0.62240971481E+03  0.62241101049E+03  0.12699999809E+01 0. -1.
       -4   -1    0    0    0  501  0.00000000000E+00  0.00000000000E+00 -0.47470010689E+03  0.47470180575E+03  0.12699999809E+01 0.  1.
    10030    2    1    2    0    0  0.00000000000E+00  0.00000000000E+00  0.14770960791E+03  0.10971128162E+04  0.10871239135E+04 0.  0.
        5    1    3    3  502    0 -0.50773955801E+03 -0.24519410929E+02  0.26807270840E+03  0.57470490451E+03  0.46999998093E+01 0.  1.
       -5    1    3    3    0  502  0.50773955801E+03  0.24519410929E+02 -0.12036310048E+03  0.52240791173E+03  0.46999998093E+01 0. -1.
</event>
<event>
 5   0  0.2483036E-03  0.1124089E+04  0.7818609E-02  0.9182026E-01
       -2   -1    0    0    0  501  0.00000000000E+00  0.00000000000E+00  0.22062548679E+03  0.22062548681E+03  0.25500000920E-02 0.  1.
        2   -1    0    0  501    0  0.00000000000E+00  0.00000000000E+00 -0.14318103414E+04  0.14318103414E+04  0.25500000920E-02 0. -1.
    10030    2    1    2    0    0  0.00000000000E+00  0.00000000000E+00 -0.12111848546E+04  0.16524358282E+04  0.11240887039E+04 0.  0.
        3    1    3    3  502    0 -0.17114772082E+03  0.41766988924E+02 -0.13901739791E+04  0.14012921630E+04  0.10100000352E+00 0. -1.
       -3    1    3    3    0  502  0.17114772082E+03 -0.41766988924E+02  0.17898912447E+03  0.25114366523E+03  0.10100000352E+00 0.  1.
</event>
<event>
 5   0  0.2392585E-03  0.1103161E+04  0.7818609E-02  0.9202116E-01
       -2   -1    0    0    0  501  0.00000000000E+00  0.00000000000E+00  0.15504637146E+03  0.15504637148E+03  0.25500000920E-02 0. -1.
        2   -1    0    0  501    0  0.00000000000E+00  0.00000000000E+00 -0.19622591193E+04  0.19622591193E+04  0.25500000920E-02 0.  1.
    10030    2    1    2    0    0  0.00000000000E+00  0.00000000000E+00 -0.18072127479E+04  0.21173054908E+04  0.11031611964E+04 0.  0.
        5    1    3    3  502    0 -0.29658386068E+03 -0.13000539486E+03 -0.46649729243E+02  0.32720280613E+03  0.46999998093E+01 0. -1.
       -5    1    3    3    0  502  0.29658386068E+03  0.13000539486E+03 -0.17605630186E+04  0.17901026847E+04  0.46999998093E+01 0.  1.
</event>
<event>
 5   0  0.2488472E-03  0.1103730E+04  0.7818609E-02  0.9201563E-01
        2   -1    0    0  501    0  0.00000000000E+00  0.00000000000E+00  0.12549223821E+04  0.12549223821E+04  0.25500000920E-02 0.  1.
       -2   -1    0    0    0  501  0.00000000000E+00  0.00000000000E+00 -0.24268851822E+03  0.24268851823E+03  0.25500000920E-02 0. -1.
    10030    2    1    2    0    0  0.00000000000E+00  0.00000000000E+00  0.10122338639E+04  0.14976109003E+04  0.11037304986E+04 0.  0.
        2    1    3    3  502    0 -0.13121558750E+03 -0.18352368513E+03 -0.17725822504E+03  0.28691279469E+03  0.25500000920E-02 0. -1.
       -2    1    3    3    0  502  0.13121558750E+03  0.18352368513E+03  0.11894920889E+04  0.12106981057E+04  0.25500000920E-02 0.  1.
</event>
<event>
 5   0  0.1415400E-03  0.1095265E+04  0.7818609E-02  0.9209819E-01
       -1   -1    0    0    0  501  0.00000000000E+00  0.00000000000E+00  0.16239347960E+03  0.16239347968E+03  0.50400001928E-02 0. -1.
        1   -1    0    0  501    0  0.00000000000E+00  0.00000000000E+00 -0.18467583246E+04  0.18467583246E+04  0.50400001928E-02 0.  1.
    10030    2    1    2    0    0  0.00000000000E+00  0.00000000000E+00 -0.16843648450E+04  0.20091518043E+04  0.10952652837E+04 0.  0.
        2    1    3    3  502    0 -0.19446033653E+02  0.31480601570E+03 -0.20952929832E+02  0.31610125121E+03  0.25500000920E-02 0. -1.
       -2    1    3    3    0  502  0.19446033653E+02 -0.31480601570E+03 -0.16634119151E+04  0.16930505531E+04  0.25500000920E-02 0.  1.
</event>
<event>
 5   0  0.2467448E-03  0.1104246E+04  0.7818609E-02  0.9201063E-01
       -2   -1    0    0    0  501  0.00000000000E+00  0.00000000000E+00  0.49716284089E+03  0.49716284090E+03  0.25500000920E-02 0.  1.
        2   -1    0    0  501    0  0.00000000000E+00  0.00000000000E+00 -0.61315920353E+03  0.61315920353E+03  0.25500000920E-02 0. -1.
    10030    2    1    2    0    0  0.00000000000E+00  0.00000000000E+00 -0.11599636264E+03  0.11103220444E+04  0.11042462978E+04 0.  0.
        1    1    3    3  502    0  0.46616173388E+03 -0.27094666646E+03 -0.17748430708E+03  0.56764384739E+03  0.50400001928E-02 0. -1.
       -1    1    3    3    0  502 -0.46616173388E+03  0.27094666646E+03  0.61487944444E+02  0.54267819703E+03  0.50400001928E-02 0.  1.
</event>
<event>
 5   0  0.9631750E-04  0.1100755E+04  0.7818609E-02  0.9204456E-01
       -3   -1    0    0    0  501  0.00000000000E+00  0.00000000000E+00  0.24403312360E+03  0.24403314450E+03  0.10100000352E+00 0. -1.
        3   -1    0    0  501    0  0.00000000000E+00  0.00000000000E+00 -0.12412875744E+04  0.12412875786E+04  0.10100000352E+00 0.  1.
    10030    2    1    2    0    0  0.00000000000E+00  0.00000000000E+00 -0.99725445085E+03  0.14853207231E+04  0.11007548367E+04 0.  0.
        4    1    3    3  502    0  0.45837667853E+03 -0.27088796896E+03 -0.31056506698E+03  0.61639414735E+03  0.12699999809E+01 0. -1.
       -4    1    3    3    0  502 -0.45837667853E+03  0.27088796896E+03 -0.68668938387E+03  0.86892657571E+03  0.12699999809E+01 0.  1.
</event>
<event>
 5   0  0.9631750E-04  0.1121616E+04  0.7818609E-02  0.9184376E-01
        4   -1    0    0  501    0  0.00000000000E+00  0.00000000000E+00  0.52084628074E+03  0.52084782908E+03  0.12699999809E+01 0. -1.
       -4   -1    0    0    0  501  0.00000000000E+00  0.00000000000E+00 -0.60383246314E+03  0.60383379869E+03  0.12699999809E+01 0.  1.
    10030    2    1    2    0    0  0.00000000000E+00  0.00000000000E+00 -0.82986182399E+02  0.11246816278E+04  0.11216158243E+04 0.  0.
        4    1    3    3  502    0  0.21972048561E+03  0.51465154866E+03 -0.45060487085E+01  0.55961167403E+03  0.12699999809E+01 0. -1.
       -4    1    3    3    0  502 -0.21972048561E+03 -0.51465154866E+03 -0.78480133690E+02  0.56506995374E+03  0.12699999809E+01 0.  1.
</event>
<event>
 5   0  0.1480937E-03  0.1106317E+04  0.7818609E-02  0.9199056E-01
       -1   -1    0    0    0  501  0.00000000000E+00  0.00000000000E+00  0.60211888949E+03  0.60211888951E+03  0.50400001928E-02 0. -1.
        1   -1    0    0  501    0  0.00000000000E+00  0.00000000000E+00 -0.50817954560E+03  0.50817954562E+03  0.50400001928E-02 0.  1.
    10030    2    1    2    0    0  0.00000000000E+00  0.00000000000E+00  0.93939343889E+02  0.11102984351E+04  0.11063173210E+04 0.  0.
        1    1    3    3  502    0 -0.18657789428E+03  0.29030349463E+03  0.48084131545E+03  0.59185792239E+03  0.50400001928E-02 0. -1.
       -1    1    3    3    0  502  0.18657789428E+03 -0.29030349463E+03 -0.38690197156E+03  0.51844051274E+03  0.50400001928E-02 0.  1.
</event>
<event>
 5   0  0.1509004E-03  0.1095184E+04  0.7818609E-02  0.9209899E-01
        1   -1    0    0  501    0  0.00000000000E+00  0.00000000000E+00  0.10503824725E+04  0.10503824725E+04  0.50400001928E-02 0.  1.
       -1   -1    0    0    0  501  0.00000000000E+00  0.00000000000E+00 -0.28547408538E+03  0.28547408542E+03  0.50400001928E-02 0. -1.
    10030    2    1    2    0    0  0.00000000000E+00  0.00000000000E+00  0.76490838712E+03  0.13358565579E+04  0.10951839584E+04 0.  0.
        3    1    3    3  502    0 -0.23955053150E+03  0.20220806116E+03 -0.16519344846E+03  0.35434650098E+03  0.10100000352E+00 0. -1.
       -3    1    3    3    0  502  0.23955053150E+03 -0.20220806116E+03  0.93010183558E+03  0.98151005695E+03  0.10100000352E+00 0.  1.
</event>
<event>
 5   0  0.1415400E-03  0.1088627E+04  0.7818609E-02  0.9216348E-01
        1   -1    0    0  501    0  0.00000000000E+00  0.00000000000E+00  0.39368868071E+03  0.39368868074E+03  0.50400001928E-02 0.  1.
       -1   -1    0    0    0  501  0.00000000000E+00  0.00000000000E+00 -0.75256689409E+03  0.75256689411E+03  0.50400001928E-02 0. -1.
    10030    2    1    2    0    0  0.00000000000E+00  0.00000000000E+00 -0.35887821339E+03  0.11462555748E+04  0.10886267822E+04 0.  0.
        2    1    3    3  502    0  0.42501275230E+03 -0.24554861067E+03  0.68274528367E+02  0.49557176176E+03  0.25500000920E-02 0.  1.
       -2    1    3    3    0  502 -0.42501275230E+03  0.24554861067E+03 -0.42715274175E+03  0.65068381309E+03  0.25500000920E-02 0. -1.
</event>
<event>
 5   0  0.1509004E-03  0.1101262E+04  0.7818609E-02  0.9203963E-01
       -1   -1    0    0    0  501  0.00000000000E+00  0.00000000000E+00  0.36395515434E+03  0.36395515438E+03  0.50400001928E-02 0.  1.
        1   -1    0    0  501    0  0.00000000000E+00  0.00000000000E+00 -0.83305482297E+03  0.83305482299E+03  0.50400001928E-02 0. -1.
    10030    2    1    2    0    0  0.00000000000E+00  0.00000000000E+00 -0.46909966863E+03  0.11970099774E+04  0.11012621790E+04 0.  0.
        3    1    3    3  502    0  0.50167274201E+03  0.20921558079E+03 -0.13887478605E+03  0.56101061998E+03  0.10100000352E+00 0.  1.
       -3    1    3    3    0  502 -0.50167274201E+03 -0.20921558079E+03 -0.33022488258E+03  0.63599935739E+03  0.10100000352E+00 0. -1.
</event>
<event>
 5   0  0.1479573E-03  0.1103869E+04  0.7818609E-02  0.9201429E-01
        1   -1    0    0  501    0  0.00000000000E+00  0.00000000000E+00  0.95392563176E+03  0.95392563177E+03  0.50400001928E-02 0.  1.
       -1   -1    0    0    0  501  0.00000000000E+00  0.00000000000E+00 -0.31934544492E+03  0.31934544496E+03  0.50400001928E-02 0. -1.
    10030    2    1    2    0    0  0.00000000000E+00  0.00000000000E+00  0.63458018684E+03  0.12732710767E+04  0.11038692048E+04 0.  0.
        4    1    3    3  502    0  0.44068941057E+03  0.28098572894E+02 -0.64632110289E+02  0.44629094654E+03  0.12699999809E+01 0. -1.
       -4    1    3    3    0  502 -0.44068941057E+03 -0.28098572894E+02  0.69921229713E+03  0.82698013020E+03  0.12699999809E+01 0.  1.
</event>
<event>
 5   0  0.9631750E-04  0.1101788E+04  0.7818609E-02  0.9203451E-01
        4   -1    0    0  501    0  0.00000000000E+00  0.00000000000E+00  0.10352441936E+04  0.10352449726E+04  0.12699999809E+01 0.  1.
       -4   -1    0    0    0  501  0.00000000000E+00  0.00000000000E+00 -0.29315008201E+03  0.29315283298E+03  0.12699999809E+01 0. -1.
    10030    2    1    2    0    0  0.00000000000E+00  0.00000000000E+00  0.74209411163E+03  0.13283978056E+04  0.11017881191E+04 0.  0.
        5    1    3    3  502    0  0.20002648396E+03 -0.43235745363E+03  0.37533409284E+02  0.47788535111E+03  0.46999998093E+01 0. -1.
       -5    1    3    3    0  502 -0.20002648396E+03  0.43235745363E+03  0.70456070235E+03  0.85051245451E+03  0.46999998093E+01 0.  1.
</event>
<event>
 5   0  0.2488472E-03  0.1106613E+04  0.7818609E-02  0.9198771E-01
        2   -1    0    0  501    0  0.00000000000E+00  0.00000000000E+00  0.14062728650E+04  0.14062728650E+04  0.25500000920E-02 0.  1.
       -2   -1    0    0    0  501  0.00000000000E+00  0.00000000000E+00 -0.21770157668E+03  0.21770157669E+03  0.25500000920E-02 0. -1.
    10030    2    1    2    0    0  0.00000000000E+00  0.00000000000E+00  0.11885712883E+04  0.16239744417E+04  0.11066125247E+04 0.  0.
        2    1    3    3  502    0 -0.35066786575E+03  0.14657200750E+03  0.41743347465E+01  0.38009042415E+03  0.25500000920E-02 0. -1.
       -2    1    3    3    0  502  0.35066786575E+03 -0.14657200750E+03  0.11843969535E+04  0.12438840175E+04  0.25500000920E-02 0.  1.
</event>
<event>
 5   0  0.1415400E-03  0.1099910E+04  0.7818609E-02  0.9205280E-01
       -1   -1    0    0    0  501  0.00000000000E+00  0.00000000000E+00  0.36715472345E+03  0.36715472348E+03  0.50400001928E-02 0. -1.
        1   -1    0    0  501    0  0.00000000000E+00  0.00000000000E+00 -0.82376822789E+03  0.82376822791E+03  0.50400001928E-02 0.  1.
    10030    2    1    2    0    0  0.00000000000E+00  0.00000000000E+00 -0.45661350444E+03  0.11909229514E+04  0.10999098071E+04 0.  0.
        2    1    3    3  502    0 -0.19396525294E+02  0.50653564823E+03 -0.45925372873E+03  0.68400919254E+03  0.25500000920E-02 0.  1.
       -2    1    3    3    0  502  0.19396525294E+02 -0.50653564823E+03  0.26402242899E+01  0.50691375885E+03  0.25500000920E-02 0. -1.
</event>
<event>
 5   0  0.1468556E-03  0.1096910E+04  0.7818609E-02  0.9208209E-01
        1   -1    0    0  501    0  0.00000000000E+00  0.00000000000E+00  0.24565996662E+04  0.24565996662E+04  0.50400001928E-02 0. -1.
       -1   -1    0    0    0  501  0.00000000000E+00  0.00000000000E+00 -0.12244689734E+03  0.12244689745E+03  0.50400001928E-02 0.  1.
    10030    2    1    2    0    0  0.00000000000E+00  0.00000000000E+00  0.23341527688E+04  0.25790465636E+04  0.10969102192E+04 0.  0.
        5    1    3    3  502    0 -0.56842769413E+02 -0.35742522763E+03  0.19823398382E+03  0.41267747227E+03  0.46999998093E+01 0.  1.
       -5    1    3    3    0  502  0.56842769413E+02  0.35742522763E+03  0.21359187850E+04  0.21663690913E+04  0.46999998093E+01 0. -1.
</event>
<event>
 5   0  0.9631750E-04  0.1081175E+04  0.7818609E-02  0.9223736E-01
       -3   -1    0    0    0  501  0.00000000000E+00  0.00000000000E+00  0.32436699242E+03  0.32436700814E+03  0.10100000352E+00 0. -1.
        3   -1    0    0  501    0  0.00000000000E+00  0.00000000000E+00 -0.90093930872E+03  0.90093931438E+03  0.10100000352E+00 0.  1.
    10030    2    1    2    0    0  0.00000000000E+00  0.00000000000E+00 -0.57657231630E+03  0.12253063225E+04  0.10811752624E+04 0.  0.
        2    1    3    3  502    0 -0.46808674570E+02  0.51898410770E+03 -0.12523353979E+03  0.53592816269E+03  0.25500000920E-02 0.  1.
       -2    1    3    3    0  502  0.46808674570E+02 -0.51898410770E+03 -0.45133877651E+03  0.68937815983E+03  0.25500000920E-02 0. -1.
</event>
<event>
 5   0  0.2483036E-03  0.1101316E+04  0.7818609E-02  0.9203910E-01
       -2   -1    0    0    0  501  0.00000000000E+00  0.00000000000E+00  0.16223409723E+03  0.16223409725E+03  0.25500000920E-02 0.  1.
        2   -1    0    0  501    0  0.00000000000E+00  0.00000000000E+00 -0.18690539850E+04  0.18690539850E+04  0.25500000920E-02 0. -1.
    10030    2    1    2    0    0  0.00000000000E+00  0.00000000000E+00 -0.17068198878E+04  0.20312880822E+04  0.11013160962E+04 0.  0.
        3    1    3    3  502    0 -0.50373781674E+03 -0.22064699307E+03 -0.80165461379E+03  0.97215585869E+03  0.10100000352E+00 0. -1.
       -3    1    3    3    0  502  0.50373781674E+03  0.22064699307E+03 -0.90516527396E+03  0.10591322235E+04  0.10100000352E+00 0.  1.
</event>
<event>
 5   0  0.2483036E-03  0.1126893E+04  0.7818609E-02  0.9179369E-01
       -2   -1    0    0    0  501  0.00000000000E+00  0.00000000000E+00  0.39481616982E+03  0.39481616983E+03  0.25500000920E-02 0. -1.
        2   -1    0    0  501    0  0.00000000000E+00  0.00000000000E+00 -0.80410103408E+03  0.80410103408E+03  0.25500000920E-02 0.  1.
    10030    2    1    2    0    0  0.00000000000E+00  0.00000000000E+00 -0.40928486426E+03  0.11989172039E+04  0.11268932344E+04 0.  0.
        3    1    3    3  502    0 -0.15242984553E+03 -0.32299333080E+03 -0.66828492387E+03  0.75773629926E+03  0.10100000352E+00 0.  1.
       -3    1    3    3    0  502  0.15242984553E+03  0.32299333080E+03  0.25900005961E+03  0.44118090465E+03  0.10100000352E+00 0. -1.
</event>
<event>
 5   0  0.2438115E-03  0.1137549E+04  0.7818609E-02  0.9169348E-01
        2   -1    0    0  501    0  0.00000000000E+00  0.00000000000E+00  0.44925223057E+03  0.44925223058E+03  0.25500000920E-02 0.  1.
       -2   -1    0    0    0  501  0.00000000000E+00  0.00000000000E+00 -0.72009534675E+03  0.72009534675E+03  0.25500000920E-02 0. -1.
    10030    2    1    2    0    0  0.00000000000E+00  0.00000000000E+00 -0.27084311618E+03  0.11693475773E+04  0.11375490157E+04 0.  0.
        4    1    3    3  502    0 -0.37768743955E+03 -0.15548542270E+03 -0.54231372120E+03  0.67891774448E+03  0.12699999809E+01 0. -1.
       -4    1    3    3    0  502  0.37768743955E+03  0.15548542270E+03  0.27147060502E+03  0.49042983286E+03  0.12699999809E+01 0.  1.
</event>
<event>
 5   0  0.2483036E-03  0.1100837E+04  0.7818609E-02  0.9204376E-01
       -2   -1    0    0    0  501  0.00000000000E+00  0.00000000000E+00  0.14240198487E+03  0.14240198489E+03  0.25500000920E-02 0.  1.
        2   -1    0    0  501    0  0.00000000000E+00  0.00000000000E+00 -0.21275031712E+04  0.21275031712E+04  0.25500000920E-02 0. -1.
    10030    2    1    2    0    0  0.00000000000E+00  0.00000000000E+00 -0.19851011864E+04  0.22699051561E+04  0.11008372712E+04 0.  0.
        3    1    3    3  502    0 -0.17970444453E+03  0.23242112155E+03 -0.19523076765E+04  0.19742893758E+04  0.10100000352E+00 0. -1.
       -3    1    3    3    0  502  0.17970444453E+03 -0.23242112155E+03 -0.32793509840E+02  0.29561578038E+03  0.10100000352E+00 0.  1.
</event>
<event>
 5   0  0.2467448E-03  0.1098834E+04  0.7818609E-02  0.9206329E-01
        2   -1    0    0  501    0  0.00000000000E+00  0.00000000000E+00  0.37608614866E+03  0.37608614866E+03  0.25500000920E-02 0. -1.
       -2   -1    0    0    0  501  0.00000000000E+00  0.00000000000E+00 -0.80263228674E+03  0.80263228675E+03  0.25500000920E-02 0.  1.
    10030    2    1    2    0    0  0.00000000000E+00  0.00000000000E+00 -0.42654613809E+03  0.11787184354E+04  0.10988337190E+04 0.  0.
        1    1    3    3  502    0 -0.41573592003E+03  0.31904807505E+03 -0.39028752955E+03  0.65341593579E+03  0.50400001928E-02 0.  1.
       -1    1    3    3    0  502  0.41573592003E+03 -0.31904807505E+03 -0.36258608543E+02  0.52530249963E+03  0.50400001928E-02 0. -1.
</event>
<event>
 5   0  0.2483036E-03  0.1100097E+04  0.7818609E-02  0.9205098E-01
       -2   -1    0    0    0  501  0.00000000000E+00  0.00000000000E+00  0.15995983927E+03  0.15995983929E+03  0.25500000920E-02 0.  1.
        2   -1    0    0  501    0  0.00000000000E+00  0.00000000000E+00 -0.18914325421E+04  0.18914325421E+04  0.25500000920E-02 0. -1.
    10030    2    1    2    0    0  0.00000000000E+00  0.00000000000E+00 -0.17314727028E+04  0.20513923814E+04  0.11000968056E+04 0.  0.
        3    1    3    3  502    0  0.46662381331E+03 -0.18355336708E+03 -0.44410916506E+03  0.66982279926E+03  0.10100000352E+00 0.  1.
       -3    1    3    3    0  502 -0.46662381331E+03  0.18355336708E+03 -0.12873635377E+04  0.13815695821E+04  0.10100000352E+00 0. -1.
</event>
<event>
 5   0  0.2392585E-03  0.1096519E+04  0.7818609E-02  0.9208591E-01
        2   -1    0    0  501    0  0.00000000000E+00  0.00000000000E+00  0.53847648684E+03  0.53847648685E+03  0.25500000920E-02 0. -1.
       -2   -1    0    0    0  501  0.00000000000E+00  0.00000000000E+00 -0.55822037708E+03  0.55822037709E+03  0.25500000920E-02 0.  1.
    10030    2    1    2    0    0  0.00000000000E+00  0.00000000000E+00 -0.19743890238E+02  0.10966968639E+04  0.10965191244E+04 0.  0.
        5    1    3    3  502    0 -0.58456621490E+00 -0.42910515170E+03  0.33140892826E+03  0.54220433479E+03  0.46999998093E+01 0. -1.
       -5    1    3    3    0  502  0.58456621490E+00  0.42910515170E+03 -0.35115281850E+03  0.55449252914E+03  0.46999998093E+01 0.  1.
</event>
<event>
 5   0  0.1509004E-03  0.1096628E+04  0.7818609E-02  0.9208484E-01
       -1   -1    0    0    0  501  0.00000000000E+00  0.00000000000E+00  0.40450458221E+03  0.40450458224E+03  0.50400001928E-02 0.  1.
        1   -1    0    0  501    0  0.00000000000E+00  0.00000000000E+00 -0.74325107965E+03  0.74325107967E+03  0.50400001928E-02 0. -1.
    10030    2    1    2    0    0  0.00000000000E+00  0.00000000000E+00 -0.33874649744E+03  0.11477556619E+04  0.10966284101E+04 0.  0.
        3    1    3    3  502    0  0.13964957933E+03  0.31729129013E+03 -0.61400010993E+03  0.70510418592E+03  0.10100000352E+00 0. -1.
       -3    1    3    3    0  502 -0.13964957933E+03 -0.31729129013E+03  0.27525361249E+03  0.44265147599E+03  0.10100000352E+00 0.  1.
</event>
<event>
 5   0  0.1480937E-03  0.1089126E+04  0.7818609E-02  0.9215856E-01
        1   -1    0    0  501    0  0.00000000000E+00  0.00000000000E+00  0.17790739972E+04  0.17790739972E+04  0.50400001928E-02 0.  1.
       -1   -1    0    0    0  501  0.00000000000E+00  0.00000000000E+00 -0.16668713976E+03  0.16668713984E+03  0.50400001928E-02 0. -1.
    10030    2    1    2    0    0  0.00000000000E+00  0.00000000000E+00  0.16123868574E+04  0.19457611371E+04  0.10891258074E+04 0.  0.
        1    1    3    3  502    0  0.36266148647E+02 -0.47837247081E+03  0.34585883902E+03  0.59141676584E+03  0.50400001928E-02 0.  1.
       -1    1    3    3    0  502 -0.36266148647E+02  0.47837247081E+03  0.12665280184E+04  0.13543443712E+04  0.50400001928E-02 0. -1.
</event>
<event>
 5   0  0.1509004E-03  0.1093658E+04  0.7818609E-02  0.9211396E-01
       -1   -1    0    0    0  501  0.00000000000E+00  0.00000000000E+00  0.55706586016E+03  0.55706586018E+03  0.50400001928E-02 0. -1.
        1   -1    0    0  501    0  0.00000000000E+00  0.00000000000E+00 -0.53677984899E+03  0.53677984901E+03  0.50400001928E-02 0.  1.
    10030    2    1    2    0    0  0.00000000000E+00  0.00000000000E+00  0.20286011172E+02  0.10938457092E+04  0.10936575850E+04 0.  0.
        3    1    3    3  502    0  0.40723305883E+03  0.23690897015E+03 -0.26749633929E+03  0.54177386987E+03  0.10100000352E+00 0.  1.
       -3    1    3    3    0  502 -0.40723305883E+03 -0.23690897015E+03  0.28778235046E+03  0.55207183932E+03  0.10100000352E+00 0. -1.
</event>
<event>
 5   0  0.1479573E-03  0.1099684E+04  0.7818609E-02  0.9205500E-01
       -1   -1    0    0    0  501  0.00000000000E+00  0.00000000000E+00  0.82902834746E+03  0.82902834747E+03  0.50400001928E-02 0. -1.
        1   -1    0    0  501    0  0.00000000000E+00  0.00000000000E+00 -0.36467513855E+03  0.36467513859E+03  0.50400001928E-02 0.  1.
    10030    2    1    2    0    0  0.00000000000E+00  0.00000000000E+00  0.46435320891E+03  0.11937034861E+04  0.10996836409E+04 0.  0.
        4    1    3    3  502    0  0.52588876458E+03  0.13777543023E+03  0.32157935853E+03  0.63162960556E+03  0.12699999809E+01 0.  1.
       -4    1    3    3    0  502 -0.52588876458E+03 -0.13777543023E+03  0.14277385038E+03  0.56207388050E+03  0.12699999809E+01 0. -1.
</event>
<event>
 5   0  0.1479573E-03  0.1096030E+04  0.7818609E-02  0.9209069E-01
        1   -1    0    0  501    0  0.00000000000E+00  0.00000000000E+00  0.15092538436E+04  0.15092538436E+04  0.50400001928E-02 0.  1.
       -1   -1    0    0    0  501  0.00000000000E+00  0.00000000000E+00 -0.19898620526E+03  0.19898620532E+03  0.50400001928E-02 0. -1.
    10030    2    1    2    0    0  0.00000000000E+00  0.00000000000E+00  0.13102676383E+04  0.17082400489E+04  0.10960304652E+04 0.  0.
        4    1    3    3  502    0 -0.16829113129E+03 -0.19008821841E+03 -0.10179802762E+03  0.27353224120E+03  0.12699999809E+01 0. -1.
       -4    1    3    3    0  502  0.16829113129E+03  0.19008821841E+03  0.14120656659E+04  0.14347078077E+04  0.12699999809E+01 0.  1.
</event>
<event>
 5   0  0.2438115E-03  0.1093570E+04  0.7818609E-02  0.9211482E-01
        2   -1    0    0  501    0  0.00000000000E+00  0.00000000000E+00  0.38885926025E+03  0.38885926026E+03  0.25500000920E-02 0. -1.
       -2   -1    0    0    0  501  0.00000000000E+00  0.00000000000E+00 -0.76884778393E+03  0.76884778394E+03  0.25500000920E-02 0.  1.
    10030    2    1    2    0    0  0.00000000000E+00  0.00000000000E+00 -0.37998852368E+03  0.11577070442E+04  0.10935695323E+04 0.  0.
        4    1    3    3  502    0 -0.28465687332E+03 -0.32604598974E+03  0.16372220006E+03  0.46275489694E+03  0.12699999809E+01 0. -1.
       -4    1    3    3    0  502  0.28465687332E+03  0.32604598974E+03 -0.54371072374E+03  0.69495214725E+03  0.12699999809E+01 0.  1.
</event>
<event>
 5   0  0.2392585E-03  0.1103234E+04  0.7818609E-02  0.9202046E-01
        2   -1    0    0  501    0  0.00000000000E+00  0.00000000000E+00  0.10937769690E+04  0.10937769690E+04  0.25500000920E-02 0.  1.
       -2   -1    0    0    0  501  0.00000000000E+00  0.00000000000E+00 -0.27819303898E+03  0.27819303899E+03  0.25500000920E-02 0. -1.
    10030    2    1    2    0    0  0.00000000000E+00  0.00000000000E+00  0.81558393002E+03  0.13719700080E+04  0.11032336815E+04 0.  0.
        5    1    3    3  502    0  0.47343312654E+02  0.43874657698E+03 -0.37574988142E+01  0.44133451810E+03  0.46999998093E+01 0. -1.
       -5    1    3    3    0  502 -0.47343312654E+02 -0.43874657698E+03  0.81934142883E+03  0.93063548990E+03  0.46999998093E+01 0.  1.
</event>
<event>
 5   0  0.1479573E-03  0.1101887E+04  0.7818609E-02  0.9203355E-01
        1   -1    0    0  501    0  0.00000000000E+00  0.00000000000E+00  0.56153043898E+03  0.56153043901E+03  0.50400001928E-02 0.  1.
       -1   -1    0    0    0  501  0.00000000000E+00  0.00000000000E+00 -0.54055607178E+03  0.54055607180E+03  0.50400001928E-02 0. -1.
    10030    2    1    2    0    0  0.00000000000E+00  0.00000000000E+00  0.20974367209E+02  0.11020865108E+04  0.11018869058E+04 0.  0.
        4    1    3    3  502    0 -0.52675563037E+03 -0.15722616131E+03 -0.26200729874E+02  0.55034502912E+03  0.12699999809E+01 0.  1.
       -4    1    3    3    0  502  0.52675563037E+03  0.15722616131E+03  0.47175097083E+02  0.55174148169E+03  0.12699999809E+01 0. -1.
</event>
<event>
 5   0  0.2483036E-03  0.1106567E+04  0.7818609E-02  0.9198814E-01
       -2   -1    0    0    0  501  0.00000000000E+00  0.00000000000E+00  0.45113605377E+03  0.45113605378E+03  0.25500000920E-02 0. -1.
        2   -1    0    0  501    0  0.00000000000E+00  0.00000000000E+00 -0.67856002927E+03  0.67856002928E+03  0.25500000920E-02 0.  1.
    10030    2    1    2    0    0  0.00000000000E+00  0.00000000000E+00 -0.22742397550E+03  0.11296960831E+04  0.11065674744E+04 0.  0.
        3    1    3    3  502    0 -0.18327389607E+03 -0.16498252484E+02 -0.64640467544E+03  0.67208669675E+03  0.10100000352E+00 0.  1.
       -3    1    3    3    0  502  0.18327389607E+03  0.16498252484E+02  0.41898069994E+03  0.45760938631E+03  0.10100000352E+00 0. -1.
</event>
<event>
 5   0  0.2467448E-03  0.1102589E+04  0.7818609E-02  0.9202672E-01
       -2   -1    0    0    0  501  0.00000000000E+00  0.00000000000E+00  0.21563200486E+03  0.21563200488E+03  0.25500000920E-02 0. -1.
        2   -1    0    0  501    0  0.00000000000E+00  0.00000000000E+00 -0.14094645060E+04  0.14094645060E+04  0.25500000920E-02 0.  1.
    10030    2    1    2    0    0  0.00000000000E+00  0.00000000000E+00 -0.11938325011E+04  0.16250965109E+04  0.11025890571E+04 0.  0.
        1    1    3    3  502    0  0.39021375012E+03 -0.45977585627E+02 -0.11668854048E+04  0.12312604343E+04  0.50400001928E-02 0.  1.
       -1    1    3    3    0  502 -0.39021375012E+03  0.45977585627E+02 -0.26947096329E+02  0.39383607655E+03  0.50400001928E-02 0. -1.
</event>
<event>
 5   0  0.2488472E-03  0.1111724E+04  0.7818609E-02  0.9193840E-01
        2   -1    0    0  501    0  0.00000000000E+00  0.00000000000E+00  0.46544939750E+03  0.46544939751E+03  0.25500000920E-02 0.  1.
       -2   -1    0    0    0  501  0.00000000000E+00  0.00000000000E+00 -0.66383652382E+03  0.66383652383E+03  0.25500000920E-02 0. -1.
    10030    2    1    2    0    0  0.00000000000E+00  0.00000000000E+00 -0.19838712632E+03  0.11292859213E+04  0.11117235449E+04 0.  0.
        2    1    3    3  502    0  0.55035133118E+03 -0.41872735454E+02 -0.32255700592E+02  0.55288366221E+03  0.25500000920E-02 0. -1.
       -2    1    3    3    0  502 -0.55035133118E+03  0.41872735454E+02 -0.16613142573E+03  0.57640225913E+03  0.25500000920E-02 0.  1.
</event>
<event>
 5   0  0.9631750E-04  0.1045095E+04  0.7818609E-02  0.9260423E-01
       -4   -1    0    0    0  501  0.00000000000E+00  0.00000000000E+00  0.77066663014E+03  0.77066767657E+03  0.12699999809E+01 0.  1.
        4   -1    0    0  501    0  0.00000000000E+00  0.00000000000E+00 -0.35430898882E+03  0.35431126493E+03  0.12699999809E+01 0. -1.
    10030    2    1    2    0    0  0.00000000000E+00  0.00000000000E+00  0.41635764132E+03  0.11249789415E+04  0.10450951791E+04 0.  0.
        4    1    3    3  502    0  0.43162373221E+03 -0.26415659295E+03  0.34843246182E+03  0.61439770927E+03  0.12699999809E+01 0.  1.
       -4    1    3    3    0  502 -0.43162373221E+03  0.26415659295E+03  0.67925179497E+02  0.51058123224E+03  0.12699999809E+01 0. -1.
</event>
<event>
 5   0  0.1479573E-03  0.1188339E+04  0.7818609E-02  0.9123125E-01
       -1   -1    0    0    0  501  0.00000000000E+00  0.00000000000E+00  0.44060050162E+03  0.44060050165E+03  0.50400001928E-02 0. -1.
        1   -1    0    0  501    0  0.00000000000E+00  0.00000000000E+00 -0.80126473231E+03  0.80126473233E+03  0.50400001928E-02 0.  1.
    10030    2    1    2    0    0  0.00000000000E+00  0.00000000000E+00 -0.36066423069E+03  0.12418652340E+04  0.11883394179E+04 0.  0.
        4    1    3    3  502    0  0.24403526096E+03  0.52975388666E+03 -0.61897665625E+02  0.58653671917E+03  0.12699999809E+01 0. -1.
       -4    1    3    3    0  502 -0.24403526096E+03 -0.52975388666E+03 -0.29876656506E+03  0.65532851481E+03  0.12699999809E+01 0.  1.
</event>
<event>
 5   0  0.2392585E-03  0.1096508E+04  0.7818609E-02  0.9208602E-01
       -2   -1    0    0    0  501  0.00000000000E+00  0.00000000000E+00  0.14438287701E+03  0.14438287703E+03  0.25500000920E-02 0.  1.
        2   -1    0    0  501    0  0.00000000000E+00  0.00000000000E+00 -0.20818437149E+04  0.20818437149E+04  0.25500000920E-02 0. -1.
    10030    2    1    2    0    0  0.00000000000E+00  0.00000000000E+00 -0.19374608379E+04  0.22262265919E+04  0.10965082491E+04 0.  0.
        5    1    3    3  502    0 -0.21153301755E+03  0.34851504231E+03 -0.22454905198E+03  0.46546033018E+03  0.46999998093E+01 0.  1.
       -5    1    3    3    0  502  0.21153301755E+03 -0.34851504231E+03 -0.17129117859E+04  0.17607662618E+04  0.46999998093E+01 0. -1.
</event>
<event>
 5   0  0.2392585E-03  0.1098749E+04  0.7818609E-02  0.9206412E-01
        2   -1    0    0  501    0  0.00000000000E+00  0.00000000000E+00  0.65190028955E+03  0.65190028955E+03  0.25500000920E-02 0. -1.
       -2   -1    0    0    0  501  0.00000000000E+00  0.00000000000E+00 -0.46297329171E+03  0.46297329172E+03  0.25500000920E-02 0.  1.
    10030    2    1    2    0    0  0.00000000000E+00  0.00000000000E+00  0.18892699784E+03  0.11148735813E+04  0.10987491487E+04 0.  0.
        5    1    3    3  502    0  0.14922871059E+03 -0.38920826924E+03 -0.26861170920E+03  0.49590989627E+03  0.46999998093E+01 0.  1.
       -5    1    3    3    0  502 -0.14922871059E+03  0.38920826924E+03  0.45753870704E+03  0.61896368499E+03  0.46999998093E+01 0. -1.
</event>
<event>
 5   0  0.1468556E-03  0.1099292E+04  0.7818609E-02  0.9205883E-01
        1   -1    0    0  501    0  0.00000000000E+00  0.00000000000E+00  0.44919941152E+03  0.44919941154E+03  0.50400001928E-02 0.  1.
       -1   -1    0    0    0  501  0.00000000000E+00  0.00000000000E+00 -0.67255324114E+03  0.67255324116E+03  0.50400001928E-02 0. -1.
    10030    2    1    2    0    0  0.00000000000E+00  0.00000000000E+00 -0.22335382962E+03  0.11217526527E+04  0.10992916267E+04 0.  0.
        5    1    3    3  502    0  0.31962135574E+03 -0.35585232048E+03  0.16459416014E+03  0.50586758404E+03  0.46999998093E+01 0.  1.
       -5    1    3    3    0  502 -0.31962135574E+03  0.35585232048E+03 -0.38794798976E+03  0.61588506866E+03  0.46999998093E+01 0. -1.
</event>
<event>
 5   0  0.1479573E-03  0.1096268E+04  0.7818609E-02  0.9208837E-01
        1   -1    0    0  501    0  0.00000000000E+00  0.00000000000E+00  0.76455936079E+03  0.76455936080E+03  0.50400001928E-02 0. -1.
       -1   -1    0    0    0  501  0.00000000000E+00  0.00000000000E+00 -0.39297268606E+03  0.39297268609E+03  0.50400001928E-02 0.  1.
    10030    2    1    2    0    0  0.00000000000E+00  0.00000000000E+00  0.37158667473E+03  0.11575320469E+04  0.10962681163E+04 0.  0.
        4    1    3    3  502    0  0.22805997696E+03  0.49746355778E+03  0.21864454281E+03  0.58931179643E+03  0.12699999809E+01 0.  1.
       -4    1    3    3    0  502 -0.22805997696E+03 -0.49746355778E+03  0.15294213192E+03  0.56822025046E+03  0.12699999809E+01 0. -1.
</event>
<event>
 5   0  0.1509004E-03  0.1101624E+04  0.7818609E-02  0.9203610E-01
        1   -1    0    0  501    0  0.00000000000E+00  0.00000000000E+00  0.24976356072E+03  0.24976356078E+03  0.50400001928E-02 0. -1.
       -1   -1    0    0    0  501  0.00000000000E+00  0.00000000000E+00 -0.12147243759E+04  0.12147243759E+04  0.50400001928E-02 0.  1.
    10030    2    1    2    0    0  0.00000000000E+00  0.00000000000E+00 -0.96496081519E+03  0.14644879367E+04  0.11016240474E+04 0.  0.
        3    1    3    3  502    0  0.66668733316E+02 -0.54278160325E+03 -0.39492934051E+03  0.67455598954E+03  0.10100000352E+00 0.  1.
       -3    1    3    3    0  502 -0.66668733316E+02  0.54278160325E+03 -0.57003147468E+03  0.78993194716E+03  0.10100000352E+00 0. -1.
</event>
<event>
 5   0  0.9631750E-04  0.1087193E+04  0.7818609E-02  0.9217765E-01
       -3   -1    0    0    0  501  0.00000000000E+00  0.00000000000E+00  0.23677231174E+03  0.23677233328E+03  0.10100000352E+00 0.  1.
        3   -1    0    0  501    0  0.00000000000E+00  0.00000000000E+00 -0.12480233572E+04  0.12480233613E+04  0.10100000352E+00 0. -1.
    10030    2    1    2    0    0  0.00000000000E+00  0.00000000000E+00 -0.10112510454E+04  0.14847956946E+04  0.10871934408E+04 0.  0.
        3    1    3    3  502    0 -0.24082549284E+03 -0.44473900288E+03 -0.23348252593E+03  0.55704918885E+03  0.10100000352E+00 0.  1.
       -3    1    3    3    0  502  0.24082549284E+03  0.44473900288E+03 -0.77776851952E+03  0.92774650570E+03  0.10100000352E+00 0. -1.
</event>
<event>
 5   0  0.1468556E-03  0.1102614E+04  0.7818609E-02  0.9202648E-01
        1   -1    0    0  501    0  0.00000000000E+00  0.00000000000E+00  0.31203341791E+03  0.31203341795E+03  0.50400001928E-02 0.  1.
       -1   -1    0    0    0  501  0.00000000000E+00  0.00000000000E+00 -0.97406059564E+03  0.97406059565E+03  0.50400001928E-02 0. -1.
    10030    2    1    2    0    0  0.00000000000E+00  0.00000000000E+00 -0.66202717773E+03  0.12860940136E+04  0.11026140883E+04 0.  0.
        5    1    3    3  502    0 -0.49049551581E+03  0.21457327131E+03 -0.48438503244E+03  0.72199618381E+03  0.46999998093E+01 0. -1.
       -5    1    3    3    0  502  0.49049551581E+03 -0.21457327131E+03 -0.17764214529E+03  0.56409782979E+03  0.46999998093E+01 0.  1.
</event>
<event>
 5   0  0.1479573E-03  0.1092034E+04  0.7818609E-02  0.9212991E-01
        1   -1    0    0  501    0  0.00000000000E+00  0.00000000000E+00  0.10813820757E+04  0.10813820758E+04  0.50400001928E-02 0. -1.
       -1   -1    0    0    0  501  0.00000000000E+00  0.00000000000E+00 -0.27569763798E+03  0.27569763802E+03  0.50400001928E-02 0.  1.
    10030    2    1    2    0    0  0.00000000000E+00  0.00000000000E+00  0.80568443777E+03  0.13570797138E+04  0.10920338531E+04 0.  0.
        4    1    3    3  502    0  0.31716632047E+03 -0.27741746684E+03 -0.28680034064E+02  0.42234947970E+03  0.12699999809E+01 0.  1.
       -4    1    3    3    0  502 -0.31716632047E+03  0.27741746684E+03  0.83436447183E+03  0.93473023408E+03  0.12699999809E+01 0. -1.
</event>
<event>
 5   0  0.9631750E-04  0.1095468E+04  0.7818609E-02  0.9209620E-01
        3   -1    0    0  501    0  0.00000000000E+00  0.00000000000E+00  0.40143728615E+03  0.40143729886E+03  0.10100000352E+00 0.  1.
       -3   -1    0    0    0  501  0.00000000000E+00  0.00000000000E+00 -0.74734606322E+03  0.74734607004E+03  0.10100000352E+00 0. -1.
    10030    2    1    2    0    0  0.00000000000E+00  0.00000000000E+00 -0.34590877707E+03  0.11487833689E+04  0.10954680947E+04 0.  0.
        4    1    3    3  502    0  0.47991895298E+03 -0.15903755271E+03  0.48003490227E+02  0.50785932361E+03  0.12699999809E+01 0.  1.
       -4    1    3    3    0  502 -0.47991895298E+03  0.15903755271E+03 -0.39391226729E+03  0.64092404529E+03  0.12699999809E+01 0. -1.
</event>
<event>
 5   0  0.2467448E-03  0.1095586E+04  0.7818609E-02  0.9209505E-01
        2   -1    0    0  501    0  0.00000000000E+00  0.00000000000E+00  0.10784710336E+04  0.10784710336E+04  0.25500000920E-02 0. -1.
       -2   -1    0    0    0  501  0.00000000000E+00  0.00000000000E+00 -0.27824325675E+03  0.27824325676E+03  0.25500000920E-02 0.  1.
    10030    2    1    2    0    0  0.00000000000E+00  0.00000000000E+00  0.80022777684E+03  0.13567142903E+04  0.10955862224E+04 0.  0.
        1    1    3    3  502    0 -0.13648844613E+03  0.95527188373E+02  0.10463389577E+04  0.10595186426E+04  0.50400001928E-02 0. -1.
       -1    1    3    3    0  502  0.13648844613E+03 -0.95527188373E+02 -0.24611118087E+03  0.29719564772E+03  0.50400001928E-02 0.  1.
</event>
<event>
 5   0  0.1480937E-03  0.1099692E+04  0.7818609E-02  0.9205492E-01
        1   -1    0    0  501    0  0.00000000000E+00  0.00000000000E+00  0.51144808298E+03  0.51144808300E+03  0.50400001928E-02 0. -1.
       -1   -1    0    0    0  501  0.00000000000E+00  0.00000000000E+00 -0.59112633226E+03  0.59112633228E+03  0.50400001928E-02 0.  1.
    10030    2    1    2    0    0  0.00000000000E+00  0.00000000000E+00 -0.79678249287E+02  0.11025744153E+04  0.10996916467E+04 0.  0.
        1    1    3    3  502    0 -0.12941621401E+03  0.45924312363E+02  0.49397824946E+03  0.51271055176E+03  0.50400001928E-02 0. -1.
       -1    1    3    3    0  502  0.12941621401E+03 -0.45924312363E+02 -0.57365649875E+03  0.58986386353E+03  0.50400001928E-02 0.  1.
</event>
<event>
 5   0  0.2438115E-03  0.1100087E+04  0.7818609E-02  0.9205107E-01
       -2   -1    0    0    0  501  0.00000000000E+00  0.00000000000E+00  0.16875320531E+03  0.16875320533E+03  0.25500000920E-02 0. -1.
        2   -1    0    0  501    0  0.00000000000E+00  0.00000000000E+00 -0.17928418414E+04  0.17928418414E+04  0.25500000920E-02 0.  1.
    10030    2    1    2    0    0  0.00000000000E+00  0.00000000000E+00 -0.16240886361E+04  0.19615950467E+04  0.11000869190E+04 0.  0.
        4    1    3    3  502    0  0.91088066862E+02 -0.52808399719E+03 -0.10331553452E+04  0.11638648221E+04  0.12699999809E+01 0.  1.
       -4    1    3    3    0  502 -0.91088066862E+02  0.52808399719E+03 -0.59093329088E+03  0.79773022457E+03  0.12699999809E+01 0. -1.
</event>
<event>
 5   0  0.2392585E-03  0.1103198E+04  0.7818609E-02  0.9202081E-01
        2   -1    0    0  501    0  0.00000000000E+00  0.00000000000E+00  0.42514901977E+03  0.42514901977E+03  0.25500000920E-02 0. -1.
       -2   -1    0    0    0  501  0.00000000000E+00  0.00000000000E+00 -0.71565830399E+03  0.71565830400E+03  0.25500000920E-02 0.  1.
    10030    2    1    2    0    0  0.00000000000E+00  0.00000000000E+00 -0.29050928423E+03  0.11408073238E+04  0.11031979450E+04 0.  0.
        5    1    3    3  502    0 -0.37563032139E+03 -0.38994211449E+03 -0.25413588250E+03  0.59813052737E+03  0.46999998093E+01 0. -1.
       -5    1    3    3    0  502  0.37563032139E+03  0.38994211449E+03 -0.36373401724E+02  0.54267679640E+03  0.46999998093E+01 0.  1.
</event>
<event>
 5   0  0.9631750E-04  0.1087489E+04  0.7818609E-02  0.9217473E-01
        4   -1    0    0  501    0  0.00000000000E+00  0.00000000000E+00  0.29651863158E+03  0.29652135129E+03  0.12699999809E+01 0.  1.
       -4   -1    0    0    0  501  0.00000000000E+00  0.00000000000E+00 -0.99708984658E+03  0.99709065538E+03  0.12699999809E+01 0. -1.
    10030    2    1    2    0    0  0.00000000000E+00  0.00000000000E+00 -0.70057121501E+03  0.12936120067E+04  0.10874888489E+04 0.  0.
        5    1    3    3  502    0 -0.51580234572E+02  0.12613341878E+03  0.27585323531E+03  0.30771294637E+03  0.46999998093E+01 0.  1.
       -5    1    3    3    0  502  0.51580234572E+02 -0.12613341878E+03 -0.97642445032E+03  0.98589906031E+03  0.46999998093E+01 0. -1.
</event>
<event>
 5   0  0.1480937E-03  0.1096112E+04  0.7818609E-02  0.9208990E-01
       -1   -1    0    0    0  501  0.00000000000E+00  0.00000000000E+00  0.32565345210E+03  0.32565345214E+03  0.50400001928E-02 0. -1.
        1   -1    0    0  501    0  0.00000000000E+00  0.00000000000E+00 -0.92234668391E+03  0.92234668393E+03  0.50400001928E-02 0.  1.
    10030    2    1    2    0    0  0.00000000000E+00  0.00000000000E+00 -0.59669323181E+03  0.12480001361E+04  0.10961120046E+04 0.  0.
        1    1    3    3  502    0 -0.24224824611E+02  0.28595071090E+03  0.23327010650E+03  0.36982373342E+03  0.50400001928E-02 0. -1.
       -1    1    3    3    0  502  0.24224824611E+02 -0.28595071090E+03 -0.82996333831E+03  0.87817640264E+03  0.50400001928E-02 0.  1.
</event>
<event>
 5   0  0.2488472E-03  0.1110827E+04  0.7818609E-02  0.9194703E-01
        2   -1    0    0  501    0  0.00000000000E+00  0.00000000000E+00  0.11659296870E+04  0.11659296870E+04  0.25500000920E-02 0.  1.
       -2   -1    0    0    0  501  0.00000000000E+00  0.00000000000E+00 -0.26458197333E+03  0.26458197334E+03  0.25500000920E-02 0. -1.
    10030    2    1    2    0    0  0.00000000000E+00  0.00000000000E+00  0.90134771364E+03  0.14305116603E+04  0.11108266784E+04 0.  0.
        2    1    3    3  502    0 -0.20346846104E+03  0.51389611424E+03  0.52115430109E+03  0.75966468683E+03  0.25500000920E-02 0. -1.
       -2    1    3    3    0  502  0.20346846104E+03 -0.51389611424E+03  0.38019341255E+03  0.67084697347E+03  0.25500000920E-02 0.  1.
</event>
<event>
 5   0  0.1509004E-03  0.1094951E+04  0.7818609E-02  0.9210127E-01
        1   -1    0    0  501    0  0.00000000000E+00  0.00000000000E+00  0.45054112022E+03  0.45054112025E+03  0.50400001928E-02 0.  1.
       -1   -1    0    0    0  501  0.00000000000E+00  0.00000000000E+00 -0.66526531737E+03  0.66526531739E+03  0.50400001928E-02 0. -1.
    10030    2    1    2    0    0  0.00000000000E+00  0.00000000000E+00 -0.21472419715E+03  0.11158064376E+04  0.10949509238E+04 0.  0.
        3    1    3    3  502    0 -0.46495764449E+03  0.26075661048E+03 -0.23443586868E+03  0.58235711364E+03  0.10100000352E+00 0.  1.
       -3    1    3    3    0  502  0.46495764449E+03 -0.26075661048E+03  0.19711671520E+02  0.53344932400E+03  0.10100000352E+00 0. -1.
</event>
<event>
 5   0  0.1509004E-03  0.1102236E+04  0.7818609E-02  0.9203015E-01
        1   -1    0    0  501    0  0.00000000000E+00  0.00000000000E+00  0.79088375239E+03  0.79088375240E+03  0.50400001928E-02 0.  1.
       -1   -1    0    0    0  501  0.00000000000E+00  0.00000000000E+00 -0.38404019355E+03  0.38404019359E+03  0.50400001928E-02 0. -1.
    10030    2    1    2    0    0  0.00000000000E+00  0.00000000000E+00  0.40684355883E+03  0.11749239460E+04  0.11022361804E+04 0.  0.
        3    1    3    3  502    0  0.11783885552E+03 -0.36308933035E+02 -0.36914767547E+03  0.38919705934E+03  0.10100000352E+00 0. -1.
       -3    1    3    3    0  502 -0.11783885552E+03  0.36308933035E+02  0.77599123431E+03  0.78572688665E+03  0.10100000352E+00 0.  1.
</event>
<event>
 5   0  0.2488472E-03  0.1095622E+04  0.7818609E-02  0.9209470E-01
        2   -1    0    0  501    0  0.00000000000E+00  0.00000000000E+00  0.34245164564E+03  0.34245164565E+03  0.25500000920E-02 0. -1.
       -2   -1    0    0    0  501  0.00000000000E+00  0.00000000000E+00 -0.87631849256E+03  0.87631849257E+03  0.25500000920E-02 0.  1.
    10030    2    1    2    0    0  0.00000000000E+00  0.00000000000E+00 -0.53386684692E+03  0.12187701382E+04  0.10956216681E+04 0.  0.
        2    1    3    3  502    0  0.34977623643E+03 -0.31353388601E+03  0.46617141067E+02  0.47203820936E+03  0.25500000920E-02 0. -1.
       -2    1    3    3    0  502 -0.34977623643E+03  0.31353388601E+03 -0.58048398799E+03  0.74673192885E+03  0.25500000920E-02 0.  1.
</event>
<event>
 5   0  0.1468556E-03  0.1097851E+04  0.7818609E-02  0.9207289E-01
        1   -1    0    0  501    0  0.00000000000E+00  0.00000000000E+00  0.76044052454E+03  0.76044052456E+03  0.50400001928E-02 0.  1.
       -1   -1    0    0    0  501  0.00000000000E+00  0.00000000000E+00 -0.39624260977E+03  0.39624260980E+03  0.50400001928E-02 0. -1.
    10030    2    1    2    0    0  0.00000000000E+00  0.00000000000E+00  0.36419791477E+03  0.11566831344E+04  0.10978505145E+04 0.  0.
        5    1    3    3  502    0 -0.26227857530E+03  0.12873751018E+03  0.67168739833E+03  0.73249535744E+03  0.46999998093E+01 0.  1.
       -5    1    3    3    0  502  0.26227857530E+03 -0.12873751018E+03 -0.30748948356E+03  0.42418777692E+03  0.46999998093E+01 0. -1.
</event>
<event>
 5   0  0.2483036E-03  0.1068838E+04  0.7818609E-02  0.9236108E-01
       -2   -1    0    0    0  501  0.00000000000E+00  0.00000000000E+00  0.43909736642E+03  0.43909736643E+03  0.25500000920E-02 0.  1.
        2   -1    0    0  501    0  0.00000000000E+00  0.00000000000E+00 -0.65043353589E+03  0.65043353589E+03  0.25500000920E-02 0. -1.
    10030    2    1    2    0    0  0.00000000000E+00  0.00000000000E+00 -0.21133616946E+03  0.10895309023E+04  0.10688379721E+04 0.  0.
        3    1    3    3  502    0 -0.31404785433E+02 -0.26271298245E+03  0.36764806393E+03  0.45295637848E+03  0.10100000352E+00 0.  1.
       -3    1    3    3    0  502  0.31404785433E+02  0.26271298245E+03 -0.57898423339E+03  0.63657452384E+03  0.10100000352E+00 0. -1.
</event>
<event>
 5   0  0.2483036E-03  0.1097962E+04  0.7818609E-02  0.9207181E-01
       -2   -1    0    0    0  501  0.00000000000E+00  0.00000000000E+00  0.20759581064E+03  0.20759581066E+03  0.25500000920E-02 0. -1.
        2   -1    0    0  501    0  0.00000000000E+00  0.00000000000E+00 -0.14517631504E+04  0.14517631504E+04  0.25500000920E-02 0.  1.
    10030    2    1    2    0    0  0.00000000000E+00  0.00000000000E+00 -0.12441673397E+04  0.16593589611E+04  0.10979616534E+04 0.  0.
        3    1    3    3  502    0 -0.51483099996E+02 -0.19060720861E+03  0.15208162397E+03  0.24921967842E+03  0.10100000352E+00 0. -1.
       -3    1    3    3    0  502  0.51483099996E+02  0.19060720861E+03 -0.13962489637E+04  0.14101392826E+04  0.10100000352E+00 0.  1.
</event>
<event>
 5   0  0.2488472E-03  0.1094695E+04  0.7818609E-02  0.9210378E-01
        2   -1    0    0  501    0  0.00000000000E+00  0.00000000000E+00  0.13897139357E+04  0.13897139357E+04  0.25500000920E-02 0.  1.
       -2   -1    0    0    0  501  0.00000000000E+00  0.00000000000E+00 -0.21557607415E+03  0.21557607416E+03  0.25500000920E-02 0. -1.
    10030    2    1    2    0    0  0.00000000000E+00  0.00000000000E+00  0.11741378616E+04  0.16052900099E+04  0.10946946140E+04 0.  0.
        2    1    3    3  502    0 -0.36641852368E+02  0.80431647735E+02  0.13791802096E+04  0.13820093798E+04  0.25500000920E-02 0.  1.
       -2    1    3    3    0  502  0.36641852368E+02 -0.80431647735E+02 -0.20504234800E+03  0.22328063011E+03  0.25500000920E-02 0. -1.
</event>
<event>
 5   0  0.1479573E-03  0.1094391E+04  0.7818609E-02  0.9210676E-01
        1   -1    0    0  501    0  0.00000000000E+00  0.00000000000E+00  0.10675745953E+04  0.10675745953E+04  0.50400001928E-02 0.  1.
       -1   -1    0    0    0  501  0.00000000000E+00  0.00000000000E+00 -0.28047013529E+03  0.28047013534E+03  0.50400001928E-02 0. -1.
    10030    2    1    2    0    0  0.00000000000E+00  0.00000000000E+00  0.78710446001E+03  0.13480447307E+04  0.10943907734E+04 0.  0.
        4    1    3    3  502    0  0.15292908876E+03  0.50643957601E+03  0.22131117777E+03  0.57345322446E+03  0.12699999809E+01 0. -1.
       -4    1    3    3    0  502 -0.15292908876E+03 -0.50643957601E+03  0.56579328225E+03  0.77459150620E+03  0.12699999809E+01 0.  1.
</event>
<event>
 5   0  0.2467448E-03  0.1106631E+04  0.7818609E-02  0.9198753E-01
       -2   -1    0    0    0  501  0.00000000000E+00  0.00000000000E+00  0.13304489175E+04  0.13304489175E+04  0.25500000920E-02 0.  1.
        2   -1    0    0  501    0  0.00000000000E+00  0.00000000000E+00 -0.23011614819E+03  0.23011614821E+03  0.25500000920E-02 0. -1.
    10030    2    1    2    0    0  0.00000000000E+00  0.00000000000E+00  0.11003327693E+04  0.15605650657E+04  0.11066305260E+04 0.  0.
        1    1    3    3  502    0 -0.83420312869E+02 -0.19239412569E+03 -0.17190772612E+03  0.27115809876E+03  0.50400001928E-02 0. -1.
       -1    1    3    3    0  502  0.83420312869E+02  0.19239412569E+03  0.12722404954E+04  0.12894069670E+04  0.50400001928E-02 0.  1.
</event>
<event>
 5   0  0.2488472E-03  0.1090061E+04  0.7818609E-02  0.9214933E-01
       -2   -1    0    0    0  501  0.00000000000E+00  0.00000000000E+00  0.13994240237E+03  0.13994240239E+03  0.25500000920E-02 0. -1.
        2   -1    0    0  501    0  0.00000000000E+00  0.00000000000E+00 -0.21227184173E+04  0.21227184173E+04  0.25500000920E-02 0.  1.
    10030    2    1    2    0    0  0.00000000000E+00  0.00000000000E+00 -0.19827760149E+04  0.22626608197E+04  0.10900611265E+04 0.  0.
        2    1    3    3  502    0 -0.14980153024E+03 -0.13441255589E+03 -0.20427578828E+04  0.20526487769E+04  0.25500000920E-02 0.  1.
       -2    1    3    3    0  502  0.14980153024E+03  0.13441255589E+03  0.59981867844E+02  0.21001204280E+03  0.25500000920E-02 0. -1.
</event>
<event>
 5   0  0.2467448E-03  0.1090648E+04  0.7818609E-02  0.9214355E-01
        2   -1    0    0  501    0  0.00000000000E+00  0.00000000000E+00  0.24191227232E+04  0.24191227232E+04  0.25500000920E-02 0. -1.
       -2   -1    0    0    0  501  0.00000000000E+00  0.00000000000E+00 -0.12292819761E+03  0.12292819764E+03  0.25500000920E-02 0.  1.
    10030    2    1    2    0    0  0.00000000000E+00  0.00000000000E+00  0.22961945256E+04  0.25420509209E+04  0.10906482406E+04 0.  0.
        1    1    3    3  502    0 -0.42731847011E+03  0.28705697029E+03  0.72871643732E+03  0.89220537161E+03  0.50400001928E-02 0.  1.
       -1    1    3    3    0  502  0.42731847011E+03 -0.28705697029E+03  0.15674780883E+04  0.16498455492E+04  0.50400001928E-02 0. -1.
</event>
<event>
 5   0  0.2483036E-03  0.1105365E+04  0.7818609E-02  0.9199978E-01
       -2   -1    0    0    0  501  0.00000000000E+00  0.00000000000E+00  0.16076327640E+03  0.16076327642E+03  0.25500000920E-02 0. -1.
        2   -1    0    0  501    0  0.00000000000E+00  0.00000000000E+00 -0.19000489839E+04  0.19000489839E+04  0.25500000920E-02 0.  1.
    10030    2    1    2    0    0  0.00000000000E+00  0.00000000000E+00 -0.17392857075E+04  0.20608122604E+04  0.11053652790E+04 0.  0.
        3    1    3    3  502    0 -0.36162841249E+03  0.41143719218E+03 -0.10066763383E+04  0.11460597420E+04  0.10100000352E+00 0. -1.
       -3    1    3    3    0  502  0.36162841249E+03 -0.41143719218E+03 -0.73260936922E+03  0.91475251839E+03  0.10100000352E+00 0.  1.
</event>
<event>
 5   0  0.9631750E-04  0.1114645E+04  0.7818609E-02  0.9191034E-01
        4   -1    0    0  501    0  0.00000000000E+00  0.00000000000E+00  0.38849915295E+03  0.38850122875E+03  0.12699999809E+01 0.  1.
       -4   -1    0    0    0  501  0.00000000000E+00  0.00000000000E+00 -0.79950443601E+03  0.79950544469E+03  0.12699999809E+01 0. -1.
    10030    2    1    2    0    0  0.00000000000E+00  0.00000000000E+00 -0.41100528306E+03  0.11880066734E+04  0.11146454654E+04 0.  0.
        3    1    3    3  502    0  0.12241750239E+03  0.60877201586E+02  0.37035015174E+03  0.39478009532E+03  0.10100000352E+00 0.  1.
       -3    1    3    3    0  502 -0.12241750239E+03 -0.60877201586E+02 -0.78135543480E+03  0.79322657813E+03  0.10100000352E+00 0. -1.
</event>
<event>
 5   0  0.2467448E-03  0.1105941E+04  0.7818609E-02  0.9199420E-01
        2   -1    0    0  501    0  0.00000000000E+00  0.00000000000E+00  0.67293782038E+03  0.67293782039E+03  0.25500000920E-02 0. -1.
       -2   -1    0    0    0  501  0.00000000000E+00  0.00000000000E+00 -0.45439048418E+03  0.45439048419E+03  0.25500000920E-02 0.  1.
    10030    2    1    2    0    0  0.00000000000E+00  0.00000000000E+00  0.21854733620E+03  0.11273283046E+04  0.11059413041E+04 0.  0.
        1    1    3    3  502    0  0.16165269947E+02 -0.14644488307E+03  0.65256196236E+03  0.66898769381E+03  0.50400001928E-02 0. -1.
       -1    1    3    3    0  502 -0.16165269947E+02  0.14644488307E+03 -0.43401462616E+03  0.45834061077E+03  0.50400001928E-02 0.  1.
</event>
<event>
 5   0  0.2438115E-03  0.1107650E+04  0.7818609E-02  0.9197767E-01
        2   -1    0    0  501    0  0.00000000000E+00  0.00000000000E+00  0.65479136888E+03  0.65479136889E+03  0.25500000920E-02 0. -1.
       -2   -1    0    0    0  501  0.00000000000E+00  0.00000000000E+00 -0.46842755057E+03  0.46842755057E+03  0.25500000920E-02 0.  1.
    10030    2    1    2    0    0  0.00000000000E+00  0.00000000000E+00  0.18636381831E+03  0.11232189195E+04  0.11076503366E+04 0.  0.
        4    1    3    3  502    0  0.11923669772E+03 -0.13753886978E+02  0.64144201003E+03  0.65257645117E+03  0.12699999809E+01 0. -1.
       -4    1    3    3    0  502 -0.11923669772E+03  0.13753886978E+02 -0.45507819171E+03  0.47064246829E+03  0.12699999809E+01 0.  1.
</event>
<event>
 5   0  0.1480937E-03  0.1101407E+04  0.7818609E-02  0.9203822E-01
       -1   -1    0    0    0  501  0.00000000000E+00  0.00000000000E+00  0.76102048410E+03  0.76102048412E+03  0.50400001928E-02 0. -1.
        1   -1    0    0  501    0  0.00000000000E+00  0.00000000000E+00 -0.39850986598E+03  0.39850986601E+03  0.50400001928E-02 0.  1.
    10030    2    1    2    0    0  0.00000000000E+00  0.00000000000E+00  0.36251061812E+03  0.11595303501E+04  0.11014066845E+04 0.  0.
        1    1    3    3  502    0 -0.49295531287E+02 -0.33186714318E+03  0.64100265838E+03  0.72349862349E+03  0.50400001928E-02 0. -1.
       -1    1    3    3    0  502  0.49295531287E+02  0.33186714318E+03 -0.27849204025E+03  0.43603172664E+03  0.50400001928E-02 0.  1.
</event>
<event>
 5   0  0.1415400E-03  0.1014979E+04  0.7818609E-02  0.9292267E-01
        1   -1    0    0  501    0  0.00000000000E+00  0.00000000000E+00  0.78258537598E+03  0.78258537600E+03  0.50400001928E-02 0.  1.
       -1   -1    0    0    0  501  0.00000000000E+00  0.00000000000E+00 -0.32909557949E+03  0.32909557953E+03  0.50400001928E-02 0. -1.
    10030    2    1    2    0    0  0.00000000000E+00  0.00000000000E+00  0.45348979649E+03  0.11116809555E+04  0.10149785965E+04 0.  0.
        2    1    3    3  502    0  0.48714562142E+03  0.95066849573E+02  0.34264150909E+03  0.60311836825E+03  0.25500000920E-02 0.  1.
       -2    1    3    3    0  502 -0.48714562142E+03 -0.95066849573E+02  0.11084828740E+03  0.50856258729E+03  0.25500000920E-02 0. -1.
</event>
<event>
 5   0  0.1468556E-03  0.1097362E+04  0.7818609E-02  0.9207767E-01
        1   -1    0    0  501    0  0.00000000000E+00  0.00000000000E+00  0.34393729858E+03  0.34393729862E+03  0.50400001928E-02 0.  1.
       -1   -1    0    0    0  501  0.00000000000E+00  0.00000000000E+00 -0.87530781433E+03  0.87530781434E+03  0.50400001928E-02 0. -1.
    10030    2    1    2    0    0  0.00000000000E+00  0.00000000000E+00 -0.53137051575E+03  0.12192451130E+04  0.10973623014E+04 0.  0.
        5    1    3    3  502    0 -0.53751987887E+03 -0.29138222139E+02 -0.38354374065E+03  0.66098755447E+03  0.46999998093E+01 0. -1.
       -5    1    3    3    0  502  0.53751987887E+03  0.29138222139E+02 -0.14782677510E+03  0.55825755849E+03  0.46999998093E+01 0.  1.
</event>
<event>
 5   0  0.9631750E-04  0.1114112E+04  0.7818609E-02  0.9191546E-01
        3   -1    0    0  501    0  0.00000000000E+00  0.00000000000E+00  0.83508047870E+03  0.83508048481E+03  0.10100000352E+00 0.  1.
       -3   -1    0    0    0  501  0.00000000000E+00  0.00000000000E+00 -0.37159444300E+03  0.37159445673E+03  0.10100000352E+00 0. -1.
    10030    2    1    2    0    0  0.00000000000E+00  0.00000000000E+00  0.46348603570E+03  0.12066749415E+04  0.11141118028E+04 0.  0.
        2    1    3    3  502    0  0.51905982209E+03 -0.17848404446E+03  0.33467360490E+03  0.64287329612E+03  0.25500000920E-02 0.  1.
       -2    1    3    3    0  502 -0.51905982209E+03  0.17848404446E+03  0.12881243079E+03  0.56380164542E+03  0.25500000920E-02 0. -1.
</event>
<event>
 5   0  0.1509004E-03  0.1084132E+04  0.7818609E-02  0.9220798E-01
       -1   -1    0    0    0  501  0.00000000000E+00  0.00000000000E+00  0.54436031635E+03  0.54436031638E+03  0.50400001928E-02 0.  1.
        1   -1    0    0  501    0  0.00000000000E+00  0.00000000000E+00 -0.53978096875E+03  0.53978096878E+03  0.50400001928E-02 0. -1.
    10030    2    1    2    0    0  0.00000000000E+00  0.00000000000E+00  0.45793476015E+01  0.10841412852E+04  0.10841316137E+04 0.  0.
        3    1    3    3  502    0 -0.44293409642E+03 -0.31044226820E+03 -0.33352095816E+02  0.54192009389E+03  0.10100000352E+00 0.  1.
       -3    1    3    3    0  502  0.44293409642E+03  0.31044226820E+03  0.37931443418E+02  0.54222119127E+03  0.10100000352E+00 0. -1.
</event>
<event>
 5   0  0.2438115E-03  0.1099478E+04  0.7818609E-02  0.9205701E-01
       -2   -1    0    0    0  501  0.00000000000E+00  0.00000000000E+00  0.18181267127E+03  0.18181267129E+03  0.25500000920E-02 0. -1.
        2   -1    0    0  501    0  0.00000000000E+00  0.00000000000E+00 -0.16622205061E+04  0.16622205061E+04  0.25500000920E-02 0.  1.
    10030    2    1    2    0    0  0.00000000000E+00  0.00000000000E+00 -0.14804078348E+04  0.18440331774E+04  0.10994776041E+04 0.  0.
        4    1    3    3  502    0 -0.25434932935E+03  0.32486361400E+03 -0.13089384054E+03  0.43285651136E+03  0.12699999809E+01 0. -1.
       -4    1    3    3    0  502  0.25434932935E+03 -0.32486361400E+03 -0.13495139943E+04  0.14111766660E+04  0.12699999809E+01 0.  1.
</event>
<event>
 5   0  0.1480937E-03  0.1101884E+04  0.7818609E-02  0.9203357E-01
       -1   -1    0    0    0  501  0.00000000000E+00  0.00000000000E+00  0.23332988553E+03  0.23332988559E+03  0.50400001928E-02 0.  1.
        1   -1    0    0  501    0  0.00000000000E+00  0.00000000000E+00 -0.13008933646E+04  0.13008933646E+04  0.50400001928E-02 0. -1.
    10030    2    1    2    0    0  0.00000000000E+00  0.00000000000E+00 -0.10675634791E+04  0.15342232502E+04  0.11018843858E+04 0.  0.
        1    1    3    3  502    0  0.51761317196E+03 -0.18673460261E+03 -0.49580077985E+03  0.74068321225E+03  0.50400001928E-02 0. -1.
       -1    1    3    3    0  502 -0.51761317196E+03  0.18673460261E+03 -0.57176269925E+03  0.79354003798E+03  0.50400001928E-02 0.  1.
</event>
<event>
 5   0  0.2392585E-03  0.1097148E+04  0.7818609E-02  0.9207976E-01
        2   -1    0    0  501    0  0.00000000000E+00  0.00000000000E+00  0.59839689405E+03  0.59839689405E+03  0.25500000920E-02 0. -1.
       -2   -1    0    0    0  501  0.00000000000E+00  0.00000000000E+00 -0.50289925916E+03  0.50289925916E+03  0.25500000920E-02 0.  1.
    10030    2    1    2    0    0  0.00000000000E+00  0.00000000000E+00  0.95497634888E+02  0.11012961532E+04  0.10971478564E+04 0.  0.
        5    1    3    3  502    0 -0.23463034304E+03  0.48493626707E+03  0.15156463788E+03  0.55965034660E+03  0.46999998093E+01 0. -1.
       -5    1    3    3    0  502  0.23463034304E+03 -0.48493626707E+03 -0.56067002995E+02  0.54164580661E+03  0.46999998093E+01 0.  1.
</event>
<event>
 5   0  0.2392585E-03  0.1097925E+04  0.7818609E-02  0.9207216E-01
       -2   -1    0    0    0  501  0.00000000000E+00  0.00000000000E+00  0.54724961347E+03  0.54724961348E+03  0.25500000920E-02 0.  1.
        2   -1    0    0  501    0  0.00000000000E+00  0.00000000000E+00 -0.55068108904E+03  0.55068108905E+03  0.25500000920E-02 0. -1.
    10030    2    1    2    0    0  0.00000000000E+00  0.00000000000E+00 -0.34314755686E+01  0.10979307025E+04  0.10979253401E+04 0.  0.
        5    1    3    3  502    0  0.10521504328E+03 -0.42839537183E+03  0.32500457978E+03  0.54794421870E+03  0.46999998093E+01 0.  1.
       -5    1    3    3    0  502 -0.10521504328E+03  0.42839537183E+03 -0.32843605535E+03  0.54998648382E+03  0.46999998093E+01 0. -1.
</event>
<event>
 5   0  0.2392585E-03  0.1111829E+04  0.7818609E-02  0.9193738E-01
        2   -1    0    0  501    0  0.00000000000E+00  0.00000000000E+00  0.10151115098E+04  0.10151115098E+04  0.25500000920E-02 0. -1.
       -2   -1    0    0    0  501  0.00000000000E+00  0.00000000000E+00 -0.30444047609E+03  0.30444047610E+03  0.25500000920E-02 0.  1.
    10030    2    1    2    0    0  0.00000000000E+00  0.00000000000E+00  0.71067103373E+03  0.13195519859E+04  0.11118291799E+04 0.  0.
        5    1    3    3  502    0  0.88213815869E+02  0.47166924704E+03  0.22249701826E+02  0.48038598558E+03  0.46999998093E+01 0.  1.
       -5    1    3    3    0  502 -0.88213815869E+02 -0.47166924704E+03  0.68842133191E+03  0.83916600034E+03  0.46999998093E+01 0. -1.
</event>
<event>
 5   0  0.2488472E-03  0.1095208E+04  0.7818609E-02  0.9209875E-01
        2   -1    0    0  501    0  0.00000000000E+00  0.00000000000E+00  0.94633562927E+03  0.94633562928E+03  0.25500000920E-02 0. -1.
       -2   -1    0    0    0  501  0.00000000000E+00  0.00000000000E+00 -0.31687521447E+03  0.31687521448E+03  0.25500000920E-02 0.  1.
    10030    2    1    2    0    0  0.00000000000E+00  0.00000000000E+00  0.62946041480E+03  0.12632108438E+04  0.10952083007E+04 0.  0.
        2    1    3    3  502    0 -0.16244265140E+03 -0.45115667410E+03  0.61976052461E+03  0.78360262088E+03  0.25500000920E-02 0. -1.
       -2    1    3    3    0  502  0.16244265140E+03  0.45115667410E+03  0.96998901844E+01  0.47960822288E+03  0.25500000920E-02 0.  1.
</event>
<event>
 5   0  0.1479573E-03  0.1100898E+04  0.7818609E-02  0.9204317E-01
       -1   -1    0    0    0  501  0.00000000000E+00  0.00000000000E+00  0.79243231955E+03  0.79243231957E+03  0.50400001928E-02 0.  1.
        1   -1    0    0  501    0  0.00000000000E+00  0.00000000000E+00 -0.38235980308E+03  0.38235980312E+03  0.50400001928E-02 0. -1.
    10030    2    1    2    0    0  0.00000000000E+00  0.00000000000E+00  0.41007251647E+03  0.11747921227E+04  0.11008982981E+04 0.  0.
        4    1    3    3  502    0 -0.25599664101E+03  0.66704577526E+02 -0.31007382840E+03  0.40759191948E+03  0.12699999809E+01 0. -1.
       -4    1    3    3    0  502  0.25599664101E+03 -0.66704577526E+02  0.72014634486E+03  0.76720020320E+03  0.12699999809E+01 0.  1.
</event>
<event>
 5   0  0.2467448E-03  0.1110465E+04  0.7818609E-02  0.9195052E-01
        2   -1    0    0  501    0  0.00000000000E+00  0.00000000000E+00  0.55257180167E+03  0.55257180168E+03  0.25500000920E-02 0. -1.
       -2   -1    0    0    0  501  0.00000000000E+00  0.00000000000E+00 -0.55790591738E+03  0.55790591738E+03  0.25500000920E-02 0.  1.
    10030    2    1    2    0    0  0.00000000000E+00  0.00000000000E+00 -0.53341157068E+01  0.11104777191E+04  0.11104649079E+04 0.  0.
        1    1    3    3  502    0 -0.40342349870E+02 -0.32964530590E+03 -0.44763235239E+03  0.55737622467E+03  0.50400001928E-02 0.  1.
       -1    1    3    3    0  502  0.40342349870E+02  0.32964530590E+03  0.44229823668E+03  0.55310149439E+03  0.50400001928E-02 0. -1.
</event>
<event>
 5   0  0.2392585E-03  0.1097198E+04  0.7818609E-02  0.9207927E-01
        2   -1    0    0  501    0  0.00000000000E+00  0.00000000000E+00  0.84493370774E+03  0.84493370775E+03  0.25500000920E-02 0. -1.
       -2   -1    0    0    0  501  0.00000000000E+00  0.00000000000E+00 -0.35619456432E+03  0.35619456433E+03  0.25500000920E-02 0.  1.
    10030    2    1    2    0    0  0.00000000000E+00  0.00000000000E+00  0.48873914342E+03  0.12011282721E+04  0.10971978744E+04 0.  0.
        5    1    3    3  502    0  0.15954241012E+03 -0.49125632835E+03  0.44667773767E+03  0.68288333710E+03  0.46999998093E+01 0. -1.
       -5    1    3    3    0  502 -0.15954241012E+03  0.49125632835E+03  0.42061405755E+02  0.51824493497E+03  0.46999998093E+01 0.  1.
</event>
<event>
 5   0  0.2438115E-03  0.1102978E+04  0.7818609E-02  0.9202295E-01
        2   -1    0    0  501    0  0.00000000000E+00  0.00000000000E+00  0.74357518188E+03  0.74357518188E+03  0.25500000920E-02 0.  1.
       -2   -1    0    0    0  501  0.00000000000E+00  0.00000000000E+00 -0.40902372272E+03  0.40902372273E+03  0.25500000920E-02 0. -1.
    10030    2    1    2    0    0  0.00000000000E+00  0.00000000000E+00  0.33455145916E+03  0.11525989046E+04  0.11029775864E+04 0.  0.
        4    1    3    3  502    0 -0.29975841639E+03  0.93879242452E+02  0.64095630244E+03  0.71378919500E+03  0.12699999809E+01 0.  1.
       -4    1    3    3    0  502  0.29975841639E+03 -0.93879242452E+02 -0.30640484329E+03  0.43880970961E+03  0.12699999809E+01 0. -1.
</event>
<event>
 5   0  0.2483036E-03  0.1103896E+04  0.7818609E-02  0.9201403E-01
       -2   -1    0    0    0  501  0.00000000000E+00  0.00000000000E+00  0.71977988294E+03  0.71977988295E+03  0.25500000920E-02 0. -1.
        2   -1    0    0  501    0  0.00000000000E+00  0.00000000000E+00 -0.42324938090E+03  0.42324938091E+03  0.25500000920E-02 0.  1.
    10030    2    1    2    0    0  0.00000000000E+00  0.00000000000E+00  0.29653050205E+03  0.11430292639E+04  0.11038956288E+04 0.  0.
        3    1    3    3  502    0 -0.51457219289E+02  0.32675614194E+03 -0.30924565781E+03  0.45282481026E+03  0.10100000352E+00 0.  1.
       -3    1    3    3    0  502  0.51457219289E+02 -0.32675614194E+03  0.60577615986E+03  0.69020445360E+03  0.10100000352E+00 0. -1.
</event>
<event>
 5   0  0.2392585E-03  0.1098893E+04  0.7818609E-02  0.9206271E-01
       -2   -1    0    0    0  501  0.00000000000E+00  0.00000000000E+00  0.21290885826E+03  0.21290885828E+03  0.25500000920E-02 0.  1.
        2   -1    0    0  501    0  0.00000000000E+00  0.00000000000E+00 -0.14179380886E+04  0.14179380886E+04  0.25500000920E-02 0. -1.
    10030    2    1    2    0    0  0.00000000000E+00  0.00000000000E+00 -0.12050292303E+04  0.16308469468E+04  0.10988932242E+04 0.  0.
        5    1    3    3  502    0 -0.40275231820E+03  0.34975665393E+03 -0.79788614868E+03  0.95978307082E+03  0.46999998093E+01 0. -1.
       -5    1    3    3    0  502  0.40275231820E+03 -0.34975665393E+03 -0.40714308161E+03  0.67106387601E+03  0.46999998093E+01 0.  1.
</event>
<event>
 5   0  0.1479573E-03  0.1100237E+04  0.7818609E-02  0.9204961E-01
       -1   -1    0    0    0  501  0.00000000000E+00  0.00000000000E+00  0.18527060137E+03  0.18527060144E+03  0.50400001928E-02 0.  1.
        1   -1    0    0  501    0  0.00000000000E+00  0.00000000000E+00 -0.16334505081E+04  0.16334505081E+04  0.50400001928E-02 0. -1.
    10030    2    1    2    0    0  0.00000000000E+00  0.00000000000E+00 -0.14481799067E+04  0.18187211095E+04  0.11002369890E+04 0.  0.
        4    1    3    3  502    0  0.23405029272E+03 -0.93798076876E+02 -0.15323018955E+04  0.15529096337E+04  0.12699999809E+01 0. -1.
       -4    1    3    3    0  502 -0.23405029272E+03  0.93798076876E+02  0.84121988800E+02  0.26581147576E+03  0.12699999809E+01 0.  1.
</event>
<event>
 5   0  0.1509004E-03  0.1089748E+04  0.7818609E-02  0.9215242E-01
        1   -1    0    0  501    0  0.00000000000E+00  0.00000000000E+00  0.17500549559E+04  0.17500549560E+04  0.50400001928E-02 0.  1.
       -1   -1    0    0    0  501  0.00000000000E+00  0.00000000000E+00 -0.16964484838E+03  0.16964484845E+03  0.50400001928E-02 0. -1.
    10030    2    1    2    0    0  0.00000000000E+00  0.00000000000E+00  0.15804101076E+04  0.19196998044E+04  0.10897482420E+04 0.  0.
        3    1    3    3  502    0  0.48236330153E+03  0.34966369438E+02  0.34807942408E+03  0.59586600619E+03  0.10100000352E+00 0.  1.
       -3    1    3    3    0  502 -0.48236330153E+03 -0.34966369438E+02  0.12323306835E+04  0.13238337982E+04  0.10100000352E+00 0. -1.
</event>
<event>
 5   0  0.1468556E-03  0.1104130E+04  0.7818609E-02  0.9201176E-01
        1   -1    0    0  501    0  0.00000000000E+00  0.00000000000E+00  0.19783502481E+04  0.19783502481E+04  0.50400001928E-02 0. -1.
       -1   -1    0    0    0  501  0.00000000000E+00  0.00000000000E+00 -0.15405550515E+03  0.15405550523E+03  0.50400001928E-02 0.  1.
    10030    2    1    2    0    0  0.00000000000E+00  0.00000000000E+00  0.18242947430E+04  0.21324057534E+04  0.11041299687E+04 0.  0.
        5    1    3    3  502    0 -0.47452055396E+03 -0.20290010600E+03  0.12906793700E+04  0.13900408394E+04  0.46999998093E+01 0. -1.
       -5    1    3    3    0  502  0.47452055396E+03  0.20290010600E+03  0.53361537298E+03  0.74236491393E+03  0.46999998093E+01 0.  1.
</event>
<event>
 5   0  0.2467448E-03  0.1106788E+04  0.7818609E-02  0.9198601E-01
       -2   -1    0    0    0  501  0.00000000000E+00  0.00000000000E+00  0.50331037269E+03  0.50331037270E+03  0.25500000920E-02 0. -1.
        2   -1    0    0  501    0  0.00000000000E+00  0.00000000000E+00 -0.60846160580E+03  0.60846160580E+03  0.25500000920E-02 0.  1.
    10030    2    1    2    0    0  0.00000000000E+00  0.00000000000E+00 -0.10515123311E+03  0.11117719785E+04  0.11067882139E+04 0.  0.
        1    1    3    3  502    0 -0.26820981112E+03 -0.22077410048E+03  0.38013939230E+03  0.51495986623E+03  0.50400001928E-02 0. -1.
       -1    1    3    3    0  502  0.26820981112E+03  0.22077410048E+03 -0.48529062541E+03  0.59681211227E+03  0.50400001928E-02 0.  1.
</event>
<event>
 5   0  0.2392585E-03  0.1224178E+04  0.7818609E-02  0.9091953E-01
       -2   -1    0    0    0  501  0.00000000000E+00  0.00000000000E+00  0.31910994567E+03  0.31910994568E+03  0.25500000920E-02 0.  1.
        2   -1    0    0  501    0  0.00000000000E+00  0.00000000000E+00 -0.11740561296E+04  0.11740561296E+04  0.25500000920E-02 0. -1.
    10030    2    1    2    0    0  0.00000000000E+00  0.00000000000E+00 -0.85494618393E+03  0.14931660753E+04  0.12241780716E+04 0.  0.
        5    1    3    3  502    0 -0.18664378452E+03 -0.27090194660E+03 -0.10570320979E+04  0.11070513597E+04  0.46999998093E+01 0. -1.
       -5    1    3    3    0  502  0.18664378452E+03  0.27090194660E+03  0.20208591397E+03  0.38611471559E+03  0.46999998093E+01 0.  1.
</event>
<event>
 5   0  0.1468556E-03  0.1114012E+04  0.7818609E-02  0.9191641E-01
       -1   -1    0    0    0  501  0.00000000000E+00  0.00000000000E+00  0.21100373666E+03  0.21100373672E+03  0.50400001928E-02 0. -1.
        1   -1    0    0  501    0  0.00000000000E+00  0.00000000000E+00 -0.14703803712E+04  0.14703803712E+04  0.50400001928E-02 0.  1.
    10030    2    1    2    0    0  0.00000000000E+00  0.00000000000E+00 -0.12593766345E+04  0.16813841079E+04  0.11140121233E+04 0.  0.
        5    1    3    3  502    0 -0.42390255201E+03 -0.18628249090E+03 -0.10969373768E+04  0.11906671401E+04  0.46999998093E+01 0.  1.
       -5    1    3    3    0  502  0.42390255201E+03  0.18628249090E+03 -0.16243925774E+03  0.49071696778E+03  0.46999998093E+01 0. -1.
</event>
<event>
 5   0  0.1480937E-03  0.1105552E+04  0.7818609E-02  0.9199797E-01
       -1   -1    0    0    0  501  0.00000000000E+00  0.00000000000E+00  0.60584095370E+03  0.60584095372E+03  0.50400001928E-02 0. -1.
        1   -1    0    0  501    0  0.00000000000E+00  0.00000000000E+00 -0.50435902574E+03  0.50435902576E+03  0.50400001928E-02 0.  1.
    10030    2    1    2    0    0  0.00000000000E+00  0.00000000000E+00  0.10148192796E+03  0.11101999795E+04  0.11055520850E+04 0.  0.
        1    1    3    3  502    0  0.18056860691E+02  0.22700123316E+03 -0.45506873898E+03  0.50886458640E+03  0.50400001928E-02 0.  1.
       -1    1    3    3    0  502 -0.18056860691E+02 -0.22700123316E+03  0.55655066694E+03  0.60133539308E+03  0.50400001928E-02 0. -1.
</event>
<event>
 5   0  0.2438115E-03  0.1106135E+04  0.7818609E-02  0.9199233E-01
        2   -1    0    0  501    0  0.00000000000E+00  0.00000000000E+00  0.90019142340E+03  0.90019142341E+03  0.25500000920E-02 0.  1.
       -2   -1    0    0    0  501  0.00000000000E+00  0.00000000000E+00 -0.33979835225E+03  0.33979835226E+03  0.25500000920E-02 0. -1.
    10030    2    1    2    0    0  0.00000000000E+00  0.00000000000E+00  0.56039307115E+03  0.12399897757E+04  0.11061348243E+04 0.  0.
        4    1    3    3  502    0  0.71706172210E+02 -0.42980444436E+03  0.66201295119E+03  0.79255056366E+03  0.12699999809E+01 0.  1.
       -4    1    3    3    0  502 -0.71706172210E+02  0.42980444436E+03 -0.10161988004E+03  0.44743921201E+03  0.12699999809E+01 0. -1.
</event>
<event>
 5   0  0.1479573E-03  0.1119748E+04  0.7818609E-02  0.9186155E-01
        1   -1    0    0  501    0  0.00000000000E+00  0.00000000000E+00  0.77314626433E+03  0.77314626435E+03  0.50400001928E-02 0.  1.
       -1   -1    0    0    0  501  0.00000000000E+00  0.00000000000E+00 -0.40543294930E+03  0.40543294933E+03  0.50400001928E-02 0. -1.
    10030    2    1    2    0    0  0.00000000000E+00  0.00000000000E+00  0.36771331503E+03  0.11785792137E+04  0.11197481328E+04 0.  0.
        4    1    3    3  502    0 -0.47580227496E+03  0.34965997600E+02 -0.12453371992E+03  0.49307269864E+03  0.12699999809E+01 0. -1.
       -4    1    3    3    0  502  0.47580227496E+03 -0.34965997600E+02  0.49224703495E+03  0.68550651504E+03  0.12699999809E+01 0.  1.
</event>
<event>
 5   0  0.2438115E-03  0.1095959E+04  0.7818609E-02  0.9209140E-01
       -2   -1    0    0    0  501  0.00000000000E+00  0.00000000000E+00  0.29012947114E+03  0.29012947115E+03  0.25500000920E-02 0. -1.
        2   -1    0    0  501    0  0.00000000000E+00  0.00000000000E+00 -0.10349911178E+04  0.10349911178E+04  0.25500000920E-02 0.  1.
    10030    2    1    2    0    0  0.00000000000E+00  0.00000000000E+00 -0.74486164665E+03  0.13251205889E+04  0.10959588052E+04 0.  0.
        4    1    3    3  502    0 -0.97968160767E+02  0.21832611266E+03  0.22361327463E+03  0.32751879562E+03  0.12699999809E+01 0. -1.
       -4    1    3    3    0  502  0.97968160767E+02 -0.21832611266E+03 -0.96847492128E+03  0.99760179332E+03  0.12699999809E+01 0.  1.
</event>
<event>
 5   0  0.2467448E-03  0.1073581E+04  0.7818609E-02  0.9231331E-01
        2   -1    0    0  501    0  0.00000000000E+00  0.00000000000E+00  0.67116434154E+03  0.67116434155E+03  0.25500000920E-02 0. -1.
       -2   -1    0    0    0  501  0.00000000000E+00  0.00000000000E+00 -0.42931957285E+03  0.42931957286E+03  0.25500000920E-02 0.  1.
    10030    2    1    2    0    0  0.00000000000E+00  0.00000000000E+00  0.24184476869E+03  0.11004839144E+04  0.10735809023E+04 0.  0.
        1    1    3    3  502    0  0.39950379004E+03  0.35107292240E+03  0.19546690427E+03  0.56662402507E+03  0.50400001928E-02 0.  1.
       -1    1    3    3    0  502 -0.39950379004E+03 -0.35107292240E+03  0.46377864429E+02  0.53385988933E+03  0.50400001928E-02 0. -1.
</event>
<event>
 5   0  0.2392585E-03  0.1098296E+04  0.7818609E-02  0.9206854E-01
        2   -1    0    0  501    0  0.00000000000E+00  0.00000000000E+00  0.62487926758E+03  0.62487926758E+03  0.25500000920E-02 0. -1.
       -2   -1    0    0    0  501  0.00000000000E+00  0.00000000000E+00 -0.48259523930E+03  0.48259523930E+03  0.25500000920E-02 0.  1.
    10030    2    1    2    0    0  0.00000000000E+00  0.00000000000E+00  0.14228402828E+03  0.11074745069E+04  0.10982964257E+04 0.  0.
        5    1    3    3  502    0  0.15426245613E+03 -0.52224827458E+03 -0.17029151972E+00  0.54457532506E+03  0.46999998093E+01 0.  1.
       -5    1    3    3    0  502 -0.15426245613E+03  0.52224827458E+03  0.14245431980E+03  0.56289918182E+03  0.46999998093E+01 0. -1.
</event>
<event>
 5   0  0.1480937E-03  0.1128884E+04  0.7818609E-02  0.9177488E-01
       -1   -1    0    0    0  501  0.00000000000E+00  0.00000000000E+00  0.97946109312E+03  0.97946109313E+03  0.50400001928E-02 0. -1.
        1   -1    0    0  501    0  0.00000000000E+00  0.00000000000E+00 -0.32527549821E+03  0.32527549825E+03  0.50400001928E-02 0.  1.
    10030    2    1    2    0    0  0.00000000000E+00  0.00000000000E+00  0.65418559491E+03  0.13047365914E+04  0.11288838648E+04 0.  0.
        1    1    3    3  502    0 -0.11738458307E+03  0.20711818810E+03  0.91859440184E+03  0.94894296947E+03  0.50400001928E-02 0. -1.
       -1    1    3    3    0  502  0.11738458307E+03 -0.20711818810E+03 -0.26440880693E+03  0.35579362191E+03  0.50400001928E-02 0.  1.
</event>
<event>
 5   0  0.1468556E-03  0.1109156E+04  0.7818609E-02  0.9196313E-01
        1   -1    0    0  501    0  0.00000000000E+00  0.00000000000E+00  0.42975903893E+03  0.42975903896E+03  0.50400001928E-02 0.  1.
       -1   -1    0    0    0  501  0.00000000000E+00  0.00000000000E+00 -0.71564988174E+03  0.71564988176E+03  0.50400001928E-02 0. -1.
    10030    2    1    2    0    0  0.00000000000E+00  0.00000000000E+00 -0.28589084280E+03  0.11454089207E+04  0.11091564460E+04 0.  0.
        5    1    3    3  502    0 -0.50787437091E+02 -0.55211015679E+03 -0.13117433660E+03  0.56976643072E+03  0.46999998093E+01 0.  1.
       -5    1    3    3    0  502  0.50787437091E+02  0.55211015679E+03 -0.15471650620E+03  0.57564248999E+03  0.46999998093E+01 0. -1.
</event>
<event>
 5   0  0.2438115E-03  0.1112472E+04  0.7818609E-02  0.9193120E-01
       -2   -1    0    0    0  501  0.00000000000E+00  0.00000000000E+00  0.14463970832E+03  0.14463970834E+03  0.25500000920E-02 0. -1.
        2   -1    0    0  501    0  0.00000000000E+00  0.00000000000E+00 -0.21390996488E+04  0.21390996488E+04  0.25500000920E-02 0.  1.
    10030    2    1    2    0    0  0.00000000000E+00  0.00000000000E+00 -0.19944599405E+04  0.22837393572E+04  0.11124724703E+04 0.  0.
        4    1    3    3  502    0 -0.46472931278E+03  0.24235051503E+03 -0.61488128403E+03  0.80795279110E+03  0.12699999809E+01 0. -1.
       -4    1    3    3    0  502  0.46472931278E+03 -0.24235051503E+03 -0.13795786565E+04  0.14757865661E+04  0.12699999809E+01 0.  1.
</event>
<event>
 5   0  0.1479573E-03  0.1097941E+04  0.7818609E-02  0.9207201E-01
       -1   -1    0    0    0  501  0.00000000000E+00  0.00000000000E+00  0.16976791232E+03  0.16976791239E+03  0.50400001928E-02 0.  1.
        1   -1    0    0  501    0  0.00000000000E+00  0.00000000000E+00 -0.17751791884E+04  0.17751791884E+04  0.50400001928E-02 0. -1.
    10030    2    1    2    0    0  0.00000000000E+00  0.00000000000E+00 -0.16054112761E+04  0.19449471008E+04  0.10979407359E+04 0.  0.
        4    1    3    3  502    0 -0.17320424090E+03  0.48727014597E+03 -0.11290322468E+04  0.12418322477E+04  0.12699999809E+01 0. -1.
       -4    1    3    3    0  502  0.17320424090E+03 -0.48727014597E+03 -0.47637902933E+03  0.70311485314E+03  0.12699999809E+01 0.  1.
</event>
<event>
 5   0  0.2438115E-03  0.1097441E+04  0.7818609E-02  0.9207689E-01
       -2   -1    0    0    0  501  0.00000000000E+00  0.00000000000E+00  0.31117789935E+03  0.31117789936E+03  0.25500000920E-02 0. -1.
        2   -1    0    0  501    0  0.00000000000E+00  0.00000000000E+00 -0.96759567501E+03  0.96759567501E+03  0.25500000920E-02 0.  1.
    10030    2    1    2    0    0  0.00000000000E+00  0.00000000000E+00 -0.65641777566E+03  0.12787735744E+04  0.10974413690E+04 0.  0.
        4    1    3    3  502    0 -0.40360612026E+02 -0.14848722898E+03 -0.94193918400E+03  0.95442573070E+03  0.12699999809E+01 0.  1.
       -4    1    3    3    0  502  0.40360612026E+02  0.14848722898E+03  0.28552140835E+03  0.32434784367E+03  0.12699999809E+01 0. -1.
</event>
<event>
 5   0  0.9631750E-04  0.1099565E+04  0.7818609E-02  0.9205616E-01
        4   -1    0    0  501    0  0.00000000000E+00  0.00000000000E+00  0.62836375859E+03  0.62836504201E+03  0.12699999809E+01 0. -1.
       -4   -1    0    0    0  501  0.00000000000E+00  0.00000000000E+00 -0.48102573788E+03  0.48102741440E+03  0.12699999809E+01 0.  1.
    10030    2    1    2    0    0  0.00000000000E+00  0.00000000000E+00  0.14733802071E+03  0.11093924564E+04  0.10995649731E+04 0.  0.
        5    1    3    3  502    0 -0.60142505829E+02 -0.40368563698E+02  0.62350941559E+03  0.62772033842E+03  0.46999998093E+01 0. -1.
       -5    1    3    3    0  502  0.60142505829E+02  0.40368563698E+02 -0.47617139488E+03  0.48167211798E+03  0.46999998093E+01 0.  1.
</event>
<event>
 5   0  0.2467448E-03  0.1098595E+04  0.7818609E-02  0.9206562E-01
        2   -1    0    0  501    0  0.00000000000E+00  0.00000000000E+00  0.10733852941E+04  0.10733852941E+04  0.25500000920E-02 0.  1.
       -2   -1    0    0    0  501  0.00000000000E+00  0.00000000000E+00 -0.28109935904E+03  0.28109935905E+03  0.25500000920E-02 0. -1.
    10030    2    1    2    0    0  0.00000000000E+00  0.00000000000E+00  0.79228593504E+03  0.13544846531E+04  0.10985953180E+04 0.  0.
        1    1    3    3  502    0  0.13508382874E+03  0.51494477604E+03  0.22930070424E+03  0.57965039131E+03  0.50400001928E-02 0. -1.
       -1    1    3    3    0  502 -0.13508382874E+03 -0.51494477604E+03  0.56298523080E+03  0.77483426182E+03  0.50400001928E-02 0.  1.
</event>
<event>
 5   0  0.1480937E-03  0.1106963E+04  0.7818609E-02  0.9198432E-01
        1   -1    0    0  501    0  0.00000000000E+00  0.00000000000E+00  0.16140574524E+04  0.16140574524E+04  0.50400001928E-02 0.  1.
       -1   -1    0    0    0  501  0.00000000000E+00  0.00000000000E+00 -0.18979599728E+03  0.18979599735E+03  0.50400001928E-02 0. -1.
    10030    2    1    2    0    0  0.00000000000E+00  0.00000000000E+00  0.14242614551E+04  0.18038534498E+04  0.11069627707E+04 0.  0.
        1    1    3    3  502    0  0.34406944114E+02 -0.33434237288E+03  0.14287131249E+04  0.14677158626E+04  0.50400001928E-02 0.  1.
       -1    1    3    3    0  502 -0.34406944114E+02  0.33434237288E+03 -0.44516697624E+01  0.33613758715E+03  0.50400001928E-02 0. -1.
</event>
<event>
 5   0  0.1480937E-03  0.1081108E+04  0.7818609E-02  0.9223803E-01
       -1   -1    0    0    0  501  0.00000000000E+00  0.00000000000E+00  0.38310164410E+03  0.38310164413E+03  0.50400001928E-02 0. -1.
        1   -1    0    0  501    0  0.00000000000E+00  0.00000000000E+00 -0.76271875911E+03  0.76271875913E+03  0.50400001928E-02 0.  1.
    10030    2    1    2    0    0  0.00000000000E+00  0.00000000000E+00 -0.37961711502E+03  0.11458204033E+04  0.10811083399E+04 0.  0.
        1    1    3    3  502    0  0.37852324536E+03  0.35275898091E+03 -0.35563493534E+03  0.62784946695E+03  0.50400001928E-02 0.  1.
       -1    1    3    3    0  502 -0.37852324536E+03 -0.35275898091E+03 -0.23982179676E+02  0.51797093631E+03  0.50400001928E-02 0. -1.
</event>
<event>
 5   0  0.1509004E-03  0.1098275E+04  0.7818609E-02  0.9206874E-01
        1   -1    0    0  501    0  0.00000000000E+00  0.00000000000E+00  0.10827341089E+04  0.10827341089E+04  0.50400001928E-02 0. -1.
       -1   -1    0    0    0  501  0.00000000000E+00  0.00000000000E+00 -0.27850997146E+03  0.27850997151E+03  0.50400001928E-02 0.  1.
    10030    2    1    2    0    0  0.00000000000E+00  0.00000000000E+00  0.80422413739E+03  0.13612440804E+04  0.10982754587E+04 0.  0.
        3    1    3    3  502    0  0.35790237081E+03 -0.25939082209E+01 -0.11408273684E+03  0.37565371879E+03  0.10100000352E+00 0.  1.
       -3    1    3    3    0  502 -0.35790237081E+03  0.25939082209E+01  0.91830687423E+03  0.98559036159E+03  0.10100000352E+00 0. -1.
</event>
<event>
 5   0  0.2483036E-03  0.1103227E+04  0.7818609E-02  0.9202052E-01
       -2   -1    0    0    0  501  0.00000000000E+00  0.00000000000E+00  0.32072037296E+03  0.32072037297E+03  0.25500000920E-02 0. -1.
        2   -1    0    0  501    0  0.00000000000E+00  0.00000000000E+00 -0.94873100920E+03  0.94873100920E+03  0.25500000920E-02 0.  1.
    10030    2    1    2    0    0  0.00000000000E+00  0.00000000000E+00 -0.62801063623E+03  0.12694513822E+04  0.11032268364E+04 0.  0.
        3    1    3    3  502    0  0.44880215043E+03  0.29987917457E+02  0.53408001625E+02  0.45296254841E+03  0.10100000352E+00 0. -1.
       -3    1    3    3    0  502 -0.44880215043E+03 -0.29987917457E+02 -0.68141863786E+03  0.81648883376E+03  0.10100000352E+00 0.  1.
</event>
<event>
 5   0  0.2488472E-03  0.1096721E+04  0.7818609E-02  0.9208394E-01
       -2   -1    0    0    0  501  0.00000000000E+00  0.00000000000E+00  0.27418709075E+03  0.27418709076E+03  0.25500000920E-02 0. -1.
        2   -1    0    0  501    0  0.00000000000E+00  0.00000000000E+00 -0.10966938884E+04  0.10966938885E+04  0.25500000920E-02 0.  1.
    10030    2    1    2    0    0  0.00000000000E+00  0.00000000000E+00 -0.82250679770E+03  0.13708809792E+04  0.10967211254E+04 0.  0.
        2    1    3    3  502    0  0.34435164657E+03 -0.30562344760E+02  0.12081478533E+03  0.36620803619E+03  0.25500000920E-02 0. -1.
       -2    1    3    3    0  502 -0.34435164657E+03  0.30562344760E+02 -0.94332158303E+03  0.10046729430E+04  0.25500000920E-02 0.  1.
</event>
<event>
 5   0  0.1415400E-03  0.1095528E+04  0.7818609E-02  0.9209562E-01
       -1   -1    0    0    0  501  0.00000000000E+00  0.00000000000E+00  0.37928901947E+03  0.37928901950E+03  0.50400001928E-02 0. -1.
        1   -1    0    0  501    0  0.00000000000E+00  0.00000000000E+00 -0.79107282835E+03  0.79107282837E+03  0.50400001928E-02 0.  1.
    10030    2    1    2    0    0  0.00000000000E+00  0.00000000000E+00 -0.41178380888E+03  0.11703618479E+04  0.10955277037E+04 0.  0.
        2    1    3    3  502    0  0.11836798890E+03  0.38194895169E+03 -0.60582946023E+03  0.72589621668E+03  0.25500000920E-02 0.  1.
       -2    1    3    3    0  502 -0.11836798890E+03 -0.38194895169E+03  0.19404565135E+03  0.44446563119E+03  0.25500000920E-02 0. -1.
</event>
<event>
 5   0  0.2467448E-03  0.1102977E+04  0.7818609E-02  0.9202296E-01
       -2   -1    0    0    0  501  0.00000000000E+00  0.00000000000E+00  0.29053220982E+03  0.29053220983E+03  0.25500000920E-02 0. -1.
        2   -1    0    0  501    0  0.00000000000E+00  0.00000000000E+00 -0.10468350997E+04  0.10468350997E+04  0.25500000920E-02 0.  1.
    10030    2    1    2    0    0  0.00000000000E+00  0.00000000000E+00 -0.75630288992E+03  0.13373673096E+04  0.11029765453E+04 0.  0.
        1    1    3    3  502    0 -0.48545482672E+03 -0.14099016156E+03 -0.64543908731E+03  0.81983914879E+03  0.50400001928E-02 0.  1.
       -1    1    3    3    0  502  0.48545482672E+03  0.14099016156E+03 -0.11086380260E+03  0.51752816077E+03  0.50400001928E-02 0. -1.
</event>
<event>
 5   0  0.2392585E-03  0.1088096E+04  0.7818609E-02  0.9216873E-01
        2   -1    0    0  501    0  0.00000000000E+00  0.00000000000E+00  0.16814091195E+04  0.16814091195E+04  0.25500000920E-02 0.  1.
       -2   -1    0    0    0  501  0.00000000000E+00  0.00000000000E+00 -0.17603569643E+03  0.17603569645E+03  0.25500000920E-02 0. -1.
    10030    2    1    2    0    0  0.00000000000E+00  0.00000000000E+00  0.15053734231E+04  0.18574448160E+04  0.10880956307E+04 0.  0.
        5    1    3    3  502    0 -0.32838764649E+03 -0.28208874368E+02  0.13839656217E+02  0.32992091938E+03  0.46999998093E+01 0. -1.
       -5    1    3    3    0  502  0.32838764649E+03  0.28208874368E+02  0.14915337669E+04  0.15275238966E+04  0.46999998093E+01 0.  1.
</event>
<event>
 5   0  0.1479573E-03  0.1097543E+04  0.7818609E-02  0.9207590E-01
        1   -1    0    0  501    0  0.00000000000E+00  0.00000000000E+00  0.14513901402E+04  0.14513901403E+04  0.50400001928E-02 0.  1.
       -1   -1    0    0    0  501  0.00000000000E+00  0.00000000000E+00 -0.20749095492E+03  0.20749095498E+03  0.50400001928E-02 0. -1.
    10030    2    1    2    0    0  0.00000000000E+00  0.00000000000E+00  0.12438991853E+04  0.16588810952E+04  0.10975433043E+04 0.  0.
        4    1    3    3  502    0 -0.92126749568E+02  0.33364820983E+03 -0.21686952824E+02  0.34681465184E+03  0.12699999809E+01 0. -1.
       -4    1    3    3    0  502  0.92126749568E+02 -0.33364820983E+03  0.12655861381E+04  0.13120664434E+04  0.12699999809E+01 0.  1.
</event>
<event>
 5   0  0.2467448E-03  0.1102059E+04  0.7818609E-02  0.9203187E-01
        2   -1    0    0  501    0  0.00000000000E+00  0.00000000000E+00  0.15337207420E+04  0.15337207420E+04  0.25500000920E-02 0. -1.
       -2   -1    0    0    0  501  0.00000000000E+00  0.00000000000E+00 -0.19797194739E+03  0.19797194741E+03  0.25500000920E-02 0.  1.
    10030    2    1    2    0    0  0.00000000000E+00  0.00000000000E+00  0.13357487946E+04  0.17316926894E+04  0.11020593125E+04 0.  0.
        1    1    3    3  502    0 -0.26447160549E+03  0.39342918958E+03  0.11092513516E+04  0.12063044053E+04  0.50400001928E-02 0. -1.
       -1    1    3    3    0  502  0.26447160549E+03 -0.39342918958E+03  0.22649744305E+03  0.52538828409E+03  0.50400001928E-02 0.  1.
</event>
<event>
 5   0  0.1480937E-03  0.1105966E+04  0.7818609E-02  0.9199396E-01
        1   -1    0    0  501    0  0.00000000000E+00  0.00000000000E+00  0.57018445322E+03  0.57018445325E+03  0.50400001928E-02 0.  1.
       -1   -1    0    0    0  501  0.00000000000E+00  0.00000000000E+00 -0.53630083045E+03  0.53630083048E+03  0.50400001928E-02 0. -1.
    10030    2    1    2    0    0  0.00000000000E+00  0.00000000000E+00  0.33883622771E+02  0.11064852837E+04  0.11059663572E+04 0.  0.
        1    1    3    3  502    0  0.20954304233E+03  0.43974400944E+03  0.27880364248E+03  0.56126157138E+03  0.50400001928E-02 0.  1.
       -1    1    3    3    0  502 -0.20954304233E+03 -0.43974400944E+03 -0.24492001971E+03  0.54522371234E+03  0.50400001928E-02 0. -1.
</event>
<event>
 5   0  0.2467448E-03  0.1083605E+04  0.7818609E-02  0.9221321E-01
        2   -1    0    0  501    0  0.00000000000E+00  0.00000000000E+00  0.83321400369E+03  0.83321400370E+03  0.25500000920E-02 0. -1.
       -2   -1    0    0    0  501  0.00000000000E+00  0.00000000000E+00 -0.35231007524E+03  0.35231007525E+03  0.25500000920E-02 0.  1.
    10030    2    1    2    0    0  0.00000000000E+00  0.00000000000E+00  0.48090392845E+03  0.11855240790E+04  0.10836045189E+04 0.  0.
        1    1    3    3  502    0  0.23413950579E+03  0.18449911207E+02  0.77462473890E+03  0.80944746187E+03  0.50400001928E-02 0. -1.
       -1    1    3    3    0  502 -0.23413950579E+03 -0.18449911207E+02 -0.29372081045E+03  0.37607661708E+03  0.50400001928E-02 0.  1.
</event>
<event>
 5   0  0.1415400E-03  0.1101098E+04  0.7818609E-02  0.9204122E-01
        1   -1    0    0  501    0  0.00000000000E+00  0.00000000000E+00  0.10050041373E+04  0.10050041373E+04  0.50400001928E-02 0.  1.
       -1   -1    0    0    0  501  0.00000000000E+00  0.00000000000E+00 -0.30159490156E+03  0.30159490160E+03  0.50400001928E-02 0. -1.
    10030    2    1    2    0    0  0.00000000000E+00  0.00000000000E+00  0.70340923576E+03  0.13065990389E+04  0.11010978592E+04 0.  0.
        2    1    3    3  502    0  0.19041763959E+03  0.35058784145E+03  0.80189605085E+03  0.89566064356E+03  0.25500000920E-02 0.  1.
       -2    1    3    3    0  502 -0.19041763959E+03 -0.35058784145E+03 -0.98486815095E+02  0.41093839538E+03  0.25500000920E-02 0. -1.
</event>
<event>
 5   0  0.2488472E-03  0.1095226E+04  0.7818609E-02  0.9209858E-01
        2   -1    0    0  501    0  0.00000000000E+00  0.00000000000E+00  0.53130919617E+03  0.53130919618E+03  0.25500000920E-02 0.  1.
       -2   -1    0    0    0  501  0.00000000000E+00  0.00000000000E+00 -0.56441664474E+03  0.56441664475E+03  0.25500000920E-02 0. -1.
    10030    2    1    2    0    0  0.00000000000E+00  0.00000000000E+00 -0.33107448571E+02  0.10957258409E+04  0.10952255545E+04 0.  0.
        2    1    3    3  502    0 -0.51002070097E+03  0.54246059449E+02  0.17540889023E+03  0.54206275390E+03  0.25500000920E-02 0.  1.
       -2    1    3    3    0  502  0.51002070097E+03 -0.54246059449E+02 -0.20851633880E+03  0.55366308703E+03  0.25500000920E-02 0. -1.
</event>
<event>
 5   0  0.2488472E-03  0.1111076E+04  0.7818609E-02  0.9194464E-01
       -2   -1    0    0    0  501  0.00000000000E+00  0.00000000000E+00  0.23083269835E+04  0.23083269835E+04  0.25500000920E-02 0.  1.
        2   -1    0    0  501    0  0.00000000000E+00  0.00000000000E+00 -0.13369951344E+03  0.13369951346E+03  0.25500000920E-02 0. -1.
    10030    2    1    2    0    0  0.00000000000E+00  0.00000000000E+00  0.21746274700E+04  0.24420264969E+04  0.11110755052E+04 0.  0.
        2    1    3    3  502    0  0.38078342265E+03 -0.37737821560E+03  0.76720598036E+03  0.93595691615E+03  0.25500000920E-02 0.  1.
       -2    1    3    3    0  502 -0.38078342265E+03  0.37737821560E+03  0.14074214897E+04  0.15060695808E+04  0.25500000920E-02 0. -1.
</event>
<event>
 5   0  0.1479573E-03  0.1102769E+04  0.7818609E-02  0.9202497E-01
       -1   -1    0    0    0  501  0.00000000000E+00  0.00000000000E+00  0.48791733881E+03  0.48791733884E+03  0.50400001928E-02 0.  1.
        1   -1    0    0  501    0  0.00000000000E+00  0.00000000000E+00 -0.62310770599E+03  0.62310770601E+03  0.50400001928E-02 0. -1.
    10030    2    1    2    0    0  0.00000000000E+00  0.00000000000E+00 -0.13519036717E+03  0.11110250448E+04  0.11027693389E+04 0.  0.
        4    1    3    3  502    0  0.49669418612E+03 -0.18440593274E+03  0.86233095980E+02  0.53679458110E+03  0.12699999809E+01 0.  1.
       -4    1    3    3    0  502 -0.49669418612E+03  0.18440593274E+03 -0.22142346315E+03  0.57423046374E+03  0.12699999809E+01 0. -1.
</event>
<event>
 5   0  0.1468556E-03  0.1091862E+04  0.7818609E-02  0.9213160E-01
        1   -1    0    0  501    0  0.00000000000E+00  0.00000000000E+00  0.32075497698E+03  0.32075497702E+03  0.50400001928E-02 0.  1.
       -1   -1    0    0    0  501  0.00000000000E+00  0.00000000000E+00 -0.92918458915E+03  0.92918458916E+03  0.50400001928E-02 0. -1.
    10030    2    1    2    0    0  0.00000000000E+00  0.00000000000E+00 -0.60842961217E+03  0.12499395662E+04  0.10918618622E+04 0.  0.
        5    1    3    3  502    0 -0.24154497552E+03  0.44224082299E+03 -0.63818022809E+02  0.50795250836E+03  0.46999998093E+01 0.  1.
       -5    1    3    3    0  502  0.24154497552E+03 -0.44224082299E+03 -0.54461158936E+03  0.74198705782E+03  0.46999998093E+01 0. -1.
</event>
<event>
 5   0  0.9631750E-04  0.1101401E+04  0.7818609E-02  0.9203828E-01
        4   -1    0    0  501    0  0.00000000000E+00  0.00000000000E+00  0.60711462246E+03  0.60711595079E+03  0.12699999809E+01 0.  1.
       -4   -1    0    0    0  501  0.00000000000E+00  0.00000000000E+00 -0.49952559181E+03  0.49952720624E+03  0.12699999809E+01 0. -1.
    10030    2    1    2    0    0  0.00000000000E+00  0.00000000000E+00  0.10758903065E+03  0.11066431570E+04  0.11014007797E+04 0.  0.
        1    1    3    3  502    0 -0.18359504294E+03  0.15561219722E+03  0.55147892492E+03  0.60170698880E+03  0.50400001928E-02 0.  1.
       -1    1    3    3    0  502  0.18359504294E+03 -0.15561219722E+03 -0.44388989427E+03  0.50493616822E+03  0.50400001928E-02 0. -1.
</event>
<event>
 5   0  0.2483036E-03  0.1098730E+04  0.7818609E-02  0.9206431E-01
        2   -1    0    0  501    0  0.00000000000E+00  0.00000000000E+00  0.60588572573E+03  0.60588572573E+03  0.25500000920E-02 0.  1.
       -2   -1    0    0    0  501  0.00000000000E+00  0.00000000000E+00 -0.49811680311E+03  0.49811680312E+03  0.25500000920E-02 0. -1.
    10030    2    1    2    0    0  0.00000000000E+00  0.00000000000E+00  0.10776892261E+03  0.11040025288E+04  0.10987299227E+04 0.  0.
        3    1    3    3  502    0 -0.38804933737E+03 -0.34831839077E+03 -0.11984365918E+03  0.53504252395E+03  0.10100000352E+00 0. -1.
       -3    1    3    3    0  502  0.38804933737E+03  0.34831839077E+03  0.22761258180E+03  0.56896000490E+03  0.10100000352E+00 0.  1.
</event>
<event>
 5   0  0.1415400E-03  0.1053153E+04  0.7818609E-02  0.9252094E-01
        1   -1    0    0  501    0  0.00000000000E+00  0.00000000000E+00  0.26813530389E+03  0.26813530393E+03  0.50400001928E-02 0. -1.
       -1   -1    0    0    0  501  0.00000000000E+00  0.00000000000E+00 -0.10341160131E+04  0.10341160131E+04  0.50400001928E-02 0.  1.
    10030    2    1    2    0    0  0.00000000000E+00  0.00000000000E+00 -0.76598070923E+03  0.13022513171E+04  0.10531533819E+04 0.  0.
        2    1    3    3  502    0 -0.46325414631E+03 -0.33778697134E+02 -0.68973252111E+03  0.83155057280E+03  0.25500000920E-02 0.  1.
       -2    1    3    3    0  502  0.46325414631E+03  0.33778697134E+02 -0.76248188127E+02  0.47070074426E+03  0.25500000920E-02 0. -1.
</event>
<event>
 5   0  0.1480937E-03  0.1099766E+04  0.7818609E-02  0.9205420E-01
        1   -1    0    0  501    0  0.00000000000E+00  0.00000000000E+00  0.15878820820E+04  0.15878820820E+04  0.50400001928E-02 0. -1.
       -1   -1    0    0    0  501  0.00000000000E+00  0.00000000000E+00 -0.19042429522E+03  0.19042429529E+03  0.50400001928E-02 0.  1.
    10030    2    1    2    0    0  0.00000000000E+00  0.00000000000E+00  0.13974577868E+04  0.17783063773E+04  0.10997660232E+04 0.  0.
        1    1    3    3  502    0 -0.92377414963E+02 -0.53103261018E+03  0.87469165518E+03  0.10274311225E+04  0.50400001928E-02 0. -1.
       -1    1    3    3    0  502  0.92377414963E+02  0.53103261018E+03  0.52276613164E+03  0.75087525481E+03  0.50400001928E-02 0.  1.
</event>
<event>
 5   0  0.2467448E-03  0.1100403E+04  0.7818609E-02  0.9204800E-01
        2   -1    0    0  501    0  0.00000000000E+00  0.00000000000E+00  0.85328833857E+03  0.85328833857E+03  0.25500000920E-02 0.  1.
       -2   -1    0    0    0  501  0.00000000000E+00  0.00000000000E+00 -0.35477037440E+03  0.35477037441E+03  0.25500000920E-02 0. -1.
    10030    2    1    2    0    0  0.00000000000E+00  0.00000000000E+00  0.49851796417E+03  0.12080587130E+04  0.11004025143E+04 0.  0.
        1    1    3    3  502    0 -0.16995959622E+03  0.23189862972E+02 -0.32466478436E+03  0.36719375855E+03  0.50400001928E-02 0. -1.
       -1    1    3    3    0  502  0.16995959622E+03 -0.23189862972E+02  0.82318274853E+03  0.84086495443E+03  0.50400001928E-02 0.  1.
</event>
<event>
 5   0  0.1468556E-03  0.1100736E+04  0.7818609E-02  0.9204475E-01
       -1   -1    0    0    0  501  0.00000000000E+00  0.00000000000E+00  0.29930962671E+03  0.29930962675E+03  0.50400001928E-02 0.  1.
        1   -1    0    0  501    0  0.00000000000E+00  0.00000000000E+00 -0.10120124956E+04  0.10120124956E+04  0.50400001928E-02 0. -1.
    10030    2    1    2    0    0  0.00000000000E+00  0.00000000000E+00 -0.71270286893E+03  0.13113221224E+04  0.11007362669E+04 0.  0.
        5    1    3    3  502    0  0.52705782666E+03 -0.14972993767E+03 -0.29474789975E+03  0.62217957318E+03  0.46999998093E+01 0. -1.
       -5    1    3    3    0  502 -0.52705782666E+03  0.14972993767E+03 -0.41795496918E+03  0.68914254921E+03  0.46999998093E+01 0.  1.
</event>
<event>
 5   0  0.1468556E-03  0.1095209E+04  0.7818609E-02  0.9209874E-01
        1   -1    0    0  501    0  0.00000000000E+00  0.00000000000E+00  0.45643880049E+03  0.45643880051E+03  0.50400001928E-02 0. -1.
       -1   -1    0    0    0  501  0.00000000000E+00  0.00000000000E+00 -0.65697917860E+03  0.65697917862E+03  0.50400001928E-02 0.  1.
    10030    2    1    2    0    0  0.00000000000E+00  0.00000000000E+00 -0.20054037811E+03  0.11134179791E+04  0.10952091823E+04 0.  0.
        5    1    3    3  502    0 -0.20161099749E+03  0.17026870953E+03  0.38750926262E+03  0.46885386462E+03  0.46999998093E+01 0. -1.
       -5    1    3    3    0  502  0.20161099749E+03 -0.17026870953E+03 -0.58804964074E+03  0.64456411452E+03  0.46999998093E+01 0.  1.
</event>
<event>
 5   0  0.2488472E-03  0.1047780E+04  0.7818609E-02  0.9257639E-01
        2   -1    0    0  501    0  0.00000000000E+00  0.00000000000E+00  0.11269097646E+04  0.11269097646E+04  0.25500000920E-02 0.  1.
       -2   -1    0    0    0  501  0.00000000000E+00  0.00000000000E+00 -0.24355158753E+03  0.24355158754E+03  0.25500000920E-02 0. -1.
    10030    2    1    2    0    0  0.00000000000E+00  0.00000000000E+00  0.88335817704E+03  0.13704613521E+04  0.10477798665E+04 0.  0.
        2    1    3    3  502    0 -0.66023517939E+02  0.14391244486E+03  0.10948651787E+04  0.11062547881E+04  0.25500000920E-02 0.  1.
       -2    1    3    3    0  502  0.66023517939E+02 -0.14391244486E+03 -0.21150700165E+03  0.26420656400E+03  0.25500000920E-02 0. -1.
</event>
<event>
 5   0  0.2488472E-03  0.1090700E+04  0.7818609E-02  0.9214304E-01
        2   -1    0    0  501    0  0.00000000000E+00  0.00000000000E+00  0.60774534027E+03  0.60774534028E+03  0.25500000920E-02 0. -1.
       -2   -1    0    0    0  501  0.00000000000E+00  0.00000000000E+00 -0.48936022050E+03  0.48936022051E+03  0.25500000920E-02 0.  1.
    10030    2    1    2    0    0  0.00000000000E+00  0.00000000000E+00  0.11838511977E+03  0.10971055608E+04  0.10906995805E+04 0.  0.
        2    1    3    3  502    0 -0.34489323088E+02  0.19578885811E+03 -0.45161243480E+03  0.49343346222E+03  0.25500000920E-02 0.  1.
       -2    1    3    3    0  502  0.34489323088E+02 -0.19578885811E+03  0.56999755457E+03  0.60367209857E+03  0.25500000920E-02 0. -1.
</event>
<event>
 5   0  0.1509004E-03  0.1104161E+04  0.7818609E-02  0.9201146E-01
        1   -1    0    0  501    0  0.00000000000E+00  0.00000000000E+00  0.48268485855E+03  0.48268485857E+03  0.50400001928E-02 0. -1.
       -1   -1    0    0    0  501  0.00000000000E+00  0.00000000000E+00 -0.63145322251E+03  0.63145322253E+03  0.50400001928E-02 0.  1.
    10030    2    1    2    0    0  0.00000000000E+00  0.00000000000E+00 -0.14876836396E+03  0.11141380811E+04  0.11041610560E+04 0.  0.
        3    1    3    3  502    0  0.79540220925E+02 -0.88213163764E+02  0.46963933365E+03  0.48442679831E+03  0.10100000352E+00 0. -1.
       -3    1    3    3    0  502 -0.79540220925E+02  0.88213163764E+02 -0.61840769761E+03  0.62971128279E+03  0.10100000352E+00 0.  1.
</event>
<event>
 5   0  0.2392585E-03  0.1095163E+04  0.7818609E-02  0.9209919E-01
        2   -1    0    0  501    0  0.00000000000E+00  0.00000000000E+00  0.62216496672E+03  0.62216496673E+03  0.25500000920E-02 0.  1.
       -2   -1    0    0    0  501  0.00000000000E+00  0.00000000000E+00 -0.48193887963E+03  0.48193887964E+03  0.25500000920E-02 0. -1.
    10030    2    1    2    0    0  0.00000000000E+00  0.00000000000E+00  0.14022608709E+03  0.11041038464E+04  0.10951629779E+04 0.  0.
        5    1    3    3  502    0  0.14877790516E+03  0.19146815579E+03 -0.42484153655E+03  0.48919049553E+03  0.46999998093E+01 0. -1.
       -5    1    3    3    0  502 -0.14877790516E+03 -0.19146815579E+03  0.56506762364E+03  0.61491335083E+03  0.46999998093E+01 0.  1.
</event>
<event>
 5   0  0.1479573E-03  0.1098822E+04  0.7818609E-02  0.9206340E-01
       -1   -1    0    0    0  501  0.00000000000E+00  0.00000000000E+00  0.20333099929E+03  0.20333099935E+03  0.50400001928E-02 0. -1.
        1   -1    0    0  501    0  0.00000000000E+00  0.00000000000E+00 -0.14845381685E+04  0.14845381685E+04  0.50400001928E-02 0.  1.
    10030    2    1    2    0    0  0.00000000000E+00  0.00000000000E+00 -0.12812071692E+04  0.16878691678E+04  0.10988223320E+04 0.  0.
        4    1    3    3  502    0 -0.22372598801E+03  0.48115866828E+03 -0.85937394127E+03  0.10099961216E+04  0.12699999809E+01 0. -1.
       -4    1    3    3    0  502  0.22372598801E+03 -0.48115866828E+03 -0.42183322792E+03  0.67787304626E+03  0.12699999809E+01 0.  1.
</event>
<event>
 5   0  0.2488472E-03  0.1107225E+04  0.7818609E-02  0.9198178E-01
       -2   -1    0    0    0  501  0.00000000000E+00  0.00000000000E+00  0.18373946635E+03  0.18373946637E+03  0.25500000920E-02 0. -1.
        2   -1    0    0  501    0  0.00000000000E+00  0.00000000000E+00 -0.16680515072E+04  0.16680515072E+04  0.25500000920E-02 0.  1.
    10030    2    1    2    0    0  0.00000000000E+00  0.00000000000E+00 -0.14843120409E+04  0.18517909736E+04  0.11072251692E+04 0.  0.
        2    1    3    3  502    0  0.26055876384E+03 -0.35006675034E+03 -0.13118967482E+04  0.13825739318E+04  0.25500000920E-02 0.  1.
       -2    1    3    3    0  502 -0.26055876384E+03  0.35006675034E+03 -0.17241529269E+03  0.46921704175E+03  0.25500000920E-02 0. -1.
</event>
<event>
 5   0  0.1509004E-03  0.1095932E+04  0.7818609E-02  0.9209166E-01
        1   -1    0    0  501    0  0.00000000000E+00  0.00000000000E+00  0.18722920711E+04  0.18722920711E+04  0.50400001928E-02 0.  1.
       -1   -1    0    0    0  501  0.00000000000E+00  0.00000000000E+00 -0.16037381362E+03  0.16037381370E+03  0.50400001928E-02 0. -1.
    10030    2    1    2    0    0  0.00000000000E+00  0.00000000000E+00  0.17119182575E+04  0.20326658848E+04  0.10959317857E+04 0.  0.
        3    1    3    3  502    0 -0.19325666067E+02  0.34521425545E+03  0.67487847148E+02  0.35227969463E+03  0.10100000352E+00 0. -1.
       -3    1    3    3    0  502  0.19325666067E+02 -0.34521425545E+03  0.16444304103E+04  0.16803861902E+04  0.10100000352E+00 0.  1.
</event>
<event>
 5   0  0.1468556E-03  0.1110166E+04  0.7818609E-02  0.9195340E-01
       -1   -1    0    0    0  501  0.00000000000E+00  0.00000000000E+00  0.33368969052E+03  0.33368969056E+03  0.50400001928E-02 0. -1.
        1   -1    0    0  501    0  0.00000000000E+00  0.00000000000E+00 -0.92336422576E+03  0.92336422577E+03  0.50400001928E-02 0.  1.
    10030    2    1    2    0    0  0.00000000000E+00  0.00000000000E+00 -0.58967453524E+03  0.12570539163E+04  0.11101659746E+04 0.  0.
        5    1    3    3  502    0  0.27143282743E+01 -0.24428254696E+03 -0.85919407346E+03  0.89326249009E+03  0.46999998093E+01 0.  1.
       -5    1    3    3    0  502 -0.27143282743E+01  0.24428254696E+03  0.26951953822E+03  0.36379142625E+03  0.46999998093E+01 0. -1.
</event>
<event>
 5   0  0.1415400E-03  0.1095484E+04  0.7818609E-02  0.9209604E-01
       -1   -1    0    0    0  501  0.00000000000E+00  0.00000000000E+00  0.41496150875E+03  0.41496150878E+03  0.50400001928E-02 0. -1.
        1   -1    0    0  501    0  0.00000000000E+00  0.00000000000E+00 -0.72301055358E+03  0.72301055360E+03  0.50400001928E-02 0.  1.
    10030    2    1    2    0    0  0.00000000000E+00  0.00000000000E+00 -0.30804904483E+03  0.11379720624E+04  0.10954844594E+04 0.  0.
        2    1    3    3  502    0 -0.24538150008E+03  0.90449511056E+01  0.35458495765E+03  0.43130544156E+03  0.25500000920E-02 0. -1.
       -2    1    3    3    0  502  0.24538150008E+03 -0.90449511056E+01 -0.66263400248E+03  0.70666662081E+03  0.25500000920E-02 0.  1.
</event>
<event>
 5   0  0.1468556E-03  0.1098418E+04  0.7818609E-02  0.9206735E-01
       -1   -1    0    0    0  501  0.00000000000E+00  0.00000000000E+00  0.16544859657E+03  0.16544859664E+03  0.50400001928E-02 0.  1.
        1   -1    0    0  501    0  0.00000000000E+00  0.00000000000E+00 -0.18231080727E+04  0.18231080727E+04  0.50400001928E-02 0. -1.
    10030    2    1    2    0    0  0.00000000000E+00  0.00000000000E+00 -0.16576594761E+04  0.19885566693E+04  0.10984182666E+04 0.  0.
        5    1    3    3  502    0  0.89607713448E+02  0.29054235285E+03 -0.86110818453E+00  0.30408425250E+03  0.46999998093E+01 0.  1.
       -5    1    3    3    0  502 -0.89607713448E+02 -0.29054235285E+03 -0.16567983679E+04  0.16844724168E+04  0.46999998093E+01 0. -1.
</event>
<event>
 5   0  0.2488472E-03  0.1099329E+04  0.7818609E-02  0.9205846E-01
       -2   -1    0    0    0  501  0.00000000000E+00  0.00000000000E+00  0.17904263438E+03  0.17904263439E+03  0.25500000920E-02 0. -1.
        2   -1    0    0  501    0  0.00000000000E+00  0.00000000000E+00 -0.16874817899E+04  0.16874817899E+04  0.25500000920E-02 0.  1.
    10030    2    1    2    0    0  0.00000000000E+00  0.00000000000E+00 -0.15084391555E+04  0.18665244243E+04  0.10993292230E+04 0.  0.
        2    1    3    3  502    0 -0.75271596461E+02  0.29350391876E+03  0.24438940930E+02  0.30398622567E+03  0.25500000920E-02 0. -1.
       -2    1    3    3    0  502  0.75271596461E+02 -0.29350391876E+03 -0.15328780964E+04  0.15625381986E+04  0.25500000920E-02 0.  1.
</event>
<event>
 5   0  0.2488472E-03  0.1098511E+04  0.7818609E-02  0.9206644E-01
       -2   -1    0    0    0  501  0.00000000000E+00  0.00000000000E+00  0.11905215308E+04  0.11905215308E+04  0.25500000920E-02 0. -1.
        2   -1    0    0  501    0  0.00000000000E+00  0.00000000000E+00 -0.25340306201E+03  0.25340306202E+03  0.25500000920E-02 0.  1.
    10030    2    1    2    0    0  0.00000000000E+00  0.00000000000E+00  0.93711846881E+03  0.14439245928E+04  0.10985113587E+04 0.  0.
        2    1    3    3  502    0  0.19754946773E+03 -0.35689370075E+03 -0.14901721466E+02  0.40819231637E+03  0.25500000920E-02 0.  1.
       -2    1    3    3    0  502 -0.19754946773E+03  0.35689370075E+03  0.95202019027E+03  0.10357322765E+04  0.25500000920E-02 0. -1.
</event>
<event>
 5   0  0.1415400E-03  0.1097680E+04  0.7818609E-02  0.9207456E-01
        1   -1    0    0  501    0  0.00000000000E+00  0.00000000000E+00  0.34308574848E+03  0.34308574852E+03  0.50400001928E-02 0. -1.
       -1   -1    0    0    0  501  0.00000000000E+00  0.00000000000E+00 -0.87798925354E+03  0.87798925355E+03  0.50400001928E-02 0.  1.
    10030    2    1    2    0    0  0.00000000000E+00  0.00000000000E+00 -0.53490350506E+03  0.12210750021E+04  0.10976804640E+04 0.  0.
        2    1    3    3  502    0 -0.17623548866E+03  0.14808334547E+03 -0.82169513436E+03  0.85332907984E+03  0.25500000920E-02 0.  1.
       -2    1    3    3    0  502  0.17623548866E+03 -0.14808334547E+03  0.28679162930E+03  0.36774592222E+03  0.25500000920E-02 0. -1.
</event>
<event>
 5   0  0.2438115E-03  0.1104506E+04  0.7818609E-02  0.9200811E-01
        2   -1    0    0  501    0  0.00000000000E+00  0.00000000000E+00  0.18037279403E+04  0.18037279403E+04  0.25500000920E-02 0.  1.
       -2   -1    0    0    0  501  0.00000000000E+00  0.00000000000E+00 -0.16908508575E+03  0.16908508576E+03  0.25500000920E-02 0. -1.
    10030    2    1    2    0    0  0.00000000000E+00  0.00000000000E+00  0.16346428546E+04  0.19728130261E+04  0.11045062127E+04 0.  0.
        4    1    3    3  502    0  0.32320054996E+03  0.24670979509E+02  0.18701669931E+02  0.32468233411E+03  0.12699999809E+01 0. -1.
       -4    1    3    3    0  502 -0.32320054996E+03 -0.24670979509E+02  0.16159411847E+04  0.16481306920E+04  0.12699999809E+01 0.  1.
</event>
<event>
 5   0  0.9631750E-04  0.1097578E+04  0.7818609E-02  0.9207556E-01
       -3   -1    0    0    0  501  0.00000000000E+00  0.00000000000E+00  0.16180304663E+03  0.16180307815E+03  0.10100000352E+00 0. -1.
        3   -1    0    0  501    0  0.00000000000E+00  0.00000000000E+00 -0.18613319670E+04  0.18613319697E+04  0.10100000352E+00 0.  1.
    10030    2    1    2    0    0  0.00000000000E+00  0.00000000000E+00 -0.16995289204E+04  0.20231350479E+04  0.10975777288E+04 0.  0.
        2    1    3    3  502    0  0.15594513840E+03  0.41141085505E+03 -0.24515011466E+03  0.50366293944E+03  0.25500000920E-02 0. -1.
       -2    1    3    3    0  502 -0.15594513840E+03 -0.41141085505E+03 -0.14543788057E+04  0.15194721084E+04  0.25500000920E-02 0.  1.
</event>
<event>
 5   0  0.1468556E-03  0.1110767E+04  0.7818609E-02  0.9194761E-01
        1   -1    0    0  501    0  0.00000000000E+00  0.00000000000E+00  0.86449267953E+03  0.86449267955E+03  0.50400001928E-02 0. -1.
       -1   -1    0    0    0  501  0.00000000000E+00  0.00000000000E+00 -0.35679981534E+03  0.35679981538E+03  0.50400001928E-02 0.  1.
    10030    2    1    2    0    0  0.00000000000E+00  0.00000000000E+00  0.50769286419E+03  0.12212924949E+04  0.11107669935E+04 0.  0.
        5    1    3    3  502    0  0.40548757723E+03 -0.26534565474E+03 -0.44441962720E+02  0.48664737729E+03  0.46999998093E+01 0.  1.
       -5    1    3    3    0  502 -0.40548757723E+03  0.26534565474E+03  0.55213482691E+03  0.73464511763E+03  0.46999998093E+01 0. -1.
</event>
<event>
 5   0  0.1509004E-03  0.1097329E+04  0.7818609E-02  0.9207799E-01
       -1   -1    0    0    0  501  0.00000000000E+00  0.00000000000E+00  0.41551422140E+03  0.41551422143E+03  0.50400001928E-02 0.  1.
        1   -1    0    0  501    0  0.00000000000E+00  0.00000000000E+00 -0.72448189394E+03  0.72448189396E+03  0.50400001928E-02 0. -1.
    10030    2    1    2    0    0  0.00000000000E+00  0.00000000000E+00 -0.30896767254E+03  0.11399961154E+04  0.10973286292E+04 0.  0.
        3    1    3    3  502    0 -0.34581342557E+03 -0.23880147911E+03  0.21196284835E+03  0.47068177255E+03  0.10100000352E+00 0.  1.
       -3    1    3    3    0  502  0.34581342557E+03  0.23880147911E+03 -0.52093052090E+03  0.66931434284E+03  0.10100000352E+00 0. -1.
</event>
<event>
 5   0  0.2488472E-03  0.1121894E+04  0.7818609E-02  0.9184111E-01
       -2   -1    0    0    0  501  0.00000000000E+00  0.00000000000E+00  0.44728375490E+03  0.44728375491E+03  0.25500000920E-02 0.  1.
        2   -1    0    0  501    0  0.00000000000E+00  0.00000000000E+00 -0.70349438975E+03  0.70349438975E+03  0.25500000920E-02 0. -1.
    10030    2    1    2    0    0  0.00000000000E+00  0.00000000000E+00 -0.25621063485E+03  0.11507781447E+04  0.11218941344E+04 0.  0.
        2    1    3    3  502    0  0.13357755325E+03 -0.44933792664E+03 -0.44411838566E+03  0.64574660320E+03  0.25500000920E-02 0. -1.
       -2    1    3    3    0  502 -0.13357755325E+03  0.44933792664E+03  0.18790775081E+03  0.50503154146E+03  0.25500000920E-02 0.  1.
</event>
<event>
 5   0  0.1480937E-03  0.1096351E+04  0.7818609E-02  0.9208756E-01
        1   -1    0    0  501    0  0.00000000000E+00  0.00000000000E+00  0.67467224154E+03  0.67467224156E+03  0.50400001928E-02 0.  1.
       -1   -1    0    0    0  501  0.00000000000E+00  0.00000000000E+00 -0.44539570777E+03  0.44539570780E+03  0.50400001928E-02 0. -1.
    10030    2    1    2    0    0  0.00000000000E+00  0.00000000000E+00  0.22927653377E+03  0.11200679494E+04  0.10963505289E+04 0.  0.
        1    1    3    3  502    0 -0.18243817427E+03  0.39164927954E+03 -0.23003728384E+03  0.48947931272E+03  0.50400001928E-02 0. -1.
       -1    1    3    3    0  502  0.18243817427E+03 -0.39164927954E+03  0.45931381761E+03  0.63058863664E+03  0.50400001928E-02 0.  1.
</event>
<event>
 5   0  0.2488472E-03  0.1103109E+04  0.7818609E-02  0.9202166E-01
        2   -1    0    0  501    0  0.00000000000E+00  0.00000000000E+00  0.10645455956E+04  0.10645455956E+04  0.25500000920E-02 0. -1.
       -2   -1    0    0    0  501  0.00000000000E+00  0.00000000000E+00 -0.28576757748E+03  0.28576757750E+03  0.25500000920E-02 0.  1.
    10030    2    1    2    0    0  0.00000000000E+00  0.00000000000E+00  0.77877801809E+03  0.13503131731E+04  0.11031094524E+04 0.  0.
        2    1    3    3  502    0  0.33349568280E+03  0.34099959232E+03  0.50350497035E+02  0.47961991719E+03  0.25500000920E-02 0.  1.
       -2    1    3    3    0  502 -0.33349568280E+03 -0.34099959232E+03  0.72842752105E+03  0.87069325588E+03  0.25500000920E-02 0. -1.
</event>
<event>
 5   0  0.2488472E-03  0.1103794E+04  0.7818609E-02  0.9201502E-01
        2   -1    0    0  501    0  0.00000000000E+00  0.00000000000E+00  0.31273834705E+03  0.31273834707E+03  0.25500000920E-02 0. -1.
       -2   -1    0    0    0  501  0.00000000000E+00  0.00000000000E+00 -0.97394606945E+03  0.97394606945E+03  0.25500000920E-02 0.  1.
    10030    2    1    2    0    0  0.00000000000E+00  0.00000000000E+00 -0.66120772239E+03  0.12866844165E+04  0.11037939733E+04 0.  0.
        2    1    3    3  502    0  0.14019909134E+03  0.20283823482E+03 -0.90616702322E+03  0.93911543949E+03  0.25500000920E-02 0.  1.
       -2    1    3    3    0  502 -0.14019909134E+03 -0.20283823482E+03  0.24495930083E+03  0.34756897702E+03  0.25500000920E-02 0. -1.
</event>
<event>
 5   0  0.1509004E-03  0.1103275E+04  0.7818609E-02  0.9202006E-01
       -1   -1    0    0    0  501  0.00000000000E+00  0.00000000000E+00  0.43397241908E+03  0.43397241911E+03  0.50400001928E-02 0. -1.
        1   -1    0    0  501    0  0.00000000000E+00  0.00000000000E+00 -0.70120580859E+03  0.70120580860E+03  0.50400001928E-02 0.  1.
    10030    2    1    2    0    0  0.00000000000E+00  0.00000000000E+00 -0.26723338951E+03  0.11351782277E+04  0.11032750900E+04 0.  0.
        3    1    3    3  502    0 -0.14119716635E+03  0.10033404532E+02  0.41496739143E+03  0.43844641080E+03  0.10100000352E+00 0. -1.
       -3    1    3    3    0  502  0.14119716635E+03 -0.10033404532E+02 -0.68220078094E+03  0.69673181692E+03  0.10100000352E+00 0.  1.
</event>
<event>
 5   0  0.1480937E-03  0.1048787E+04  0.7818609E-02  0.9256597E-01
        1   -1    0    0  501    0  0.00000000000E+00  0.00000000000E+00  0.31846300818E+03  0.31846300822E+03  0.50400001928E-02 0. -1.
       -1   -1    0    0    0  501  0.00000000000E+00  0.00000000000E+00 -0.86348713172E+03  0.86348713174E+03  0.50400001928E-02 0.  1.
    10030    2    1    2    0    0  0.00000000000E+00  0.00000000000E+00 -0.54502412355E+03  0.11819501400E+04  0.10487873179E+04 0.  0.
        1    1    3    3  502    0  0.84591912934E+02 -0.12154934701E+03 -0.83943279912E+03  0.85239513124E+03  0.50400001928E-02 0.  1.
       -1    1    3    3    0  502 -0.84591912934E+02  0.12154934701E+03  0.29440867557E+03  0.32955500872E+03  0.50400001928E-02 0. -1.
</event>
<event>
 5   0  0.1509004E-03  0.1092928E+04  0.7818609E-02  0.9212112E-01
        1   -1    0    0  501    0  0.00000000000E+00  0.00000000000E+00  0.75203889638E+03  0.75203889640E+03  0.50400001928E-02 0. -1.
       -1   -1    0    0    0  501  0.00000000000E+00  0.00000000000E+00 -0.39708449099E+03  0.39708449102E+03  0.50400001928E-02 0.  1.
    10030    2    1    2    0    0  0.00000000000E+00  0.00000000000E+00  0.35495440539E+03  0.11491233874E+04  0.10929281448E+04 0.  0.
        3    1    3    3  502    0 -0.14862662778E+03  0.32875419748E+03  0.60901160933E+03  0.70785898832E+03  0.10100000352E+00 0. -1.
       -3    1    3    3    0  502  0.14862662778E+03 -0.32875419748E+03 -0.25405720393E+03  0.44126439910E+03  0.10100000352E+00 0.  1.
</event>
<event>
 5   0  0.1468556E-03  0.1097441E+04  0.7818609E-02  0.9207690E-01
        1   -1    0    0  501    0  0.00000000000E+00  0.00000000000E+00  0.11872837400E+04  0.11872837401E+04  0.50400001928E-02 0. -1.
       -1   -1    0    0    0  501  0.00000000000E+00  0.00000000000E+00 -0.25359903351E+03  0.25359903356E+03  0.50400001928E-02 0.  1.
    10030    2    1    2    0    0  0.00000000000E+00  0.00000000000E+00  0.93368470653E+03  0.14408827736E+04  0.10974406754E+04 0.  0.
        5    1    3    3  502    0 -0.38255195839E+03  0.70829153592E+02 -0.41167069086E+02  0.39125386572E+03  0.46999998093E+01 0.  1.
       -5    1    3    3    0  502  0.38255195839E+03 -0.70829153592E+02  0.97485177562E+03  0.10496289079E+04  0.46999998093E+01 0. -1.
</event>
<event>
 5   0  0.1479573E-03  0.1096714E+04  0.7818609E-02  0.9208401E-01
       -1   -1    0    0    0  501  0.00000000000E+00  0.00000000000E+00  0.39392151987E+03  0.39392151990E+03  0.50400001928E-02 0.  1.
        1   -1    0    0  501    0  0.00000000000E+00  0.00000000000E+00 -0.76333769584E+03  0.76333769585E+03  0.50400001928E-02 0. -1.
    10030    2    1    2    0    0  0.00000000000E+00  0.00000000000E+00 -0.36941617596E+03  0.11572592158E+04  0.10967135366E+04 0.  0.
        4    1    3    3  502    0 -0.45860991959E+03 -0.10649239805E+03 -0.48135033644E+03  0.67332269268E+03  0.12699999809E+01 0. -1.
       -4    1    3    3    0  502  0.45860991959E+03  0.10649239805E+03  0.11193416048E+03  0.48393652308E+03  0.12699999809E+01 0.  1.
</event>
<event>
 5   0  0.1479573E-03  0.1108881E+04  0.7818609E-02  0.9196579E-01
        1   -1    0    0  501    0  0.00000000000E+00  0.00000000000E+00  0.48735221149E+03  0.48735221151E+03  0.50400001928E-02 0.  1.
       -1   -1    0    0    0  501  0.00000000000E+00  0.00000000000E+00 -0.63076428048E+03  0.63076428050E+03  0.50400001928E-02 0. -1.
    10030    2    1    2    0    0  0.00000000000E+00  0.00000000000E+00 -0.14341206899E+03  0.11181164920E+04  0.11088811786E+04 0.  0.
        4    1    3    3  502    0  0.10226693900E+03 -0.54421385605E+03 -0.43626190943E+02  0.55545666380E+03  0.12699999809E+01 0.  1.
       -4    1    3    3    0  502 -0.10226693900E+03  0.54421385605E+03 -0.99785878049E+02  0.56265982821E+03  0.12699999809E+01 0. -1.
</event>
<event>
 5   0  0.2467448E-03  0.1116613E+04  0.7818609E-02  0.9189149E-01
       -2   -1    0    0    0  501  0.00000000000E+00  0.00000000000E+00  0.27452282721E+03  0.27452282722E+03  0.25500000920E-02 0.  1.
        2   -1    0    0  501    0  0.00000000000E+00  0.00000000000E+00 -0.11354472400E+04  0.11354472400E+04  0.25500000920E-02 0. -1.
    10030    2    1    2    0    0  0.00000000000E+00  0.00000000000E+00 -0.86092441280E+03  0.14099700672E+04  0.11166130690E+04 0.  0.
        1    1    3    3  502    0  0.19983762314E+03 -0.37210674662E+02 -0.10870603788E+04  0.11059023362E+04  0.50400001928E-02 0. -1.
       -1    1    3    3    0  502 -0.19983762314E+03  0.37210674662E+02  0.22613596601E+03  0.30406773107E+03  0.50400001928E-02 0.  1.
</event>
<event>
 5   0  0.2483036E-03  0.1096459E+04  0.7818609E-02  0.9208650E-01
       -2   -1    0    0    0  501  0.00000000000E+00  0.00000000000E+00  0.25956346143E+03  0.25956346144E+03  0.25500000920E-02 0.  1.
        2   -1    0    0  501    0  0.00000000000E+00  0.00000000000E+00 -0.11579280117E+04  0.11579280117E+04  0.25500000920E-02 0. -1.
    10030    2    1    2    0    0  0.00000000000E+00  0.00000000000E+00 -0.89836455029E+03  0.14174914732E+04  0.10964593979E+04 0.  0.
        3    1    3    3  502    0 -0.22519060723E+03  0.17924307820E+03 -0.10523998325E+04  0.10910473447E+04  0.10100000352E+00 0. -1.
       -3    1    3    3    0  502  0.22519060723E+03 -0.17924307820E+03  0.15403528220E+03  0.32644412850E+03  0.10100000352E+00 0.  1.
</event>
<event>
 5   0  0.1468556E-03  0.1100729E+04  0.7818609E-02  0.9204482E-01
        1   -1    0    0  501    0  0.00000000000E+00  0.00000000000E+00  0.54975232758E+03  0.54975232760E+03  0.50400001928E-02 0. -1.
       -1   -1    0    0    0  501  0.00000000000E+00  0.00000000000E+00 -0.55097736028E+03  0.55097736030E+03  0.50400001928E-02 0.  1.
    10030    2    1    2    0    0  0.00000000000E+00  0.00000000000E+00 -0.12250327011E+01  0.11007296879E+04  0.11007290062E+04 0.  0.
        5    1    3    3  502    0 -0.27214541668E+03  0.30589356580E+03 -0.36836945019E+03  0.55077413088E+03  0.46999998093E+01 0.  1.
       -5    1    3    3    0  502  0.27214541668E+03 -0.30589356580E+03  0.36714441748E+03  0.54995555703E+03  0.46999998093E+01 0. -1.
</event>
<event>
 5   0  0.2488472E-03  0.1098818E+04  0.7818609E-02  0.9206345E-01
       -2   -1    0    0    0  501  0.00000000000E+00  0.00000000000E+00  0.47665050638E+03  0.47665050639E+03  0.25500000920E-02 0.  1.
        2   -1    0    0  501    0  0.00000000000E+00  0.00000000000E+00 -0.63327375203E+03  0.63327375204E+03  0.25500000920E-02 0. -1.
    10030    2    1    2    0    0  0.00000000000E+00  0.00000000000E+00 -0.15662324565E+03  0.11099242584E+04  0.10988180097E+04 0.  0.
        2    1    3    3  502    0  0.26163834510E+02  0.13044749237E+03  0.46013265110E+03  0.47898136823E+03  0.25500000920E-02 0.  1.
       -2    1    3    3    0  502 -0.26163834510E+02 -0.13044749237E+03 -0.61675589675E+03  0.63094289019E+03  0.25500000920E-02 0. -1.
</event>
<event>
 5   0  0.2438115E-03  0.1103322E+04  0.7818609E-02  0.9201960E-01
        2   -1    0    0  501    0  0.00000000000E+00  0.00000000000E+00  0.11783038278E+04  0.11783038278E+04  0.25500000920E-02 0. -1.
       -2   -1    0    0    0  501  0.00000000000E+00  0.00000000000E+00 -0.25827771859E+03  0.25827771860E+03  0.25500000920E-02 0.  1.
    10030    2    1    2    0    0  0.00000000000E+00  0.00000000000E+00  0.92002610920E+03  0.14365815464E+04  0.11033215750E+04 0.  0.
        4    1    3    3  502    0 -0.24868291459E+02 -0.55048323025E+03  0.49391125680E+03  0.74000010892E+03  0.12699999809E+01 0. -1.
       -4    1    3    3    0  502  0.24868291459E+02  0.55048323025E+03  0.42611485240E+03  0.69658143748E+03  0.12699999809E+01 0.  1.
</event>
<event>
 5   0  0.1479573E-03  0.1092381E+04  0.7818609E-02  0.9212650E-01
       -1   -1    0    0    0  501  0.00000000000E+00  0.00000000000E+00  0.60485597957E+03  0.60485597959E+03  0.50400001928E-02 0. -1.
        1   -1    0    0  501    0  0.00000000000E+00  0.00000000000E+00 -0.49321490062E+03  0.49321490065E+03  0.50400001928E-02 0.  1.
    10030    2    1    2    0    0  0.00000000000E+00  0.00000000000E+00  0.11164107895E+03  0.10980708802E+04  0.10923808528E+04 0.  0.
        4    1    3    3  502    0 -0.11230817717E+03 -0.27224447236E+03  0.51820806795E+03  0.59604646964E+03  0.12699999809E+01 0. -1.
       -4    1    3    3    0  502  0.11230817717E+03  0.27224447236E+03 -0.40656698900E+03  0.50202441059E+03  0.12699999809E+01 0.  1.
</event>
<event>
 5   0  0.2392585E-03  0.1094813E+04  0.7818609E-02  0.9210262E-01
        2   -1    0    0  501    0  0.00000000000E+00  0.00000000000E+00  0.10129091174E+04  0.10129091174E+04  0.25500000920E-02 0.  1.
       -2   -1    0    0    0  501  0.00000000000E+00  0.00000000000E+00 -0.29583493296E+03  0.29583493298E+03  0.25500000920E-02 0. -1.
    10030    2    1    2    0    0  0.00000000000E+00  0.00000000000E+00  0.71707418441E+03  0.13087440504E+04  0.10948130449E+04 0.  0.
        5    1    3    3  502    0  0.24724523846E+03 -0.47927735221E+03  0.47064294791E+03  0.71579596443E+03  0.46999998093E+01 0.  1.
       -5    1    3    3    0  502 -0.24724523846E+03  0.47927735221E+03  0.24643123650E+03  0.59294808592E+03  0.46999998093E+01 0. -1.
</event>
<event>
 5   0  0.2467448E-03  0.1099964E+04  0.7818609E-02  0.9205227E-01
        2   -1    0    0  501    0  0.00000000000E+00  0.00000000000E+00  0.75184451926E+03  0.75184451927E+03  0.25500000920E-02 0. -1.
       -2   -1    0    0    0  501  0.00000000000E+00  0.00000000000E+00 -0.40231764034E+03  0.40231764035E+03  0.25500000920E-02 0.  1.
    10030    2    1    2    0    0  0.00000000000E+00  0.00000000000E+00  0.34952687892E+03  0.11541621596E+04  0.10999642047E+04 0.  0.
        1    1    3    3  502    0 -0.33720209421E+03 -0.39740384919E+03  0.35904520488E+03  0.63288903519E+03  0.50400001928E-02 0. -1.
       -1    1    3    3    0  502  0.33720209421E+03  0.39740384919E+03 -0.95183259600E+01  0.52127312442E+03  0.50400001928E-02 0.  1.
</event>
<event>
 5   0  0.1479573E-03  0.1097825E+04  0.7818609E-02  0.9207314E-01
       -1   -1    0    0    0  501  0.00000000000E+00  0.00000000000E+00  0.21256294533E+03  0.21256294539E+03  0.50400001928E-02 0.  1.
        1   -1    0    0  501    0  0.00000000000E+00  0.00000000000E+00 -0.14174867565E+04  0.14174867565E+04  0.50400001928E-02 0. -1.
    10030    2    1    2    0    0  0.00000000000E+00  0.00000000000E+00 -0.12049238112E+04  0.16300497019E+04  0.10978254142E+04 0.  0.
        4    1    3    3  502    0 -0.12867313016E+03  0.30019294992E+03  0.52586712714E+02  0.33081650029E+03  0.12699999809E+01 0.  1.
       -4    1    3    3    0  502  0.12867313016E+03 -0.30019294992E+03 -0.12575105239E+04  0.12992332016E+04  0.12699999809E+01 0. -1.
</event>
<event>
 5   0  0.9631750E-04  0.1085968E+04  0.7818609E-02  0.9218977E-01
        3   -1    0    0  501    0  0.00000000000E+00  0.00000000000E+00  0.25910539606E+03  0.25910541575E+03  0.10100000352E+00 0.  1.
       -3   -1    0    0    0  501  0.00000000000E+00  0.00000000000E+00 -0.11378831125E+04  0.11378831170E+04  0.10100000352E+00 0. -1.
    10030    2    1    2    0    0  0.00000000000E+00  0.00000000000E+00 -0.87877771643E+03  0.13969885327E+04  0.10859680869E+04 0.  0.
        5    1    3    3  502    0  0.52077129631E+03  0.47870101165E+02 -0.25157768778E+03  0.58035136998E+03  0.46999998093E+01 0.  1.
       -5    1    3    3    0  502 -0.52077129631E+03 -0.47870101165E+02 -0.62720002865E+03  0.81663716275E+03  0.46999998093E+01 0. -1.
</event>
<event>
 5   0  0.1480937E-03  0.1106400E+04  0.7818609E-02  0.9198976E-01
        1   -1    0    0  501    0  0.00000000000E+00  0.00000000000E+00  0.11234970976E+04  0.11234970976E+04  0.50400001928E-02 0.  1.
       -1   -1    0    0    0  501  0.00000000000E+00  0.00000000000E+00 -0.27239091519E+03  0.27239091524E+03  0.50400001928E-02 0. -1.
    10030    2    1    2    0    0  0.00000000000E+00  0.00000000000E+00  0.85110618238E+03  0.13958880128E+04  0.11064002940E+04 0.  0.
        1    1    3    3  502    0 -0.41603497069E+03  0.30698750197E+03  0.17734490245E+03  0.54660555947E+03  0.50400001928E-02 0. -1.
       -1    1    3    3    0  502  0.41603497069E+03 -0.30698750197E+03  0.67376127993E+03  0.84928245334E+03  0.50400001928E-02 0.  1.
</event>
<event>
 5   0  0.2438115E-03  0.1110320E+04  0.7818609E-02  0.9195191E-01
       -2   -1    0    0    0  501  0.00000000000E+00  0.00000000000E+00  0.12562046726E+04  0.12562046726E+04  0.25500000920E-02 0.  1.
        2   -1    0    0  501    0  0.00000000000E+00  0.00000000000E+00 -0.24534438917E+03  0.24534438918E+03  0.25500000920E-02 0. -1.
    10030    2    1    2    0    0  0.00000000000E+00  0.00000000000E+00  0.10108602834E+04  0.15015490618E+04  0.11103202566E+04 0.  0.
        4    1    3    3  502    0  0.36453784653E+03  0.30277062602E+03  0.11431309618E+03  0.48746998922E+03  0.12699999809E+01 0. -1.
       -4    1    3    3    0  502 -0.36453784653E+03 -0.30277062602E+03  0.89654718723E+03  0.10140790725E+04  0.12699999809E+01 0.  1.
</event>
<event>
 5   0  0.2483036E-03  0.1074826E+04  0.7818609E-02  0.9230081E-01
       -2   -1    0    0    0  501  0.00000000000E+00  0.00000000000E+00  0.28431369559E+03  0.28431369560E+03  0.25500000920E-02 0.  1.
        2   -1    0    0  501    0  0.00000000000E+00  0.00000000000E+00 -0.10158250226E+04  0.10158250226E+04  0.25500000920E-02 0. -1.
    10030    2    1    2    0    0  0.00000000000E+00  0.00000000000E+00 -0.73151132698E+03  0.13001387182E+04  0.10748264348E+04 0.  0.
        3    1    3    3  502    0  0.40640265746E+03  0.31268038334E+03 -0.56035453517E+03  0.75955865962E+03  0.10100000352E+00 0. -1.
       -3    1    3    3    0  502 -0.40640265746E+03 -0.31268038334E+03 -0.17115679181E+03  0.54058005856E+03  0.10100000352E+00 0.  1.
</event>
<event>
 5   0  0.2488472E-03  0.1108104E+04  0.7818609E-02  0.9197329E-01
       -2   -1    0    0    0  501  0.00000000000E+00  0.00000000000E+00  0.58342441255E+03  0.58342441256E+03  0.25500000920E-02 0.  1.
        2   -1    0    0  501    0  0.00000000000E+00  0.00000000000E+00 -0.52615841031E+03  0.52615841032E+03  0.25500000920E-02 0. -1.
    10030    2    1    2    0    0  0.00000000000E+00  0.00000000000E+00  0.57266002241E+02  0.11095828229E+04  0.11081040772E+04 0.  0.
        2    1    3    3  502    0  0.26378230604E+02 -0.43339856299E+03  0.37324853853E+03  0.57257715373E+03  0.25500000920E-02 0.  1.
       -2    1    3    3    0  502 -0.26378230604E+02  0.43339856299E+03 -0.31598253629E+03  0.53700566915E+03  0.25500000920E-02 0. -1.
</event>
<event>
 5   0  0.2488472E-03  0.1098425E+04  0.7818609E-02  0.9206729E-01
        2   -1    0    0  501    0  0.00000000000E+00  0.00000000000E+00  0.71896632945E+03  0.71896632946E+03  0.25500000920E-02 0.  1.
       -2   -1    0    0    0  501  0.00000000000E+00  0.00000000000E+00 -0.41953875968E+03  0.41953875969E+03  0.25500000920E-02 0. -1.
    10030    2    1    2    0    0  0.00000000000E+00  0.00000000000E+00  0.29942756977E+03  0.11385050891E+04  0.10984247669E+04 0.  0.
        2    1    3    3  502    0 -0.10917510650E+03  0.36799398198E+03 -0.25742384480E+03  0.46217508644E+03  0.25500000920E-02 0. -1.
       -2    1    3    3    0  502  0.10917510650E+03 -0.36799398198E+03  0.55685141457E+03  0.67633000271E+03  0.25500000920E-02 0.  1.
</event>
<event>
 5   0  0.2438115E-03  0.1075878E+04  0.7818609E-02  0.9229027E-01
        2   -1    0    0  501    0  0.00000000000E+00  0.00000000000E+00  0.67381116750E+03  0.67381116751E+03  0.25500000920E-02 0.  1.
       -2   -1    0    0    0  501  0.00000000000E+00  0.00000000000E+00 -0.42946518710E+03  0.42946518711E+03  0.25500000920E-02 0. -1.
    10030    2    1    2    0    0  0.00000000000E+00  0.00000000000E+00  0.24434598040E+03  0.11032763546E+04  0.10758781327E+04 0.  0.
        4    1    3    3  502    0  0.33774541582E+01 -0.10464786175E+03 -0.41891382967E+03  0.43180202843E+03  0.12699999809E+01 0. -1.
       -4    1    3    3    0  502 -0.33774541582E+01  0.10464786175E+03  0.66325981007E+03  0.67147432618E+03  0.12699999809E+01 0.  1.
</event>
<event>
 5   0  0.2392585E-03  0.1191528E+04  0.7818609E-02  0.9120305E-01
       -2   -1    0    0    0  501  0.00000000000E+00  0.00000000000E+00  0.22601115210E+03  0.22601115211E+03  0.25500000920E-02 0.  1.
        2   -1    0    0  501    0  0.00000000000E+00  0.00000000000E+00 -0.15704289743E+04  0.15704289743E+04  0.25500000920E-02 0. -1.
    10030    2    1    2    0    0  0.00000000000E+00  0.00000000000E+00 -0.13444178222E+04  0.17964401264E+04  0.11915275268E+04 0.  0.
        5    1    3    3  502    0 -0.97638741088E+02  0.12612602428E+03  0.19319219288E+03  0.25057216755E+03  0.46999998093E+01 0.  1.
       -5    1    3    3    0  502  0.97638741088E+02 -0.12612602428E+03 -0.15376100151E+04  0.15458679589E+04  0.46999998093E+01 0. -1.
</event>
<event>
 5   0  0.2392585E-03  0.1101545E+04  0.7818609E-02  0.9203687E-01
       -2   -1    0    0    0  501  0.00000000000E+00  0.00000000000E+00  0.29391570019E+03  0.29391570020E+03  0.25500000920E-02 0. -1.
        2   -1    0    0  501    0  0.00000000000E+00  0.00000000000E+00 -0.10321003972E+04  0.10321003972E+04  0.25500000920E-02 0.  1.
    10030    2    1    2    0    0  0.00000000000E+00  0.00000000000E+00 -0.73818469706E+03  0.13260160974E+04  0.11015452981E+04 0.  0.
        5    1    3    3  502    0 -0.31137025115E+03  0.20061167144E+03 -0.85974371192E+03  0.93615053074E+03  0.46999998093E+01 0.  1.
       -5    1    3    3    0  502  0.31137025115E+03 -0.20061167144E+03  0.12155901486E+03  0.38986556671E+03  0.46999998093E+01 0. -1.
</event>
<event>
 5   0  0.2483036E-03  0.1099748E+04  0.7818609E-02  0.9205438E-01
       -2   -1    0    0    0  501  0.00000000000E+00  0.00000000000E+00  0.18084281044E+03  0.18084281046E+03  0.25500000920E-02 0. -1.
        2   -1    0    0  501    0  0.00000000000E+00  0.00000000000E+00 -0.16719555846E+04  0.16719555846E+04  0.25500000920E-02 0.  1.
    10030    2    1    2    0    0  0.00000000000E+00  0.00000000000E+00 -0.14911127742E+04  0.18527983951E+04  0.10997475108E+04 0.  0.
        3    1    3    3  502    0  0.50712399156E+03  0.20915385183E+03 -0.68160113316E+03  0.87492867793E+03  0.10100000352E+00 0.  1.
       -3    1    3    3    0  502 -0.50712399156E+03 -0.20915385183E+03 -0.80951164102E+03  0.97786971714E+03  0.10100000352E+00 0. -1.
</event>
<event>
 5   0  0.1479573E-03  0.1122180E+04  0.7818609E-02  0.9183839E-01
        1   -1    0    0  501    0  0.00000000000E+00  0.00000000000E+00  0.17633226674E+04  0.17633226674E+04  0.50400001928E-02 0.  1.
       -1   -1    0    0    0  501  0.00000000000E+00  0.00000000000E+00 -0.17853916268E+03  0.17853916275E+03  0.50400001928E-02 0. -1.
    10030    2    1    2    0    0  0.00000000000E+00  0.00000000000E+00  0.15847835047E+04  0.19418618301E+04  0.11221802932E+04 0.  0.
        4    1    3    3  502    0 -0.19090776897E+03  0.11927174843E+03  0.16817570590E+04  0.16967557116E+04  0.12699999809E+01 0.  1.
       -4    1    3    3    0  502  0.19090776897E+03 -0.11927174843E+03 -0.96973554322E+02  0.24510611858E+03  0.12699999809E+01 0. -1.
</event>
<event>
 5   0  0.1480937E-03  0.1108085E+04  0.7818609E-02  0.9197347E-01
        1   -1    0    0  501    0  0.00000000000E+00  0.00000000000E+00  0.53566840781E+03  0.53566840783E+03  0.50400001928E-02 0. -1.
       -1   -1    0    0    0  501  0.00000000000E+00  0.00000000000E+00 -0.57304666626E+03  0.57304666628E+03  0.50400001928E-02 0.  1.
    10030    2    1    2    0    0  0.00000000000E+00  0.00000000000E+00 -0.37378258450E+02  0.11087150741E+04  0.11080848259E+04 0.  0.
        1    1    3    3  502    0 -0.21951343068E+03 -0.50996439825E+02 -0.52511553756E+03  0.57143075778E+03  0.50400001928E-02 0.  1.
       -1    1    3    3    0  502  0.21951343068E+03  0.50996439825E+02  0.48773727911E+03  0.53728431633E+03  0.50400001928E-02 0. -1.
</event>
<event>
 5   0  0.2488472E-03  0.1073818E+04  0.7818609E-02  0.9231094E-01
       -2   -1    0    0    0  501  0.00000000000E+00  0.00000000000E+00  0.37441702377E+03  0.37441702378E+03  0.25500000920E-02 0. -1.
        2   -1    0    0  501    0  0.00000000000E+00  0.00000000000E+00 -0.76991965083E+03  0.76991965083E+03  0.25500000920E-02 0.  1.
    10030    2    1    2    0    0  0.00000000000E+00  0.00000000000E+00 -0.39550262706E+03  0.11443366746E+04  0.10738175343E+04 0.  0.
        2    1    3    3  502    0 -0.81240200789E+02  0.25386231782E+03  0.29893044041E+03  0.40050649788E+03  0.25500000920E-02 0. -1.
       -2    1    3    3    0  502  0.81240200789E+02 -0.25386231782E+03 -0.69443306747E+03  0.74383017674E+03  0.25500000920E-02 0.  1.
</event>
<event>
 5   0  0.2438115E-03  0.1098026E+04  0.7818609E-02  0.9207118E-01
       -2   -1    0    0    0  501  0.00000000000E+00  0.00000000000E+00  0.83723673864E+03  0.83723673864E+03  0.25500000920E-02 0.  1.
        2   -1    0    0  501    0  0.00000000000E+00  0.00000000000E+00 -0.36001206383E+03  0.36001206384E+03  0.25500000920E-02 0. -1.
    10030    2    1    2    0    0  0.00000000000E+00  0.00000000000E+00  0.47722467481E+03  0.11972488025E+04  0.10980260948E+04 0.  0.
        4    1    3    3  502    0 -0.15040982641E+03  0.34832503922E+03 -0.19405811557E+03  0.42616148811E+03  0.12699999809E+01 0. -1.
       -4    1    3    3    0  502  0.15040982641E+03 -0.34832503922E+03  0.67128279038E+03  0.77108731437E+03  0.12699999809E+01 0.  1.
</event>
<event>
 5   0  0.1468556E-03  0.1102860E+04  0.7818609E-02  0.9202409E-01
        1   -1    0    0  501    0  0.00000000000E+00  0.00000000000E+00  0.12231798243E+04  0.12231798243E+04  0.50400001928E-02 0. -1.
       -1   -1    0    0    0  501  0.00000000000E+00  0.00000000000E+00 -0.24859381629E+03  0.24859381635E+03  0.50400001928E-02 0.  1.
    10030    2    1    2    0    0  0.00000000000E+00  0.00000000000E+00  0.97458600797E+03  0.14717736406E+04  0.11028598108E+04 0.  0.
        5    1    3    3  502    0  0.58639176478E+02  0.31867463834E+03  0.10826994773E+04  0.11301558858E+04  0.46999998093E+01 0. -1.
       -5    1    3    3    0  502 -0.58639176478E+02 -0.31867463834E+03 -0.10811346933E+03  0.34161775479E+03  0.46999998093E+01 0.  1.
</event>
<event>
 5   0  0.9631750E-04  0.1104236E+04  0.7818609E-02  0.9201073E-01
       -3   -1    0    0    0  501  0.00000000000E+00  0.00000000000E+00  0.61470337484E+03  0.61470338314E+03  0.10100000352E+00 0. -1.
        3   -1    0    0  501    0  0.00000000000E+00  0.00000000000E+00 -0.49590450506E+03  0.49590451534E+03  0.10100000352E+00 0.  1.
    10030    2    1    2    0    0  0.00000000000E+00  0.00000000000E+00  0.11879886978E+03  0.11106078985E+04  0.11042358139E+04 0.  0.
        1    1    3    3  502    0  0.11360930620E+02 -0.37240594895E+03 -0.35040600912E+03  0.51146811515E+03  0.50400001928E-02 0.  1.
       -1    1    3    3    0  502 -0.11360930620E+02  0.37240594895E+03  0.46920487890E+03  0.59913978333E+03  0.50400001928E-02 0. -1.
</event>
<event>
 5   0  0.2467448E-03  0.1132057E+04  0.7818609E-02  0.9174498E-01
       -2   -1    0    0    0  501  0.00000000000E+00  0.00000000000E+00  0.25664279850E+03  0.25664279851E+03  0.25500000920E-02 0.  1.
        2   -1    0    0  501    0  0.00000000000E+00  0.00000000000E+00 -0.12483818258E+04  0.12483818258E+04  0.25500000920E-02 0. -1.
    10030    2    1    2    0    0  0.00000000000E+00  0.00000000000E+00 -0.99173902727E+03  0.15050246243E+04  0.11320568985E+04 0.  0.
        1    1    3    3  502    0  0.31264046356E+03  0.44138297082E+03 -0.71763535135E+03  0.89864536049E+03  0.50400001928E-02 0.  1.
       -1    1    3    3    0  502 -0.31264046356E+03 -0.44138297082E+03 -0.27410367592E+03  0.60637926380E+03  0.50400001928E-02 0. -1.
</event>
<event>
 5   0  0.1468556E-03  0.1098119E+04  0.7818609E-02  0.9207027E-01
       -1   -1    0    0    0  501  0.00000000000E+00  0.00000000000E+00  0.16661311962E+03  0.16661311970E+03  0.50400001928E-02 0.  1.
        1   -1    0    0  501    0  0.00000000000E+00  0.00000000000E+00 -0.18093783368E+04  0.18093783368E+04  0.50400001928E-02 0. -1.
    10030    2    1    2    0    0  0.00000000000E+00  0.00000000000E+00 -0.16427652171E+04  0.19759914565E+04  0.10981186991E+04 0.  0.
        5    1    3    3  502    0  0.22954640551E+03  0.24133272243E+03 -0.16067915737E+04  0.16409552969E+04  0.46999998093E+01 0. -1.
       -5    1    3    3    0  502 -0.22954640551E+03 -0.24133272243E+03 -0.35973643481E+02  0.33503615958E+03  0.46999998093E+01 0.  1.
</event>
<event>
 5   0  0.1479573E-03  0.1105811E+04  0.7818609E-02  0.9199546E-01
       -1   -1    0    0    0  501  0.00000000000E+00  0.00000000000E+00  0.53564438758E+03  0.53564438761E+03  0.50400001928E-02 0.  1.
        1   -1    0    0  501    0  0.00000000000E+00  0.00000000000E+00 -0.57072324925E+03  0.57072324927E+03  0.50400001928E-02 0. -1.
    10030    2    1    2    0    0  0.00000000000E+00  0.00000000000E+00 -0.35078861662E+02  0.11063676369E+04  0.11058113860E+04 0.  0.
        4    1    3    3  502    0  0.11805084259E+03  0.43317182504E+03 -0.34039241071E+03  0.56342030280E+03  0.12699999809E+01 0. -1.
       -4    1    3    3    0  502 -0.11805084259E+03 -0.43317182504E+03  0.30531354905E+03  0.54294733407E+03  0.12699999809E+01 0.  1.
</event>
<event>
 5   0  0.1479573E-03  0.1100945E+04  0.7818609E-02  0.9204271E-01
       -1   -1    0    0    0  501  0.00000000000E+00  0.00000000000E+00  0.28858167501E+03  0.28858167506E+03  0.50400001928E-02 0. -1.
        1   -1    0    0  501    0  0.00000000000E+00  0.00000000000E+00 -0.10500317681E+04  0.10500317681E+04  0.50400001928E-02 0.  1.
    10030    2    1    2    0    0  0.00000000000E+00  0.00000000000E+00 -0.76145009310E+03  0.13386134432E+04  0.11009449151E+04 0.  0.
        4    1    3    3  502    0  0.31162661772E+03 -0.96697748346E+02  0.15833051307E+03  0.36267308650E+03  0.12699999809E+01 0. -1.
       -4    1    3    3    0  502 -0.31162661772E+03  0.96697748346E+02 -0.91978060617E+03  0.97594035668E+03  0.12699999809E+01 0.  1.
</event>
<event>
 5   0  0.1480937E-03  0.1101641E+04  0.7818609E-02  0.9203594E-01
        1   -1    0    0  501    0  0.00000000000E+00  0.00000000000E+00  0.95697676635E+03  0.95697676637E+03  0.50400001928E-02 0. -1.
       -1   -1    0    0    0  501  0.00000000000E+00  0.00000000000E+00 -0.31704327903E+03  0.31704327907E+03  0.50400001928E-02 0.  1.
    10030    2    1    2    0    0  0.00000000000E+00  0.00000000000E+00  0.63993348732E+03  0.12740200454E+04  0.11016406891E+04 0.  0.
        1    1    3    3  502    0  0.10207244049E+03 -0.71908328939E+02 -0.30046190594E+03  0.32537201451E+03  0.50400001928E-02 0.  1.
       -1    1    3    3    0  502 -0.10207244049E+03  0.71908328939E+02  0.94039539327E+03  0.94864803093E+03  0.50400001928E-02 0. -1.
</event>
<event>
 5   0  0.1480937E-03  0.1100279E+04  0.7818609E-02  0.9204920E-01
        1   -1    0    0  501    0  0.00000000000E+00  0.00000000000E+00  0.11334061935E+04  0.11334061935E+04  0.50400001928E-02 0. -1.
       -1   -1    0    0    0  501  0.00000000000E+00  0.00000000000E+00 -0.26702991312E+03  0.26702991317E+03  0.50400001928E-02 0.  1.
    10030    2    1    2    0    0  0.00000000000E+00  0.00000000000E+00  0.86637628036E+03  0.14004361067E+04  0.11002787963E+04 0.  0.
        1    1    3    3  502    0  0.50118071763E+02 -0.45914937832E+03  0.81359044646E+03  0.93555298477E+03  0.50400001928E-02 0. -1.
       -1    1    3    3    0  502 -0.50118071763E+02  0.45914937832E+03  0.52785833904E+02  0.46488312188E+03  0.50400001928E-02 0.  1.
</event>
<event>
 5   0  0.9631750E-04  0.1091475E+04  0.7818609E-02  0.9213541E-01
        4   -1    0    0  501    0  0.00000000000E+00  0.00000000000E+00  0.43637170447E+03  0.43637355254E+03  0.12699999809E+01 0.  1.
       -4   -1    0    0    0  501  0.00000000000E+00  0.00000000000E+00 -0.68250862862E+03  0.68250981021E+03  0.12699999809E+01 0. -1.
    10030    2    1    2    0    0  0.00000000000E+00  0.00000000000E+00 -0.24613692415E+03  0.11188833628E+04  0.10914745045E+04 0.  0.
        4    1    3    3  502    0  0.16605253744E+03  0.64086847220E+02 -0.65191781921E+03  0.67578030829E+03  0.12699999809E+01 0. -1.
       -4    1    3    3    0  502 -0.16605253744E+03 -0.64086847220E+02  0.40578089506E+03  0.44310305446E+03  0.12699999809E+01 0.  1.
</event>
<event>
 5   0  0.1468556E-03  0.1086493E+04  0.7818609E-02  0.9218457E-01
       -1   -1    0    0    0  501  0.00000000000E+00  0.00000000000E+00  0.83200142959E+03  0.83200142961E+03  0.50400001928E-02 0. -1.
        1   -1    0    0  501    0  0.00000000000E+00  0.00000000000E+00 -0.35470714671E+03  0.35470714675E+03  0.50400001928E-02 0.  1.
    10030    2    1    2    0    0  0.00000000000E+00  0.00000000000E+00  0.47729428288E+03  0.11867085764E+04  0.10864931720E+04 0.  0.
        5    1    3    3  502    0 -0.42891762818E+03 -0.31234025140E+03  0.11142140379E+03  0.54218408647E+03  0.46999998093E+01 0.  1.
       -5    1    3    3    0  502  0.42891762818E+03  0.31234025140E+03  0.36587287909E+03  0.64452448988E+03  0.46999998093E+01 0. -1.
</event>
<event>
 5   0  0.2483036E-03  0.1086212E+04  0.7818609E-02  0.9218736E-01
       -2   -1    0    0    0  501  0.00000000000E+00  0.00000000000E+00  0.30730397992E+03  0.30730397993E+03  0.25500000920E-02 0. -1.
        2   -1    0    0  501    0  0.00000000000E+00  0.00000000000E+00 -0.95984445055E+03  0.95984445055E+03  0.25500000920E-02 0.  1.
    10030    2    1    2    0    0  0.00000000000E+00  0.00000000000E+00 -0.65254047062E+03  0.12671484305E+04  0.10862118021E+04 0.  0.
        3    1    3    3  502    0 -0.24219490581E+03 -0.18599635034E+03 -0.85020565411E+03  0.90338401537E+03  0.10100000352E+00 0.  1.
       -3    1    3    3    0  502  0.24219490581E+03  0.18599635034E+03  0.19766518349E+03  0.36376441512E+03  0.10100000352E+00 0. -1.
</event>
<event>
 5   0  0.1509004E-03  0.1101479E+04  0.7818609E-02  0.9203752E-01
       -1   -1    0    0    0  501  0.00000000000E+00  0.00000000000E+00  0.42349147686E+03  0.42349147689E+03  0.50400001928E-02 0. -1.
        1   -1    0    0  501    0  0.00000000000E+00  0.00000000000E+00 -0.71622167355E+03  0.71622167356E+03  0.50400001928E-02 0.  1.
    10030    2    1    2    0    0  0.00000000000E+00  0.00000000000E+00 -0.29273019669E+03  0.11397131505E+04  0.11014785959E+04 0.  0.
        3    1    3    3  502    0 -0.19183627369E+03 -0.47284148307E+03 -0.36076167522E+03  0.62492337172E+03  0.10100000352E+00 0.  1.
       -3    1    3    3    0  502  0.19183627369E+03  0.47284148307E+03  0.68031478534E+02  0.51478977873E+03  0.10100000352E+00 0. -1.
</event>
<event>
 5   0  0.9631750E-04  0.1102246E+04  0.7818609E-02  0.9203005E-01
        4   -1    0    0  501    0  0.00000000000E+00  0.00000000000E+00  0.11455146776E+04  0.11455153816E+04  0.12699999809E+01 0.  1.
       -4   -1    0    0    0  501  0.00000000000E+00  0.00000000000E+00 -0.26515078740E+03  0.26515382886E+03  0.12699999809E+01 0. -1.
    10030    2    1    2    0    0  0.00000000000E+00  0.00000000000E+00  0.88036389023E+03  0.14106692105E+04  0.11022463618E+04 0.  0.
        5    1    3    3  502    0  0.16399910466E+03 -0.23502489731E+03  0.10426222353E+04  0.10813027440E+04  0.46999998093E+01 0.  1.
       -5    1    3    3    0  502 -0.16399910466E+03  0.23502489731E+03 -0.16225834508E+03  0.32936646647E+03  0.46999998093E+01 0. -1.
</event>
<event>
 5   0  0.2392585E-03  0.9961547E+03  0.7818609E-02  0.9312772E-01
        2   -1    0    0  501    0  0.00000000000E+00  0.00000000000E+00  0.11387272752E+04  0.11387272752E+04  0.25500000920E-02 0. -1.
       -2   -1    0    0    0  501  0.00000000000E+00  0.00000000000E+00 -0.21785815936E+03  0.21785815937E+03  0.25500000920E-02 0.  1.
    10030    2    1    2    0    0  0.00000000000E+00  0.00000000000E+00  0.92086911581E+03  0.13565854345E+04  0.99615466307E+03 0.  0.
        5    1    3    3  502    0 -0.44394335385E+03 -0.20178263020E+03  0.32251346128E+03  0.58466995303E+03  0.46999998093E+01 0.  1.
       -5    1    3    3    0  502  0.44394335385E+03  0.20178263020E+03  0.59835565453E+03  0.77191548150E+03  0.46999998093E+01 0. -1.
</event>
<event>
 5   0  0.2483036E-03  0.1152416E+04  0.7818609E-02  0.9155557E-01
        2   -1    0    0  501    0  0.00000000000E+00  0.00000000000E+00  0.18587350088E+04  0.18587350088E+04  0.25500000920E-02 0.  1.
       -2   -1    0    0    0  501  0.00000000000E+00  0.00000000000E+00 -0.17862460701E+03  0.17862460703E+03  0.25500000920E-02 0. -1.
    10030    2    1    2    0    0  0.00000000000E+00  0.00000000000E+00  0.16801104018E+04  0.20373596158E+04  0.11524162625E+04 0.  0.
        3    1    3    3  502    0  0.24583478215E+03 -0.44393784233E+03  0.13225994976E+04  0.14166103872E+04  0.10100000352E+00 0.  1.
       -3    1    3    3    0  502 -0.24583478215E+03  0.44393784233E+03  0.35751090416E+03  0.62074922856E+03  0.10100000352E+00 0. -1.
</event>
<event>
 5   0  0.1480937E-03  0.1102456E+04  0.7818609E-02  0.9202802E-01
       -1   -1    0    0    0  501  0.00000000000E+00  0.00000000000E+00  0.21680129308E+03  0.21680129314E+03  0.50400001928E-02 0.  1.
        1   -1    0    0  501    0  0.00000000000E+00  0.00000000000E+00 -0.14015235115E+04  0.14015235116E+04  0.50400001928E-02 0. -1.
    10030    2    1    2    0    0  0.00000000000E+00  0.00000000000E+00 -0.11847222185E+04  0.16183248047E+04  0.11024556402E+04 0.  0.
        1    1    3    3  502    0 -0.49741843236E+03  0.75536992975E+02 -0.92295834802E+03  0.10511817380E+04  0.50400001928E-02 0. -1.
       -1    1    3    3    0  502  0.49741843236E+03 -0.75536992975E+02 -0.26176387045E+03  0.56714306666E+03  0.50400001928E-02 0.  1.
</event>
<event>
 5   0  0.2438115E-03  0.1102546E+04  0.7818609E-02  0.9202714E-01
        2   -1    0    0  501    0  0.00000000000E+00  0.00000000000E+00  0.80094201563E+03  0.80094201564E+03  0.25500000920E-02 0. -1.
       -2   -1    0    0    0  501  0.00000000000E+00  0.00000000000E+00 -0.37943034863E+03  0.37943034864E+03  0.25500000920E-02 0.  1.
    10030    2    1    2    0    0  0.00000000000E+00  0.00000000000E+00  0.42151166700E+03  0.11803723643E+04  0.11025456149E+04 0.  0.
        4    1    3    3  502    0  0.20862138912E+02  0.10031085019E+03  0.79065761847E+03  0.79726945135E+03  0.12699999809E+01 0. -1.
       -4    1    3    3    0  502 -0.20862138912E+02 -0.10031085019E+03 -0.36914595147E+03  0.38310291293E+03  0.12699999809E+01 0.  1.
</event>
<event>
 5   0  0.2467448E-03  0.1098342E+04  0.7818609E-02  0.9206809E-01
        2   -1    0    0  501    0  0.00000000000E+00  0.00000000000E+00  0.96474069116E+03  0.96474069117E+03  0.25500000920E-02 0.  1.
       -2   -1    0    0    0  501  0.00000000000E+00  0.00000000000E+00 -0.31261140327E+03  0.31261140328E+03  0.25500000920E-02 0. -1.
    10030    2    1    2    0    0  0.00000000000E+00  0.00000000000E+00  0.65212928789E+03  0.12773520944E+04  0.10983422805E+04 0.  0.
        1    1    3    3  502    0  0.16409111893E+03  0.38293502408E+02 -0.28180521578E+03  0.32833895186E+03  0.50400001928E-02 0. -1.
       -1    1    3    3    0  502 -0.16409111893E+03 -0.38293502408E+02  0.93393450367E+03  0.94901314259E+03  0.50400001928E-02 0.  1.
</event>
<event>
 5   0  0.2483036E-03  0.1019868E+04  0.7818609E-02  0.9287018E-01
       -2   -1    0    0    0  501  0.00000000000E+00  0.00000000000E+00  0.32751785542E+03  0.32751785543E+03  0.25500000920E-02 0. -1.
        2   -1    0    0  501    0  0.00000000000E+00  0.00000000000E+00 -0.79394961625E+03  0.79394961625E+03  0.25500000920E-02 0.  1.
    10030    2    1    2    0    0  0.00000000000E+00  0.00000000000E+00 -0.46643176083E+03  0.11214674717E+04  0.10198679829E+04 0.  0.
        3    1    3    3  502    0 -0.38723714003E+03  0.29780441975E+03 -0.39404860203E+03  0.62762599214E+03  0.10100000352E+00 0.  1.
       -3    1    3    3    0  502  0.38723714003E+03 -0.29780441975E+03 -0.72383158802E+02  0.49384147955E+03  0.10100000352E+00 0. -1.
</event>
<event>
 5   0  0.1468556E-03  0.1100330E+04  0.7818609E-02  0.9204870E-01
       -1   -1    0    0    0  501  0.00000000000E+00  0.00000000000E+00  0.44121192201E+03  0.44121192204E+03  0.50400001928E-02 0.  1.
        1   -1    0    0  501    0  0.00000000000E+00  0.00000000000E+00 -0.68602345574E+03  0.68602345576E+03  0.50400001928E-02 0. -1.
    10030    2    1    2    0    0  0.00000000000E+00  0.00000000000E+00 -0.24481153373E+03  0.11272353778E+04  0.11003303640E+04 0.  0.
        5    1    3    3  502    0 -0.40051893775E+03 -0.24981578154E+03 -0.41186785804E+03  0.62648269464E+03  0.46999998093E+01 0. -1.
       -5    1    3    3    0  502  0.40051893775E+03  0.24981578154E+03  0.16705632431E+03  0.50075268316E+03  0.46999998093E+01 0.  1.
</event>
<event>
 5   0  0.1415400E-03  0.1100183E+04  0.7818609E-02  0.9205013E-01
       -1   -1    0    0    0  501  0.00000000000E+00  0.00000000000E+00  0.37401576734E+03  0.37401576737E+03  0.50400001928E-02 0. -1.
        1   -1    0    0  501    0  0.00000000000E+00  0.00000000000E+00 -0.80905927266E+03  0.80905927268E+03  0.50400001928E-02 0.  1.
    10030    2    1    2    0    0  0.00000000000E+00  0.00000000000E+00 -0.43504350532E+03  0.11830750400E+04  0.11001834842E+04 0.  0.
        2    1    3    3  502    0 -0.30775697132E+03 -0.32420071832E+03 -0.56227031288E+03  0.71830937896E+03  0.25500000920E-02 0.  1.
       -2    1    3    3    0  502  0.30775697132E+03  0.32420071832E+03  0.12722680756E+03  0.46476566108E+03  0.25500000920E-02 0. -1.
</event>
<event>
 5   0  0.1480937E-03  0.1103969E+04  0.7818609E-02  0.9201332E-01
        1   -1    0    0  501    0  0.00000000000E+00  0.00000000000E+00  0.74180676126E+03  0.74180676127E+03  0.50400001928E-02 0.  1.
       -1   -1    0    0    0  501  0.00000000000E+00  0.00000000000E+00 -0.41073592607E+03  0.41073592610E+03  0.50400001928E-02 0. -1.
    10030    2    1    2    0    0  0.00000000000E+00  0.00000000000E+00  0.33107083518E+03  0.11525426874E+04  0.11039686356E+04 0.  0.
        1    1    3    3  502    0 -0.27172298096E+03  0.11296689277E+03  0.65308629562E+03  0.71632158057E+03  0.50400001928E-02 0.  1.
       -1    1    3    3    0  502  0.27172298096E+03 -0.11296689277E+03 -0.32201546043E+03  0.43622110681E+03  0.50400001928E-02 0. -1.
</event>
<event>
 5   0  0.2488472E-03  0.1116337E+04  0.7818609E-02  0.9189414E-01
       -2   -1    0    0    0  501  0.00000000000E+00  0.00000000000E+00  0.18317803217E+03  0.18317803218E+03  0.25500000920E-02 0. -1.
        2   -1    0    0  501    0  0.00000000000E+00  0.00000000000E+00 -0.17008150361E+04  0.17008150361E+04  0.25500000920E-02 0.  1.
    10030    2    1    2    0    0  0.00000000000E+00  0.00000000000E+00 -0.15176370039E+04  0.18839930683E+04  0.11163367797E+04 0.  0.
        2    1    3    3  502    0  0.31367165760E+03  0.38623370319E+03 -0.11857174510E+04  0.12858818981E+04  0.25500000920E-02 0.  1.
       -2    1    3    3    0  502 -0.31367165760E+03 -0.38623370319E+03 -0.33191955293E+03  0.59811117018E+03  0.25500000920E-02 0. -1.
</event>
<event>
 5   0  0.2438115E-03  0.1103754E+04  0.7818609E-02  0.9201540E-01
       -2   -1    0    0    0  501  0.00000000000E+00  0.00000000000E+00  0.21379741862E+03  0.21379741864E+03  0.25500000920E-02 0. -1.
        2   -1    0    0  501    0  0.00000000000E+00  0.00000000000E+00 -0.14245651857E+04  0.14245651857E+04  0.25500000920E-02 0.  1.
    10030    2    1    2    0    0  0.00000000000E+00  0.00000000000E+00 -0.12107677671E+04  0.16383626043E+04  0.11037542469E+04 0.  0.
        4    1    3    3  502    0 -0.49305363451E+03 -0.19623142988E+03 -0.83029218062E+03  0.98539097757E+03  0.12699999809E+01 0.  1.
       -4    1    3    3    0  502  0.49305363451E+03  0.19623142988E+03 -0.38047558646E+03  0.65297162677E+03  0.12699999809E+01 0. -1.
</event>
<event>
 5   0  0.1415400E-03  0.1080892E+04  0.7818609E-02  0.9224019E-01
        1   -1    0    0  501    0  0.00000000000E+00  0.00000000000E+00  0.54778138501E+03  0.54778138503E+03  0.50400001928E-02 0. -1.
       -1   -1    0    0    0  501  0.00000000000E+00  0.00000000000E+00 -0.53320840822E+03  0.53320840824E+03  0.50400001928E-02 0.  1.
    10030    2    1    2    0    0  0.00000000000E+00  0.00000000000E+00  0.14572976791E+02  0.10809897933E+04  0.10808915586E+04 0.  0.
        2    1    3    3  502    0 -0.22320643878E+03  0.36362733300E+03 -0.32445993647E+03  0.53602257601E+03  0.25500000920E-02 0.  1.
       -2    1    3    3    0  502  0.22320643878E+03 -0.36362733300E+03  0.33903291326E+03  0.54496721726E+03  0.25500000920E-02 0. -1.
</event>
<event>
 5   0  0.1468556E-03  0.1103589E+04  0.7818609E-02  0.9201701E-01
       -1   -1    0    0    0  501  0.00000000000E+00  0.00000000000E+00  0.40776789054E+03  0.40776789057E+03  0.50400001928E-02 0.  1.
        1   -1    0    0  501    0  0.00000000000E+00  0.00000000000E+00 -0.74669255871E+03  0.74669255873E+03  0.50400001928E-02 0. -1.
    10030    2    1    2    0    0  0.00000000000E+00  0.00000000000E+00 -0.33892466817E+03  0.11544604493E+04  0.11035891438E+04 0.  0.
        5    1    3    3  502    0 -0.28356384665E+03  0.29013895000E+03  0.22176380431E+03  0.46237467527E+03  0.46999998093E+01 0.  1.
       -5    1    3    3    0  502  0.28356384665E+03 -0.29013895000E+03 -0.56068847248E+03  0.69208577402E+03  0.46999998093E+01 0. -1.
</event>
<event>
 5   0  0.1415400E-03  0.1097679E+04  0.7818609E-02  0.9207457E-01
        1   -1    0    0  501    0  0.00000000000E+00  0.00000000000E+00  0.67625685032E+03  0.67625685034E+03  0.50400001928E-02 0.  1.
       -1   -1    0    0    0  501  0.00000000000E+00  0.00000000000E+00 -0.44542974850E+03  0.44542974852E+03  0.50400001928E-02 0. -1.
    10030    2    1    2    0    0  0.00000000000E+00  0.00000000000E+00  0.23082710183E+03  0.11216865989E+04  0.10976792223E+04 0.  0.
        2    1    3    3  502    0  0.37463465453E+03 -0.33156499427E+03 -0.11521812036E+03  0.51338259131E+03  0.25500000920E-02 0. -1.
       -2    1    3    3    0  502 -0.37463465453E+03  0.33156499427E+03  0.34604522219E+03  0.60830400755E+03  0.25500000920E-02 0.  1.
</event>
<event>
 5   0  0.9631750E-04  0.1096780E+04  0.7818609E-02  0.9208336E-01
       -3   -1    0    0    0  501  0.00000000000E+00  0.00000000000E+00  0.36429166349E+03  0.36429167749E+03  0.10100000352E+00 0. -1.
        3   -1    0    0  501    0  0.00000000000E+00  0.00000000000E+00 -0.82552344204E+03  0.82552344822E+03  0.10100000352E+00 0.  1.
    10030    2    1    2    0    0  0.00000000000E+00  0.00000000000E+00 -0.46123177855E+03  0.11898151257E+04  0.10967795037E+04 0.  0.
        4    1    3    3  502    0 -0.33277477938E+03  0.62582089471E+02 -0.69856988996E+03  0.77630990962E+03  0.12699999809E+01 0.  1.
       -4    1    3    3    0  502  0.33277477938E+03 -0.62582089471E+02  0.23733811140E+03  0.41350521610E+03  0.12699999809E+01 0. -1.
</event>
<event>
 5   0  0.2488472E-03  0.1069416E+04  0.7818609E-02  0.9235525E-01
       -2   -1    0    0    0  501  0.00000000000E+00  0.00000000000E+00  0.13619362179E+03  0.13619362181E+03  0.25500000920E-02 0. -1.
        2   -1    0    0  501    0  0.00000000000E+00  0.00000000000E+00 -0.20993092499E+04  0.20993092499E+04  0.25500000920E-02 0.  1.
    10030    2    1    2    0    0  0.00000000000E+00  0.00000000000E+00 -0.19631156281E+04  0.22355028717E+04  0.10694157845E+04 0.  0.
        2    1    3    3  502    0  0.29016651100E+03  0.26066807601E+03 -0.17461060472E+04  0.17891424700E+04  0.25500000920E-02 0. -1.
       -2    1    3    3    0  502 -0.29016651100E+03 -0.26066807601E+03 -0.21700958083E+03  0.44636040162E+03  0.25500000920E-02 0.  1.
</event>
<event>
 5   0  0.2483036E-03  0.1106783E+04  0.7818609E-02  0.9198606E-01
       -2   -1    0    0    0  501  0.00000000000E+00  0.00000000000E+00  0.29351717283E+03  0.29351717284E+03  0.25500000920E-02 0.  1.
        2   -1    0    0  501    0  0.00000000000E+00  0.00000000000E+00 -0.10433527661E+04  0.10433527661E+04  0.25500000920E-02 0. -1.
    10030    2    1    2    0    0  0.00000000000E+00  0.00000000000E+00 -0.74983559327E+03  0.13368699389E+04  0.11067826420E+04 0.  0.
        3    1    3    3  502    0  0.50004738272E+03 -0.23533173114E+03 -0.34046575000E+03  0.64911119677E+03  0.10100000352E+00 0.  1.
       -3    1    3    3    0  502 -0.50004738272E+03  0.23533173114E+03 -0.40936984327E+03  0.68775874217E+03  0.10100000352E+00 0. -1.
</event>
<event>
 5   0  0.2488472E-03  0.1098933E+04  0.7818609E-02  0.9206233E-01
       -2   -1    0    0    0  501  0.00000000000E+00  0.00000000000E+00  0.41884928734E+03  0.41884928735E+03  0.25500000920E-02 0.  1.
        2   -1    0    0  501    0  0.00000000000E+00  0.00000000000E+00 -0.72081595745E+03  0.72081595745E+03  0.25500000920E-02 0. -1.
    10030    2    1    2    0    0  0.00000000000E+00  0.00000000000E+00 -0.30196667010E+03  0.11396652448E+04  0.10989326642E+04 0.  0.
        2    1    3    3  502    0  0.87097351637E+02  0.11874625260E+03 -0.69996889725E+03  0.71529230270E+03  0.25500000920E-02 0. -1.
       -2    1    3    3    0  502 -0.87097351637E+02 -0.11874625260E+03  0.39800222715E+03  0.42437294211E+03  0.25500000920E-02 0.  1.
</event>
<event>
 5   0  0.1509004E-03  0.1100593E+04  0.7818609E-02  0.9204615E-01
       -1   -1    0    0    0  501  0.00000000000E+00  0.00000000000E+00  0.24912420953E+03  0.24912420958E+03  0.50400001928E-02 0. -1.
        1   -1    0    0  501    0  0.00000000000E+00  0.00000000000E+00 -0.12155621678E+04  0.12155621678E+04  0.50400001928E-02 0.  1.
    10030    2    1    2    0    0  0.00000000000E+00  0.00000000000E+00 -0.96643795823E+03  0.14646863774E+04  0.11005925027E+04 0.  0.
        3    1    3    3  502    0  0.11934274030E+03 -0.51420891670E+03 -0.69012754315E+03  0.86886681125E+03  0.10100000352E+00 0. -1.
       -3    1    3    3    0  502 -0.11934274030E+03  0.51420891670E+03 -0.27631041508E+03  0.59581956611E+03  0.10100000352E+00 0.  1.
</event>
<event>
 5   0  0.1468556E-03  0.1099416E+04  0.7818609E-02  0.9205761E-01
       -1   -1    0    0    0  501  0.00000000000E+00  0.00000000000E+00  0.30557765475E+03  0.30557765479E+03  0.50400001928E-02 0. -1.
        1   -1    0    0  501    0  0.00000000000E+00  0.00000000000E+00 -0.98887719216E+03  0.98887719217E+03  0.50400001928E-02 0.  1.
    10030    2    1    2    0    0  0.00000000000E+00  0.00000000000E+00 -0.68329953741E+03  0.12944548470E+04  0.10994157962E+04 0.  0.
        5    1    3    3  502    0  0.90892855545E+02  0.15648764073E+03 -0.95277357561E+03  0.96981929722E+03  0.46999998093E+01 0.  1.
       -5    1    3    3    0  502 -0.90892855545E+02 -0.15648764073E+03  0.26947403820E+03  0.32463554974E+03  0.46999998093E+01 0. -1.
</event>
<event>
 5   0  0.2392585E-03  0.1105587E+04  0.7818609E-02  0.9199764E-01
       -2   -1    0    0    0  501  0.00000000000E+00  0.00000000000E+00  0.34647447408E+03  0.34647447409E+03  0.25500000920E-02 0. -1.
        2   -1    0    0  501    0  0.00000000000E+00  0.00000000000E+00 -0.88197110800E+03  0.88197110800E+03  0.25500000920E-02 0.  1.
    10030    2    1    2    0    0  0.00000000000E+00  0.00000000000E+00 -0.53549663392E+03  0.12284455821E+04  0.11055866783E+04 0.  0.
        5    1    3    3  502    0  0.45406918617E+03 -0.85973521169E+02  0.69250970222E+02  0.46732008201E+03  0.46999998093E+01 0. -1.
       -5    1    3    3    0  502 -0.45406918617E+03  0.85973521169E+02 -0.60474760414E+03  0.76112550009E+03  0.46999998093E+01 0.  1.
</event>
<event>
 5   0  0.1468556E-03  0.1100681E+04  0.7818609E-02  0.9204528E-01
        1   -1    0    0  501    0  0.00000000000E+00  0.00000000000E+00  0.38532841902E+03  0.38532841905E+03  0.50400001928E-02 0. -1.
       -1   -1    0    0    0  501  0.00000000000E+00  0.00000000000E+00 -0.78601736250E+03  0.78601736251E+03  0.50400001928E-02 0.  1.
    10030    2    1    2    0    0  0.00000000000E+00  0.00000000000E+00 -0.40068894348E+03  0.11713457816E+04  0.11006812938E+04 0.  0.
        5    1    3    3  502    0 -0.74840470233E+02  0.11664253001E+03  0.36643222771E+03  0.39179234716E+03  0.46999998093E+01 0. -1.
       -5    1    3    3    0  502  0.74840470233E+02 -0.11664253001E+03 -0.76712117119E+03  0.77955343440E+03  0.46999998093E+01 0.  1.
</event>
<event>
 5   0  0.1415400E-03  0.1121706E+04  0.7818609E-02  0.9184290E-01
        1   -1    0    0  501    0  0.00000000000E+00  0.00000000000E+00  0.62069945417E+03  0.62069945419E+03  0.50400001928E-02 0. -1.
       -1   -1    0    0    0  501  0.00000000000E+00  0.00000000000E+00 -0.50677684049E+03  0.50677684052E+03  0.50400001928E-02 0.  1.
    10030    2    1    2    0    0  0.00000000000E+00  0.00000000000E+00  0.11392261368E+03  0.11274762947E+04  0.11217060369E+04 0.  0.
        2    1    3    3  502    0 -0.18640602181E+03  0.22507860707E+03 -0.42419578847E+03  0.51512100645E+03  0.25500000920E-02 0.  1.
       -2    1    3    3    0  502  0.18640602181E+03 -0.22507860707E+03  0.53811840214E+03  0.61235528826E+03  0.25500000920E-02 0. -1.
</event>
<event>
 5   0  0.2392585E-03  0.1153664E+04  0.7818609E-02  0.9154410E-01
        2   -1    0    0  501    0  0.00000000000E+00  0.00000000000E+00  0.47058315548E+03  0.47058315549E+03  0.25500000920E-02 0. -1.
       -2   -1    0    0    0  501  0.00000000000E+00  0.00000000000E+00 -0.70707011688E+03  0.70707011688E+03  0.25500000920E-02 0.  1.
    10030    2    1    2    0    0  0.00000000000E+00  0.00000000000E+00 -0.23648696139E+03  0.11776532724E+04  0.11536642263E+04 0.  0.
        5    1    3    3  502    0  0.62140743047E+02 -0.52447217763E+03  0.11848531020E+03  0.54128864368E+03  0.46999998093E+01 0. -1.
       -5    1    3    3    0  502 -0.62140743047E+02  0.52447217763E+03 -0.35497227159E+03  0.63636462869E+03  0.46999998093E+01 0.  1.
</event>
<event>
 5   0  0.1480937E-03  0.1102502E+04  0.7818609E-02  0.9202756E-01
        1   -1    0    0  501    0  0.00000000000E+00  0.00000000000E+00  0.93268353237E+03  0.93268353238E+03  0.50400001928E-02 0.  1.
       -1   -1    0    0    0  501  0.00000000000E+00  0.00000000000E+00 -0.32581016339E+03  0.32581016343E+03  0.50400001928E-02 0. -1.
    10030    2    1    2    0    0  0.00000000000E+00  0.00000000000E+00  0.60687336898E+03  0.12584936958E+04  0.11025021979E+04 0.  0.
        1    1    3    3  502    0 -0.11376510549E+03 -0.46565854657E+03  0.61415942896E+03  0.77908419662E+03  0.50400001928E-02 0.  1.
       -1    1    3    3    0  502  0.11376510549E+03  0.46565854657E+03 -0.72860599873E+01  0.47940949919E+03  0.50400001928E-02 0. -1.
</event>
<event>
 5   0  0.2483036E-03  0.1098045E+04  0.7818609E-02  0.9207100E-01
       -2   -1    0    0    0  501  0.00000000000E+00  0.00000000000E+00  0.12848533617E+03  0.12848533620E+03  0.25500000920E-02 0. -1.
        2   -1    0    0  501    0  0.00000000000E+00  0.00000000000E+00 -0.23459924486E+04  0.23459924486E+04  0.25500000920E-02 0.  1.
    10030    2    1    2    0    0  0.00000000000E+00  0.00000000000E+00 -0.22175071125E+04  0.24744777848E+04  0.10980448597E+04 0.  0.
        3    1    3    3  502    0 -0.42059513465E+03  0.14027088471E+03 -0.37904991627E+03  0.58331384144E+03  0.10100000352E+00 0. -1.
       -3    1    3    3    0  502  0.42059513465E+03 -0.14027088471E+03 -0.18384571962E+04  0.18911639434E+04  0.10100000352E+00 0.  1.
</event>
<event>
 5   0  0.2467448E-03  0.1102495E+04  0.7818609E-02  0.9202764E-01
        2   -1    0    0  501    0  0.00000000000E+00  0.00000000000E+00  0.10708516345E+04  0.10708516345E+04  0.25500000920E-02 0. -1.
       -2   -1    0    0    0  501  0.00000000000E+00  0.00000000000E+00 -0.28376816331E+03  0.28376816332E+03  0.25500000920E-02 0.  1.
    10030    2    1    2    0    0  0.00000000000E+00  0.00000000000E+00  0.78708347120E+03  0.13546197978E+04  0.11024946286E+04 0.  0.
        1    1    3    3  502    0 -0.19260868570E+03 -0.46641160734E+03  0.12090709810E+03  0.51889923845E+03  0.50400001928E-02 0.  1.
       -1    1    3    3    0  502  0.19260868570E+03  0.46641160734E+03  0.66617637309E+03  0.83572055937E+03  0.50400001928E-02 0. -1.
</event>
<event>
 5   0  0.2483036E-03  0.1103356E+04  0.7818609E-02  0.9201927E-01
       -2   -1    0    0    0  501  0.00000000000E+00  0.00000000000E+00  0.18693390472E+03  0.18693390473E+03  0.25500000920E-02 0. -1.
        2   -1    0    0  501    0  0.00000000000E+00  0.00000000000E+00 -0.16281076826E+04  0.16281076826E+04  0.25500000920E-02 0.  1.
    10030    2    1    2    0    0  0.00000000000E+00  0.00000000000E+00 -0.14411737779E+04  0.18150415874E+04  0.11033558382E+04 0.  0.
        3    1    3    3  502    0 -0.38777241236E+03 -0.27048940109E+03 -0.25293665775E+03  0.53619858534E+03  0.10100000352E+00 0. -1.
       -3    1    3    3    0  502  0.38777241236E+03  0.27048940109E+03 -0.11882371202E+04  0.12788430020E+04  0.10100000352E+00 0.  1.
</event>
<event>
 5   0  0.9631750E-04  0.1087560E+04  0.7818609E-02  0.9217402E-01
       -4   -1    0    0    0  501  0.00000000000E+00  0.00000000000E+00  0.62163372761E+03  0.62163502492E+03  0.12699999809E+01 0. -1.
        4   -1    0    0  501    0  0.00000000000E+00  0.00000000000E+00 -0.47567408368E+03  0.47567577906E+03  0.12699999809E+01 0.  1.
    10030    2    1    2    0    0  0.00000000000E+00  0.00000000000E+00  0.14595964393E+03  0.10973108040E+04  0.10875600135E+04 0.  0.
        1    1    3    3  502    0  0.20741201826E+03 -0.37601490324E+03 -0.26361233598E+03  0.50388333619E+03  0.50400001928E-02 0.  1.
       -1    1    3    3    0  502 -0.20741201826E+03  0.37601490324E+03  0.40957197991E+03  0.59342746780E+03  0.50400001928E-02 0. -1.
</event>
<event>
 5   0  0.2438115E-03  0.1099521E+04  0.7818609E-02  0.9205659E-01
        2   -1    0    0  501    0  0.00000000000E+00  0.00000000000E+00  0.70128985825E+03  0.70128985825E+03  0.25500000920E-02 0.  1.
       -2   -1    0    0    0  501  0.00000000000E+00  0.00000000000E+00 -0.43097251320E+03  0.43097251321E+03  0.25500000920E-02 0. -1.
    10030    2    1    2    0    0  0.00000000000E+00  0.00000000000E+00  0.27031734505E+03  0.11322623715E+04  0.10995210825E+04 0.  0.
        4    1    3    3  502    0  0.42234789127E+03  0.23050873539E+03  0.40901571697E+03  0.63151206480E+03  0.12699999809E+01 0.  1.
       -4    1    3    3    0  502 -0.42234789127E+03 -0.23050873539E+03 -0.13869837192E+03  0.50075030667E+03  0.12699999809E+01 0. -1.
</event>
<event>
 5   0  0.1468556E-03  0.1137397E+04  0.7818609E-02  0.9169489E-01
        1   -1    0    0  501    0  0.00000000000E+00  0.00000000000E+00  0.19488479920E+04  0.19488479920E+04  0.50400001928E-02 0. -1.
       -1   -1    0    0    0  501  0.00000000000E+00  0.00000000000E+00 -0.16595355045E+03  0.16595355053E+03  0.50400001928E-02 0.  1.
    10030    2    1    2    0    0  0.00000000000E+00  0.00000000000E+00  0.17828944415E+04  0.21148015425E+04  0.11373974567E+04 0.  0.
        5    1    3    3  502    0  0.31021274021E+03  0.46296662721E+03  0.68087316013E+03  0.87987521404E+03  0.46999998093E+01 0.  1.
       -5    1    3    3    0  502 -0.31021274021E+03 -0.46296662721E+03  0.11020212814E+04  0.12349263285E+04  0.46999998093E+01 0. -1.
</event>
<event>
 5   0  0.9631750E-04  0.1108598E+04  0.7818609E-02  0.9196852E-01
       -4   -1    0    0    0  501  0.00000000000E+00  0.00000000000E+00  0.29523778214E+03  0.29524051365E+03  0.12699999809E+01 0.  1.
        4   -1    0    0  501    0  0.00000000000E+00  0.00000000000E+00 -0.10406691079E+04  0.10406698829E+04  0.12699999809E+01 0. -1.
    10030    2    1    2    0    0  0.00000000000E+00  0.00000000000E+00 -0.74543132581E+03  0.13359103965E+04  0.11085976394E+04 0.  0.
        2    1    3    3  502    0 -0.82463002226E+02  0.21261207816E+03  0.23609243253E+03  0.32824332319E+03  0.25500000920E-02 0.  1.
       -2    1    3    3    0  502  0.82463002226E+02 -0.21261207816E+03 -0.98152375834E+03  0.10076670733E+04  0.25500000920E-02 0. -1.
</event>
<event>
 5   0  0.9631750E-04  0.1105807E+04  0.7818609E-02  0.9199551E-01
        3   -1    0    0  501    0  0.00000000000E+00  0.00000000000E+00  0.20288793867E+03  0.20288796381E+03  0.10100000352E+00 0.  1.
       -3   -1    0    0    0  501  0.00000000000E+00  0.00000000000E+00 -0.15067530105E+04  0.15067530139E+04  0.10100000352E+00 0. -1.
    10030    2    1    2    0    0  0.00000000000E+00  0.00000000000E+00 -0.13038650718E+04  0.17096409777E+04  0.11058065595E+04 0.  0.
        3    1    3    3  502    0 -0.19979105401E+03 -0.40120925556E+03 -0.11524750687E+04  0.12365614122E+04  0.10100000352E+00 0. -1.
       -3    1    3    3    0  502  0.19979105401E+03  0.40120925556E+03 -0.15139000311E+03  0.47307956546E+03  0.10100000352E+00 0.  1.
</event>
<event>
 5   0  0.9631750E-04  0.1081378E+04  0.7818609E-02  0.9223534E-01
        3   -1    0    0  501    0  0.00000000000E+00  0.00000000000E+00  0.21845057298E+03  0.21845059633E+03  0.10100000352E+00 0. -1.
       -3   -1    0    0    0  501  0.00000000000E+00  0.00000000000E+00 -0.13382652389E+04  0.13382652427E+04  0.10100000352E+00 0.  1.
    10030    2    1    2    0    0  0.00000000000E+00  0.00000000000E+00 -0.11198146659E+04  0.15567158391E+04  0.10813784340E+04 0.  0.
        5    1    3    3  502    0  0.44131098396E+03 -0.48085237161E+02 -0.10042069168E+04  0.10979622927E+04  0.46999998093E+01 0.  1.
       -5    1    3    3    0  502 -0.44131098396E+03  0.48085237161E+02 -0.11560774917E+03  0.45875354632E+03  0.46999998093E+01 0. -1.
</event>
<event>
 5   0  0.9631750E-04  0.1100120E+04  0.7818609E-02  0.9205075E-01
        3   -1    0    0  501    0  0.00000000000E+00  0.00000000000E+00  0.29447183690E+03  0.29447185422E+03  0.10100000352E+00 0. -1.
       -3   -1    0    0    0  501  0.00000000000E+00  0.00000000000E+00 -0.10274862782E+04  0.10274862831E+04  0.10100000352E+00 0.  1.
    10030    2    1    2    0    0  0.00000000000E+00  0.00000000000E+00 -0.73301444127E+03  0.13219581374E+04  0.11001196052E+04 0.  0.
        2    1    3    3  502    0 -0.41758298668E+03  0.28256480776E+03 -0.63072631723E+03  0.80748629004E+03  0.25500000920E-02 0.  1.
       -2    1    3    3    0  502  0.41758298668E+03 -0.28256480776E+03 -0.10228812404E+03  0.51447184731E+03  0.25500000920E-02 0. -1.
</event>
<event>
 5   0  0.9631750E-04  0.1105897E+04  0.7818609E-02  0.9199463E-01
       -4   -1    0    0    0  501  0.00000000000E+00  0.00000000000E+00  0.81966632925E+03  0.81966731312E+03  0.12699999809E+01 0.  1.
        4   -1    0    0  501    0  0.00000000000E+00  0.00000000000E+00 -0.37301815482E+03  0.37302031677E+03  0.12699999809E+01 0. -1.
    10030    2    1    2    0    0  0.00000000000E+00  0.00000000000E+00  0.44664817443E+03  0.11926876299E+04  0.11058974594E+04 0.  0.
        5    1    3    3  502    0  0.33399783427E+03 -0.31624115171E+03 -0.10762535718E+03  0.47240695045E+03  0.46999998093E+01 0. -1.
       -5    1    3    3    0  502 -0.33399783427E+03  0.31624115171E+03  0.55427353162E+03  0.72028067944E+03  0.46999998093E+01 0.  1.
</event>
<event>
 5   0  0.1509004E-03  0.1064056E+04  0.7818609E-02  0.9240951E-01
       -1   -1    0    0    0  501  0.00000000000E+00  0.00000000000E+00  0.17168061997E+03  0.17168062005E+03  0.50400001928E-02 0.  1.
        1   -1    0    0  501    0  0.00000000000E+00  0.00000000000E+00 -0.16487244560E+04  0.16487244560E+04  0.50400001928E-02 0. -1.
    10030    2    1    2    0    0  0.00000000000E+00  0.00000000000E+00 -0.14770438360E+04  0.18204050760E+04  0.10640564587E+04 0.  0.
        3    1    3    3  502    0  0.38469175830E+03  0.32233690324E+03 -0.10405437341E+04  0.11552575907E+04  0.10100000352E+00 0.  1.
       -3    1    3    3    0  502 -0.38469175830E+03 -0.32233690324E+03 -0.43650010194E+03  0.66514748537E+03  0.10100000352E+00 0. -1.
</event>
<event>
 5   0  0.1468556E-03  0.1106499E+04  0.7818609E-02  0.9198880E-01
       -1   -1    0    0    0  501  0.00000000000E+00  0.00000000000E+00  0.19748936196E+03  0.19748936202E+03  0.50400001928E-02 0. -1.
        1   -1    0    0  501    0  0.00000000000E+00  0.00000000000E+00 -0.15498822322E+04  0.15498822322E+04  0.50400001928E-02 0.  1.
    10030    2    1    2    0    0  0.00000000000E+00  0.00000000000E+00 -0.13523928703E+04  0.17473715943E+04  0.11064994410E+04 0.  0.
        5    1    3    3  502    0  0.44387431510E+03  0.11906952762E+03 -0.18981343525E+03  0.49724560352E+03  0.46999998093E+01 0. -1.
       -5    1    3    3    0  502 -0.44387431510E+03 -0.11906952762E+03 -0.11625794350E+04  0.12501259907E+04  0.46999998093E+01 0.  1.
</event>
<event>
 5   0  0.2392585E-03  0.1097590E+04  0.7818609E-02  0.9207544E-01
       -2   -1    0    0    0  501  0.00000000000E+00  0.00000000000E+00  0.75081687276E+03  0.75081687277E+03  0.25500000920E-02 0.  1.
        2   -1    0    0  501    0  0.00000000000E+00  0.00000000000E+00 -0.40113115246E+03  0.40113115247E+03  0.25500000920E-02 0. -1.
    10030    2    1    2    0    0  0.00000000000E+00  0.00000000000E+00  0.34968572030E+03  0.11519480252E+04  0.10975901557E+04 0.  0.
        5    1    3    3  502    0 -0.42377598624E+03 -0.26533877559E+03  0.41223782891E+03  0.64803770719E+03  0.46999998093E+01 0. -1.
       -5    1    3    3    0  502  0.42377598624E+03  0.26533877559E+03 -0.62552108613E+02  0.50391031805E+03  0.46999998093E+01 0.  1.
</event>
<event>
 5   0  0.1480937E-03  0.1102075E+04  0.7818609E-02  0.9203172E-01
       -1   -1    0    0    0  501  0.00000000000E+00  0.00000000000E+00  0.56549972649E+03  0.56549972651E+03  0.50400001928E-02 0. -1.
        1   -1    0    0  501    0  0.00000000000E+00  0.00000000000E+00 -0.53694467153E+03  0.53694467156E+03  0.50400001928E-02 0.  1.
    10030    2    1    2    0    0  0.00000000000E+00  0.00000000000E+00  0.28555054956E+02  0.11024443981E+04  0.11020745255E+04 0.  0.
        1    1    3    3  502    0 -0.31084285401E+03  0.45156310504E+03  0.70059556282E+02  0.55266704188E+03  0.50400001928E-02 0.  1.
       -1    1    3    3    0  502  0.31084285401E+03 -0.45156310504E+03 -0.41504501326E+02  0.54977735619E+03  0.50400001928E-02 0. -1.
</event>
<event>
 5   0  0.1468556E-03  0.1094914E+04  0.7818609E-02  0.9210163E-01
        1   -1    0    0  501    0  0.00000000000E+00  0.00000000000E+00  0.92466995374E+03  0.92466995375E+03  0.50400001928E-02 0. -1.
       -1   -1    0    0    0  501  0.00000000000E+00  0.00000000000E+00 -0.32412552661E+03  0.32412552665E+03  0.50400001928E-02 0.  1.
    10030    2    1    2    0    0  0.00000000000E+00  0.00000000000E+00  0.60054442713E+03  0.12487954804E+04  0.10949139432E+04 0.  0.
        5    1    3    3  502    0  0.40038834890E+03  0.35258730584E+03  0.44023122152E+03  0.69170387925E+03  0.46999998093E+01 0. -1.
       -5    1    3    3    0  502 -0.40038834890E+03 -0.35258730584E+03  0.16031320561E+03  0.55709160114E+03  0.46999998093E+01 0.  1.
</event>
<event>
 5   0  0.1479573E-03  0.1101244E+04  0.7818609E-02  0.9203980E-01
        1   -1    0    0  501    0  0.00000000000E+00  0.00000000000E+00  0.20399344829E+04  0.20399344829E+04  0.50400001928E-02 0.  1.
       -1   -1    0    0    0  501  0.00000000000E+00  0.00000000000E+00 -0.14862473693E+03  0.14862473701E+03  0.50400001928E-02 0. -1.
    10030    2    1    2    0    0  0.00000000000E+00  0.00000000000E+00  0.18913097460E+04  0.21885592199E+04  0.11012442526E+04 0.  0.
        4    1    3    3  502    0 -0.46419815904E+02 -0.13493882067E+02 -0.14439641846E+03  0.15227876650E+03  0.12699999809E+01 0. -1.
       -4    1    3    3    0  502  0.46419815904E+02  0.13493882067E+02  0.20357061645E+04  0.20362804534E+04  0.12699999809E+01 0.  1.
</event>
<event>
 5   0  0.1415400E-03  0.1102221E+04  0.7818609E-02  0.9203029E-01
        1   -1    0    0  501    0  0.00000000000E+00  0.00000000000E+00  0.73170509211E+03  0.73170509213E+03  0.50400001928E-02 0.  1.
       -1   -1    0    0    0  501  0.00000000000E+00  0.00000000000E+00 -0.41508942892E+03  0.41508942895E+03  0.50400001928E-02 0. -1.
    10030    2    1    2    0    0  0.00000000000E+00  0.00000000000E+00  0.31661566319E+03  0.11467945211E+04  0.11022214820E+04 0.  0.
        2    1    3    3  502    0 -0.13582940057E+03  0.62846093229E+02 -0.39354079899E+03  0.42103873690E+03  0.25500000920E-02 0. -1.
       -2    1    3    3    0  502  0.13582940057E+03 -0.62846093229E+02  0.71015646218E+03  0.72575578418E+03  0.25500000920E-02 0.  1.
</event>
<event>
 5   0  0.2488472E-03  0.1104394E+04  0.7818609E-02  0.9200920E-01
       -2   -1    0    0    0  501  0.00000000000E+00  0.00000000000E+00  0.45231124845E+03  0.45231124846E+03  0.25500000920E-02 0.  1.
        2   -1    0    0  501    0  0.00000000000E+00  0.00000000000E+00 -0.67414077009E+03  0.67414077009E+03  0.25500000920E-02 0. -1.
    10030    2    1    2    0    0  0.00000000000E+00  0.00000000000E+00 -0.22182952164E+03  0.11264520185E+04  0.11043938670E+04 0.  0.
        2    1    3    3  502    0  0.31239126492E+03  0.31513947167E+03 -0.44614356608E+03  0.62924182201E+03  0.25500000920E-02 0. -1.
       -2    1    3    3    0  502 -0.31239126492E+03 -0.31513947167E+03  0.22431404444E+03  0.49721019654E+03  0.25500000920E-02 0.  1.
</event>
<event>
 5   0  0.2483036E-03  0.1095137E+04  0.7818609E-02  0.9209945E-01
       -2   -1    0    0    0  501  0.00000000000E+00  0.00000000000E+00  0.34184885100E+03  0.34184885101E+03  0.25500000920E-02 0. -1.
        2   -1    0    0  501    0  0.00000000000E+00  0.00000000000E+00 -0.87708678184E+03  0.87708678185E+03  0.25500000920E-02 0.  1.
    10030    2    1    2    0    0  0.00000000000E+00  0.00000000000E+00 -0.53523793084E+03  0.12189356329E+04  0.10951367195E+04 0.  0.
        3    1    3    3  502    0  0.37752148438E+03  0.13859235266E+03  0.14600958569E+03  0.42784240171E+03  0.10100000352E+00 0. -1.
       -3    1    3    3    0  502 -0.37752148438E+03 -0.13859235266E+03 -0.68124751653E+03  0.79109323115E+03  0.10100000352E+00 0.  1.
</event>
<event>
 5   0  0.2438115E-03  0.1094653E+04  0.7818609E-02  0.9210420E-01
       -2   -1    0    0    0  501  0.00000000000E+00  0.00000000000E+00  0.22858554957E+03  0.22858554958E+03  0.25500000920E-02 0. -1.
        2   -1    0    0  501    0  0.00000000000E+00  0.00000000000E+00 -0.13105204571E+04  0.13105204571E+04  0.25500000920E-02 0.  1.
    10030    2    1    2    0    0  0.00000000000E+00  0.00000000000E+00 -0.10819349075E+04  0.15391060067E+04  0.10946525274E+04 0.  0.
        4    1    3    3  502    0  0.50182572601E+03  0.21170043480E+03 -0.61692250635E+03  0.82294661135E+03  0.12699999809E+01 0.  1.
       -4    1    3    3    0  502 -0.50182572601E+03 -0.21170043480E+03 -0.46501240116E+03  0.71615939533E+03  0.12699999809E+01 0. -1.
</event>
<event>
 5   0  0.1509004E-03  0.1083699E+04  0.7818609E-02  0.9221227E-01
       -1   -1    0    0    0  501  0.00000000000E+00  0.00000000000E+00  0.63979840911E+03  0.63979840913E+03  0.50400001928E-02 0.  1.
        1   -1    0    0  501    0  0.00000000000E+00  0.00000000000E+00 -0.45889616111E+03  0.45889616114E+03  0.50400001928E-02 0. -1.
    10030    2    1    2    0    0  0.00000000000E+00  0.00000000000E+00  0.18090224800E+03  0.10986945703E+04  0.10836992827E+04 0.  0.
        3    1    3    3  502    0  0.45696152864E+03 -0.57424481198E+02 -0.19896273394E+03  0.50169471733E+03  0.10100000352E+00 0. -1.
       -3    1    3    3    0  502 -0.45696152864E+03  0.57424481198E+02  0.37986498194E+03  0.59699985294E+03  0.10100000352E+00 0.  1.
</event>
<event>
 5   0  0.2467448E-03  0.1102833E+04  0.7818609E-02  0.9202435E-01
       -2   -1    0    0    0  501  0.00000000000E+00  0.00000000000E+00  0.30120620679E+03  0.30120620680E+03  0.25500000920E-02 0. -1.
        2   -1    0    0  501    0  0.00000000000E+00  0.00000000000E+00 -0.10094745881E+04  0.10094745881E+04  0.25500000920E-02 0.  1.
    10030    2    1    2    0    0  0.00000000000E+00  0.00000000000E+00 -0.70826838130E+03  0.13106807949E+04  0.11028327372E+04 0.  0.
        1    1    3    3  502    0  0.19492215083E+03  0.48109687456E+03 -0.57523757413E+03  0.77482069817E+03  0.50400001928E-02 0.  1.
       -1    1    3    3    0  502 -0.19492215083E+03 -0.48109687456E+03 -0.13303080717E+03  0.53586009674E+03  0.50400001928E-02 0. -1.
</event>
<event>
 5   0  0.2392585E-03  0.1099488E+04  0.7818609E-02  0.9205691E-01
        2   -1    0    0  501    0  0.00000000000E+00  0.00000000000E+00  0.50361809234E+03  0.50361809234E+03  0.25500000920E-02 0.  1.
       -2   -1    0    0    0  501  0.00000000000E+00  0.00000000000E+00 -0.60009501935E+03  0.60009501936E+03  0.25500000920E-02 0. -1.
    10030    2    1    2    0    0  0.00000000000E+00  0.00000000000E+00 -0.96476927014E+02  0.11037131117E+04  0.10994884426E+04 0.  0.
        5    1    3    3  502    0  0.45029783431E+03  0.18186047437E+03  0.21034644127E+03  0.52925332977E+03  0.46999998093E+01 0.  1.
       -5    1    3    3    0  502 -0.45029783431E+03 -0.18186047437E+03 -0.30682336828E+03  0.57445978192E+03  0.46999998093E+01 0. -1.
</event>
<event>
 5   0  0.1479573E-03  0.1104085E+04  0.7818609E-02  0.9201220E-01
       -1   -1    0    0    0  501  0.00000000000E+00  0.00000000000E+00  0.40333436473E+03  0.40333436477E+03  0.50400001928E-02 0. -1.
        1   -1    0    0  501    0  0.00000000000E+00  0.00000000000E+00 -0.75557878845E+03  0.75557878847E+03  0.50400001928E-02 0.  1.
    10030    2    1    2    0    0  0.00000000000E+00  0.00000000000E+00 -0.35224442371E+03  0.11589131532E+04  0.11040849436E+04 0.  0.
        4    1    3    3  502    0 -0.41680472057E+03  0.18323579582E+03  0.15154599402E+03  0.47986386941E+03  0.12699999809E+01 0. -1.
       -4    1    3    3    0  502  0.41680472057E+03 -0.18323579582E+03 -0.50379041773E+03  0.67904928382E+03  0.12699999809E+01 0.  1.
</event>
<event>
 5   0  0.1415400E-03  0.1106527E+04  0.7818609E-02  0.9198853E-01
       -1   -1    0    0    0  501  0.00000000000E+00  0.00000000000E+00  0.30282798780E+03  0.30282798785E+03  0.50400001928E-02 0. -1.
        1   -1    0    0  501    0  0.00000000000E+00  0.00000000000E+00 -0.10108067363E+04  0.10108067363E+04  0.50400001928E-02 0.  1.
    10030    2    1    2    0    0  0.00000000000E+00  0.00000000000E+00 -0.70797874852E+03  0.13136347242E+04  0.11065271258E+04 0.  0.
        2    1    3    3  502    0 -0.54424843580E+03 -0.97175575114E+02 -0.37920429020E+03  0.67040685109E+03  0.25500000920E-02 0. -1.
       -2    1    3    3    0  502  0.54424843580E+03  0.97175575114E+02 -0.32877445833E+03  0.64322787310E+03  0.25500000920E-02 0.  1.
</event>
<event>
 5   0  0.1415400E-03  0.1100007E+04  0.7818609E-02  0.9205185E-01
        1   -1    0    0  501    0  0.00000000000E+00  0.00000000000E+00  0.38595574596E+03  0.38595574599E+03  0.50400001928E-02 0.  1.
       -1   -1    0    0    0  501  0.00000000000E+00  0.00000000000E+00 -0.78377793197E+03  0.78377793199E+03  0.50400001928E-02 0. -1.
    10030    2    1    2    0    0  0.00000000000E+00  0.00000000000E+00 -0.39782218601E+03  0.11697336780E+04  0.11000065389E+04 0.  0.
        2    1    3    3  502    0  0.53205725078E+03  0.16671941877E+02 -0.34603082162E+03  0.63490172568E+03  0.25500000920E-02 0. -1.
       -2    1    3    3    0  502 -0.53205725078E+03 -0.16671941877E+02 -0.51791364396E+02  0.53483195229E+03  0.25500000920E-02 0.  1.
</event>
<event>
 5   0  0.1509004E-03  0.1114424E+04  0.7818609E-02  0.9191246E-01
       -1   -1    0    0    0  501  0.00000000000E+00  0.00000000000E+00  0.16280268697E+03  0.16280268705E+03  0.50400001928E-02 0.  1.
        1   -1    0    0  501    0  0.00000000000E+00  0.00000000000E+00 -0.19071270021E+04  0.19071270021E+04  0.50400001928E-02 0. -1.
    10030    2    1    2    0    0  0.00000000000E+00  0.00000000000E+00 -0.17443243151E+04  0.20699296891E+04  0.11144243365E+04 0.  0.
        3    1    3    3  502    0  0.12182428751E+03  0.41187458702E+03 -0.15314824006E+04  0.15905722826E+04  0.10100000352E+00 0. -1.
       -3    1    3    3    0  502 -0.12182428751E+03 -0.41187458702E+03 -0.21284191447E+03  0.47935740655E+03  0.10100000352E+00 0.  1.
</event>
<event>
 5   0  0.1415400E-03  0.1103538E+04  0.7818609E-02  0.9201750E-01
       -1   -1    0    0    0  501  0.00000000000E+00  0.00000000000E+00  0.68487382125E+03  0.68487382127E+03  0.50400001928E-02 0. -1.
        1   -1    0    0  501    0  0.00000000000E+00  0.00000000000E+00 -0.44453302149E+03  0.44453302152E+03  0.50400001928E-02 0.  1.
    10030    2    1    2    0    0  0.00000000000E+00  0.00000000000E+00  0.24034079976E+03  0.11294068428E+04  0.11035379996E+04 0.  0.
        2    1    3    3  502    0 -0.45150020616E+03  0.30230494622E+03  0.21837981980E+03  0.58560264888E+03  0.25500000920E-02 0.  1.
       -2    1    3    3    0  502  0.45150020616E+03 -0.30230494622E+03  0.21960979957E+02  0.54380419391E+03  0.25500000920E-02 0. -1.
</event>
<event>
 5   0  0.2488472E-03  0.1095088E+04  0.7818609E-02  0.9209993E-01
        2   -1    0    0  501    0  0.00000000000E+00  0.00000000000E+00  0.71011847052E+03  0.71011847053E+03  0.25500000920E-02 0. -1.
       -2   -1    0    0    0  501  0.00000000000E+00  0.00000000000E+00 -0.42218935979E+03  0.42218935979E+03  0.25500000920E-02 0.  1.
    10030    2    1    2    0    0  0.00000000000E+00  0.00000000000E+00  0.28792911074E+03  0.11323078303E+04  0.10950880557E+04 0.  0.
        2    1    3    3  502    0 -0.41471747426E+03  0.65988150691E+02 -0.21934567322E+03  0.47376950499E+03  0.25500000920E-02 0.  1.
       -2    1    3    3    0  502  0.41471747426E+03 -0.65988150691E+02  0.50727478396E+03  0.65853832533E+03  0.25500000920E-02 0. -1.
</event>
<event>
 5   0  0.2488472E-03  0.1036377E+04  0.7818609E-02  0.9269523E-01
        2   -1    0    0  501    0  0.00000000000E+00  0.00000000000E+00  0.46821837842E+03  0.46821837843E+03  0.25500000920E-02 0. -1.
       -2   -1    0    0    0  501  0.00000000000E+00  0.00000000000E+00 -0.57349160320E+03  0.57349160320E+03  0.25500000920E-02 0.  1.
    10030    2    1    2    0    0  0.00000000000E+00  0.00000000000E+00 -0.10527322478E+03  0.10417099816E+04  0.10363769748E+04 0.  0.
        2    1    3    3  502    0 -0.14644247901E+03  0.43970605199E+03 -0.28563213751E+03  0.54440107439E+03  0.25500000920E-02 0.  1.
       -2    1    3    3    0  502  0.14644247901E+03 -0.43970605199E+03  0.18035891273E+03  0.49730890724E+03  0.25500000920E-02 0. -1.
</event>
<event>
 5   0  0.2483036E-03  0.1102085E+04  0.7818609E-02  0.9203162E-01
        2   -1    0    0  501    0  0.00000000000E+00  0.00000000000E+00  0.12995767695E+04  0.12995767695E+04  0.25500000920E-02 0. -1.
       -2   -1    0    0    0  501  0.00000000000E+00  0.00000000000E+00 -0.23365149378E+03  0.23365149379E+03  0.25500000920E-02 0.  1.
    10030    2    1    2    0    0  0.00000000000E+00  0.00000000000E+00  0.10659252757E+04  0.15332282633E+04  0.11020853932E+04 0.  0.
        3    1    3    3  502    0 -0.37755990066E+03  0.41397805906E+02 -0.22445549515E+02  0.38048530828E+03  0.10100000352E+00 0.  1.
       -3    1    3    3    0  502  0.37755990066E+03 -0.41397805906E+02  0.10883708253E+04  0.11527429550E+04  0.10100000352E+00 0. -1.
</event>
<event>
 5   0  0.9631750E-04  0.1238407E+04  0.7818609E-02  0.9079887E-01
        3   -1    0    0  501    0  0.00000000000E+00  0.00000000000E+00  0.16304024375E+04  0.16304024406E+04  0.10100000352E+00 0. -1.
       -3   -1    0    0    0  501  0.00000000000E+00  0.00000000000E+00 -0.23516477895E+03  0.23516480064E+03  0.10100000352E+00 0.  1.
    10030    2    1    2    0    0  0.00000000000E+00  0.00000000000E+00  0.13952376585E+04  0.18655672412E+04  0.12384074482E+04 0.  0.
        5    1    3    3  502    0  0.23319582172E+03  0.91730248512E+02  0.15505749582E+04  0.15707003281E+04  0.46999998093E+01 0. -1.
       -5    1    3    3    0  502 -0.23319582172E+03 -0.91730248512E+02 -0.15533729971E+03  0.29486691310E+03  0.46999998093E+01 0.  1.
</event>
<event>
 5   0  0.1479573E-03  0.1093058E+04  0.7818609E-02  0.9211985E-01
       -1   -1    0    0    0  501  0.00000000000E+00  0.00000000000E+00  0.28632113098E+03  0.28632113103E+03  0.50400001928E-02 0.  1.
        1   -1    0    0  501    0  0.00000000000E+00  0.00000000000E+00 -0.10432124776E+04  0.10432124777E+04  0.50400001928E-02 0. -1.
    10030    2    1    2    0    0  0.00000000000E+00  0.00000000000E+00 -0.75689134667E+03  0.13295336087E+04  0.10930576865E+04 0.  0.
        4    1    3    3  502    0 -0.40078987683E+03 -0.85909688051E+02  0.61257308541E+02  0.41444791063E+03  0.12699999809E+01 0.  1.
       -4    1    3    3    0  502  0.40078987683E+03  0.85909688051E+02 -0.81814865521E+03  0.91508569806E+03  0.12699999809E+01 0. -1.
</event>
<event>
 5   0  0.1415400E-03  0.1094077E+04  0.7818609E-02  0.9210985E-01
       -1   -1    0    0    0  501  0.00000000000E+00  0.00000000000E+00  0.45712448569E+03  0.45712448572E+03  0.50400001928E-02 0. -1.
        1   -1    0    0  501    0  0.00000000000E+00  0.00000000000E+00 -0.65463760630E+03  0.65463760632E+03  0.50400001928E-02 0.  1.
    10030    2    1    2    0    0  0.00000000000E+00  0.00000000000E+00 -0.19751312061E+03  0.11117620920E+04  0.10940765588E+04 0.  0.
        2    1    3    3  502    0  0.30012914935E+03 -0.36486592415E+03  0.18146593343E+03  0.50609735615E+03  0.25500000920E-02 0. -1.
       -2    1    3    3    0  502 -0.30012914935E+03  0.36486592415E+03 -0.37897905404E+03  0.60566473589E+03  0.25500000920E-02 0.  1.
</event>
<event>
 5   0  0.1415400E-03  0.1083172E+04  0.7818609E-02  0.9221751E-01
       -1   -1    0    0    0  501  0.00000000000E+00  0.00000000000E+00  0.31208959217E+03  0.31208959221E+03  0.50400001928E-02 0. -1.
        1   -1    0    0  501    0  0.00000000000E+00  0.00000000000E+00 -0.93984334665E+03  0.93984334666E+03  0.50400001928E-02 0.  1.
    10030    2    1    2    0    0  0.00000000000E+00  0.00000000000E+00 -0.62775375448E+03  0.12519329389E+04  0.10831718733E+04 0.  0.
        2    1    3    3  502    0 -0.21238109908E+03 -0.49230290510E+03 -0.22549427773E+03  0.58164899288E+03  0.25500000920E-02 0. -1.
       -2    1    3    3    0  502  0.21238109908E+03  0.49230290510E+03 -0.40225947675E+03  0.67028394599E+03  0.25500000920E-02 0.  1.
</event>
<event>
 5   0  0.2483036E-03  0.1101778E+04  0.7818609E-02  0.9203460E-01
        2   -1    0    0  501    0  0.00000000000E+00  0.00000000000E+00  0.10726700613E+04  0.10726700613E+04  0.25500000920E-02 0.  1.
       -2   -1    0    0    0  501  0.00000000000E+00  0.00000000000E+00 -0.28291905720E+03  0.28291905721E+03  0.25500000920E-02 0. -1.
    10030    2    1    2    0    0  0.00000000000E+00  0.00000000000E+00  0.78975100408E+03  0.13555891185E+04  0.11017782035E+04 0.  0.
        3    1    3    3  502    0 -0.10390524376E+03 -0.23454923074E+03 -0.20494361733E+03  0.32834667321E+03  0.10100000352E+00 0. -1.
       -3    1    3    3    0  502  0.10390524376E+03  0.23454923074E+03  0.99469462141E+03  0.10272424453E+04  0.10100000352E+00 0.  1.
</event>
<event>
 5   0  0.2488472E-03  0.1110422E+04  0.7818609E-02  0.9195093E-01
        2   -1    0    0  501    0  0.00000000000E+00  0.00000000000E+00  0.15794963115E+04  0.15794963115E+04  0.25500000920E-02 0.  1.
       -2   -1    0    0    0  501  0.00000000000E+00  0.00000000000E+00 -0.19516306566E+03  0.19516306568E+03  0.25500000920E-02 0. -1.
    10030    2    1    2    0    0  0.00000000000E+00  0.00000000000E+00  0.13843332458E+04  0.17746593772E+04  0.11104221582E+04 0.  0.
        2    1    3    3  502    0 -0.16196334899E+02 -0.55456539395E+03  0.65810448254E+03  0.86075932023E+03  0.25500000920E-02 0. -1.
       -2    1    3    3    0  502  0.16196334899E+02  0.55456539395E+03  0.72622876328E+03  0.91390005693E+03  0.25500000920E-02 0.  1.
</event>
<event>
 5   0  0.2488472E-03  0.1098855E+04  0.7818609E-02  0.9206309E-01
       -2   -1    0    0    0  501  0.00000000000E+00  0.00000000000E+00  0.40514456956E+03  0.40514456957E+03  0.25500000920E-02 0. -1.
        2   -1    0    0  501    0  0.00000000000E+00  0.00000000000E+00 -0.74509299777E+03  0.74509299777E+03  0.25500000920E-02 0.  1.
    10030    2    1    2    0    0  0.00000000000E+00  0.00000000000E+00 -0.33994842821E+03  0.11502375673E+04  0.10988546435E+04 0.  0.
        2    1    3    3  502    0  0.21510076661E+03  0.28274026106E+03 -0.60869046619E+03  0.70477973769E+03  0.25500000920E-02 0.  1.
       -2    1    3    3    0  502 -0.21510076661E+03 -0.28274026106E+03  0.26874203798E+03  0.44545782966E+03  0.25500000920E-02 0. -1.
</event>
<event>
 5   0  0.1415400E-03  0.1100791E+04  0.7818609E-02  0.9204421E-01
        1   -1    0    0  501    0  0.00000000000E+00  0.00000000000E+00  0.88752113287E+03  0.88752113288E+03  0.50400001928E-02 0. -1.
       -1   -1    0    0    0  501  0.00000000000E+00  0.00000000000E+00 -0.34132744303E+03  0.34132744307E+03  0.50400001928E-02 0.  1.
    10030    2    1    2    0    0  0.00000000000E+00  0.00000000000E+00  0.54619368984E+03  0.12288485759E+04  0.11007912044E+04 0.  0.
        2    1    3    3  502    0  0.18761244437E+03 -0.33726584559E+03 -0.16496735245E+03  0.41971526928E+03  0.25500000920E-02 0.  1.
       -2    1    3    3    0  502 -0.18761244437E+03  0.33726584559E+03  0.71116104229E+03  0.80913330667E+03  0.25500000920E-02 0. -1.
</event>
<event>
 5   0  0.1468556E-03  0.1017216E+04  0.7818609E-02  0.9289861E-01
        1   -1    0    0  501    0  0.00000000000E+00  0.00000000000E+00  0.94276614150E+03  0.94276614152E+03  0.50400001928E-02 0. -1.
       -1   -1    0    0    0  501  0.00000000000E+00  0.00000000000E+00 -0.27438654614E+03  0.27438654619E+03  0.50400001928E-02 0.  1.
    10030    2    1    2    0    0  0.00000000000E+00  0.00000000000E+00  0.66837959536E+03  0.12171526877E+04  0.10172164871E+04 0.  0.
        5    1    3    3  502    0 -0.32563643130E+03  0.35256197577E+03  0.13282308711E+03  0.49799909098E+03  0.46999998093E+01 0.  1.
       -5    1    3    3    0  502  0.32563643130E+03 -0.35256197577E+03  0.53555650825E+03  0.71915359672E+03  0.46999998093E+01 0. -1.
</event>
<event>
 5   0  0.2467448E-03  0.1097994E+04  0.7818609E-02  0.9207149E-01
        2   -1    0    0  501    0  0.00000000000E+00  0.00000000000E+00  0.10800140107E+04  0.10800140107E+04  0.25500000920E-02 0.  1.
       -2   -1    0    0    0  501  0.00000000000E+00  0.00000000000E+00 -0.27906844199E+03  0.27906844201E+03  0.25500000920E-02 0. -1.
    10030    2    1    2    0    0  0.00000000000E+00  0.00000000000E+00  0.80094556875E+03  0.13590824527E+04  0.10979942210E+04 0.  0.
        1    1    3    3  502    0  0.28190561875E+03  0.45089173833E+03  0.23155374044E+03  0.57999247608E+03  0.50400001928E-02 0. -1.
       -1    1    3    3    0  502 -0.28190561875E+03 -0.45089173833E+03  0.56939182831E+03  0.77908997667E+03  0.50400001928E-02 0.  1.
</event>
<event>
 5   0  0.2483036E-03  0.1095381E+04  0.7818609E-02  0.9209705E-01
       -2   -1    0    0    0  501  0.00000000000E+00  0.00000000000E+00  0.40282827471E+03  0.40282827472E+03  0.25500000920E-02 0.  1.
        2   -1    0    0  501    0  0.00000000000E+00  0.00000000000E+00 -0.74464748457E+03  0.74464748457E+03  0.25500000920E-02 0. -1.
    10030    2    1    2    0    0  0.00000000000E+00  0.00000000000E+00 -0.34181920986E+03  0.11474757593E+04  0.10953813244E+04 0.  0.
        3    1    3    3  502    0  0.60580039723E+02 -0.45204504852E+03  0.14674485813E+03  0.47911244055E+03  0.10100000352E+00 0. -1.
       -3    1    3    3    0  502 -0.60580039723E+02  0.45204504852E+03 -0.48856406799E+03  0.66836331874E+03  0.10100000352E+00 0.  1.
</event>
<event>
 5   0  0.9631750E-04  0.1098249E+04  0.7818609E-02  0.9206900E-01
       -4   -1    0    0    0  501  0.00000000000E+00  0.00000000000E+00  0.34844534286E+03  0.34844765727E+03  0.12699999809E+01 0. -1.
        4   -1    0    0  501    0  0.00000000000E+00  0.00000000000E+00 -0.86537445161E+03  0.86537538352E+03  0.12699999809E+01 0.  1.
    10030    2    1    2    0    0  0.00000000000E+00  0.00000000000E+00 -0.51692910876E+03  0.12138230408E+04  0.10982489112E+04 0.  0.
        4    1    3    3  502    0 -0.14519446198E+03  0.16655741148E+03  0.29714359051E+03  0.37029546229E+03  0.12699999809E+01 0. -1.
       -4    1    3    3    0  502  0.14519446198E+03 -0.16655741148E+03 -0.81407269927E+03  0.84352757851E+03  0.12699999809E+01 0.  1.
</event>
<event>
 5   0  0.2483036E-03  0.1124989E+04  0.7818609E-02  0.9181172E-01
        2   -1    0    0  501    0  0.00000000000E+00  0.00000000000E+00  0.54091828242E+03  0.54091828242E+03  0.25500000920E-02 0. -1.
       -2   -1    0    0    0  501  0.00000000000E+00  0.00000000000E+00 -0.58493176632E+03  0.58493176633E+03  0.25500000920E-02 0.  1.
    10030    2    1    2    0    0  0.00000000000E+00  0.00000000000E+00 -0.44013483908E+02  0.11258500488E+04  0.11249893980E+04 0.  0.
        3    1    3    3  502    0 -0.19741436110E+03 -0.19079917999E+03 -0.51332378898E+03  0.58213235573E+03  0.10100000352E+00 0.  1.
       -3    1    3    3    0  502  0.19741436110E+03  0.19079917999E+03  0.46931030507E+03  0.54371769302E+03  0.10100000352E+00 0. -1.
</event>
<event>
 5   0  0.2488472E-03  0.1142911E+04  0.7818609E-02  0.9164349E-01
        2   -1    0    0  501    0  0.00000000000E+00  0.00000000000E+00  0.11333019466E+04  0.11333019466E+04  0.25500000920E-02 0. -1.
       -2   -1    0    0    0  501  0.00000000000E+00  0.00000000000E+00 -0.28815024607E+03  0.28815024608E+03  0.25500000920E-02 0.  1.
    10030    2    1    2    0    0  0.00000000000E+00  0.00000000000E+00  0.84515170052E+03  0.14214521927E+04  0.11429107311E+04 0.  0.
        2    1    3    3  502    0  0.33851553231E+03  0.35304606339E+03  0.55044758881E+02  0.49220342743E+03  0.25500000920E-02 0.  1.
       -2    1    3    3    0  502 -0.33851553231E+03 -0.35304606339E+03  0.79010694164E+03  0.92924876525E+03  0.25500000920E-02 0. -1.
</event>
<event>
 5   0  0.2483036E-03  0.1113753E+04  0.7818609E-02  0.9191890E-01
        2   -1    0    0  501    0  0.00000000000E+00  0.00000000000E+00  0.18288183973E+04  0.18288183973E+04  0.25500000920E-02 0. -1.
       -2   -1    0    0    0  501  0.00000000000E+00  0.00000000000E+00 -0.16956943792E+03  0.16956943794E+03  0.25500000920E-02 0.  1.
    10030    2    1    2    0    0  0.00000000000E+00  0.00000000000E+00  0.16592489594E+04  0.19983878353E+04  0.11137534875E+04 0.  0.
        3    1    3    3  502    0 -0.46131744473E+02  0.12796748050E+03 -0.13930089793E+03  0.19470121797E+03  0.10100000352E+00 0.  1.
       -3    1    3    3    0  502  0.46131744473E+02 -0.12796748050E+03  0.17985498573E+04  0.18036866173E+04  0.10100000352E+00 0. -1.
</event>
<event>
 5   0  0.1509004E-03  0.1080895E+04  0.7818609E-02  0.9224016E-01
       -1   -1    0    0    0  501  0.00000000000E+00  0.00000000000E+00  0.16852574346E+04  0.16852574346E+04  0.50400001928E-02 0. -1.
        1   -1    0    0  501    0  0.00000000000E+00  0.00000000000E+00 -0.17331685581E+03  0.17331685588E+03  0.50400001928E-02 0.  1.
    10030    2    1    2    0    0  0.00000000000E+00  0.00000000000E+00  0.15119405788E+04  0.18585742905E+04  0.10808950363E+04 0.  0.
        3    1    3    3  502    0 -0.43710571624E+03  0.14493649234E+02  0.21002063285E+03  0.48515992153E+03  0.10100000352E+00 0. -1.
       -3    1    3    3    0  502  0.43710571624E+03 -0.14493649234E+02  0.13019199459E+04  0.13734143690E+04  0.10100000352E+00 0.  1.
</event>
<event>
 5   0  0.1468556E-03  0.1108942E+04  0.7818609E-02  0.9196520E-01
       -1   -1    0    0    0  501  0.00000000000E+00  0.00000000000E+00  0.64502309717E+03  0.64502309719E+03  0.50400001928E-02 0.  1.
        1   -1    0    0  501    0  0.00000000000E+00  0.00000000000E+00 -0.47663110128E+03  0.47663110130E+03  0.50400001928E-02 0. -1.
    10030    2    1    2    0    0  0.00000000000E+00  0.00000000000E+00  0.16839199590E+03  0.11216541985E+04  0.11089419627E+04 0.  0.
        5    1    3    3  502    0 -0.24664482301E+03  0.43293346567E+03 -0.16180164056E+03  0.52389590121E+03  0.46999998093E+01 0. -1.
       -5    1    3    3    0  502  0.24664482301E+03 -0.43293346567E+03  0.33019363646E+03  0.59775829729E+03  0.46999998093E+01 0.  1.
</event>
<event>
 5   0  0.2467448E-03  0.1097389E+04  0.7818609E-02  0.9207740E-01
        2   -1    0    0  501    0  0.00000000000E+00  0.00000000000E+00  0.26994992245E+03  0.26994992246E+03  0.25500000920E-02 0.  1.
       -2   -1    0    0    0  501  0.00000000000E+00  0.00000000000E+00 -0.11152655379E+04  0.11152655379E+04  0.25500000920E-02 0. -1.
    10030    2    1    2    0    0  0.00000000000E+00  0.00000000000E+00 -0.84531561544E+03  0.13852154604E+04  0.10973893484E+04 0.  0.
        1    1    3    3  502    0  0.42920840511E+03 -0.13456963616E+02  0.84905113032E+01  0.42950324061E+03  0.50400001928E-02 0.  1.
       -1    1    3    3    0  502 -0.42920840511E+03  0.13456963616E+02 -0.85380612675E+03  0.95571221975E+03  0.50400001928E-02 0. -1.
</event>
<event>
 5   0  0.1415400E-03  0.1102301E+04  0.7818609E-02  0.9202952E-01
        1   -1    0    0  501    0  0.00000000000E+00  0.00000000000E+00  0.59596651552E+03  0.59596651554E+03  0.50400001928E-02 0. -1.
       -1   -1    0    0    0  501  0.00000000000E+00  0.00000000000E+00 -0.50970484060E+03  0.50970484063E+03  0.50400001928E-02 0.  1.
    10030    2    1    2    0    0  0.00000000000E+00  0.00000000000E+00  0.86261674915E+02  0.11056713562E+04  0.11023012616E+04 0.  0.
        2    1    3    3  502    0 -0.53705480461E+03 -0.11208836751E+03  0.95973517073E+02  0.55695832992E+03  0.25500000920E-02 0.  1.
       -2    1    3    3    0  502  0.53705480461E+03  0.11208836751E+03 -0.97118421577E+01  0.54871302624E+03  0.25500000920E-02 0. -1.
</event>
<event>
 5   0  0.2488472E-03  0.1088182E+04  0.7818609E-02  0.9216787E-01
       -2   -1    0    0    0  501  0.00000000000E+00  0.00000000000E+00  0.76365094499E+03  0.76365094499E+03  0.25500000920E-02 0. -1.
        2   -1    0    0  501    0  0.00000000000E+00  0.00000000000E+00 -0.38765766528E+03  0.38765766528E+03  0.25500000920E-02 0.  1.
    10030    2    1    2    0    0  0.00000000000E+00  0.00000000000E+00  0.37599327971E+03  0.11513086103E+04  0.10881822318E+04 0.  0.
        2    1    3    3  502    0 -0.28269785695E+03 -0.46285951636E+03  0.23384810337E+03  0.59062843283E+03  0.25500000920E-02 0. -1.
       -2    1    3    3    0  502  0.28269785695E+03  0.46285951636E+03  0.14214517634E+03  0.56068017744E+03  0.25500000920E-02 0.  1.
</event>
<event>
 5   0  0.1480937E-03  0.1107429E+04  0.7818609E-02  0.9197981E-01
       -1   -1    0    0    0  501  0.00000000000E+00  0.00000000000E+00  0.24254572273E+03  0.24254572278E+03  0.50400001928E-02 0.  1.
        1   -1    0    0  501    0  0.00000000000E+00  0.00000000000E+00 -0.12640915788E+04  0.12640915788E+04  0.50400001928E-02 0. -1.
    10030    2    1    2    0    0  0.00000000000E+00  0.00000000000E+00 -0.10215458561E+04  0.15066373016E+04  0.11074294661E+04 0.  0.
        1    1    3    3  502    0  0.43340910801E+03  0.32741136133E+03 -0.36450787159E+03  0.65414649958E+03  0.50400001928E-02 0. -1.
       -1    1    3    3    0  502 -0.43340910801E+03 -0.32741136133E+03 -0.65703798446E+03  0.85249080200E+03  0.50400001928E-02 0.  1.
</event>
<event>
 5   0  0.2438115E-03  0.1114090E+04  0.7818609E-02  0.9191566E-01
        2   -1    0    0  501    0  0.00000000000E+00  0.00000000000E+00  0.71651381363E+03  0.71651381363E+03  0.25500000920E-02 0.  1.
       -2   -1    0    0    0  501  0.00000000000E+00  0.00000000000E+00 -0.43306824954E+03  0.43306824955E+03  0.25500000920E-02 0. -1.
    10030    2    1    2    0    0  0.00000000000E+00  0.00000000000E+00  0.28344556409E+03  0.11495820632E+04  0.11140904506E+04 0.  0.
        4    1    3    3  502    0  0.28195925106E+03  0.12475911210E+03  0.62043318126E+03  0.69282378757E+03  0.12699999809E+01 0.  1.
       -4    1    3    3    0  502 -0.28195925106E+03 -0.12475911210E+03 -0.33698761718E+03  0.45675827561E+03  0.12699999809E+01 0. -1.
</event>
<event>
 5   0  0.1479573E-03  0.1094751E+04  0.7818609E-02  0.9210323E-01
        1   -1    0    0  501    0  0.00000000000E+00  0.00000000000E+00  0.97983058543E+03  0.97983058544E+03  0.50400001928E-02 0.  1.
       -1   -1    0    0    0  501  0.00000000000E+00  0.00000000000E+00 -0.30578766613E+03  0.30578766617E+03  0.50400001928E-02 0. -1.
    10030    2    1    2    0    0  0.00000000000E+00  0.00000000000E+00  0.67404291930E+03  0.12856182516E+04  0.10947513105E+04 0.  0.
        4    1    3    3  502    0  0.23441722298E+03  0.15076421418E+02  0.91762874618E+03  0.94721848674E+03  0.12699999809E+01 0.  1.
       -4    1    3    3    0  502 -0.23441722298E+03 -0.15076421418E+02 -0.24358582688E+03  0.33839976487E+03  0.12699999809E+01 0. -1.
</event>
<event>
 5   0  0.2392585E-03  0.1109171E+04  0.7818609E-02  0.9196299E-01
       -2   -1    0    0    0  501  0.00000000000E+00  0.00000000000E+00  0.15146801423E+03  0.15146801425E+03  0.25500000920E-02 0. -1.
        2   -1    0    0  501    0  0.00000000000E+00  0.00000000000E+00 -0.20305613937E+04  0.20305613937E+04  0.25500000920E-02 0.  1.
    10030    2    1    2    0    0  0.00000000000E+00  0.00000000000E+00 -0.18790933795E+04  0.21820294080E+04  0.11091710456E+04 0.  0.
        5    1    3    3  502    0 -0.34552463240E+03  0.31284021881E+03 -0.34842886321E+03  0.58196308888E+03  0.46999998093E+01 0. -1.
       -5    1    3    3    0  502  0.34552463240E+03 -0.31284021881E+03 -0.15306645163E+04  0.16000663191E+04  0.46999998093E+01 0.  1.
</event>
<event>
 5   0  0.1415400E-03  0.1098688E+04  0.7818609E-02  0.9206471E-01
       -1   -1    0    0    0  501  0.00000000000E+00  0.00000000000E+00  0.91115402062E+03  0.91115402063E+03  0.50400001928E-02 0. -1.
        1   -1    0    0  501    0  0.00000000000E+00  0.00000000000E+00 -0.33120512272E+03  0.33120512276E+03  0.50400001928E-02 0.  1.
    10030    2    1    2    0    0  0.00000000000E+00  0.00000000000E+00  0.57994889790E+03  0.12423591434E+04  0.10986880890E+04 0.  0.
        2    1    3    3  502    0 -0.51126201353E+03  0.16774687897E+03  0.16481638923E+03  0.56275421283E+03  0.25500000920E-02 0.  1.
       -2    1    3    3    0  502  0.51126201353E+03 -0.16774687897E+03  0.41513250867E+03  0.67960493057E+03  0.25500000920E-02 0. -1.
</event>
<event>
 5   0  0.1509004E-03  0.1084593E+04  0.7818609E-02  0.9220340E-01
        1   -1    0    0  501    0  0.00000000000E+00  0.00000000000E+00  0.39982765973E+03  0.39982765976E+03  0.50400001928E-02 0.  1.
       -1   -1    0    0    0  501  0.00000000000E+00  0.00000000000E+00 -0.73553095800E+03  0.73553095802E+03  0.50400001928E-02 0. -1.
    10030    2    1    2    0    0  0.00000000000E+00  0.00000000000E+00 -0.33570329827E+03  0.11353586178E+04  0.10845932355E+04 0.  0.
        3    1    3    3  502    0 -0.44071564327E+03 -0.28508491381E+03 -0.31054755806E+03  0.60987169333E+03  0.10100000352E+00 0. -1.
       -3    1    3    3    0  502  0.44071564327E+03  0.28508491381E+03 -0.25155740213E+02  0.52548692445E+03  0.10100000352E+00 0.  1.
</event>
<event>
 5   0  0.2467448E-03  0.1111934E+04  0.7818609E-02  0.9193637E-01
       -2   -1    0    0    0  501  0.00000000000E+00  0.00000000000E+00  0.69651049912E+03  0.69651049912E+03  0.25500000920E-02 0.  1.
        2   -1    0    0  501    0  0.00000000000E+00  0.00000000000E+00 -0.44378297224E+03  0.44378297224E+03  0.25500000920E-02 0. -1.
    10030    2    1    2    0    0  0.00000000000E+00  0.00000000000E+00  0.25272752688E+03  0.11402934714E+04  0.11119343497E+04 0.  0.
        1    1    3    3  502    0 -0.37335144746E+03  0.75645299323E+02 -0.28891608507E+03  0.47810670238E+03  0.50400001928E-02 0. -1.
       -1    1    3    3    0  502  0.37335144746E+03 -0.75645299323E+02  0.54164361195E+03  0.66218676898E+03  0.50400001928E-02 0.  1.
</event>
<event>
 5   0  0.1509004E-03  0.1070370E+04  0.7818609E-02  0.9234562E-01
        1   -1    0    0  501    0  0.00000000000E+00  0.00000000000E+00  0.35431986845E+03  0.35431986849E+03  0.50400001928E-02 0.  1.
       -1   -1    0    0    0  501  0.00000000000E+00  0.00000000000E+00 -0.80837393939E+03  0.80837393941E+03  0.50400001928E-02 0. -1.
    10030    2    1    2    0    0  0.00000000000E+00  0.00000000000E+00 -0.45405407094E+03  0.11626938079E+04  0.10703699321E+04 0.  0.
        3    1    3    3  502    0  0.13320541783E+02 -0.53437751148E+03 -0.19857264747E+03  0.57023492363E+03  0.10100000352E+00 0.  1.
       -3    1    3    3    0  502 -0.13320541783E+02  0.53437751148E+03 -0.25548142347E+03  0.59245888427E+03  0.10100000352E+00 0. -1.
</event>
<event>
 5   0  0.2467448E-03  0.1100528E+04  0.7818609E-02  0.9204677E-01
       -2   -1    0    0    0  501  0.00000000000E+00  0.00000000000E+00  0.44126919513E+03  0.44126919514E+03  0.25500000920E-02 0. -1.
        2   -1    0    0  501    0  0.00000000000E+00  0.00000000000E+00 -0.68618124708E+03  0.68618124709E+03  0.25500000920E-02 0.  1.
    10030    2    1    2    0    0  0.00000000000E+00  0.00000000000E+00 -0.24491205195E+03  0.11274504422E+04  0.11005283215E+04 0.  0.
        1    1    3    3  502    0  0.15235626888E+03  0.12662882589E+03  0.40346710543E+03  0.44948080871E+03  0.50400001928E-02 0. -1.
       -1    1    3    3    0  502 -0.15235626888E+03 -0.12662882589E+03 -0.64837915738E+03  0.67796963351E+03  0.50400001928E-02 0.  1.
</event>
<event>
 5   0  0.1509004E-03  0.1103883E+04  0.7818609E-02  0.9201415E-01
       -1   -1    0    0    0  501  0.00000000000E+00  0.00000000000E+00  0.60788087106E+03  0.60788087108E+03  0.50400001928E-02 0. -1.
        1   -1    0    0  501    0  0.00000000000E+00  0.00000000000E+00 -0.50115014284E+03  0.50115014287E+03  0.50400001928E-02 0.  1.
    10030    2    1    2    0    0  0.00000000000E+00  0.00000000000E+00  0.10673072822E+03  0.11090310140E+04  0.11038833007E+04 0.  0.
        3    1    3    3  502    0 -0.15360605916E+03 -0.43302644737E+03  0.36062294783E+03  0.58408530732E+03  0.10100000352E+00 0. -1.
       -3    1    3    3    0  502  0.15360605916E+03  0.43302644737E+03 -0.25389221961E+03  0.52494570663E+03  0.10100000352E+00 0.  1.
</event>
<event>
 5   0  0.1468556E-03  0.1100601E+04  0.7818609E-02  0.9204607E-01
       -1   -1    0    0    0  501  0.00000000000E+00  0.00000000000E+00  0.54896003142E+03  0.54896003144E+03  0.50400001928E-02 0. -1.
        1   -1    0    0  501    0  0.00000000000E+00  0.00000000000E+00 -0.55164396031E+03  0.55164396033E+03  0.50400001928E-02 0.  1.
    10030    2    1    2    0    0  0.00000000000E+00  0.00000000000E+00 -0.26839288930E+01  0.11006039918E+04  0.11006007193E+04 0.  0.
        5    1    3    3  502    0 -0.80409822978E+01 -0.37616898468E+03  0.40020702664E+03  0.54932277998E+03  0.46999998093E+01 0. -1.
       -5    1    3    3    0  502  0.80409822978E+01  0.37616898468E+03 -0.40289095553E+03  0.55128121180E+03  0.46999998093E+01 0.  1.
</event>
<event>
 5   0  0.2438115E-03  0.1087384E+04  0.7818609E-02  0.9217577E-01
       -2   -1    0    0    0  501  0.00000000000E+00  0.00000000000E+00  0.36661735134E+03  0.36661735135E+03  0.25500000920E-02 0. -1.
        2   -1    0    0  501    0  0.00000000000E+00  0.00000000000E+00 -0.80629232233E+03  0.80629232234E+03  0.25500000920E-02 0.  1.
    10030    2    1    2    0    0  0.00000000000E+00  0.00000000000E+00 -0.43967497099E+03  0.11729096737E+04  0.10873835673E+04 0.  0.
        4    1    3    3  502    0 -0.31735708847E+03 -0.24697166225E+03  0.17485025229E+03  0.43850284740E+03  0.12699999809E+01 0. -1.
       -4    1    3    3    0  502  0.31735708847E+03  0.24697166225E+03 -0.61452522328E+03  0.73440682629E+03  0.12699999809E+01 0.  1.
</event>
<event>
 5   0  0.2488472E-03  0.1098294E+04  0.7818609E-02  0.9206856E-01
        2   -1    0    0  501    0  0.00000000000E+00  0.00000000000E+00  0.88830969076E+03  0.88830969076E+03  0.25500000920E-02 0. -1.
       -2   -1    0    0    0  501  0.00000000000E+00  0.00000000000E+00 -0.33947886620E+03  0.33947886621E+03  0.25500000920E-02 0.  1.
    10030    2    1    2    0    0  0.00000000000E+00  0.00000000000E+00  0.54883082456E+03  0.12277885570E+04  0.10982938890E+04 0.  0.
        2    1    3    3  502    0  0.49781425297E+03 -0.18793438434E+03  0.12267648253E+03  0.54606582264E+03  0.25500000920E-02 0.  1.
       -2    1    3    3    0  502 -0.49781425297E+03  0.18793438434E+03  0.42615434202E+03  0.68172273434E+03  0.25500000920E-02 0. -1.
</event>
<event>
 5   0  0.1479573E-03  0.1107941E+04  0.7818609E-02  0.9197486E-01
       -1   -1    0    0    0  501  0.00000000000E+00  0.00000000000E+00  0.69868497979E+03  0.69868497981E+03  0.50400001928E-02 0. -1.
        1   -1    0    0  501    0  0.00000000000E+00  0.00000000000E+00 -0.43923009221E+03  0.43923009224E+03  0.50400001928E-02 0.  1.
    10030    2    1    2    0    0  0.00000000000E+00  0.00000000000E+00  0.25945488759E+03  0.11379150720E+04  0.11079412766E+04 0.  0.
        4    1    3    3  502    0  0.36169750989E+02 -0.13578957509E+03 -0.42061881640E+03  0.44347363078E+03  0.12699999809E+01 0.  1.
       -4    1    3    3    0  502 -0.36169750989E+02  0.13578957509E+03  0.68007370399E+03  0.69444144126E+03  0.12699999809E+01 0. -1.
</event>
<event>
 5   0  0.9631750E-04  0.1096850E+04  0.7818609E-02  0.9208268E-01
       -3   -1    0    0    0  501  0.00000000000E+00  0.00000000000E+00  0.38535319797E+03  0.38535321120E+03  0.10100000352E+00 0. -1.
        3   -1    0    0  501    0  0.00000000000E+00  0.00000000000E+00 -0.78050424109E+03  0.78050424763E+03  0.10100000352E+00 0.  1.
    10030    2    1    2    0    0  0.00000000000E+00  0.00000000000E+00 -0.39515104313E+03  0.11658574588E+04  0.10968497014E+04 0.  0.
        3    1    3    3  502    0 -0.83153382263E+02 -0.28811786311E+03 -0.68564130159E+03  0.74835178404E+03  0.10100000352E+00 0.  1.
       -3    1    3    3    0  502  0.83153382263E+02  0.28811786311E+03  0.29049025846E+03  0.41750567480E+03  0.10100000352E+00 0. -1.
</event>
<event>
 5   0  0.2392585E-03  0.1097854E+04  0.7818609E-02  0.9207286E-01
        2   -1    0    0  501    0  0.00000000000E+00  0.00000000000E+00  0.12793381613E+04  0.12793381613E+04  0.25500000920E-02 0. -1.
       -2   -1    0    0    0  501  0.00000000000E+00  0.00000000000E+00 -0.23552864283E+03  0.23552864284E+03  0.25500000920E-02 0.  1.
    10030    2    1    2    0    0  0.00000000000E+00  0.00000000000E+00  0.10438095185E+04  0.15148668042E+04  0.10978538716E+04 0.  0.
        5    1    3    3  502    0  0.30425562780E+03 -0.11731591314E+03 -0.87361776823E+02  0.33762209729E+03  0.46999998093E+01 0.  1.
       -5    1    3    3    0  502 -0.30425562780E+03  0.11731591314E+03  0.11311712953E+04  0.11772447069E+04  0.46999998093E+01 0. -1.
</event>
<event>
 5   0  0.1479573E-03  0.1094502E+04  0.7818609E-02  0.9210568E-01
        1   -1    0    0  501    0  0.00000000000E+00  0.00000000000E+00  0.41124821671E+03  0.41124821674E+03  0.50400001928E-02 0.  1.
       -1   -1    0    0    0  501  0.00000000000E+00  0.00000000000E+00 -0.72823047298E+03  0.72823047299E+03  0.50400001928E-02 0. -1.
    10030    2    1    2    0    0  0.00000000000E+00  0.00000000000E+00 -0.31698225626E+03  0.11394786897E+04  0.10945016828E+04 0.  0.
        4    1    3    3  502    0  0.47968116931E+03  0.12535358192E+03  0.82706522299E+02  0.50264254339E+03  0.12699999809E+01 0.  1.
       -4    1    3    3    0  502 -0.47968116931E+03 -0.12535358192E+03 -0.39968877856E+03  0.63683614635E+03  0.12699999809E+01 0. -1.
</event>
<event>
 5   0  0.2438115E-03  0.1095363E+04  0.7818609E-02  0.9209723E-01
       -2   -1    0    0    0  501  0.00000000000E+00  0.00000000000E+00  0.29062962807E+03  0.29062962808E+03  0.25500000920E-02 0. -1.
        2   -1    0    0  501    0  0.00000000000E+00  0.00000000000E+00 -0.10320877802E+04  0.10320877802E+04  0.25500000920E-02 0.  1.
    10030    2    1    2    0    0  0.00000000000E+00  0.00000000000E+00 -0.74145815217E+03  0.13227174083E+04  0.10953634789E+04 0.  0.
        4    1    3    3  502    0  0.16196222090E+03 -0.81669817870E+02  0.25330268323E+03  0.31155349842E+03  0.12699999809E+01 0. -1.
       -4    1    3    3    0  502 -0.16196222090E+03  0.81669817870E+02 -0.99476083539E+03  0.10111639099E+04  0.12699999809E+01 0.  1.
</event>
<event>
 5   0  0.1415400E-03  0.1097836E+04  0.7818609E-02  0.9207304E-01
        1   -1    0    0  501    0  0.00000000000E+00  0.00000000000E+00  0.68559540250E+03  0.68559540252E+03  0.50400001928E-02 0.  1.
       -1   -1    0    0    0  501  0.00000000000E+00  0.00000000000E+00 -0.43948789062E+03  0.43948789065E+03  0.50400001928E-02 0. -1.
    10030    2    1    2    0    0  0.00000000000E+00  0.00000000000E+00  0.24610751187E+03  0.11250832932E+04  0.10978358298E+04 0.  0.
        2    1    3    3  502    0  0.75717833446E+02  0.30564248884E+03  0.58383550817E+03  0.66333582889E+03  0.25500000920E-02 0.  1.
       -2    1    3    3    0  502 -0.75717833446E+02 -0.30564248884E+03 -0.33772799629E+03  0.46174746428E+03  0.25500000920E-02 0. -1.
</event>
<event>
 5   0  0.1415400E-03  0.1096560E+04  0.7818609E-02  0.9208551E-01
        1   -1    0    0  501    0  0.00000000000E+00  0.00000000000E+00  0.55586276407E+03  0.55586276410E+03  0.50400001928E-02 0.  1.
       -1   -1    0    0    0  501  0.00000000000E+00  0.00000000000E+00 -0.54080113785E+03  0.54080113787E+03  0.50400001928E-02 0. -1.
    10030    2    1    2    0    0  0.00000000000E+00  0.00000000000E+00  0.15061626228E+02  0.10966639020E+04  0.10965604686E+04 0.  0.
        2    1    3    3  502    0  0.36995298791E+03 -0.17349986746E+03 -0.35807691549E+03  0.54331067970E+03  0.25500000920E-02 0. -1.
       -2    1    3    3    0  502 -0.36995298791E+03  0.17349986746E+03  0.37313854171E+03  0.55335322226E+03  0.25500000920E-02 0.  1.
</event>
<event>
 5   0  0.2488472E-03  0.1098414E+04  0.7818609E-02  0.9206739E-01
        2   -1    0    0  501    0  0.00000000000E+00  0.00000000000E+00  0.82277173749E+03  0.82277173749E+03  0.25500000920E-02 0.  1.
       -2   -1    0    0    0  501  0.00000000000E+00  0.00000000000E+00 -0.36660049808E+03  0.36660049808E+03  0.25500000920E-02 0. -1.
    10030    2    1    2    0    0  0.00000000000E+00  0.00000000000E+00  0.45617123941E+03  0.11893722356E+04  0.10984143640E+04 0.  0.
        2    1    3    3  502    0  0.58639326053E+00 -0.54066322145E+03  0.33257222531E+03  0.63476085886E+03  0.25500000920E-02 0. -1.
       -2    1    3    3    0  502 -0.58639326053E+00  0.54066322145E+03  0.12359901410E+03  0.55461137672E+03  0.25500000920E-02 0.  1.
</event>
<event>
 5   0  0.1468556E-03  0.1145739E+04  0.7818609E-02  0.9161724E-01
       -1   -1    0    0    0  501  0.00000000000E+00  0.00000000000E+00  0.44462983929E+03  0.44462983932E+03  0.50400001928E-02 0.  1.
        1   -1    0    0  501    0  0.00000000000E+00  0.00000000000E+00 -0.73809555332E+03  0.73809555334E+03  0.50400001928E-02 0. -1.
    10030    2    1    2    0    0  0.00000000000E+00  0.00000000000E+00 -0.29346571403E+03  0.11827253927E+04  0.11457387264E+04 0.  0.
        5    1    3    3  502    0 -0.25555836595E+03  0.41206189488E+03 -0.46162476205E+03  0.66949577635E+03  0.46999998093E+01 0. -1.
       -5    1    3    3    0  502  0.25555836595E+03 -0.41206189488E+03  0.16815904802E+03  0.51322961630E+03  0.46999998093E+01 0.  1.
</event>
<event>
 5   0  0.1479573E-03  0.1095371E+04  0.7818609E-02  0.9209715E-01
        1   -1    0    0  501    0  0.00000000000E+00  0.00000000000E+00  0.85443775187E+03  0.85443775188E+03  0.50400001928E-02 0. -1.
       -1   -1    0    0    0  501  0.00000000000E+00  0.00000000000E+00 -0.35106086394E+03  0.35106086398E+03  0.50400001928E-02 0.  1.
    10030    2    1    2    0    0  0.00000000000E+00  0.00000000000E+00  0.50337688792E+03  0.12054986159E+04  0.10953714537E+04 0.  0.
        4    1    3    3  502    0 -0.46368845560E+03  0.71212114781E+01  0.57235969785E+03  0.73665116042E+03  0.12699999809E+01 0. -1.
       -4    1    3    3    0  502  0.46368845560E+03 -0.71212114781E+01 -0.68982809930E+02  0.46884745545E+03  0.12699999809E+01 0.  1.
</event>
<event>
 5   0  0.1468556E-03  0.1121130E+04  0.7818609E-02  0.9184838E-01
        1   -1    0    0  501    0  0.00000000000E+00  0.00000000000E+00  0.14499348478E+04  0.14499348478E+04  0.50400001928E-02 0.  1.
       -1   -1    0    0    0  501  0.00000000000E+00  0.00000000000E+00 -0.21672229908E+03  0.21672229914E+03  0.50400001928E-02 0. -1.
    10030    2    1    2    0    0  0.00000000000E+00  0.00000000000E+00  0.12332125488E+04  0.16666571470E+04  0.11211301687E+04 0.  0.
        5    1    3    3  502    0  0.37147892361E+03 -0.22814632337E+03  0.11404330659E+04  0.12209246510E+04  0.46999998093E+01 0.  1.
       -5    1    3    3    0  502 -0.37147892361E+03  0.22814632337E+03  0.92779482853E+02  0.44573249600E+03  0.46999998093E+01 0. -1.
</event>
<event>
 5   0  0.2488472E-03  0.1096110E+04  0.7818609E-02  0.9208992E-01
        2   -1    0    0  501    0  0.00000000000E+00  0.00000000000E+00  0.42913452455E+03  0.42913452455E+03  0.25500000920E-02 0.  1.
       -2   -1    0    0    0  501  0.00000000000E+00  0.00000000000E+00 -0.69992988272E+03  0.69992988272E+03  0.25500000920E-02 0. -1.
    10030    2    1    2    0    0  0.00000000000E+00  0.00000000000E+00 -0.27079535817E+03  0.11290644073E+04  0.10961096249E+04 0.  0.
        2    1    3    3  502    0  0.11923905862E+03  0.15539970457E+03 -0.66264323931E+03  0.69098703598E+03  0.25500000920E-02 0. -1.
       -2    1    3    3    0  502 -0.11923905862E+03 -0.15539970457E+03  0.39184788114E+03  0.43807737130E+03  0.25500000920E-02 0.  1.
</event>
<event>
 5   0  0.2488472E-03  0.1095718E+04  0.7818609E-02  0.9209376E-01
       -2   -1    0    0    0  501  0.00000000000E+00  0.00000000000E+00  0.18111295668E+03  0.18111295670E+03  0.25500000920E-02 0.  1.
        2   -1    0    0  501    0  0.00000000000E+00  0.00000000000E+00 -0.16572500487E+04  0.16572500487E+04  0.25500000920E-02 0. -1.
    10030    2    1    2    0    0  0.00000000000E+00  0.00000000000E+00 -0.14761370920E+04  0.18383630054E+04  0.10957179496E+04 0.  0.
        2    1    3    3  502    0  0.49452293179E+03 -0.78325118073E+02 -0.36493265527E+03  0.61956726598E+03  0.25500000920E-02 0. -1.
       -2    1    3    3    0  502 -0.49452293179E+03  0.78325118073E+02 -0.11112044367E+04  0.12187957394E+04  0.25500000920E-02 0.  1.
</event>
<event>
 5   0  0.1479573E-03  0.1087637E+04  0.7818609E-02  0.9217326E-01
       -1   -1    0    0    0  501  0.00000000000E+00  0.00000000000E+00  0.53152149727E+03  0.53152149730E+03  0.50400001928E-02 0.  1.
        1   -1    0    0  501    0  0.00000000000E+00  0.00000000000E+00 -0.55639983873E+03  0.55639983875E+03  0.50400001928E-02 0. -1.
    10030    2    1    2    0    0  0.00000000000E+00  0.00000000000E+00 -0.24878341456E+02  0.10879213360E+04  0.10876368427E+04 0.  0.
        4    1    3    3  502    0  0.24608598334E+03  0.60000757302E+02 -0.49379104234E+03  0.55496811482E+03  0.12699999809E+01 0. -1.
       -4    1    3    3    0  502 -0.24608598334E+03 -0.60000757302E+02  0.46891270088E+03  0.53295322123E+03  0.12699999809E+01 0.  1.
</event>
<event>
 5   0  0.2483036E-03  0.1098722E+04  0.7818609E-02  0.9206438E-01
        2   -1    0    0  501    0  0.00000000000E+00  0.00000000000E+00  0.11890803407E+04  0.11890803408E+04  0.25500000920E-02 0. -1.
       -2   -1    0    0    0  501  0.00000000000E+00  0.00000000000E+00 -0.25380752568E+03  0.25380752569E+03  0.25500000920E-02 0.  1.
    10030    2    1    2    0    0  0.00000000000E+00  0.00000000000E+00  0.93527281507E+03  0.14428878664E+04  0.10987220561E+04 0.  0.
        3    1    3    3  502    0  0.79724051309E+02 -0.53217826572E+03  0.32241834328E+03  0.62731429854E+03  0.10100000352E+00 0.  1.
       -3    1    3    3    0  502 -0.79724051309E+02  0.53217826572E+03  0.61285447179E+03  0.81557356790E+03  0.10100000352E+00 0. -1.
</event>
<event>
 5   0  0.2483036E-03  0.1105236E+04  0.7818609E-02  0.9200104E-01
        2   -1    0    0  501    0  0.00000000000E+00  0.00000000000E+00  0.41324790046E+03  0.41324790047E+03  0.25500000920E-02 0. -1.
       -2   -1    0    0    0  501  0.00000000000E+00  0.00000000000E+00 -0.73899101040E+03  0.73899101041E+03  0.25500000920E-02 0.  1.
    10030    2    1    2    0    0  0.00000000000E+00  0.00000000000E+00 -0.32574310995E+03  0.11522389109E+04  0.11052356916E+04 0.  0.
        3    1    3    3  502    0  0.16487962933E+02 -0.40036608852E+03 -0.55961003935E+03  0.68827920505E+03  0.10100000352E+00 0.  1.
       -3    1    3    3    0  502 -0.16487962933E+02  0.40036608852E+03  0.23386692941E+03  0.46395970582E+03  0.10100000352E+00 0. -1.
</event>
<event>
 5   0  0.2438115E-03  0.1096270E+04  0.7818609E-02  0.9208835E-01
        2   -1    0    0  501    0  0.00000000000E+00  0.00000000000E+00  0.58554903254E+03  0.58554903254E+03  0.25500000920E-02 0. -1.
       -2   -1    0    0    0  501  0.00000000000E+00  0.00000000000E+00 -0.51311136971E+03  0.51311136971E+03  0.25500000920E-02 0.  1.
    10030    2    1    2    0    0  0.00000000000E+00  0.00000000000E+00  0.72437662831E+02  0.10986604023E+04  0.10962697955E+04 0.  0.
        4    1    3    3  502    0  0.32620126503E+03  0.43276899403E+03 -0.46143018427E+02  0.54389986078E+03  0.12699999809E+01 0.  1.
       -4    1    3    3    0  502 -0.32620126503E+03 -0.43276899403E+03  0.11858068126E+03  0.55476054147E+03  0.12699999809E+01 0. -1.
</event>
<event>
 5   0  0.1479573E-03  0.1099288E+04  0.7818609E-02  0.9205886E-01
       -1   -1    0    0    0  501  0.00000000000E+00  0.00000000000E+00  0.26665104398E+03  0.26665104402E+03  0.50400001928E-02 0. -1.
        1   -1    0    0  501    0  0.00000000000E+00  0.00000000000E+00 -0.11329738015E+04  0.11329738015E+04  0.50400001928E-02 0.  1.
    10030    2    1    2    0    0  0.00000000000E+00  0.00000000000E+00 -0.86632275756E+03  0.13996248456E+04  0.10992882188E+04 0.  0.
        4    1    3    3  502    0 -0.12371693071E+03 -0.44229571713E+03 -0.81761106674E+03  0.93777441301E+03  0.12699999809E+01 0.  1.
       -4    1    3    3    0  502  0.12371693071E+03  0.44229571713E+03 -0.48711690816E+02  0.46185043256E+03  0.12699999809E+01 0. -1.
</event>
<event>
 5   0  0.1479573E-03  0.1084660E+04  0.7818609E-02  0.9220274E-01
       -1   -1    0    0    0  501  0.00000000000E+00  0.00000000000E+00  0.37537399066E+03  0.37537399069E+03  0.50400001928E-02 0.  1.
        1   -1    0    0  501    0  0.00000000000E+00  0.00000000000E+00 -0.78354330732E+03  0.78354330734E+03  0.50400001928E-02 0. -1.
    10030    2    1    2    0    0  0.00000000000E+00  0.00000000000E+00 -0.40816931666E+03  0.11589172980E+04  0.10846599064E+04 0.  0.
        4    1    3    3  502    0  0.57094363315E+02 -0.33661310934E+03 -0.65430141914E+03  0.73802446551E+03  0.12699999809E+01 0. -1.
       -4    1    3    3    0  502 -0.57094363315E+02  0.33661310934E+03  0.24613210247E+03  0.42089283252E+03  0.12699999809E+01 0.  1.
</event>
<event>
 5   0  0.2392585E-03  0.1105425E+04  0.7818609E-02  0.9199920E-01
       -2   -1    0    0    0  501  0.00000000000E+00  0.00000000000E+00  0.61179526998E+03  0.61179526998E+03  0.25500000920E-02 0. -1.
        2   -1    0    0  501    0  0.00000000000E+00  0.00000000000E+00 -0.49933546507E+03  0.49933546507E+03  0.25500000920E-02 0.  1.
    10030    2    1    2    0    0  0.00000000000E+00  0.00000000000E+00  0.11245980491E+03  0.11111307351E+04  0.11054249421E+04 0.  0.
        5    1    3    3  502    0  0.15930110063E+03  0.43850860612E+03 -0.24161417224E+03  0.52541996206E+03  0.46999998093E+01 0.  1.
       -5    1    3    3    0  502 -0.15930110063E+03 -0.43850860612E+03  0.35407397715E+03  0.58571077299E+03  0.46999998093E+01 0. -1.
</event>
<event>
 5   0  0.1479573E-03  0.1097709E+04  0.7818609E-02  0.9207428E-01
       -1   -1    0    0    0  501  0.00000000000E+00  0.00000000000E+00  0.91833357813E+03  0.91833357815E+03  0.50400001928E-02 0. -1.
        1   -1    0    0  501    0  0.00000000000E+00  0.00000000000E+00 -0.32803003962E+03  0.32803003966E+03  0.50400001928E-02 0.  1.
    10030    2    1    2    0    0  0.00000000000E+00  0.00000000000E+00  0.59030353851E+03  0.12463636178E+04  0.10977085224E+04 0.  0.
        4    1    3    3  502    0  0.48768421088E+03  0.24957128223E+03  0.25719274437E+03  0.60520363112E+03  0.12699999809E+01 0.  1.
       -4    1    3    3    0  502 -0.48768421088E+03 -0.24957128223E+03  0.33311079414E+03  0.64115998669E+03  0.12699999809E+01 0. -1.
</event>
<event>
 5   0  0.2483036E-03  0.1109002E+04  0.7818609E-02  0.9196462E-01
        2   -1    0    0  501    0  0.00000000000E+00  0.00000000000E+00  0.16723619479E+04  0.16723619479E+04  0.25500000920E-02 0. -1.
       -2   -1    0    0    0  501  0.00000000000E+00  0.00000000000E+00 -0.18385467179E+03  0.18385467181E+03  0.25500000920E-02 0.  1.
    10030    2    1    2    0    0  0.00000000000E+00  0.00000000000E+00  0.14885072761E+04  0.18562166197E+04  0.11090023572E+04 0.  0.
        3    1    3    3  502    0  0.15021597789E+03 -0.45763606148E+03  0.28442029543E+03  0.55936617652E+03  0.10100000352E+00 0.  1.
       -3    1    3    3    0  502 -0.15021597789E+03  0.45763606148E+03  0.12040869807E+04  0.12968504432E+04  0.10100000352E+00 0. -1.
</event>
<event>
 5   0  0.2483036E-03  0.1104769E+04  0.7818609E-02  0.9200556E-01
       -2   -1    0    0    0  501  0.00000000000E+00  0.00000000000E+00  0.34886187416E+03  0.34886187417E+03  0.25500000920E-02 0. -1.
        2   -1    0    0  501    0  0.00000000000E+00  0.00000000000E+00 -0.87463994225E+03  0.87463994225E+03  0.25500000920E-02 0.  1.
    10030    2    1    2    0    0  0.00000000000E+00  0.00000000000E+00 -0.52577806808E+03  0.12235018164E+04  0.11047688074E+04 0.  0.
        3    1    3    3  502    0  0.49371974943E+02  0.50825880964E+03 -0.49615325045E+03  0.71199204182E+03  0.10100000352E+00 0.  1.
       -3    1    3    3    0  502 -0.49371974943E+02 -0.50825880964E+03 -0.29624817635E+02  0.51150977460E+03  0.10100000352E+00 0. -1.
</event>
<event>
 5   0  0.1479573E-03  0.1138386E+04  0.7818609E-02  0.9168565E-01
        1   -1    0    0  501    0  0.00000000000E+00  0.00000000000E+00  0.12866280809E+04  0.12866280809E+04  0.50400001928E-02 0.  1.
       -1   -1    0    0    0  501  0.00000000000E+00  0.00000000000E+00 -0.25180620259E+03  0.25180620264E+03  0.50400001928E-02 0. -1.
    10030    2    1    2    0    0  0.00000000000E+00  0.00000000000E+00  0.10348218783E+04  0.15384342836E+04  0.11383864568E+04 0.  0.
        4    1    3    3  502    0  0.10802123505E+03 -0.28247883591E+03  0.11690634307E+04  0.12075486731E+04  0.12699999809E+01 0.  1.
       -4    1    3    3    0  502 -0.10802123505E+03  0.28247883591E+03 -0.13424155236E+03  0.33088561051E+03  0.12699999809E+01 0. -1.
</event>
<event>
 5   0  0.1509004E-03  0.1099206E+04  0.7818609E-02  0.9205966E-01
       -1   -1    0    0    0  501  0.00000000000E+00  0.00000000000E+00  0.21897849827E+04  0.21897849827E+04  0.50400001928E-02 0.  1.
        1   -1    0    0  501    0  0.00000000000E+00  0.00000000000E+00 -0.13794211615E+03  0.13794211624E+03  0.50400001928E-02 0. -1.
    10030    2    1    2    0    0  0.00000000000E+00  0.00000000000E+00  0.20518428665E+04  0.23277270989E+04  0.10992062128E+04 0.  0.
        3    1    3    3  502    0  0.26429030717E+03  0.36691527655E+03  0.16874516897E+04  0.17469886667E+04  0.10100000352E+00 0.  1.
       -3    1    3    3    0  502 -0.26429030717E+03 -0.36691527655E+03  0.36439117687E+03  0.58073843218E+03  0.10100000352E+00 0. -1.
</event>
<event>
 5   0  0.1479573E-03  0.1099402E+04  0.7818609E-02  0.9205775E-01
        1   -1    0    0  501    0  0.00000000000E+00  0.00000000000E+00  0.99843685601E+03  0.99843685602E+03  0.50400001928E-02 0.  1.
       -1   -1    0    0    0  501  0.00000000000E+00  0.00000000000E+00 -0.30264434551E+03  0.30264434555E+03  0.50400001928E-02 0. -1.
    10030    2    1    2    0    0  0.00000000000E+00  0.00000000000E+00  0.69579251050E+03  0.13010812016E+04  0.10994021445E+04 0.  0.
        4    1    3    3  502    0  0.29592627586E+03 -0.28903688654E+03  0.77632102862E+03  0.87965370169E+03  0.12699999809E+01 0.  1.
       -4    1    3    3    0  502 -0.29592627586E+03  0.28903688654E+03 -0.80528518124E+02  0.42142749988E+03  0.12699999809E+01 0. -1.
</event>
<event>
 5   0  0.2392585E-03  0.1096998E+04  0.7818609E-02  0.9208123E-01
        2   -1    0    0  501    0  0.00000000000E+00  0.00000000000E+00  0.11180151502E+04  0.11180151502E+04  0.25500000920E-02 0.  1.
       -2   -1    0    0    0  501  0.00000000000E+00  0.00000000000E+00 -0.26909379684E+03  0.26909379685E+03  0.25500000920E-02 0. -1.
    10030    2    1    2    0    0  0.00000000000E+00  0.00000000000E+00  0.84892135334E+03  0.13871089470E+04  0.10969976148E+04 0.  0.
        5    1    3    3  502    0 -0.11150222311E+03  0.41538103547E+03 -0.59288759989E+01  0.43015275421E+03  0.46999998093E+01 0. -1.
       -5    1    3    3    0  502  0.11150222311E+03 -0.41538103547E+03  0.85485022934E+03  0.95695619282E+03  0.46999998093E+01 0.  1.
</event>
<event>
 5   0  0.1479573E-03  0.1093228E+04  0.7818609E-02  0.9211817E-01
        1   -1    0    0  501    0  0.00000000000E+00  0.00000000000E+00  0.70488359391E+03  0.70488359393E+03  0.50400001928E-02 0. -1.
       -1   -1    0    0    0  501  0.00000000000E+00  0.00000000000E+00 -0.42388119215E+03  0.42388119218E+03  0.50400001928E-02 0.  1.
    10030    2    1    2    0    0  0.00000000000E+00  0.00000000000E+00  0.28100240176E+03  0.11287647861E+04  0.10932280606E+04 0.  0.
        4    1    3    3  502    0 -0.18091692875E+03 -0.46105272779E+02  0.67094081845E+03  0.69643364798E+03  0.12699999809E+01 0. -1.
       -4    1    3    3    0  502  0.18091692875E+03  0.46105272779E+02 -0.38993841669E+03  0.43233113813E+03  0.12699999809E+01 0.  1.
</event>
<event>
 5   0  0.9631750E-04  0.1103220E+04  0.7818609E-02  0.9202060E-01
        3   -1    0    0  501    0  0.00000000000E+00  0.00000000000E+00  0.10797711715E+04  0.10797711762E+04  0.10100000352E+00 0.  1.
       -3   -1    0    0    0  501  0.00000000000E+00  0.00000000000E+00 -0.28179426644E+03  0.28179428454E+03  0.10100000352E+00 0. -1.
    10030    2    1    2    0    0  0.00000000000E+00  0.00000000000E+00  0.79797690502E+03  0.13615654607E+04  0.11032195443E+04 0.  0.
        1    1    3    3  502    0  0.39849282058E+03  0.61502577716E+02 -0.65583177855E+02  0.40850978980E+03  0.50400001928E-02 0. -1.
       -1    1    3    3    0  502 -0.39849282058E+03 -0.61502577716E+02  0.86356008287E+03  0.95305567092E+03  0.50400001928E-02 0.  1.
</event>
<event>
 5   0  0.1415400E-03  0.1105086E+04  0.7818609E-02  0.9200249E-01
       -1   -1    0    0    0  501  0.00000000000E+00  0.00000000000E+00  0.13363863463E+03  0.13363863472E+03  0.50400001928E-02 0. -1.
        1   -1    0    0  501    0  0.00000000000E+00  0.00000000000E+00 -0.22845485496E+04  0.22845485496E+04  0.50400001928E-02 0.  1.
    10030    2    1    2    0    0  0.00000000000E+00  0.00000000000E+00 -0.21509099150E+04  0.24181871844E+04  0.11050863297E+04 0.  0.
        2    1    3    3  502    0 -0.27904741843E+03  0.42369468229E+03 -0.59644012971E+03  0.78302329076E+03  0.25500000920E-02 0. -1.
       -2    1    3    3    0  502  0.27904741843E+03 -0.42369468229E+03 -0.15544697853E+04  0.16351638936E+04  0.25500000920E-02 0.  1.
</event>
<event>
 5   0  0.1468556E-03  0.1097443E+04  0.7818609E-02  0.9207687E-01
       -1   -1    0    0    0  501  0.00000000000E+00  0.00000000000E+00  0.44175597976E+03  0.44175597979E+03  0.50400001928E-02 0. -1.
        1   -1    0    0  501    0  0.00000000000E+00  0.00000000000E+00 -0.68158791092E+03  0.68158791094E+03  0.50400001928E-02 0.  1.
    10030    2    1    2    0    0  0.00000000000E+00  0.00000000000E+00 -0.23983193117E+03  0.11233438907E+04  0.10974434571E+04 0.  0.
        5    1    3    3  502    0  0.67248845222E+02 -0.40420054028E+03 -0.49345724582E+03  0.64142234713E+03  0.46999998093E+01 0.  1.
       -5    1    3    3    0  502 -0.67248845222E+02  0.40420054028E+03  0.25362531466E+03  0.48192154359E+03  0.46999998093E+01 0. -1.
</event>
<event>
 5   0  0.2488472E-03  0.1101148E+04  0.7818609E-02  0.9204074E-01
       -2   -1    0    0    0  501  0.00000000000E+00  0.00000000000E+00  0.19617406858E+03  0.19617406860E+03  0.25500000920E-02 0. -1.
        2   -1    0    0  501    0  0.00000000000E+00  0.00000000000E+00 -0.15452182085E+04  0.15452182085E+04  0.25500000920E-02 0.  1.
    10030    2    1    2    0    0  0.00000000000E+00  0.00000000000E+00 -0.13490441399E+04  0.17413922771E+04  0.11011480242E+04 0.  0.
        2    1    3    3  502    0  0.49727374472E+03  0.79116136582E+02 -0.10266927777E+04  0.11435202666E+04  0.25500000920E-02 0.  1.
       -2    1    3    3    0  502 -0.49727374472E+03 -0.79116136582E+02 -0.32235136223E+03  0.59787201054E+03  0.25500000920E-02 0. -1.
</event>
<event>
 5   0  0.2438115E-03  0.1064616E+04  0.7818609E-02  0.9240382E-01
       -2   -1    0    0    0  501  0.00000000000E+00  0.00000000000E+00  0.61063038556E+03  0.61063038557E+03  0.25500000920E-02 0.  1.
        2   -1    0    0  501    0  0.00000000000E+00  0.00000000000E+00 -0.46403190663E+03  0.46403190664E+03  0.25500000920E-02 0. -1.
    10030    2    1    2    0    0  0.00000000000E+00  0.00000000000E+00  0.14659847893E+03  0.10746622922E+04  0.10646163291E+04 0.  0.
        4    1    3    3  502    0 -0.40989289973E+03  0.34330198065E+02  0.41436265726E+03  0.58385681154E+03  0.12699999809E+01 0. -1.
       -4    1    3    3    0  502  0.40989289973E+03 -0.34330198065E+02 -0.26776417833E+03  0.49080548066E+03  0.12699999809E+01 0.  1.
</event>
<event>
 5   0  0.2483036E-03  0.1091109E+04  0.7818609E-02  0.9213901E-01
        2   -1    0    0  501    0  0.00000000000E+00  0.00000000000E+00  0.28541583414E+03  0.28541583416E+03  0.25500000920E-02 0.  1.
       -2   -1    0    0    0  501  0.00000000000E+00  0.00000000000E+00 -0.10427934408E+04  0.10427934408E+04  0.25500000920E-02 0. -1.
    10030    2    1    2    0    0  0.00000000000E+00  0.00000000000E+00 -0.75737760670E+03  0.13282092750E+04  0.10911090867E+04 0.  0.
        3    1    3    3  502    0 -0.16581307224E+03  0.40322533680E+03  0.20514066519E+02  0.43646933947E+03  0.10100000352E+00 0.  1.
       -3    1    3    3    0  502  0.16581307224E+03 -0.40322533680E+03 -0.77789167322E+03  0.89173993554E+03  0.10100000352E+00 0. -1.
</event>
<event>
 5   0  0.1479573E-03  0.1123459E+04  0.7818609E-02  0.9182625E-01
       -1   -1    0    0    0  501  0.00000000000E+00  0.00000000000E+00  0.74124725591E+03  0.74124725592E+03  0.50400001928E-02 0. -1.
        1   -1    0    0  501    0  0.00000000000E+00  0.00000000000E+00 -0.42568759708E+03  0.42568759711E+03  0.50400001928E-02 0.  1.
    10030    2    1    2    0    0  0.00000000000E+00  0.00000000000E+00  0.31555965882E+03  0.11669348530E+04  0.11234585230E+04 0.  0.
        4    1    3    3  502    0 -0.44414105132E+03  0.83879185037E+02  0.50421527518E+03  0.67714964947E+03  0.12699999809E+01 0. -1.
       -4    1    3    3    0  502  0.44414105132E+03 -0.83879185037E+02 -0.18865561636E+03  0.48978520357E+03  0.12699999809E+01 0.  1.
</event>
<event>
 5   0  0.1509004E-03  0.1097325E+04  0.7818609E-02  0.9207803E-01
       -1   -1    0    0    0  501  0.00000000000E+00  0.00000000000E+00  0.45694486804E+03  0.45694486807E+03  0.50400001928E-02 0. -1.
        1   -1    0    0  501    0  0.00000000000E+00  0.00000000000E+00 -0.65879010533E+03  0.65879010535E+03  0.50400001928E-02 0.  1.
    10030    2    1    2    0    0  0.00000000000E+00  0.00000000000E+00 -0.20184523729E+03  0.11157349734E+04  0.10973253989E+04 0.  0.
        3    1    3    3  502    0  0.36873171524E+03 -0.31729193079E+03  0.15709337763E+03  0.51119036245E+03  0.10100000352E+00 0. -1.
       -3    1    3    3    0  502 -0.36873171524E+03  0.31729193079E+03 -0.35893861492E+03  0.60454461096E+03  0.10100000352E+00 0.  1.
</event>
<event>
 5   0  0.1468556E-03  0.1100612E+04  0.7818609E-02  0.9204595E-01
        1   -1    0    0  501    0  0.00000000000E+00  0.00000000000E+00  0.12080117931E+04  0.12080117931E+04  0.50400001928E-02 0. -1.
       -1   -1    0    0    0  501  0.00000000000E+00  0.00000000000E+00 -0.25069028151E+03  0.25069028156E+03  0.50400001928E-02 0.  1.
    10030    2    1    2    0    0  0.00000000000E+00  0.00000000000E+00  0.95732151154E+03  0.14587020746E+04  0.11006122233E+04 0.  0.
        5    1    3    3  502    0  0.58982080383E+02 -0.34550521611E+02 -0.24501483369E+03  0.25441498202E+03  0.46999998093E+01 0.  1.
       -5    1    3    3    0  502 -0.58982080383E+02  0.34550521611E+02  0.12023363452E+04  0.12042870926E+04  0.46999998093E+01 0. -1.
</event>
<event>
 5   0  0.1468556E-03  0.1087198E+04  0.7818609E-02  0.9217760E-01
       -1   -1    0    0    0  501  0.00000000000E+00  0.00000000000E+00  0.80025755009E+03  0.80025755011E+03  0.50400001928E-02 0. -1.
        1   -1    0    0  501    0  0.00000000000E+00  0.00000000000E+00 -0.36925615465E+03  0.36925615468E+03  0.50400001928E-02 0.  1.
    10030    2    1    2    0    0  0.00000000000E+00  0.00000000000E+00  0.43100139544E+03  0.11695137048E+04  0.10871982813E+04 0.  0.
        5    1    3    3  502    0  0.72380664756E+01 -0.57762159516E+02  0.79687284021E+03  0.79901018150E+03  0.46999998093E+01 0. -1.
       -5    1    3    3    0  502 -0.72380664756E+01  0.57762159516E+02 -0.36587144476E+03  0.37050352329E+03  0.46999998093E+01 0.  1.
</event>
<event>
 5   0  0.2488472E-03  0.1094256E+04  0.7818609E-02  0.9210809E-01
        2   -1    0    0  501    0  0.00000000000E+00  0.00000000000E+00  0.53288877009E+03  0.53288877010E+03  0.25500000920E-02 0.  1.
       -2   -1    0    0    0  501  0.00000000000E+00  0.00000000000E+00 -0.56174754627E+03  0.56174754628E+03  0.25500000920E-02 0. -1.
    10030    2    1    2    0    0  0.00000000000E+00  0.00000000000E+00 -0.28858776178E+02  0.10946363164E+04  0.10942558367E+04 0.  0.
        2    1    3    3  502    0 -0.29056074488E+03  0.10301178421E+03 -0.46659538717E+03  0.55923897350E+03  0.25500000920E-02 0. -1.
       -2    1    3    3    0  502  0.29056074488E+03 -0.10301178421E+03  0.43773661099E+03  0.53539734287E+03  0.25500000920E-02 0.  1.
</event>
<event>
 5   0  0.2488472E-03  0.1097104E+04  0.7818609E-02  0.9208019E-01
        2   -1    0    0  501    0  0.00000000000E+00  0.00000000000E+00  0.94713461847E+03  0.94713461848E+03  0.25500000920E-02 0.  1.
       -2   -1    0    0    0  501  0.00000000000E+00  0.00000000000E+00 -0.31770507874E+03  0.31770507875E+03  0.25500000920E-02 0. -1.
    10030    2    1    2    0    0  0.00000000000E+00  0.00000000000E+00  0.62942953973E+03  0.12648396972E+04  0.10971043315E+04 0.  0.
        2    1    3    3  502    0 -0.32151489833E+03  0.95244943280E+02 -0.18578527580E+03  0.38335309804E+03  0.25500000920E-02 0. -1.
       -2    1    3    3    0  502  0.32151489833E+03 -0.95244943280E+02  0.81521481553E+03  0.88148659918E+03  0.25500000920E-02 0.  1.
</event>
<event>
 5   0  0.1509004E-03  0.1096321E+04  0.7818609E-02  0.9208785E-01
       -1   -1    0    0    0  501  0.00000000000E+00  0.00000000000E+00  0.25941844636E+03  0.25941844641E+03  0.50400001928E-02 0.  1.
        1   -1    0    0  501    0  0.00000000000E+00  0.00000000000E+00 -0.11582827361E+04  0.11582827361E+04  0.50400001928E-02 0. -1.
    10030    2    1    2    0    0  0.00000000000E+00  0.00000000000E+00 -0.89886428974E+03  0.14177011825E+04  0.10963209528E+04 0.  0.
        3    1    3    3  502    0  0.42157466450E+03 -0.32145729242E+03 -0.62963869952E+03  0.82310685256E+03  0.10100000352E+00 0. -1.
       -3    1    3    3    0  502 -0.42157466450E+03  0.32145729242E+03 -0.26922559022E+03  0.59459432997E+03  0.10100000352E+00 0.  1.
</event>
<event>
 5   0  0.1480937E-03  0.1111472E+04  0.7818609E-02  0.9194082E-01
       -1   -1    0    0    0  501  0.00000000000E+00  0.00000000000E+00  0.17595167507E+03  0.17595167514E+03  0.50400001928E-02 0. -1.
        1   -1    0    0  501    0  0.00000000000E+00  0.00000000000E+00 -0.17552701893E+04  0.17552701893E+04  0.50400001928E-02 0.  1.
    10030    2    1    2    0    0  0.00000000000E+00  0.00000000000E+00 -0.15793185142E+04  0.19312218645E+04  0.11114724110E+04 0.  0.
        1    1    3    3  502    0  0.35490423980E+03 -0.41125455038E+03 -0.58587521136E+03  0.79896000397E+03  0.50400001928E-02 0.  1.
       -1    1    3    3    0  502 -0.35490423980E+03  0.41125455038E+03 -0.99344330288E+03  0.11322618605E+04  0.50400001928E-02 0. -1.
</event>
<event>
 5   0  0.2467448E-03  0.1101874E+04  0.7818609E-02  0.9203368E-01
        2   -1    0    0  501    0  0.00000000000E+00  0.00000000000E+00  0.55563852873E+03  0.55563852873E+03  0.25500000920E-02 0.  1.
       -2   -1    0    0    0  501  0.00000000000E+00  0.00000000000E+00 -0.54627497943E+03  0.54627497943E+03  0.25500000920E-02 0. -1.
    10030    2    1    2    0    0  0.00000000000E+00  0.00000000000E+00  0.93635492985E+01  0.11019135082E+04  0.11018737239E+04 0.  0.
        1    1    3    3  502    0  0.13189588746E+03 -0.30742814815E+03 -0.43308148574E+03  0.54723684518E+03  0.50400001928E-02 0. -1.
       -1    1    3    3    0  502 -0.13189588746E+03  0.30742814815E+03  0.44244503504E+03  0.55467666299E+03  0.50400001928E-02 0.  1.
</event>
<event>
 5   0  0.2392585E-03  0.1102852E+04  0.7818609E-02  0.9202417E-01
        2   -1    0    0  501    0  0.00000000000E+00  0.00000000000E+00  0.12087632160E+04  0.12087632160E+04  0.25500000920E-02 0. -1.
       -2   -1    0    0    0  501  0.00000000000E+00  0.00000000000E+00 -0.25155509791E+03  0.25155509792E+03  0.25500000920E-02 0.  1.
    10030    2    1    2    0    0  0.00000000000E+00  0.00000000000E+00  0.95720811813E+03  0.14603183140E+04  0.11028518471E+04 0.  0.
        5    1    3    3  502    0  0.41899305350E+03 -0.20993411467E+03  0.93874576260E+02  0.47797702607E+03  0.46999998093E+01 0.  1.
       -5    1    3    3    0  502 -0.41899305350E+03  0.20993411467E+03  0.86333354187E+03  0.98234128789E+03  0.46999998093E+01 0. -1.
</event>
<event>
 5   0  0.1415400E-03  0.1081329E+04  0.7818609E-02  0.9223583E-01
        1   -1    0    0  501    0  0.00000000000E+00  0.00000000000E+00  0.44126664929E+03  0.44126664931E+03  0.50400001928E-02 0.  1.
       -1   -1    0    0    0  501  0.00000000000E+00  0.00000000000E+00 -0.66245269043E+03  0.66245269045E+03  0.50400001928E-02 0. -1.
    10030    2    1    2    0    0  0.00000000000E+00  0.00000000000E+00 -0.22118604115E+03  0.11037193398E+04  0.10813293283E+04 0.  0.
        2    1    3    3  502    0 -0.36047326422E+03  0.26157475535E+03  0.20227618491E+03  0.48916048680E+03  0.25500000920E-02 0. -1.
       -2    1    3    3    0  502  0.36047326422E+03 -0.26157475535E+03 -0.42346222606E+03  0.61455885297E+03  0.25500000920E-02 0.  1.
</event>
<event>
 5   0  0.1415400E-03  0.1101161E+04  0.7818609E-02  0.9204061E-01
       -1   -1    0    0    0  501  0.00000000000E+00  0.00000000000E+00  0.27498784304E+03  0.27498784309E+03  0.50400001928E-02 0.  1.
        1   -1    0    0  501    0  0.00000000000E+00  0.00000000000E+00 -0.11023720679E+04  0.11023720679E+04  0.50400001928E-02 0. -1.
    10030    2    1    2    0    0  0.00000000000E+00  0.00000000000E+00 -0.82738422485E+03  0.13773599110E+04  0.11011610549E+04 0.  0.
        2    1    3    3  502    0  0.24195242592E+03  0.94136860387E+02 -0.10210011267E+04  0.10534922998E+04  0.25500000920E-02 0. -1.
       -2    1    3    3    0  502 -0.24195242592E+03 -0.94136860387E+02  0.19361690188E+03  0.32386761122E+03  0.25500000920E-02 0.  1.
</event>
<event>
 5   0  0.1509004E-03  0.1133667E+04  0.7818609E-02  0.9172985E-01
       -1   -1    0    0    0  501  0.00000000000E+00  0.00000000000E+00  0.48593320044E+03  0.48593320047E+03  0.50400001928E-02 0.  1.
        1   -1    0    0  501    0  0.00000000000E+00  0.00000000000E+00 -0.66120263689E+03  0.66120263690E+03  0.50400001928E-02 0. -1.
    10030    2    1    2    0    0  0.00000000000E+00  0.00000000000E+00 -0.17526943644E+03  0.11471358374E+04  0.11336671708E+04 0.  0.
        3    1    3    3  502    0  0.48197618175E+03 -0.25902897144E+03 -0.23739050456E+03  0.59644891623E+03  0.10100000352E+00 0. -1.
       -3    1    3    3    0  502 -0.48197618175E+03  0.25902897144E+03  0.62121068118E+02  0.55068692115E+03  0.10100000352E+00 0.  1.
</event>
<event>
 5   0  0.2483036E-03  0.1096433E+04  0.7818609E-02  0.9208675E-01
       -2   -1    0    0    0  501  0.00000000000E+00  0.00000000000E+00  0.61808952137E+03  0.61808952138E+03  0.25500000920E-02 0.  1.
        2   -1    0    0  501    0  0.00000000000E+00  0.00000000000E+00 -0.48624277636E+03  0.48624277637E+03  0.25500000920E-02 0. -1.
    10030    2    1    2    0    0  0.00000000000E+00  0.00000000000E+00  0.13184674501E+03  0.11043322977E+04  0.10964334269E+04 0.  0.
        3    1    3    3  502    0 -0.25623426034E+03 -0.24409404724E+03 -0.35578574585E+03  0.50181810173E+03  0.10100000352E+00 0. -1.
       -3    1    3    3    0  502  0.25623426034E+03  0.24409404724E+03  0.48763249085E+03  0.60251419602E+03  0.10100000352E+00 0.  1.
</event>
<event>
 5   0  0.1468556E-03  0.1085230E+04  0.7818609E-02  0.9219709E-01
       -1   -1    0    0    0  501  0.00000000000E+00  0.00000000000E+00  0.30607612125E+03  0.30607612129E+03  0.50400001928E-02 0.  1.
        1   -1    0    0  501    0  0.00000000000E+00  0.00000000000E+00 -0.96195350172E+03  0.96195350173E+03  0.50400001928E-02 0. -1.
    10030    2    1    2    0    0  0.00000000000E+00  0.00000000000E+00 -0.65587738046E+03  0.12680296230E+04  0.10852299234E+04 0.  0.
        5    1    3    3  502    0 -0.18422450670E+03  0.31930454901E+03  0.13726441647E+03  0.39339251889E+03  0.46999998093E+01 0.  1.
       -5    1    3    3    0  502  0.18422450670E+03 -0.31930454901E+03 -0.79314179694E+03  0.87463710414E+03  0.46999998093E+01 0. -1.
</event>
<event>
 5   0  0.1415400E-03  0.1097448E+04  0.7818609E-02  0.9207683E-01
        1   -1    0    0  501    0  0.00000000000E+00  0.00000000000E+00  0.88144723197E+03  0.88144723199E+03  0.50400001928E-02 0.  1.
       -1   -1    0    0    0  501  0.00000000000E+00  0.00000000000E+00 -0.34159481612E+03  0.34159481616E+03  0.50400001928E-02 0. -1.
    10030    2    1    2    0    0  0.00000000000E+00  0.00000000000E+00  0.53985241586E+03  0.12230420481E+04  0.10974475936E+04 0.  0.
        2    1    3    3  502    0  0.49004416535E+03 -0.18566387811E+03  0.45128760019E+03  0.69157418815E+03  0.25500000920E-02 0.  1.
       -2    1    3    3    0  502 -0.49004416535E+03  0.18566387811E+03  0.88564815670E+02  0.53146785999E+03  0.25500000920E-02 0. -1.
</event>
<event>
 5   0  0.2483036E-03  0.1099594E+04  0.7818609E-02  0.9205587E-01
       -2   -1    0    0    0  501  0.00000000000E+00  0.00000000000E+00  0.29785127298E+03  0.29785127299E+03  0.25500000920E-02 0. -1.
        2   -1    0    0  501    0  0.00000000000E+00  0.00000000000E+00 -0.10148583535E+04  0.10148583535E+04  0.25500000920E-02 0.  1.
    10030    2    1    2    0    0  0.00000000000E+00  0.00000000000E+00 -0.71700708056E+03  0.13127096265E+04  0.10995942024E+04 0.  0.
        3    1    3    3  502    0 -0.32418530282E+03  0.17660087560E+03 -0.84488939466E+03  0.92202065012E+03  0.10100000352E+00 0.  1.
       -3    1    3    3    0  502  0.32418530282E+03 -0.17660087560E+03  0.12788231410E+03  0.39068897641E+03  0.10100000352E+00 0. -1.
</event>
<event>
 5   0  0.2392585E-03  0.1100205E+04  0.7818609E-02  0.9204992E-01
       -2   -1    0    0    0  501  0.00000000000E+00  0.00000000000E+00  0.86007086402E+03  0.86007086403E+03  0.25500000920E-02 0.  1.
        2   -1    0    0  501    0  0.00000000000E+00  0.00000000000E+00 -0.35184608173E+03  0.35184608174E+03  0.25500000920E-02 0. -1.
    10030    2    1    2    0    0  0.00000000000E+00  0.00000000000E+00  0.50822478230E+03  0.12119169458E+04  0.11002046419E+04 0.  0.
        5    1    3    3  502    0  0.19983047844E+03  0.80654251371E+02 -0.30339320544E+03  0.37216509171E+03  0.46999998093E+01 0. -1.
       -5    1    3    3    0  502 -0.19983047844E+03 -0.80654251371E+02  0.81161798774E+03  0.83975185406E+03  0.46999998093E+01 0.  1.
</event>
<event>
 5   0  0.2392585E-03  0.1074764E+04  0.7818609E-02  0.9230144E-01
        2   -1    0    0  501    0  0.00000000000E+00  0.00000000000E+00  0.61191001332E+03  0.61191001332E+03  0.25500000920E-02 0.  1.
       -2   -1    0    0    0  501  0.00000000000E+00  0.00000000000E+00 -0.47193075531E+03  0.47193075531E+03  0.25500000920E-02 0. -1.
    10030    2    1    2    0    0  0.00000000000E+00  0.00000000000E+00  0.13997925801E+03  0.10838407686E+04  0.10747635178E+04 0.  0.
        5    1    3    3  502    0 -0.18347405009E+03  0.34958446469E+03 -0.29762316033E+03  0.49444277785E+03  0.46999998093E+01 0. -1.
       -5    1    3    3    0  502  0.18347405009E+03 -0.34958446469E+03  0.43760241834E+03  0.58939799079E+03  0.46999998093E+01 0.  1.
</event>
<event>
 5   0  0.2392585E-03  0.1100445E+04  0.7818609E-02  0.9204758E-01
        2   -1    0    0  501    0  0.00000000000E+00  0.00000000000E+00  0.71081939233E+03  0.71081939234E+03  0.25500000920E-02 0. -1.
       -2   -1    0    0    0  501  0.00000000000E+00  0.00000000000E+00 -0.42590984835E+03  0.42590984836E+03  0.25500000920E-02 0.  1.
    10030    2    1    2    0    0  0.00000000000E+00  0.00000000000E+00  0.28490954398E+03  0.11367292407E+04  0.11004453273E+04 0.  0.
        5    1    3    3  502    0 -0.37176067351E+02 -0.18306280247E+02  0.70918441338E+03  0.71040960161E+03  0.46999998093E+01 0. -1.
       -5    1    3    3    0  502  0.37176067351E+02  0.18306280247E+02 -0.42427486939E+03  0.42631963909E+03  0.46999998093E+01 0.  1.
</event>
<event>
 5   0  0.2488472E-03  0.1085649E+04  0.7818609E-02  0.9219293E-01
        2   -1    0    0  501    0  0.00000000000E+00  0.00000000000E+00  0.30907332665E+03  0.30907332666E+03  0.25500000920E-02 0.  1.
       -2   -1    0    0    0  501  0.00000000000E+00  0.00000000000E+00 -0.95336137193E+03  0.95336137194E+03  0.25500000920E-02 0. -1.
    10030    2    1    2    0    0  0.00000000000E+00  0.00000000000E+00 -0.64428804529E+03  0.12624346986E+04  0.10856492449E+04 0.  0.
        2    1    3    3  502    0 -0.39216764504E+03 -0.28059039474E+03 -0.61199685049E+03  0.77914477246E+03  0.25500000920E-02 0. -1.
       -2    1    3    3    0  502  0.39216764504E+03  0.28059039474E+03 -0.32291194798E+02  0.48328992613E+03  0.25500000920E-02 0.  1.
</event>
<event>
 5   0  0.2438115E-03  0.1096182E+04  0.7818609E-02  0.9208921E-01
        2   -1    0    0  501    0  0.00000000000E+00  0.00000000000E+00  0.10729608067E+04  0.10729608067E+04  0.25500000920E-02 0.  1.
       -2   -1    0    0    0  501  0.00000000000E+00  0.00000000000E+00 -0.27997650001E+03  0.27997650003E+03  0.25500000920E-02 0. -1.
    10030    2    1    2    0    0  0.00000000000E+00  0.00000000000E+00  0.79298430667E+03  0.13529373067E+04  0.10961821223E+04 0.  0.
        4    1    3    3  502    0 -0.12866907065E+03  0.41168424420E+03  0.81387719065E+03  0.92110658505E+03  0.12699999809E+01 0. -1.
       -4    1    3    3    0  502  0.12866907065E+03 -0.41168424420E+03 -0.20892883981E+02  0.43183072166E+03  0.12699999809E+01 0.  1.
</event>
<event>
 5   0  0.2483036E-03  0.1107382E+04  0.7818609E-02  0.9198026E-01
       -2   -1    0    0    0  501  0.00000000000E+00  0.00000000000E+00  0.36106246077E+03  0.36106246077E+03  0.25500000920E-02 0.  1.
        2   -1    0    0  501    0  0.00000000000E+00  0.00000000000E+00 -0.84908827020E+03  0.84908827021E+03  0.25500000920E-02 0. -1.
    10030    2    1    2    0    0  0.00000000000E+00  0.00000000000E+00 -0.48802580944E+03  0.12101507310E+04  0.11073823193E+04 0.  0.
        3    1    3    3  502    0  0.32001911784E+03  0.44010683953E+03 -0.13220669087E+03  0.55998650456E+03  0.10100000352E+00 0.  1.
       -3    1    3    3    0  502 -0.32001911784E+03 -0.44010683953E+03 -0.35581911856E+03  0.65016422642E+03  0.10100000352E+00 0. -1.
</event>
<event>
 5   0  0.2392585E-03  0.1104930E+04  0.7818609E-02  0.9200400E-01
        2   -1    0    0  501    0  0.00000000000E+00  0.00000000000E+00  0.41372885260E+03  0.41372885261E+03  0.25500000920E-02 0. -1.
       -2   -1    0    0    0  501  0.00000000000E+00  0.00000000000E+00 -0.73772407249E+03  0.73772407250E+03  0.25500000920E-02 0.  1.
    10030    2    1    2    0    0  0.00000000000E+00  0.00000000000E+00 -0.32399521989E+03  0.11514529251E+04  0.11049302857E+04 0.  0.
        5    1    3    3  502    0  0.11895006731E+03 -0.56510556655E+02  0.39711173625E+03  0.41840456808E+03  0.46999998093E+01 0. -1.
       -5    1    3    3    0  502 -0.11895006731E+03  0.56510556655E+02 -0.72110695615E+03  0.73304835702E+03  0.46999998093E+01 0.  1.
</event>
<event>
 5   0  0.2438115E-03  0.1108095E+04  0.7818609E-02  0.9197337E-01
        2   -1    0    0  501    0  0.00000000000E+00  0.00000000000E+00  0.10382762092E+04  0.10382762092E+04  0.25500000920E-02 0. -1.
       -2   -1    0    0    0  501  0.00000000000E+00  0.00000000000E+00 -0.29565238244E+03  0.29565238245E+03  0.25500000920E-02 0.  1.
    10030    2    1    2    0    0  0.00000000000E+00  0.00000000000E+00  0.74262382679E+03  0.13339285917E+04  0.11080953657E+04 0.  0.
        4    1    3    3  502    0  0.49268054700E+03 -0.23613208286E+03  0.26049178838E+03  0.60526859051E+03  0.12699999809E+01 0. -1.
       -4    1    3    3    0  502 -0.49268054700E+03  0.23613208286E+03  0.48213203841E+03  0.72866000117E+03  0.12699999809E+01 0.  1.
</event>
<event>
 5   0  0.9631750E-04  0.1100046E+04  0.7818609E-02  0.9205147E-01
       -3   -1    0    0    0  501  0.00000000000E+00  0.00000000000E+00  0.42011581924E+03  0.42011583138E+03  0.10100000352E+00 0. -1.
        3   -1    0    0  501    0  0.00000000000E+00  0.00000000000E+00 -0.72010023649E+03  0.72010024357E+03  0.10100000352E+00 0.  1.
    10030    2    1    2    0    0  0.00000000000E+00  0.00000000000E+00 -0.29998441725E+03  0.11402160750E+04  0.11000463840E+04 0.  0.
        2    1    3    3  502    0  0.32182740813E+03 -0.34556925711E+03 -0.44230915477E+03  0.64701497702E+03  0.25500000920E-02 0. -1.
       -2    1    3    3    0  502 -0.32182740813E+03  0.34556925711E+03  0.14232473752E+03  0.49320109793E+03  0.25500000920E-02 0.  1.
</event>
<event>
 5   0  0.2467448E-03  0.1083688E+04  0.7818609E-02  0.9221238E-01
       -2   -1    0    0    0  501  0.00000000000E+00  0.00000000000E+00  0.29819044721E+03  0.29819044722E+03  0.25500000920E-02 0. -1.
        2   -1    0    0  501    0  0.00000000000E+00  0.00000000000E+00 -0.98458891251E+03  0.98458891251E+03  0.25500000920E-02 0.  1.
    10030    2    1    2    0    0  0.00000000000E+00  0.00000000000E+00 -0.68639846530E+03  0.12827793597E+04  0.10836881621E+04 0.  0.
        1    1    3    3  502    0 -0.13410327017E+03  0.27018592915E+03  0.18961893003E+03  0.35628564668E+03  0.50400001928E-02 0. -1.
       -1    1    3    3    0  502  0.13410327017E+03 -0.27018592915E+03 -0.87601739533E+03  0.92649371305E+03  0.50400001928E-02 0.  1.
</event>
<event>
 5   0  0.1415400E-03  0.1112073E+04  0.7818609E-02  0.9193504E-01
       -1   -1    0    0    0  501  0.00000000000E+00  0.00000000000E+00  0.97442556585E+03  0.97442556587E+03  0.50400001928E-02 0.  1.
        1   -1    0    0  501    0  0.00000000000E+00  0.00000000000E+00 -0.31729096620E+03  0.31729096624E+03  0.50400001928E-02 0. -1.
    10030    2    1    2    0    0  0.00000000000E+00  0.00000000000E+00  0.65713459965E+03  0.12917165321E+04  0.11120727122E+04 0.  0.
        2    1    3    3  502    0  0.17978762580E+02  0.86208398969E+02 -0.30913943975E+03  0.32143789007E+03  0.25500000920E-02 0. -1.
       -2    1    3    3    0  502 -0.17978762580E+02 -0.86208398969E+02  0.96627403941E+03  0.97027864204E+03  0.25500000920E-02 0.  1.
</event>
<event>
 5   0  0.2483036E-03  0.1045003E+04  0.7818609E-02  0.9260519E-01
        2   -1    0    0  501    0  0.00000000000E+00  0.00000000000E+00  0.60762452642E+03  0.60762452643E+03  0.25500000920E-02 0.  1.
       -2   -1    0    0    0  501  0.00000000000E+00  0.00000000000E+00 -0.44930334051E+03  0.44930334052E+03  0.25500000920E-02 0. -1.
    10030    2    1    2    0    0  0.00000000000E+00  0.00000000000E+00  0.15832118591E+03  0.10569278669E+04  0.10450028316E+04 0.  0.
        3    1    3    3  502    0  0.11503921280E+03  0.44299584328E+03 -0.17576402522E+03  0.49027781962E+03  0.10100000352E+00 0. -1.
       -3    1    3    3    0  502 -0.11503921280E+03 -0.44299584328E+03  0.33408521113E+03  0.56665004733E+03  0.10100000352E+00 0.  1.
</event>
<event>
 5   0  0.1479573E-03  0.1100715E+04  0.7818609E-02  0.9204496E-01
       -1   -1    0    0    0  501  0.00000000000E+00  0.00000000000E+00  0.79231208814E+03  0.79231208816E+03  0.50400001928E-02 0.  1.
        1   -1    0    0  501    0  0.00000000000E+00  0.00000000000E+00 -0.38229020840E+03  0.38229020843E+03  0.50400001928E-02 0. -1.
    10030    2    1    2    0    0  0.00000000000E+00  0.00000000000E+00  0.41002187975E+03  0.11746022966E+04  0.11007145921E+04 0.  0.
        4    1    3    3  502    0 -0.29937934455E+03 -0.12624095204E+03  0.67904453964E+03  0.75277345173E+03  0.12699999809E+01 0.  1.
       -4    1    3    3    0  502  0.29937934455E+03  0.12624095204E+03 -0.26902265989E+03  0.42182884486E+03  0.12699999809E+01 0. -1.
</event>
<event>
 5   0  0.1480937E-03  0.1101306E+04  0.7818609E-02  0.9203920E-01
       -1   -1    0    0    0  501  0.00000000000E+00  0.00000000000E+00  0.18423843295E+03  0.18423843301E+03  0.50400001928E-02 0.  1.
        1   -1    0    0  501    0  0.00000000000E+00  0.00000000000E+00 -0.16457959538E+04  0.16457959539E+04  0.50400001928E-02 0. -1.
    10030    2    1    2    0    0  0.00000000000E+00  0.00000000000E+00 -0.14615575209E+04  0.18300343869E+04  0.11013062563E+04 0.  0.
        1    1    3    3  502    0 -0.32065680961E+03 -0.33151615673E+03 -0.23090111674E+03  0.51578976091E+03  0.50400001928E-02 0.  1.
       -1    1    3    3    0  502  0.32065680961E+03  0.33151615673E+03 -0.12306564042E+04  0.13142446260E+04  0.50400001928E-02 0. -1.
</event>
<event>
 5   0  0.1468556E-03  0.1103989E+04  0.7818609E-02  0.9201313E-01
        1   -1    0    0  501    0  0.00000000000E+00  0.00000000000E+00  0.80518090400E+03  0.80518090401E+03  0.50400001928E-02 0. -1.
       -1   -1    0    0    0  501  0.00000000000E+00  0.00000000000E+00 -0.37842162738E+03  0.37842162741E+03  0.50400001928E-02 0.  1.
    10030    2    1    2    0    0  0.00000000000E+00  0.00000000000E+00  0.42675927662E+03  0.11836025314E+04  0.11039888913E+04 0.  0.
        5    1    3    3  502    0 -0.30556869522E+03 -0.45905349303E+03  0.23905316844E+03  0.60105810393E+03  0.46999998093E+01 0. -1.
       -5    1    3    3    0  502  0.30556869522E+03  0.45905349303E+03  0.18770610818E+03  0.58254442749E+03  0.46999998093E+01 0.  1.
</event>
<event>
 5   0  0.2438115E-03  0.1105504E+04  0.7818609E-02  0.9199843E-01
        2   -1    0    0  501    0  0.00000000000E+00  0.00000000000E+00  0.33660750688E+03  0.33660750689E+03  0.25500000920E-02 0. -1.
       -2   -1    0    0    0  501  0.00000000000E+00  0.00000000000E+00 -0.90768915767E+03  0.90768915768E+03  0.25500000920E-02 0.  1.
    10030    2    1    2    0    0  0.00000000000E+00  0.00000000000E+00 -0.57108165079E+03  0.12442966646E+04  0.11055043815E+04 0.  0.
        4    1    3    3  502    0  0.19960459094E+03  0.32760428503E+03  0.16237412123E+03  0.41657355706E+03  0.12699999809E+01 0. -1.
       -4    1    3    3    0  502 -0.19960459094E+03 -0.32760428503E+03 -0.73345577202E+03  0.82772310751E+03  0.12699999809E+01 0.  1.
</event>
<event>
 5   0  0.1415400E-03  0.1097029E+04  0.7818609E-02  0.9208093E-01
        1   -1    0    0  501    0  0.00000000000E+00  0.00000000000E+00  0.83999305408E+03  0.83999305409E+03  0.50400001928E-02 0. -1.
       -1   -1    0    0    0  501  0.00000000000E+00  0.00000000000E+00 -0.35817915028E+03  0.35817915032E+03  0.50400001928E-02 0.  1.
    10030    2    1    2    0    0  0.00000000000E+00  0.00000000000E+00  0.48181390379E+03  0.11981722044E+04  0.10970287114E+04 0.  0.
        2    1    3    3  502    0 -0.20809922478E+03 -0.28353383432E+02 -0.31252459618E+03  0.37653794620E+03  0.25500000920E-02 0.  1.
       -2    1    3    3    0  502  0.20809922478E+03  0.28353383432E+02  0.79433849998E+03  0.82163425821E+03  0.25500000920E-02 0. -1.
</event>
<event>
 5   0  0.2488472E-03  0.1131789E+04  0.7818609E-02  0.9174751E-01
       -2   -1    0    0    0  501  0.00000000000E+00  0.00000000000E+00  0.18593514179E+03  0.18593514181E+03  0.25500000920E-02 0. -1.
        2   -1    0    0  501    0  0.00000000000E+00  0.00000000000E+00 -0.17223013121E+04  0.17223013121E+04  0.25500000920E-02 0.  1.
    10030    2    1    2    0    0  0.00000000000E+00  0.00000000000E+00 -0.15363661703E+04  0.19082364539E+04  0.11317885645E+04 0.  0.
        2    1    3    3  502    0 -0.12122672720E+03 -0.16839501036E+03 -0.16558511686E+04  0.16688007345E+04  0.25500000920E-02 0.  1.
       -2    1    3    3    0  502  0.12122672720E+03  0.16839501036E+03  0.11948499830E+03  0.23943571940E+03  0.25500000920E-02 0. -1.
</event>
<event>
 5   0  0.2467448E-03  0.1105556E+04  0.7818609E-02  0.9199793E-01
       -2   -1    0    0    0  501  0.00000000000E+00  0.00000000000E+00  0.25508337458E+03  0.25508337459E+03  0.25500000920E-02 0.  1.
        2   -1    0    0  501    0  0.00000000000E+00  0.00000000000E+00 -0.11978973916E+04  0.11978973916E+04  0.25500000920E-02 0. -1.
    10030    2    1    2    0    0  0.00000000000E+00  0.00000000000E+00 -0.94281401703E+03  0.14529807662E+04  0.11055563469E+04 0.  0.
        1    1    3    3  502    0 -0.50079005761E+02 -0.81479835831E+02  0.24412722833E+03  0.26219262786E+03  0.50400001928E-02 0.  1.
       -1    1    3    3    0  502  0.50079005761E+02  0.81479835831E+02 -0.11869412454E+04  0.11907881383E+04  0.50400001928E-02 0. -1.
</event>
<event>
 5   0  0.2392585E-03  0.1087114E+04  0.7818609E-02  0.9217843E-01
       -2   -1    0    0    0  501  0.00000000000E+00  0.00000000000E+00  0.44425157444E+03  0.44425157445E+03  0.25500000920E-02 0. -1.
        2   -1    0    0  501    0  0.00000000000E+00  0.00000000000E+00 -0.66506097484E+03  0.66506097484E+03  0.25500000920E-02 0.  1.
    10030    2    1    2    0    0  0.00000000000E+00  0.00000000000E+00 -0.22080940039E+03  0.11093125493E+04  0.10871143181E+04 0.  0.
        5    1    3    3  502    0  0.15235358578E+03  0.24787125950E+03  0.35807841707E+03  0.46140439871E+03  0.46999998093E+01 0. -1.
       -5    1    3    3    0  502 -0.15235358578E+03 -0.24787125950E+03 -0.57888781746E+03  0.64790815058E+03  0.46999998093E+01 0.  1.
</event>
<event>
 5   0  0.1415400E-03  0.1101929E+04  0.7818609E-02  0.9203313E-01
        1   -1    0    0  501    0  0.00000000000E+00  0.00000000000E+00  0.13207236014E+04  0.13207236015E+04  0.50400001928E-02 0. -1.
       -1   -1    0    0    0  501  0.00000000000E+00  0.00000000000E+00 -0.22984525317E+03  0.22984525323E+03  0.50400001928E-02 0.  1.
    10030    2    1    2    0    0  0.00000000000E+00  0.00000000000E+00  0.10908783483E+04  0.15505688547E+04  0.11019293092E+04 0.  0.
        2    1    3    3  502    0  0.39598921895E+03 -0.20779359232E+03  0.99830312707E+03  0.10938897440E+04  0.25500000920E-02 0. -1.
       -2    1    3    3    0  502 -0.39598921895E+03  0.20779359232E+03  0.92575221199E+02  0.45667911066E+03  0.25500000920E-02 0.  1.
</event>
<event>
 5   0  0.1479573E-03  0.1106414E+04  0.7818609E-02  0.9198963E-01
       -1   -1    0    0    0  501  0.00000000000E+00  0.00000000000E+00  0.23427929213E+03  0.23427929218E+03  0.50400001928E-02 0. -1.
        1   -1    0    0  501    0  0.00000000000E+00  0.00000000000E+00 -0.13062946713E+04  0.13062946713E+04  0.50400001928E-02 0.  1.
    10030    2    1    2    0    0  0.00000000000E+00  0.00000000000E+00 -0.10720153791E+04  0.15405739634E+04  0.11064136495E+04 0.  0.
        4    1    3    3  502    0 -0.49315290326E+03  0.11156948269E+02 -0.88469814415E+03  0.10129248159E+04  0.12699999809E+01 0.  1.
       -4    1    3    3    0  502  0.49315290326E+03 -0.11156948269E+02 -0.18731723498E+03  0.52764914755E+03  0.12699999809E+01 0. -1.
</event>
<event>
 5   0  0.2438115E-03  0.1097988E+04  0.7818609E-02  0.9207155E-01
       -2   -1    0    0    0  501  0.00000000000E+00  0.00000000000E+00  0.26418849963E+03  0.26418849964E+03  0.25500000920E-02 0.  1.
        2   -1    0    0  501    0  0.00000000000E+00  0.00000000000E+00 -0.11408305466E+04  0.11408305466E+04  0.25500000920E-02 0. -1.
    10030    2    1    2    0    0  0.00000000000E+00  0.00000000000E+00 -0.87664204697E+03  0.14050190462E+04  0.10979878150E+04 0.  0.
        4    1    3    3  502    0  0.54773607442E+03 -0.32490791230E+01 -0.39100350421E+03  0.67298641661E+03  0.12699999809E+01 0.  1.
       -4    1    3    3    0  502 -0.54773607442E+03  0.32490791230E+01 -0.48563854276E+03  0.73203262964E+03  0.12699999809E+01 0. -1.
</event>
<event>
 5   0  0.2483036E-03  0.1098005E+04  0.7818609E-02  0.9207139E-01
       -2   -1    0    0    0  501  0.00000000000E+00  0.00000000000E+00  0.41694781919E+03  0.41694781919E+03  0.25500000920E-02 0.  1.
        2   -1    0    0  501    0  0.00000000000E+00  0.00000000000E+00 -0.72288100458E+03  0.72288100458E+03  0.25500000920E-02 0. -1.
    10030    2    1    2    0    0  0.00000000000E+00  0.00000000000E+00 -0.30593318539E+03  0.11398288238E+04  0.10980048422E+04 0.  0.
        3    1    3    3  502    0  0.40045259514E+03  0.34614593268E+03 -0.30420172370E+03  0.61050633622E+03  0.10100000352E+00 0. -1.
       -3    1    3    3    0  502 -0.40045259514E+03 -0.34614593268E+03 -0.17314616871E+01  0.52932248755E+03  0.10100000352E+00 0.  1.
</event>
<event>
 5   0  0.1480937E-03  0.1098889E+04  0.7818609E-02  0.9206276E-01
        1   -1    0    0  501    0  0.00000000000E+00  0.00000000000E+00  0.43382722434E+03  0.43382722437E+03  0.50400001928E-02 0. -1.
       -1   -1    0    0    0  501  0.00000000000E+00  0.00000000000E+00 -0.69587408408E+03  0.69587408410E+03  0.50400001928E-02 0.  1.
    10030    2    1    2    0    0  0.00000000000E+00  0.00000000000E+00 -0.26204685974E+03  0.11297013085E+04  0.10988887522E+04 0.  0.
        1    1    3    3  502    0  0.21024983324E+03 -0.48540126953E+03 -0.28374785107E+03  0.60027679270E+03  0.50400001928E-02 0.  1.
       -1    1    3    3    0  502 -0.21024983324E+03  0.48540126953E+03  0.21700991327E+02  0.52942451577E+03  0.50400001928E-02 0. -1.
</event>
<event>
 5   0  0.1480937E-03  0.1099560E+04  0.7818609E-02  0.9205621E-01
        1   -1    0    0  501    0  0.00000000000E+00  0.00000000000E+00  0.22973527345E+03  0.22973527350E+03  0.50400001928E-02 0.  1.
       -1   -1    0    0    0  501  0.00000000000E+00  0.00000000000E+00 -0.13156794296E+04  0.13156794296E+04  0.50400001928E-02 0. -1.
    10030    2    1    2    0    0  0.00000000000E+00  0.00000000000E+00 -0.10859441562E+04  0.15454147031E+04  0.10995598639E+04 0.  0.
        1    1    3    3  502    0  0.27026179423E+03 -0.47409823982E+03 -0.44924199122E+03  0.70684435707E+03  0.50400001928E-02 0.  1.
       -1    1    3    3    0  502 -0.27026179423E+03  0.47409823982E+03 -0.63670216496E+03  0.83857034607E+03  0.50400001928E-02 0. -1.
</event>
<event>
 5   0  0.1415400E-03  0.1098976E+04  0.7818609E-02  0.9206190E-01
       -1   -1    0    0    0  501  0.00000000000E+00  0.00000000000E+00  0.78619061327E+03  0.78619061329E+03  0.50400001928E-02 0. -1.
        1   -1    0    0  501    0  0.00000000000E+00  0.00000000000E+00 -0.38405086124E+03  0.38405086127E+03  0.50400001928E-02 0.  1.
    10030    2    1    2    0    0  0.00000000000E+00  0.00000000000E+00  0.40213975204E+03  0.11702414746E+04  0.10989762184E+04 0.  0.
        2    1    3    3  502    0  0.29177092072E+03 -0.17841604458E+03  0.65904645802E+03  0.74249901615E+03  0.25500000920E-02 0. -1.
       -2    1    3    3    0  502 -0.29177092072E+03  0.17841604458E+03 -0.25690670598E+03  0.42774245841E+03  0.25500000920E-02 0.  1.
</event>
<event>
 5   0  0.1415400E-03  0.1103422E+04  0.7818609E-02  0.9201863E-01
       -1   -1    0    0    0  501  0.00000000000E+00  0.00000000000E+00  0.33033017383E+03  0.33033017387E+03  0.50400001928E-02 0.  1.
        1   -1    0    0  501    0  0.00000000000E+00  0.00000000000E+00 -0.92145744577E+03  0.92145744579E+03  0.50400001928E-02 0. -1.
    10030    2    1    2    0    0  0.00000000000E+00  0.00000000000E+00 -0.59112727194E+03  0.12517876197E+04  0.11034223095E+04 0.  0.
        2    1    3    3  502    0 -0.46448312505E+03 -0.48442582852E+02 -0.62882045392E+03  0.78326650673E+03  0.25500000920E-02 0. -1.
       -2    1    3    3    0  502  0.46448312505E+03  0.48442582852E+02  0.37693181984E+02  0.46852111293E+03  0.25500000920E-02 0.  1.
</event>
<event>
 5   0  0.2392585E-03  0.1087805E+04  0.7818609E-02  0.9217160E-01
       -2   -1    0    0    0  501  0.00000000000E+00  0.00000000000E+00  0.47943442006E+03  0.47943442006E+03  0.25500000920E-02 0. -1.
        2   -1    0    0  501    0  0.00000000000E+00  0.00000000000E+00 -0.61703951201E+03  0.61703951202E+03  0.25500000920E-02 0.  1.
    10030    2    1    2    0    0  0.00000000000E+00  0.00000000000E+00 -0.13760509195E+03  0.10964739321E+04  0.10878050939E+04 0.  0.
        5    1    3    3  502    0  0.24756654401E+03 -0.23302044217E+03  0.35910399082E+03  0.49453562703E+03  0.46999998093E+01 0. -1.
       -5    1    3    3    0  502 -0.24756654401E+03  0.23302044217E+03 -0.49670908277E+03  0.60193830505E+03  0.46999998093E+01 0.  1.
</event>
<event>
 5   0  0.1468556E-03  0.1105934E+04  0.7818609E-02  0.9199427E-01
        1   -1    0    0  501    0  0.00000000000E+00  0.00000000000E+00  0.45703854443E+03  0.45703854446E+03  0.50400001928E-02 0.  1.
       -1   -1    0    0    0  501  0.00000000000E+00  0.00000000000E+00 -0.66903053847E+03  0.66903053849E+03  0.50400001928E-02 0. -1.
    10030    2    1    2    0    0  0.00000000000E+00  0.00000000000E+00 -0.21199199404E+03  0.11260690829E+04  0.11059344348E+04 0.  0.
        5    1    3    3  502    0 -0.83692783780E+01 -0.13766007717E+03  0.43922485569E+03  0.46039212148E+03  0.46999998093E+01 0.  1.
       -5    1    3    3    0  502  0.83692783780E+01  0.13766007717E+03 -0.65121684973E+03  0.66567696147E+03  0.46999998093E+01 0. -1.
</event>
<event>
 5   0  0.1509004E-03  0.1081496E+04  0.7818609E-02  0.9223417E-01
        1   -1    0    0  501    0  0.00000000000E+00  0.00000000000E+00  0.61010927855E+03  0.61010927857E+03  0.50400001928E-02 0.  1.
       -1   -1    0    0    0  501  0.00000000000E+00  0.00000000000E+00 -0.47927250877E+03  0.47927250880E+03  0.50400001928E-02 0. -1.
    10030    2    1    2    0    0  0.00000000000E+00  0.00000000000E+00  0.13083676977E+03  0.10893817874E+04  0.10814963792E+04 0.  0.
        3    1    3    3  502    0 -0.10539283620E+03 -0.50766321215E+03 -0.89255787412E+02  0.52611423919E+03  0.10100000352E+00 0. -1.
       -3    1    3    3    0  502  0.10539283620E+03  0.50766321215E+03  0.22009255719E+03  0.56326754817E+03  0.10100000352E+00 0.  1.
</event>
<event>
 5   0  0.1468556E-03  0.1049711E+04  0.7818609E-02  0.9255642E-01
       -1   -1    0    0    0  501  0.00000000000E+00  0.00000000000E+00  0.75221586579E+03  0.75221586581E+03  0.50400001928E-02 0. -1.
        1   -1    0    0  501    0  0.00000000000E+00  0.00000000000E+00 -0.36621592071E+03  0.36621592074E+03  0.50400001928E-02 0.  1.
    10030    2    1    2    0    0  0.00000000000E+00  0.00000000000E+00  0.38599994508E+03  0.11184317866E+04  0.10497112477E+04 0.  0.
        5    1    3    3  502    0  0.28506476991E+03 -0.16977802512E+03 -0.24027263394E+03  0.40968222988E+03  0.46999998093E+01 0.  1.
       -5    1    3    3    0  502 -0.28506476991E+03  0.16977802512E+03  0.62627257902E+03  0.70874955668E+03  0.46999998093E+01 0. -1.
</event>
<event>
 5   0  0.1479573E-03  0.1102730E+04  0.7818609E-02  0.9202535E-01
       -1   -1    0    0    0  501  0.00000000000E+00  0.00000000000E+00  0.78973330131E+03  0.78973330133E+03  0.50400001928E-02 0.  1.
        1   -1    0    0  501    0  0.00000000000E+00  0.00000000000E+00 -0.38494431088E+03  0.38494431092E+03  0.50400001928E-02 0. -1.
    10030    2    1    2    0    0  0.00000000000E+00  0.00000000000E+00  0.40478899043E+03  0.11746776122E+04  0.11027299606E+04 0.  0.
        4    1    3    3  502    0 -0.95940166619E+02  0.74036164863E+02  0.77536944855E+03  0.78478357776E+03  0.12699999809E+01 0.  1.
       -4    1    3    3    0  502  0.95940166619E+02 -0.74036164863E+02 -0.37058045813E+03  0.38989403448E+03  0.12699999809E+01 0. -1.
</event>
<event>
 5   0  0.2488472E-03  0.1101363E+04  0.7818609E-02  0.9203864E-01
        2   -1    0    0  501    0  0.00000000000E+00  0.00000000000E+00  0.11799890949E+04  0.11799890950E+04  0.25500000920E-02 0. -1.
       -2   -1    0    0    0  501  0.00000000000E+00  0.00000000000E+00 -0.25699401541E+03  0.25699401542E+03  0.25500000920E-02 0.  1.
    10030    2    1    2    0    0  0.00000000000E+00  0.00000000000E+00  0.92299507954E+03  0.14369831104E+04  0.11013630385E+04 0.  0.
        2    1    3    3  502    0  0.30999070845E+03 -0.23831537769E+03 -0.44431661298E+02  0.39352589636E+03  0.25500000920E-02 0.  1.
       -2    1    3    3    0  502 -0.30999070845E+03  0.23831537769E+03  0.96742674084E+03  0.10434572140E+04  0.25500000920E-02 0. -1.
</event>
<event>
 5   0  0.2467448E-03  0.1096793E+04  0.7818609E-02  0.9208323E-01
       -2   -1    0    0    0  501  0.00000000000E+00  0.00000000000E+00  0.59443609205E+03  0.59443609206E+03  0.25500000920E-02 0.  1.
        2   -1    0    0  501    0  0.00000000000E+00  0.00000000000E+00 -0.50592289964E+03  0.50592289965E+03  0.25500000920E-02 0. -1.
    10030    2    1    2    0    0  0.00000000000E+00  0.00000000000E+00  0.88513192415E+02  0.11003589917E+04  0.10967932008E+04 0.  0.
        1    1    3    3  502    0 -0.21098786222E+03  0.43392034110E+01  0.55206829962E+03  0.59102801470E+03  0.50400001928E-02 0.  1.
       -1    1    3    3    0  502  0.21098786222E+03 -0.43392034110E+01 -0.46355510721E+03  0.50933097700E+03  0.50400001928E-02 0. -1.
</event>
<event>
 5   0  0.1468556E-03  0.1123858E+04  0.7818609E-02  0.9182246E-01
        1   -1    0    0  501    0  0.00000000000E+00  0.00000000000E+00  0.15705719855E+04  0.15705719855E+04  0.50400001928E-02 0. -1.
       -1   -1    0    0    0  501  0.00000000000E+00  0.00000000000E+00 -0.20105030217E+03  0.20105030223E+03  0.50400001928E-02 0.  1.
    10030    2    1    2    0    0  0.00000000000E+00  0.00000000000E+00  0.13695216833E+04  0.17716222877E+04  0.11238575930E+04 0.  0.
        5    1    3    3  502    0 -0.12056943646E+03  0.27964238490E+03 -0.59657697735E+02  0.31035138688E+03  0.46999998093E+01 0.  1.
       -5    1    3    3    0  502  0.12056943646E+03 -0.27964238490E+03  0.14291793810E+04  0.14612709008E+04  0.46999998093E+01 0. -1.
</event>
<event>
 5   0  0.1415400E-03  0.1102456E+04  0.7818609E-02  0.9202801E-01
        1   -1    0    0  501    0  0.00000000000E+00  0.00000000000E+00  0.62860811475E+03  0.62860811477E+03  0.50400001928E-02 0.  1.
       -1   -1    0    0    0  501  0.00000000000E+00  0.00000000000E+00 -0.48337357824E+03  0.48337357827E+03  0.50400001928E-02 0. -1.
    10030    2    1    2    0    0  0.00000000000E+00  0.00000000000E+00  0.14523453651E+03  0.11119816930E+04  0.11024564459E+04 0.  0.
        2    1    3    3  502    0 -0.47882400732E+03  0.85004361816E+02  0.33438681736E+03  0.59018023954E+03  0.25500000920E-02 0.  1.
       -2    1    3    3    0  502  0.47882400732E+03 -0.85004361816E+02 -0.18915228085E+03  0.52180145350E+03  0.25500000920E-02 0. -1.
</event>
<event>
 5   0  0.1509004E-03  0.1096146E+04  0.7818609E-02  0.9208956E-01
        1   -1    0    0  501    0  0.00000000000E+00  0.00000000000E+00  0.32479907562E+03  0.32479907566E+03  0.50400001928E-02 0.  1.
       -1   -1    0    0    0  501  0.00000000000E+00  0.00000000000E+00 -0.92483078160E+03  0.92483078162E+03  0.50400001928E-02 0. -1.
    10030    2    1    2    0    0  0.00000000000E+00  0.00000000000E+00 -0.60003170598E+03  0.12496298573E+04  0.10961463096E+04 0.  0.
        3    1    3    3  502    0  0.27559895923E+03 -0.26074031625E+03 -0.75092822134E+03  0.84132841545E+03  0.10100000352E+00 0. -1.
       -3    1    3    3    0  502 -0.27559895923E+03  0.26074031625E+03  0.15089651535E+03  0.40830144182E+03  0.10100000352E+00 0.  1.
</event>
<event>
 5   0  0.2488472E-03  0.1094706E+04  0.7818609E-02  0.9210367E-01
        2   -1    0    0  501    0  0.00000000000E+00  0.00000000000E+00  0.11331784908E+04  0.11331784908E+04  0.25500000920E-02 0. -1.
       -2   -1    0    0    0  501  0.00000000000E+00  0.00000000000E+00 -0.26438513489E+03  0.26438513490E+03  0.25500000920E-02 0.  1.
    10030    2    1    2    0    0  0.00000000000E+00  0.00000000000E+00  0.86879335593E+03  0.13975636257E+04  0.10947064413E+04 0.  0.
        2    1    3    3  502    0  0.15469344563E+03 -0.36641724154E+03  0.91446670907E+03  0.99721663596E+03  0.25500000920E-02 0. -1.
       -2    1    3    3    0  502 -0.15469344563E+03  0.36641724154E+03 -0.45673353147E+02  0.40034698976E+03  0.25500000920E-02 0.  1.
</event>
<event>
 5   0  0.2467448E-03  0.1098508E+04  0.7818609E-02  0.9206647E-01
       -2   -1    0    0    0  501  0.00000000000E+00  0.00000000000E+00  0.51878069589E+03  0.51878069589E+03  0.25500000920E-02 0. -1.
        2   -1    0    0  501    0  0.00000000000E+00  0.00000000000E+00 -0.58151731574E+03  0.58151731575E+03  0.25500000920E-02 0.  1.
    10030    2    1    2    0    0  0.00000000000E+00  0.00000000000E+00 -0.62736619854E+02  0.11002980116E+04  0.10985080022E+04 0.  0.
        1    1    3    3  502    0 -0.48919469578E+03 -0.92196101474E+02  0.20110552815E+03  0.53689384890E+03  0.50400001928E-02 0. -1.
       -1    1    3    3    0  502  0.48919469578E+03  0.92196101474E+02 -0.26384214801E+03  0.56340416274E+03  0.50400001928E-02 0.  1.
</event>
<event>
 5   0  0.1480937E-03  0.1103028E+04  0.7818609E-02  0.9202246E-01
        1   -1    0    0  501    0  0.00000000000E+00  0.00000000000E+00  0.12516015963E+04  0.12516015964E+04  0.50400001928E-02 0. -1.
       -1   -1    0    0    0  501  0.00000000000E+00  0.00000000000E+00 -0.24302279552E+03  0.24302279558E+03  0.50400001928E-02 0.  1.
    10030    2    1    2    0    0  0.00000000000E+00  0.00000000000E+00  0.10085788008E+04  0.14946243919E+04  0.11030280484E+04 0.  0.
        1    1    3    3  502    0 -0.54904848406E+03  0.50391178028E+02  0.52217412521E+03  0.75938088318E+03  0.50400001928E-02 0. -1.
       -1    1    3    3    0  502  0.54904848406E+03 -0.50391178028E+02  0.48640467561E+03  0.73524350875E+03  0.50400001928E-02 0.  1.
</event>
<event>
 5   0  0.2488472E-03  0.1100245E+04  0.7818609E-02  0.9204953E-01
       -2   -1    0    0    0  501  0.00000000000E+00  0.00000000000E+00  0.14050244504E+03  0.14050244506E+03  0.25500000920E-02 0.  1.
        2   -1    0    0  501    0  0.00000000000E+00  0.00000000000E+00 -0.21539450368E+04  0.21539450368E+04  0.25500000920E-02 0. -1.
    10030    2    1    2    0    0  0.00000000000E+00  0.00000000000E+00 -0.20134425917E+04  0.22944474818E+04  0.11002445986E+04 0.  0.
        2    1    3    3  502    0  0.47408942713E+03 -0.26652605753E+03 -0.11791626220E+04  0.12985458842E+04  0.25500000920E-02 0.  1.
       -2    1    3    3    0  502 -0.47408942713E+03  0.26652605753E+03 -0.83427996974E+03  0.99590159763E+03  0.25500000920E-02 0. -1.
</event>
<event>
 5   0  0.1415400E-03  0.1101637E+04  0.7818609E-02  0.9203598E-01
        1   -1    0    0  501    0  0.00000000000E+00  0.00000000000E+00  0.91780244157E+03  0.91780244159E+03  0.50400001928E-02 0. -1.
       -1   -1    0    0    0  501  0.00000000000E+00  0.00000000000E+00 -0.33057322193E+03  0.33057322197E+03  0.50400001928E-02 0.  1.
    10030    2    1    2    0    0  0.00000000000E+00  0.00000000000E+00  0.58722921965E+03  0.12483756636E+04  0.11016368008E+04 0.  0.
        2    1    3    3  502    0 -0.29259025959E+03  0.46090303440E+03  0.21064881052E+03  0.58516116456E+03  0.25500000920E-02 0. -1.
       -2    1    3    3    0  502  0.29259025959E+03 -0.46090303440E+03  0.37658040912E+03  0.66321449899E+03  0.25500000920E-02 0.  1.
</event>
<event>
 5   0  0.9631750E-04  0.1089951E+04  0.7818609E-02  0.9215042E-01
       -3   -1    0    0    0  501  0.00000000000E+00  0.00000000000E+00  0.63075198497E+03  0.63075199306E+03  0.10100000352E+00 0.  1.
        3   -1    0    0  501    0  0.00000000000E+00  0.00000000000E+00 -0.47086364604E+03  0.47086365687E+03  0.10100000352E+00 0. -1.
    10030    2    1    2    0    0  0.00000000000E+00  0.00000000000E+00  0.15988833893E+03  0.11016156499E+04  0.10899508059E+04 0.  0.
        1    1    3    3  502    0 -0.39827782570E+03 -0.30530324234E+03 -0.13484584130E+03  0.51963323332E+03  0.50400001928E-02 0. -1.
       -1    1    3    3    0  502  0.39827782570E+03  0.30530324234E+03  0.29473418023E+03  0.58198241661E+03  0.50400001928E-02 0.  1.
</event>
<event>
 5   0  0.1509004E-03  0.1098483E+04  0.7818609E-02  0.9206671E-01
       -1   -1    0    0    0  501  0.00000000000E+00  0.00000000000E+00  0.22219039012E+03  0.22219039018E+03  0.50400001928E-02 0. -1.
        1   -1    0    0  501    0  0.00000000000E+00  0.00000000000E+00 -0.13576936559E+04  0.13576936559E+04  0.50400001928E-02 0.  1.
    10030    2    1    2    0    0  0.00000000000E+00  0.00000000000E+00 -0.11355032658E+04  0.15798840461E+04  0.10984834694E+04 0.  0.
        3    1    3    3  502    0 -0.49820827842E+02 -0.12899541229E+03 -0.13322475118E+04  0.13394048582E+04  0.10100000352E+00 0.  1.
       -3    1    3    3    0  502  0.49820827842E+02  0.12899541229E+03  0.19674424600E+03  0.24047918790E+03  0.10100000352E+00 0. -1.
</event>
<event>
 5   0  0.2392585E-03  0.1099584E+04  0.7818609E-02  0.9205598E-01
       -2   -1    0    0    0  501  0.00000000000E+00  0.00000000000E+00  0.31256681863E+03  0.31256681864E+03  0.25500000920E-02 0.  1.
        2   -1    0    0  501    0  0.00000000000E+00  0.00000000000E+00 -0.96706047804E+03  0.96706047804E+03  0.25500000920E-02 0. -1.
    10030    2    1    2    0    0  0.00000000000E+00  0.00000000000E+00 -0.65449365941E+03  0.12796272967E+04  0.10995835885E+04 0.  0.
        5    1    3    3  502    0 -0.22382682290E+03 -0.50046044991E+03 -0.37508507861E+03  0.66428157792E+03  0.46999998093E+01 0. -1.
       -5    1    3    3    0  502  0.22382682290E+03  0.50046044991E+03 -0.27940858080E+03  0.61534571876E+03  0.46999998093E+01 0.  1.
</event>
<event>
 5   0  0.2488472E-03  0.1100490E+04  0.7818609E-02  0.9204714E-01
       -2   -1    0    0    0  501  0.00000000000E+00  0.00000000000E+00  0.18352235401E+03  0.18352235402E+03  0.25500000920E-02 0.  1.
        2   -1    0    0  501    0  0.00000000000E+00  0.00000000000E+00 -0.16497700207E+04  0.16497700207E+04  0.25500000920E-02 0. -1.
    10030    2    1    2    0    0  0.00000000000E+00  0.00000000000E+00 -0.14662476667E+04  0.18332923747E+04  0.11004902140E+04 0.  0.
        2    1    3    3  502    0 -0.10800039564E+02  0.55008081920E+02  0.17875288411E+03  0.18733692512E+03  0.25500000920E-02 0.  1.
       -2    1    3    3    0  502  0.10800039564E+02 -0.55008081920E+02 -0.16450005508E+04  0.16459554496E+04  0.25500000920E-02 0. -1.
</event>
<event>
 5   0  0.9631750E-04  0.1099578E+04  0.7818609E-02  0.9205603E-01
       -3   -1    0    0    0  501  0.00000000000E+00  0.00000000000E+00  0.72657605279E+03  0.72657605981E+03  0.10100000352E+00 0.  1.
        3   -1    0    0  501    0  0.00000000000E+00  0.00000000000E+00 -0.41601699296E+03  0.41601700522E+03  0.10100000352E+00 0. -1.
    10030    2    1    2    0    0  0.00000000000E+00  0.00000000000E+00  0.31055905983E+03  0.11425930650E+04  0.10995780930E+04 0.  0.
        2    1    3    3  502    0  0.20901536535E+03 -0.15782787146E+03 -0.34702587792E+03  0.43476892704E+03  0.25500000920E-02 0. -1.
       -2    1    3    3    0  502 -0.20901536535E+03  0.15782787146E+03  0.65758493775E+03  0.70782413799E+03  0.25500000920E-02 0.  1.
</event>
<event>
 5   0  0.1468556E-03  0.1101053E+04  0.7818609E-02  0.9204166E-01
       -1   -1    0    0    0  501  0.00000000000E+00  0.00000000000E+00  0.10250990985E+03  0.10250990997E+03  0.50400001928E-02 0. -1.
        1   -1    0    0  501    0  0.00000000000E+00  0.00000000000E+00 -0.29565876654E+04  0.29565876654E+04  0.50400001928E-02 0.  1.
    10030    2    1    2    0    0  0.00000000000E+00  0.00000000000E+00 -0.28540777556E+04  0.30590975754E+04  0.11010531962E+04 0.  0.
        5    1    3    3  502    0 -0.33378539220E+03 -0.20360314037E+03 -0.35031018576E+03  0.52498213595E+03  0.46999998093E+01 0. -1.
       -5    1    3    3    0  502  0.33378539220E+03  0.20360314037E+03 -0.25037675698E+04  0.25341154394E+04  0.46999998093E+01 0.  1.
</event>
<event>
 5   0  0.1415400E-03  0.1098611E+04  0.7818609E-02  0.9206546E-01
       -1   -1    0    0    0  501  0.00000000000E+00  0.00000000000E+00  0.29817339499E+03  0.29817339504E+03  0.50400001928E-02 0. -1.
        1   -1    0    0  501    0  0.00000000000E+00  0.00000000000E+00 -0.10119506616E+04  0.10119506617E+04  0.50400001928E-02 0.  1.
    10030    2    1    2    0    0  0.00000000000E+00  0.00000000000E+00 -0.71377726665E+03  0.13101240567E+04  0.10986114224E+04 0.  0.
        2    1    3    3  502    0  0.38792210371E+03 -0.38695087429E+03 -0.40341594724E+03  0.68041087892E+03  0.25500000920E-02 0.  1.
       -2    1    3    3    0  502 -0.38792210371E+03  0.38695087429E+03 -0.31036131941E+03  0.62971317777E+03  0.25500000920E-02 0. -1.
</event>
<event>
 5   0  0.1480937E-03  0.1094380E+04  0.7818609E-02  0.9210687E-01
        1   -1    0    0  501    0  0.00000000000E+00  0.00000000000E+00  0.39879874547E+03  0.39879874550E+03  0.50400001928E-02 0.  1.
       -1   -1    0    0    0  501  0.00000000000E+00  0.00000000000E+00 -0.75079742411E+03  0.75079742412E+03  0.50400001928E-02 0. -1.
    10030    2    1    2    0    0  0.00000000000E+00  0.00000000000E+00 -0.35199867864E+03  0.11495961696E+04  0.10943803194E+04 0.  0.
        1    1    3    3  502    0 -0.39985089818E+03 -0.36734223559E+03 -0.10478497343E+03  0.55299272102E+03  0.50400001928E-02 0.  1.
       -1    1    3    3    0  502  0.39985089818E+03  0.36734223559E+03 -0.24721370520E+03  0.59660344861E+03  0.50400001928E-02 0. -1.
</event>
<event>
 5   0  0.2488472E-03  0.1103589E+04  0.7818609E-02  0.9201701E-01
        2   -1    0    0  501    0  0.00000000000E+00  0.00000000000E+00  0.11102471945E+04  0.11102471945E+04  0.25500000920E-02 0.  1.
       -2   -1    0    0    0  501  0.00000000000E+00  0.00000000000E+00 -0.27424261654E+03  0.27424261655E+03  0.25500000920E-02 0. -1.
    10030    2    1    2    0    0  0.00000000000E+00  0.00000000000E+00  0.83600457793E+03  0.13844898110E+04  0.11035888648E+04 0.  0.
        2    1    3    3  502    0  0.14081411432E+03  0.11073593206E+03 -0.23674675423E+03  0.29688396233E+03  0.25500000920E-02 0. -1.
       -2    1    3    3    0  502 -0.14081411432E+03 -0.11073593206E+03  0.10727513322E+04  0.10876058487E+04  0.25500000920E-02 0.  1.
</event>
<event>
 5   0  0.1480937E-03  0.1090980E+04  0.7818609E-02  0.9214028E-01
       -1   -1    0    0    0  501  0.00000000000E+00  0.00000000000E+00  0.26083545667E+03  0.26083545672E+03  0.50400001928E-02 0.  1.
        1   -1    0    0  501    0  0.00000000000E+00  0.00000000000E+00 -0.11407933806E+04  0.11407933806E+04  0.50400001928E-02 0. -1.
    10030    2    1    2    0    0  0.00000000000E+00  0.00000000000E+00 -0.87995792388E+03  0.14016288373E+04  0.10909800409E+04 0.  0.
        1    1    3    3  502    0  0.21241469639E+03 -0.17206723528E+03  0.16648530585E+03  0.32006951400E+03  0.50400001928E-02 0.  1.
       -1    1    3    3    0  502 -0.21241469639E+03  0.17206723528E+03 -0.10464432297E+04  0.10815593233E+04  0.50400001928E-02 0. -1.
</event>
<event>
 5   0  0.2392585E-03  0.1107183E+04  0.7818609E-02  0.9198219E-01
        2   -1    0    0  501    0  0.00000000000E+00  0.00000000000E+00  0.12408239612E+04  0.12408239612E+04  0.25500000920E-02 0.  1.
       -2   -1    0    0    0  501  0.00000000000E+00  0.00000000000E+00 -0.24698385418E+03  0.24698385420E+03  0.25500000920E-02 0. -1.
    10030    2    1    2    0    0  0.00000000000E+00  0.00000000000E+00  0.99384010697E+03  0.14878078154E+04  0.11071828834E+04 0.  0.
        5    1    3    3  502    0 -0.43442814443E+03 -0.19611534700E+02  0.36631578987E+02  0.43643600624E+03  0.46999998093E+01 0. -1.
       -5    1    3    3    0  502  0.43442814443E+03  0.19611534700E+02  0.95720852798E+03  0.10513718091E+04  0.46999998093E+01 0.  1.
</event>
<event>
 5   0  0.1509004E-03  0.1086684E+04  0.7818609E-02  0.9218269E-01
        1   -1    0    0  501    0  0.00000000000E+00  0.00000000000E+00  0.26254071900E+04  0.26254071900E+04  0.50400001928E-02 0.  1.
       -1   -1    0    0    0  501  0.00000000000E+00  0.00000000000E+00 -0.11244748315E+03  0.11244748326E+03  0.50400001928E-02 0. -1.
    10030    2    1    2    0    0  0.00000000000E+00  0.00000000000E+00  0.25129597068E+04  0.27378546733E+04  0.10866838196E+04 0.  0.
        3    1    3    3  502    0  0.51777141288E+03  0.16142230680E+03  0.13391251396E+04  0.14447839101E+04  0.10100000352E+00 0. -1.
       -3    1    3    3    0  502 -0.51777141288E+03 -0.16142230680E+03  0.11738345673E+04  0.12930707632E+04  0.10100000352E+00 0.  1.
</event>
<event>
 5   0  0.1468556E-03  0.1104206E+04  0.7818609E-02  0.9201102E-01
       -1   -1    0    0    0  501  0.00000000000E+00  0.00000000000E+00  0.47065309724E+03  0.47065309726E+03  0.50400001928E-02 0.  1.
        1   -1    0    0  501    0  0.00000000000E+00  0.00000000000E+00 -0.64764816390E+03  0.64764816392E+03  0.50400001928E-02 0. -1.
    10030    2    1    2    0    0  0.00000000000E+00  0.00000000000E+00 -0.17699506666E+03  0.11183012612E+04  0.11042058038E+04 0.  0.
        5    1    3    3  502    0 -0.15229453374E+03  0.51469718789E+02 -0.62339941575E+03  0.64381028146E+03  0.46999998093E+01 0. -1.
       -5    1    3    3    0  502  0.15229453374E+03 -0.51469718789E+02  0.44640434909E+03  0.47449097972E+03  0.46999998093E+01 0.  1.
</event>
<event>
 5   0  0.1468556E-03  0.1104984E+04  0.7818609E-02  0.9200347E-01
        1   -1    0    0  501    0  0.00000000000E+00  0.00000000000E+00  0.11920171881E+04  0.11920171881E+04  0.50400001928E-02 0.  1.
       -1   -1    0    0    0  501  0.00000000000E+00  0.00000000000E+00 -0.25607653713E+03  0.25607653718E+03  0.50400001928E-02 0. -1.
    10030    2    1    2    0    0  0.00000000000E+00  0.00000000000E+00  0.93594065101E+03  0.14480937253E+04  0.11049844049E+04 0.  0.
        5    1    3    3  502    0  0.12366410169E+03 -0.23515121680E+03 -0.16683189545E+03  0.31375767105E+03  0.46999998093E+01 0. -1.
       -5    1    3    3    0  502 -0.12366410169E+03  0.23515121680E+03  0.11027725465E+04  0.11343360543E+04  0.46999998093E+01 0.  1.
</event>
<event>
 5   0  0.2488472E-03  0.1088538E+04  0.7818609E-02  0.9216436E-01
       -2   -1    0    0    0  501  0.00000000000E+00  0.00000000000E+00  0.26362698884E+03  0.26362698885E+03  0.25500000920E-02 0.  1.
        2   -1    0    0  501    0  0.00000000000E+00  0.00000000000E+00 -0.11236656118E+04  0.11236656118E+04  0.25500000920E-02 0. -1.
    10030    2    1    2    0    0  0.00000000000E+00  0.00000000000E+00 -0.86003862298E+03  0.13872926007E+04  0.10885377012E+04 0.  0.
        2    1    3    3  502    0  0.40715201839E+03  0.15256354219E+03 -0.84725537386E+03  0.95230775962E+03  0.25500000920E-02 0. -1.
       -2    1    3    3    0  502 -0.40715201839E+03 -0.15256354219E+03 -0.12783249120E+02  0.43498484106E+03  0.25500000920E-02 0.  1.
</event>
<event>
 5   0  0.1468556E-03  0.1099606E+04  0.7818609E-02  0.9205576E-01
       -1   -1    0    0    0  501  0.00000000000E+00  0.00000000000E+00  0.44312687183E+03  0.44312687186E+03  0.50400001928E-02 0. -1.
        1   -1    0    0  501    0  0.00000000000E+00  0.00000000000E+00 -0.68215977057E+03  0.68215977058E+03  0.50400001928E-02 0.  1.
    10030    2    1    2    0    0  0.00000000000E+00  0.00000000000E+00 -0.23903289873E+03  0.11252866424E+04  0.10996059753E+04 0.  0.
        5    1    3    3  502    0  0.33050836180E+02  0.19804297643E+03 -0.64327785976E+03  0.67390049202E+03  0.46999998093E+01 0.  1.
       -5    1    3    3    0  502 -0.33050836180E+02 -0.19804297643E+03  0.40424496102E+03  0.45138615043E+03  0.46999998093E+01 0. -1.
</event>
<event>
 5   0  0.1480937E-03  0.1099101E+04  0.7818609E-02  0.9206068E-01
        1   -1    0    0  501    0  0.00000000000E+00  0.00000000000E+00  0.99947199480E+03  0.99947199482E+03  0.50400001928E-02 0. -1.
       -1   -1    0    0    0  501  0.00000000000E+00  0.00000000000E+00 -0.30216543941E+03  0.30216543945E+03  0.50400001928E-02 0.  1.
    10030    2    1    2    0    0  0.00000000000E+00  0.00000000000E+00  0.69730655540E+03  0.13016374343E+04  0.10991012592E+04 0.  0.
        1    1    3    3  502    0 -0.37336703553E+03  0.29894860377E+02  0.82488657182E+03  0.90594398408E+03  0.50400001928E-02 0. -1.
       -1    1    3    3    0  502  0.37336703553E+03 -0.29894860377E+02 -0.12758001643E+03  0.39569345018E+03  0.50400001928E-02 0.  1.
</event>
<event>
 5   0  0.2488472E-03  0.1079078E+04  0.7818609E-02  0.9225828E-01
       -2   -1    0    0    0  501  0.00000000000E+00  0.00000000000E+00  0.11609598031E+04  0.11609598031E+04  0.25500000920E-02 0. -1.
        2   -1    0    0  501    0  0.00000000000E+00  0.00000000000E+00 -0.25074261929E+03  0.25074261930E+03  0.25500000920E-02 0.  1.
    10030    2    1    2    0    0  0.00000000000E+00  0.00000000000E+00  0.91021718378E+03  0.14117024224E+04  0.10790775726E+04 0.  0.
        2    1    3    3  502    0 -0.34059369341E+03 -0.14492554969E+03  0.96866036840E+03  0.10369717394E+04  0.25500000920E-02 0. -1.
       -2    1    3    3    0  502  0.34059369341E+03  0.14492554969E+03 -0.58443184624E+02  0.37473068299E+03  0.25500000920E-02 0.  1.
</event>
<event>
 5   0  0.9631750E-04  0.1098315E+04  0.7818609E-02  0.9206836E-01
        4   -1    0    0  501    0  0.00000000000E+00  0.00000000000E+00  0.54489452245E+03  0.54489600246E+03  0.12699999809E+01 0.  1.
       -4   -1    0    0    0  501  0.00000000000E+00  0.00000000000E+00 -0.55345086540E+03  0.55345232253E+03  0.12699999809E+01 0. -1.
    10030    2    1    2    0    0  0.00000000000E+00  0.00000000000E+00 -0.85563429490E+01  0.10983483250E+04  0.10983149967E+04 0.  0.
        1    1    3    3  502    0 -0.21841216833E+03  0.24558436496E+03  0.43568790630E+03  0.54574674283E+03  0.50400001928E-02 0.  1.
       -1    1    3    3    0  502  0.21841216833E+03 -0.24558436496E+03 -0.44424424925E+03  0.55260158216E+03  0.50400001928E-02 0. -1.
</event>
<event>
 5   0  0.1415400E-03  0.1102227E+04  0.7818609E-02  0.9203024E-01
        1   -1    0    0  501    0  0.00000000000E+00  0.00000000000E+00  0.16993032652E+04  0.16993032652E+04  0.50400001928E-02 0.  1.
       -1   -1    0    0    0  501  0.00000000000E+00  0.00000000000E+00 -0.17873550097E+03  0.17873550104E+03  0.50400001928E-02 0. -1.
    10030    2    1    2    0    0  0.00000000000E+00  0.00000000000E+00  0.15205677642E+04  0.18780387662E+04  0.11022265112E+04 0.  0.
        2    1    3    3  502    0 -0.14506514294E+03  0.52050022230E+03  0.57550003234E+03  0.78940779343E+03  0.25500000920E-02 0. -1.
       -2    1    3    3    0  502  0.14506514294E+03 -0.52050022230E+03  0.94506773189E+03  0.10886309728E+04  0.25500000920E-02 0.  1.
</event>
<event>
 5   0  0.1479573E-03  0.1123497E+04  0.7818609E-02  0.9182588E-01
       -1   -1    0    0    0  501  0.00000000000E+00  0.00000000000E+00  0.32195649135E+03  0.32195649139E+03  0.50400001928E-02 0. -1.
        1   -1    0    0  501    0  0.00000000000E+00  0.00000000000E+00 -0.98013662917E+03  0.98013662919E+03  0.50400001928E-02 0.  1.
    10030    2    1    2    0    0  0.00000000000E+00  0.00000000000E+00 -0.65818013783E+03  0.13020931206E+04  0.11234969519E+04 0.  0.
        4    1    3    3  502    0  0.42654834371E+03 -0.25433621538E+02 -0.75170609855E+03  0.86466989662E+03  0.12699999809E+01 0.  1.
       -4    1    3    3    0  502 -0.42654834371E+03  0.25433621538E+02  0.93525960723E+02  0.43742322395E+03  0.12699999809E+01 0. -1.
</event>
<event>
 5   0  0.1479573E-03  0.1097529E+04  0.7818609E-02  0.9207604E-01
        1   -1    0    0  501    0  0.00000000000E+00  0.00000000000E+00  0.61088970292E+03  0.61088970294E+03  0.50400001928E-02 0.  1.
       -1   -1    0    0    0  501  0.00000000000E+00  0.00000000000E+00 -0.49295706219E+03  0.49295706221E+03  0.50400001928E-02 0. -1.
    10030    2    1    2    0    0  0.00000000000E+00  0.00000000000E+00  0.11793264074E+03  0.11038467652E+04  0.10975288485E+04 0.  0.
        4    1    3    3  502    0  0.89351652812E+00  0.52149075726E+03 -0.11286025816E+03  0.53356579637E+03  0.12699999809E+01 0.  1.
       -4    1    3    3    0  502 -0.89351652812E+00 -0.52149075726E+03  0.23079289890E+03  0.57028096879E+03  0.12699999809E+01 0. -1.
</event>
<event>
 5   0  0.1468556E-03  0.1029075E+04  0.7818609E-02  0.9277219E-01
       -1   -1    0    0    0  501  0.00000000000E+00  0.00000000000E+00  0.96528402159E+03  0.96528402160E+03  0.50400001928E-02 0. -1.
        1   -1    0    0  501    0  0.00000000000E+00  0.00000000000E+00 -0.27427025593E+03  0.27427025597E+03  0.50400001928E-02 0.  1.
    10030    2    1    2    0    0  0.00000000000E+00  0.00000000000E+00  0.69101376566E+03  0.12395542776E+04  0.10290747216E+04 0.  0.
        5    1    3    3  502    0  0.47122130262E+02 -0.27072708301E+03  0.86946198603E+03  0.91186615453E+03  0.46999998093E+01 0. -1.
       -5    1    3    3    0  502 -0.47122130262E+02  0.27072708301E+03 -0.17844822036E+03  0.32768812305E+03  0.46999998093E+01 0.  1.
</event>
<event>
 5   0  0.1509004E-03  0.1093483E+04  0.7818609E-02  0.9211567E-01
        1   -1    0    0  501    0  0.00000000000E+00  0.00000000000E+00  0.21168781447E+03  0.21168781453E+03  0.50400001928E-02 0.  1.
       -1   -1    0    0    0  501  0.00000000000E+00  0.00000000000E+00 -0.14121085973E+04  0.14121085973E+04  0.50400001928E-02 0. -1.
    10030    2    1    2    0    0  0.00000000000E+00  0.00000000000E+00 -0.12004207828E+04  0.16237964118E+04  0.10934828445E+04 0.  0.
        3    1    3    3  502    0  0.53107901111E+03 -0.12960034077E+03 -0.61390186193E+03  0.82201987242E+03  0.10100000352E+00 0.  1.
       -3    1    3    3    0  502 -0.53107901111E+03  0.12960034077E+03 -0.58651892086E+03  0.80177653938E+03  0.10100000352E+00 0. -1.
</event>
<event>
 5   0  0.2392585E-03  0.1132401E+04  0.7818609E-02  0.9174175E-01
        2   -1    0    0  501    0  0.00000000000E+00  0.00000000000E+00  0.16539095392E+04  0.16539095392E+04  0.25500000920E-02 0. -1.
       -2   -1    0    0    0  501  0.00000000000E+00  0.00000000000E+00 -0.19383344342E+03  0.19383344343E+03  0.25500000920E-02 0.  1.
    10030    2    1    2    0    0  0.00000000000E+00  0.00000000000E+00  0.14600760957E+04  0.18477429826E+04  0.11324009557E+04 0.  0.
        5    1    3    3  502    0 -0.45461144755E+03  0.19902479442E+03  0.11747438159E+04  0.12752754840E+04  0.46999998093E+01 0. -1.
       -5    1    3    3    0  502  0.45461144755E+03 -0.19902479442E+03  0.28533227979E+03  0.57246749858E+03  0.46999998093E+01 0.  1.
</event>
<event>
 5   0  0.1468556E-03  0.1099539E+04  0.7818609E-02  0.9205641E-01
        1   -1    0    0  501    0  0.00000000000E+00  0.00000000000E+00  0.70585491170E+03  0.70585491172E+03  0.50400001928E-02 0. -1.
       -1   -1    0    0    0  501  0.00000000000E+00  0.00000000000E+00 -0.42819934477E+03  0.42819934480E+03  0.50400001928E-02 0.  1.
    10030    2    1    2    0    0  0.00000000000E+00  0.00000000000E+00  0.27765556693E+03  0.11340542565E+04  0.10995391957E+04 0.  0.
        5    1    3    3  502    0  0.16114304914E+03  0.34709156579E+03 -0.26825784855E+03  0.46735853543E+03  0.46999998093E+01 0.  1.
       -5    1    3    3    0  502 -0.16114304914E+03 -0.34709156579E+03  0.54591341548E+03  0.66669572109E+03  0.46999998093E+01 0. -1.
</event>
<event>
 5   0  0.2467448E-03  0.1095045E+04  0.7818609E-02  0.9210035E-01
        2   -1    0    0  501    0  0.00000000000E+00  0.00000000000E+00  0.20065302363E+04  0.20065302363E+04  0.25500000920E-02 0. -1.
       -2   -1    0    0    0  501  0.00000000000E+00  0.00000000000E+00 -0.14940262948E+03  0.14940262950E+03  0.25500000920E-02 0.  1.
    10030    2    1    2    0    0  0.00000000000E+00  0.00000000000E+00  0.18571276068E+04  0.21559328658E+04  0.10950450100E+04 0.  0.
        1    1    3    3  502    0  0.43808876100E+03 -0.29265103425E+03  0.12220053236E+04  0.13307379161E+04  0.50400001928E-02 0. -1.
       -1    1    3    3    0  502 -0.43808876100E+03  0.29265103425E+03  0.63512228316E+03  0.82519494966E+03  0.50400001928E-02 0.  1.
</event>
<event>
 5   0  0.1509004E-03  0.1096387E+04  0.7818609E-02  0.9208721E-01
        1   -1    0    0  501    0  0.00000000000E+00  0.00000000000E+00  0.21461505591E+03  0.21461505597E+03  0.50400001928E-02 0. -1.
       -1   -1    0    0    0  501  0.00000000000E+00  0.00000000000E+00 -0.14002556707E+04  0.14002556707E+04  0.50400001928E-02 0.  1.
    10030    2    1    2    0    0  0.00000000000E+00  0.00000000000E+00 -0.11856406148E+04  0.16148707267E+04  0.10963867002E+04 0.  0.
        3    1    3    3  502    0  0.13090946918E+03 -0.51535932143E+03 -0.39640214605E+03  0.66322484188E+03  0.10100000352E+00 0. -1.
       -3    1    3    3    0  502 -0.13090946918E+03  0.51535932143E+03 -0.78923846876E+03  0.95164588481E+03  0.10100000352E+00 0.  1.
</event>
<event>
 5   0  0.1415400E-03  0.1099838E+04  0.7818609E-02  0.9205350E-01
       -1   -1    0    0    0  501  0.00000000000E+00  0.00000000000E+00  0.17706633863E+03  0.17706633870E+03  0.50400001928E-02 0. -1.
        1   -1    0    0  501    0  0.00000000000E+00  0.00000000000E+00 -0.17078952845E+04  0.17078952845E+04  0.50400001928E-02 0.  1.
    10030    2    1    2    0    0  0.00000000000E+00  0.00000000000E+00 -0.15308289458E+04  0.18849616232E+04  0.10998377423E+04 0.  0.
        2    1    3    3  502    0  0.21269956104E+03 -0.29788338174E+03 -0.62034075637E+02  0.37124633187E+03  0.25500000920E-02 0. -1.
       -2    1    3    3    0  502 -0.21269956104E+03  0.29788338174E+03 -0.14687948702E+04  0.15137152913E+04  0.25500000920E-02 0.  1.
</event>
<event>
 5   0  0.9631750E-04  0.1094614E+04  0.7818609E-02  0.9210458E-01
        3   -1    0    0  501    0  0.00000000000E+00  0.00000000000E+00  0.50452570739E+03  0.50452571749E+03  0.10100000352E+00 0.  1.
       -3   -1    0    0    0  501  0.00000000000E+00  0.00000000000E+00 -0.59371564748E+03  0.59371565607E+03  0.10100000352E+00 0. -1.
    10030    2    1    2    0    0  0.00000000000E+00  0.00000000000E+00 -0.89189940097E+02  0.10982413736E+04  0.10946137534E+04 0.  0.
        1    1    3    3  502    0 -0.32865057339E+03  0.59771768090E+02 -0.47957640333E+03  0.58444622533E+03  0.50400001928E-02 0. -1.
       -1    1    3    3    0  502  0.32865057339E+03 -0.59771768090E+02  0.39038646323E+03  0.51379514824E+03  0.50400001928E-02 0.  1.
</event>
<event>
 5   0  0.2467448E-03  0.1101560E+04  0.7818609E-02  0.9203673E-01
        2   -1    0    0  501    0  0.00000000000E+00  0.00000000000E+00  0.88272104680E+03  0.88272104681E+03  0.25500000920E-02 0.  1.
       -2   -1    0    0    0  501  0.00000000000E+00  0.00000000000E+00 -0.34366288574E+03  0.34366288575E+03  0.25500000920E-02 0. -1.
    10030    2    1    2    0    0  0.00000000000E+00  0.00000000000E+00  0.53905816107E+03  0.12263839326E+04  0.11015597347E+04 0.  0.
        1    1    3    3  502    0  0.96503167526E+02  0.40250039817E+03 -0.13501845740E+03  0.43537273196E+03  0.50400001928E-02 0. -1.
       -1    1    3    3    0  502 -0.96503167526E+02 -0.40250039817E+03  0.67407661847E+03  0.79101120059E+03  0.50400001928E-02 0.  1.
</event>
<event>
 5   0  0.2483036E-03  0.1099611E+04  0.7818609E-02  0.9205571E-01
        2   -1    0    0  501    0  0.00000000000E+00  0.00000000000E+00  0.98868034492E+03  0.98868034492E+03  0.25500000920E-02 0. -1.
       -2   -1    0    0    0  501  0.00000000000E+00  0.00000000000E+00 -0.30574713617E+03  0.30574713618E+03  0.25500000920E-02 0.  1.
    10030    2    1    2    0    0  0.00000000000E+00  0.00000000000E+00  0.68293320875E+03  0.12944274811E+04  0.10996111750E+04 0.  0.
        3    1    3    3  502    0 -0.42762995332E+03 -0.35714092598E+02  0.74608267612E+03  0.86068707623E+03  0.10100000352E+00 0. -1.
       -3    1    3    3    0  502  0.42762995332E+03  0.35714092598E+02 -0.63149467371E+02  0.43374040487E+03  0.10100000352E+00 0.  1.
</event>
<event>
 5   0  0.2467448E-03  0.1001680E+04  0.7818609E-02  0.9306705E-01
        2   -1    0    0  501    0  0.00000000000E+00  0.00000000000E+00  0.55400811793E+03  0.55400811794E+03  0.25500000920E-02 0.  1.
       -2   -1    0    0    0  501  0.00000000000E+00  0.00000000000E+00 -0.45277405206E+03  0.45277405206E+03  0.25500000920E-02 0. -1.
    10030    2    1    2    0    0  0.00000000000E+00  0.00000000000E+00  0.10123406588E+03  0.10067821700E+04  0.10016795904E+04 0.  0.
        1    1    3    3  502    0  0.24991750041E+03 -0.43114518947E+03  0.40688726166E+00  0.49834234919E+03  0.50400001928E-02 0.  1.
       -1    1    3    3    0  502 -0.24991750041E+03  0.43114518947E+03  0.10082717861E+03  0.50843982081E+03  0.50400001928E-02 0. -1.
</event>
<event>
 5   0  0.2483036E-03  0.1026089E+04  0.7818609E-02  0.9280385E-01
        2   -1    0    0  501    0  0.00000000000E+00  0.00000000000E+00  0.19760528039E+04  0.19760528039E+04  0.25500000920E-02 0. -1.
       -2   -1    0    0    0  501  0.00000000000E+00  0.00000000000E+00 -0.13320211966E+03  0.13320211969E+03  0.25500000920E-02 0.  1.
    10030    2    1    2    0    0  0.00000000000E+00  0.00000000000E+00  0.18428506842E+04  0.21092549236E+04  0.10260885382E+04 0.  0.
        3    1    3    3  502    0  0.34562855737E+03 -0.16118517923E+03  0.21596899275E+03  0.43827203619E+03  0.10100000352E+00 0.  1.
       -3    1    3    3    0  502 -0.34562855737E+03  0.16118517923E+03  0.16268816915E+04  0.16709828874E+04  0.10100000352E+00 0. -1.
</event>
<event>
 5   0  0.2488472E-03  0.1100990E+04  0.7818609E-02  0.9204228E-01
        2   -1    0    0  501    0  0.00000000000E+00  0.00000000000E+00  0.34580168452E+03  0.34580168453E+03  0.25500000920E-02 0. -1.
       -2   -1    0    0    0  501  0.00000000000E+00  0.00000000000E+00 -0.87635378674E+03  0.87635378675E+03  0.25500000920E-02 0.  1.
    10030    2    1    2    0    0  0.00000000000E+00  0.00000000000E+00 -0.53055210223E+03  0.12221554713E+04  0.11009897651E+04 0.  0.
        2    1    3    3  502    0  0.20679553215E+03 -0.50438240979E+03 -0.35038602067E+03  0.64802497707E+03  0.25500000920E-02 0. -1.
       -2    1    3    3    0  502 -0.20679553215E+03  0.50438240979E+03 -0.18016608156E+03  0.57413049420E+03  0.25500000920E-02 0.  1.
</event>
<event>
 5   0  0.2467448E-03  0.1099672E+04  0.7818609E-02  0.9205511E-01
        2   -1    0    0  501    0  0.00000000000E+00  0.00000000000E+00  0.12621643479E+04  0.12621643479E+04  0.25500000920E-02 0. -1.
       -2   -1    0    0    0  501  0.00000000000E+00  0.00000000000E+00 -0.23952494463E+03  0.23952494465E+03  0.25500000920E-02 0.  1.
    10030    2    1    2    0    0  0.00000000000E+00  0.00000000000E+00  0.10226394033E+04  0.15016892925E+04  0.10996723977E+04 0.  0.
        1    1    3    3  502    0 -0.14804580319E+03 -0.18711353300E+02  0.12339833875E+04  0.12429733204E+04  0.50400001928E-02 0. -1.
       -1    1    3    3    0  502  0.14804580319E+03  0.18711353300E+02 -0.21134398419E+03  0.25871597219E+03  0.50400001928E-02 0.  1.
</event>
<event>
 5   0  0.1468556E-03  0.1103828E+04  0.7818609E-02  0.9201468E-01
       -1   -1    0    0    0  501  0.00000000000E+00  0.00000000000E+00  0.18435398571E+03  0.18435398578E+03  0.50400001928E-02 0. -1.
        1   -1    0    0  501    0  0.00000000000E+00  0.00000000000E+00 -0.16523064394E+04  0.16523064394E+04  0.50400001928E-02 0.  1.
    10030    2    1    2    0    0  0.00000000000E+00  0.00000000000E+00 -0.14679524536E+04  0.18366604251E+04  0.11038283884E+04 0.  0.
        5    1    3    3  502    0 -0.19557374558E+03 -0.72495163295E+02 -0.15841666944E+04  0.15978456885E+04  0.46999998093E+01 0.  1.
       -5    1    3    3    0  502  0.19557374558E+03  0.72495163295E+02  0.11621424077E+03  0.23881473660E+03  0.46999998093E+01 0. -1.
</event>
<event>
 5   0  0.1468556E-03  0.1109525E+04  0.7818609E-02  0.9195958E-01
        1   -1    0    0  501    0  0.00000000000E+00  0.00000000000E+00  0.12294626073E+04  0.12294626073E+04  0.50400001928E-02 0.  1.
       -1   -1    0    0    0  501  0.00000000000E+00  0.00000000000E+00 -0.25032183749E+03  0.25032183754E+03  0.50400001928E-02 0. -1.
    10030    2    1    2    0    0  0.00000000000E+00  0.00000000000E+00  0.97914076983E+03  0.14797844449E+04  0.11095248335E+04 0.  0.
        5    1    3    3  502    0  0.21063206585E+03 -0.10058051042E+03 -0.18161441202E+03  0.29578402745E+03  0.46999998093E+01 0. -1.
       -5    1    3    3    0  502 -0.21063206585E+03  0.10058051042E+03  0.11607551819E+04  0.11840004174E+04  0.46999998093E+01 0.  1.
</event>
<event>
 5   0  0.2488472E-03  0.1098226E+04  0.7818609E-02  0.9206923E-01
       -2   -1    0    0    0  501  0.00000000000E+00  0.00000000000E+00  0.16180226588E+03  0.16180226590E+03  0.25500000920E-02 0.  1.
        2   -1    0    0  501    0  0.00000000000E+00  0.00000000000E+00 -0.18635405984E+04  0.18635405984E+04  0.25500000920E-02 0. -1.
    10030    2    1    2    0    0  0.00000000000E+00  0.00000000000E+00 -0.17017383325E+04  0.20253428643E+04  0.10982260084E+04 0.  0.
        2    1    3    3  502    0 -0.38146238196E+03  0.12444722375E+03 -0.15421949385E+04  0.15935387942E+04  0.25500000920E-02 0. -1.
       -2    1    3    3    0  502  0.38146238196E+03 -0.12444722375E+03 -0.15954339402E+03  0.43180407008E+03  0.25500000920E-02 0.  1.
</event>
<event>
 5   0  0.1509004E-03  0.1087717E+04  0.7818609E-02  0.9217247E-01
        1   -1    0    0  501    0  0.00000000000E+00  0.00000000000E+00  0.74081860873E+03  0.74081860875E+03  0.50400001928E-02 0. -1.
       -1   -1    0    0    0  501  0.00000000000E+00  0.00000000000E+00 -0.39926398735E+03  0.39926398738E+03  0.50400001928E-02 0.  1.
    10030    2    1    2    0    0  0.00000000000E+00  0.00000000000E+00  0.34155462138E+03  0.11400825961E+04  0.10877172273E+04 0.  0.
        3    1    3    3  502    0  0.24859709229E+03 -0.10778542285E+03 -0.32347933608E+03  0.42196813001E+03  0.10100000352E+00 0.  1.
       -3    1    3    3    0  502 -0.24859709229E+03  0.10778542285E+03  0.66503395746E+03  0.71811446612E+03  0.10100000352E+00 0. -1.
</event>
<event>
 5   0  0.1468556E-03  0.1100616E+04  0.7818609E-02  0.9204591E-01
        1   -1    0    0  501    0  0.00000000000E+00  0.00000000000E+00  0.12133745368E+04  0.12133745368E+04  0.50400001928E-02 0. -1.
       -1   -1    0    0    0  501  0.00000000000E+00  0.00000000000E+00 -0.24958421261E+03  0.24958421266E+03  0.50400001928E-02 0.  1.
    10030    2    1    2    0    0  0.00000000000E+00  0.00000000000E+00  0.96379032417E+03  0.14629587495E+04  0.11006164244E+04 0.  0.
        5    1    3    3  502    0 -0.48608813308E+03 -0.25787472469E+03  0.47392078058E+03  0.72622588980E+03  0.46999998093E+01 0. -1.
       -5    1    3    3    0  502  0.48608813308E+03  0.25787472469E+03  0.48986954358E+03  0.73673285965E+03  0.46999998093E+01 0.  1.
</event>
<event>
 5   0  0.2392585E-03  0.1096294E+04  0.7818609E-02  0.9208811E-01
       -2   -1    0    0    0  501  0.00000000000E+00  0.00000000000E+00  0.70996083406E+03  0.70996083406E+03  0.25500000920E-02 0.  1.
        2   -1    0    0  501    0  0.00000000000E+00  0.00000000000E+00 -0.42321394928E+03  0.42321394929E+03  0.25500000920E-02 0. -1.
    10030    2    1    2    0    0  0.00000000000E+00  0.00000000000E+00  0.28674688478E+03  0.11331747834E+04  0.10962943554E+04 0.  0.
        5    1    3    3  502    0  0.30505662588E+03 -0.15755137039E+03 -0.29827228647E+03  0.45483010693E+03  0.46999998093E+01 0. -1.
       -5    1    3    3    0  502 -0.30505662588E+03  0.15755137039E+03  0.58501917124E+03  0.67834467642E+03  0.46999998093E+01 0.  1.
</event>
<event>
 5   0  0.2483036E-03  0.1088338E+04  0.7818609E-02  0.9216633E-01
        2   -1    0    0  501    0  0.00000000000E+00  0.00000000000E+00  0.12637578521E+04  0.12637578521E+04  0.25500000920E-02 0. -1.
       -2   -1    0    0    0  501  0.00000000000E+00  0.00000000000E+00 -0.23431712875E+03  0.23431712876E+03  0.25500000920E-02 0.  1.
    10030    2    1    2    0    0  0.00000000000E+00  0.00000000000E+00  0.10294407234E+04  0.14980749809E+04  0.10883383874E+04 0.  0.
        3    1    3    3  502    0  0.31197652756E+03  0.41996217535E+03  0.72083640670E+03  0.89067542792E+03  0.10100000352E+00 0. -1.
       -3    1    3    3    0  502 -0.31197652756E+03 -0.41996217535E+03  0.30860431668E+03  0.60739955297E+03  0.10100000352E+00 0.  1.
</event>
<event>
 5   0  0.1468556E-03  0.1109553E+04  0.7818609E-02  0.9195931E-01
       -1   -1    0    0    0  501  0.00000000000E+00  0.00000000000E+00  0.26431098825E+03  0.26431098830E+03  0.50400001928E-02 0. -1.
        1   -1    0    0  501    0  0.00000000000E+00  0.00000000000E+00 -0.11644499288E+04  0.11644499289E+04  0.50400001928E-02 0.  1.
    10030    2    1    2    0    0  0.00000000000E+00  0.00000000000E+00 -0.90013894059E+03  0.14287609172E+04  0.11095529037E+04 0.  0.
        5    1    3    3  502    0 -0.44118004057E+03  0.13144275907E+03 -0.84870862451E+03  0.96552858395E+03  0.46999998093E+01 0.  1.
       -5    1    3    3    0  502  0.44118004057E+03 -0.13144275907E+03 -0.51430316081E+02  0.46323233320E+03  0.46999998093E+01 0. -1.
</event>
<event>
 5   0  0.2488472E-03  0.1101399E+04  0.7818609E-02  0.9203829E-01
        2   -1    0    0  501    0  0.00000000000E+00  0.00000000000E+00  0.18946817456E+04  0.18946817456E+04  0.25500000920E-02 0. -1.
       -2   -1    0    0    0  501  0.00000000000E+00  0.00000000000E+00 -0.16006384887E+03  0.16006384889E+03  0.25500000920E-02 0.  1.
    10030    2    1    2    0    0  0.00000000000E+00  0.00000000000E+00  0.17346178968E+04  0.20547455945E+04  0.11013992058E+04 0.  0.
        2    1    3    3  502    0 -0.52494064179E+02  0.52224704219E+03  0.11782087303E+04  0.12898346452E+04  0.25500000920E-02 0. -1.
       -2    1    3    3    0  502  0.52494064179E+02 -0.52224704219E+03  0.55640916645E+03  0.76491094930E+03  0.25500000920E-02 0.  1.
</event>
<event>
 5   0  0.1480937E-03  0.1092709E+04  0.7818609E-02  0.9212327E-01
        1   -1    0    0  501    0  0.00000000000E+00  0.00000000000E+00  0.61632432250E+03  0.61632432252E+03  0.50400001928E-02 0.  1.
       -1   -1    0    0    0  501  0.00000000000E+00  0.00000000000E+00 -0.48432816054E+03  0.48432816056E+03  0.50400001928E-02 0. -1.
    10030    2    1    2    0    0  0.00000000000E+00  0.00000000000E+00  0.13199616197E+03  0.11006524831E+04  0.10927089739E+04 0.  0.
        1    1    3    3  502    0 -0.40239487418E+03 -0.13004098530E+03  0.41444774173E+03  0.59211419784E+03  0.50400001928E-02 0.  1.
       -1    1    3    3    0  502  0.40239487418E+03  0.13004098530E+03 -0.28245157977E+03  0.50853828525E+03  0.50400001928E-02 0. -1.
</event>
<event>
 5   0  0.9631750E-04  0.1083518E+04  0.7818609E-02  0.9221406E-01
       -3   -1    0    0    0  501  0.00000000000E+00  0.00000000000E+00  0.11239386166E+04  0.11239386211E+04  0.10100000352E+00 0. -1.
        3   -1    0    0  501    0  0.00000000000E+00  0.00000000000E+00 -0.26113796224E+03  0.26113798178E+03  0.10100000352E+00 0.  1.
    10030    2    1    2    0    0  0.00000000000E+00  0.00000000000E+00  0.86280065435E+03  0.13850766029E+04  0.10835184478E+04 0.  0.
        4    1    3    3  502    0 -0.25829223921E+03 -0.42517088576E+03  0.15718404353E+03  0.52172176433E+03  0.12699999809E+01 0.  1.
       -4    1    3    3    0  502  0.25829223921E+03  0.42517088576E+03  0.70561661082E+03  0.86335483858E+03  0.12699999809E+01 0. -1.
</event>
<event>
 5   0  0.2467448E-03  0.1091914E+04  0.7818609E-02  0.9213109E-01
        2   -1    0    0  501    0  0.00000000000E+00  0.00000000000E+00  0.44410758696E+03  0.44410758697E+03  0.25500000920E-02 0. -1.
       -2   -1    0    0    0  501  0.00000000000E+00  0.00000000000E+00 -0.67116463224E+03  0.67116463225E+03  0.25500000920E-02 0.  1.
    10030    2    1    2    0    0  0.00000000000E+00  0.00000000000E+00 -0.22705704528E+03  0.11152722192E+04  0.10919144752E+04 0.  0.
        1    1    3    3  502    0 -0.51898812127E+03 -0.10768437392E+03 -0.24718926983E+03  0.58484795422E+03  0.50400001928E-02 0.  1.
       -1    1    3    3    0  502  0.51898812127E+03  0.10768437392E+03  0.20132224546E+02  0.53042426500E+03  0.50400001928E-02 0. -1.
</event>
<event>
 5   0  0.1415400E-03  0.1097142E+04  0.7818609E-02  0.9207982E-01
        1   -1    0    0  501    0  0.00000000000E+00  0.00000000000E+00  0.99618034746E+03  0.99618034747E+03  0.50400001928E-02 0.  1.
       -1   -1    0    0    0  501  0.00000000000E+00  0.00000000000E+00 -0.30208372999E+03  0.30208373003E+03  0.50400001928E-02 0. -1.
    10030    2    1    2    0    0  0.00000000000E+00  0.00000000000E+00  0.69409661747E+03  0.12982640775E+04  0.10971415135E+04 0.  0.
        2    1    3    3  502    0 -0.18219082576E+03 -0.50874852174E+03  0.23534361908E+03  0.58941087063E+03  0.25500000920E-02 0. -1.
       -2    1    3    3    0  502  0.18219082576E+03  0.50874852174E+03  0.45875299839E+03  0.70885320688E+03  0.25500000920E-02 0.  1.
</event>
<event>
 5   0  0.1509004E-03  0.1098058E+04  0.7818609E-02  0.9207087E-01
       -1   -1    0    0    0  501  0.00000000000E+00  0.00000000000E+00  0.15901794116E+04  0.15901794116E+04  0.50400001928E-02 0.  1.
        1   -1    0    0  501    0  0.00000000000E+00  0.00000000000E+00 -0.18955886019E+03  0.18955886026E+03  0.50400001928E-02 0. -1.
    10030    2    1    2    0    0  0.00000000000E+00  0.00000000000E+00  0.14006205514E+04  0.17797382719E+04  0.10980575519E+04 0.  0.
        3    1    3    3  502    0 -0.60082762969E+01  0.40923236783E+03  0.10716313407E+03  0.42307348979E+03  0.10100000352E+00 0. -1.
       -3    1    3    3    0  502  0.60082762969E+01 -0.40923236783E+03  0.12934574173E+04  0.13566647821E+04  0.10100000352E+00 0.  1.
</event>
<event>
 5   0  0.1468556E-03  0.1097912E+04  0.7818609E-02  0.9207229E-01
        1   -1    0    0  501    0  0.00000000000E+00  0.00000000000E+00  0.97328356909E+03  0.97328356910E+03  0.50400001928E-02 0.  1.
       -1   -1    0    0    0  501  0.00000000000E+00  0.00000000000E+00 -0.30962503002E+03  0.30962503006E+03  0.50400001928E-02 0. -1.
    10030    2    1    2    0    0  0.00000000000E+00  0.00000000000E+00  0.66365853906E+03  0.12829085992E+04  0.10979124816E+04 0.  0.
        5    1    3    3  502    0 -0.37576686494E+03  0.27069689047E+03  0.67619601678E+03  0.81959788092E+03  0.46999998093E+01 0.  1.
       -5    1    3    3    0  502  0.37576686494E+03 -0.27069689047E+03 -0.12537477719E+02  0.46331071824E+03  0.46999998093E+01 0. -1.
</event>
<event>
 5   0  0.1415400E-03  0.1103910E+04  0.7818609E-02  0.9201390E-01
        1   -1    0    0  501    0  0.00000000000E+00  0.00000000000E+00  0.13103313480E+04  0.13103313480E+04  0.50400001928E-02 0.  1.
       -1   -1    0    0    0  501  0.00000000000E+00  0.00000000000E+00 -0.23250159072E+03  0.23250159078E+03  0.50400001928E-02 0. -1.
    10030    2    1    2    0    0  0.00000000000E+00  0.00000000000E+00  0.10778297573E+04  0.15428329388E+04  0.11039096391E+04 0.  0.
        2    1    3    3  502    0  0.30868265631E+03 -0.25216413459E+03  0.52877388013E+01  0.39862224382E+03  0.25500000920E-02 0. -1.
       -2    1    3    3    0  502 -0.30868265631E+03  0.25216413459E+03  0.10725420185E+04  0.11442106950E+04  0.25500000920E-02 0.  1.
</event>
<event>
 5   0  0.2438115E-03  0.1107338E+04  0.7818609E-02  0.9198069E-01
        2   -1    0    0  501    0  0.00000000000E+00  0.00000000000E+00  0.37960792629E+03  0.37960792630E+03  0.25500000920E-02 0. -1.
       -2   -1    0    0    0  501  0.00000000000E+00  0.00000000000E+00 -0.80754275462E+03  0.80754275462E+03  0.25500000920E-02 0.  1.
    10030    2    1    2    0    0  0.00000000000E+00  0.00000000000E+00 -0.42793482833E+03  0.11871506809E+04  0.11073384857E+04 0.  0.
        4    1    3    3  502    0 -0.23862114346E+03 -0.35617657435E+03 -0.58957080732E+03  0.72896992529E+03  0.12699999809E+01 0.  1.
       -4    1    3    3    0  502  0.23862114346E+03  0.35617657435E+03  0.16163597899E+03  0.45818075563E+03  0.12699999809E+01 0. -1.
</event>
<event>
 5   0  0.1479573E-03  0.1122678E+04  0.7818609E-02  0.9183366E-01
       -1   -1    0    0    0  501  0.00000000000E+00  0.00000000000E+00  0.24059216001E+03  0.24059216006E+03  0.50400001928E-02 0. -1.
        1   -1    0    0  501    0  0.00000000000E+00  0.00000000000E+00 -0.13096923740E+04  0.13096923740E+04  0.50400001928E-02 0.  1.
    10030    2    1    2    0    0  0.00000000000E+00  0.00000000000E+00 -0.10691002140E+04  0.15502845340E+04  0.11226784353E+04 0.  0.
        4    1    3    3  502    0  0.28318854642E+03 -0.10133834326E+03  0.11992727294E+03  0.32380453415E+03  0.12699999809E+01 0. -1.
       -4    1    3    3    0  502 -0.28318854642E+03  0.10133834326E+03 -0.11890274869E+04  0.12264799999E+04  0.12699999809E+01 0.  1.
</event>
<event>
 5   0  0.1509004E-03  0.1099455E+04  0.7818609E-02  0.9205723E-01
        1   -1    0    0  501    0  0.00000000000E+00  0.00000000000E+00  0.10109705875E+04  0.10109705875E+04  0.50400001928E-02 0. -1.
       -1   -1    0    0    0  501  0.00000000000E+00  0.00000000000E+00 -0.29892107976E+03  0.29892107981E+03  0.50400001928E-02 0.  1.
    10030    2    1    2    0    0  0.00000000000E+00  0.00000000000E+00  0.71204950775E+03  0.13098916673E+04  0.10994551736E+04 0.  0.
        3    1    3    3  502    0 -0.38631617753E+03  0.38652940710E+03  0.42706299256E+03  0.69356180791E+03  0.10100000352E+00 0. -1.
       -3    1    3    3    0  502  0.38631617753E+03 -0.38652940710E+03  0.28498651518E+03  0.61632985942E+03  0.10100000352E+00 0.  1.
</event>
<event>
 5   0  0.9631750E-04  0.1095752E+04  0.7818609E-02  0.9209342E-01
        4   -1    0    0  501    0  0.00000000000E+00  0.00000000000E+00  0.13214226083E+04  0.13214232186E+04  0.12699999809E+01 0.  1.
       -4   -1    0    0    0  501  0.00000000000E+00  0.00000000000E+00 -0.22715303047E+03  0.22715658069E+03  0.12699999809E+01 0. -1.
    10030    2    1    2    0    0  0.00000000000E+00  0.00000000000E+00  0.10942695778E+04  0.15485797993E+04  0.10957524747E+04 0.  0.
        2    1    3    3  502    0  0.80365254636E+02  0.47465322149E+03  0.17748199643E+03  0.51308295030E+03  0.25500000920E-02 0. -1.
       -2    1    3    3    0  502 -0.80365254636E+02 -0.47465322149E+03  0.91678758141E+03  0.10354968490E+04  0.25500000920E-02 0.  1.
</event>
<event>
 5   0  0.2467448E-03  0.1101359E+04  0.7818609E-02  0.9203869E-01
        2   -1    0    0  501    0  0.00000000000E+00  0.00000000000E+00  0.70872037240E+03  0.70872037241E+03  0.25500000920E-02 0.  1.
       -2   -1    0    0    0  501  0.00000000000E+00  0.00000000000E+00 -0.42788052720E+03  0.42788052721E+03  0.25500000920E-02 0. -1.
    10030    2    1    2    0    0  0.00000000000E+00  0.00000000000E+00  0.28083984521E+03  0.11366008996E+04  0.11013585185E+04 0.  0.
        1    1    3    3  502    0  0.32979636144E+02 -0.66739563139E+02 -0.42266376141E+03  0.42916952469E+03  0.50400001928E-02 0. -1.
       -1    1    3    3    0  502 -0.32979636144E+02  0.66739563139E+02  0.70350360661E+03  0.70743137493E+03  0.50400001928E-02 0.  1.
</event>
<event>
 5   0  0.2483036E-03  0.1101675E+04  0.7818609E-02  0.9203561E-01
       -2   -1    0    0    0  501  0.00000000000E+00  0.00000000000E+00  0.22001089160E+03  0.22001089161E+03  0.25500000920E-02 0. -1.
        2   -1    0    0  501    0  0.00000000000E+00  0.00000000000E+00 -0.13791213472E+04  0.13791213472E+04  0.25500000920E-02 0.  1.
    10030    2    1    2    0    0  0.00000000000E+00  0.00000000000E+00 -0.11591104556E+04  0.15991322388E+04  0.11016745749E+04 0.  0.
        3    1    3    3  502    0 -0.15296374923E+03  0.21472245767E+02 -0.13470416434E+04  0.13558687861E+04  0.10100000352E+00 0.  1.
       -3    1    3    3    0  502  0.15296374923E+03 -0.21472245767E+02  0.18793118774E+03  0.24326345275E+03  0.10100000352E+00 0. -1.
</event>
<event>
 5   0  0.2483036E-03  0.1133032E+04  0.7818609E-02  0.9173581E-01
        2   -1    0    0  501    0  0.00000000000E+00  0.00000000000E+00  0.32651878541E+03  0.32651878542E+03  0.25500000920E-02 0.  1.
       -2   -1    0    0    0  501  0.00000000000E+00  0.00000000000E+00 -0.98291586047E+03  0.98291586047E+03  0.25500000920E-02 0. -1.
    10030    2    1    2    0    0  0.00000000000E+00  0.00000000000E+00 -0.65639707506E+03  0.13094346459E+04  0.11330322024E+04 0.  0.
        3    1    3    3  502    0 -0.16168876782E+03 -0.50937689841E+03 -0.54543271120E+03  0.76361307933E+03  0.10100000352E+00 0. -1.
       -3    1    3    3    0  502  0.16168876782E+03  0.50937689841E+03 -0.11096436386E+03  0.54582156656E+03  0.10100000352E+00 0.  1.
</event>
<event>
 5   0  0.1479573E-03  0.1097213E+04  0.7818609E-02  0.9207912E-01
       -1   -1    0    0    0  501  0.00000000000E+00  0.00000000000E+00  0.36050064046E+03  0.36050064050E+03  0.50400001928E-02 0.  1.
        1   -1    0    0  501    0  0.00000000000E+00  0.00000000000E+00 -0.83486432777E+03  0.83486432778E+03  0.50400001928E-02 0. -1.
    10030    2    1    2    0    0  0.00000000000E+00  0.00000000000E+00 -0.47436368731E+03  0.11953649683E+04  0.10972130602E+04 0.  0.
        4    1    3    3  502    0  0.21343483402E+03 -0.86589773432E+02 -0.77963372037E+03  0.81294684210E+03  0.12699999809E+01 0. -1.
       -4    1    3    3    0  502 -0.21343483402E+03  0.86589773432E+02  0.30527003307E+03  0.38241812618E+03  0.12699999809E+01 0.  1.
</event>
<event>
 5   0  0.2467448E-03  0.1104528E+04  0.7818609E-02  0.9200789E-01
        2   -1    0    0  501    0  0.00000000000E+00  0.00000000000E+00  0.12960101869E+04  0.12960101869E+04  0.25500000920E-02 0. -1.
       -2   -1    0    0    0  501  0.00000000000E+00  0.00000000000E+00 -0.23533436470E+03  0.23533436472E+03  0.25500000920E-02 0.  1.
    10030    2    1    2    0    0  0.00000000000E+00  0.00000000000E+00  0.10606758222E+04  0.15313445516E+04  0.11045283772E+04 0.  0.
        1    1    3    3  502    0  0.10859873296E+02 -0.24784858307E+03  0.12144069385E+04  0.12394882288E+04  0.50400001928E-02 0. -1.
       -1    1    3    3    0  502 -0.10859873296E+02  0.24784858307E+03 -0.15373111637E+03  0.29185632278E+03  0.50400001928E-02 0.  1.
</event>
<event>
 5   0  0.1415400E-03  0.1100722E+04  0.7818609E-02  0.9204489E-01
       -1   -1    0    0    0  501  0.00000000000E+00  0.00000000000E+00  0.49901357096E+03  0.49901357099E+03  0.50400001928E-02 0. -1.
        1   -1    0    0  501    0  0.00000000000E+00  0.00000000000E+00 -0.60699172806E+03  0.60699172808E+03  0.50400001928E-02 0.  1.
    10030    2    1    2    0    0  0.00000000000E+00  0.00000000000E+00 -0.10797815710E+03  0.11060052991E+04  0.11007217810E+04 0.  0.
        2    1    3    3  502    0  0.62515093536E+02  0.35248815127E+03 -0.47401602235E+03  0.59400944703E+03  0.25500000920E-02 0.  1.
       -2    1    3    3    0  502 -0.62515093536E+02 -0.35248815127E+03  0.36603786525E+03  0.51199585204E+03  0.25500000920E-02 0. -1.
</event>
<event>
 5   0  0.1480937E-03  0.1109660E+04  0.7818609E-02  0.9195828E-01
        1   -1    0    0  501    0  0.00000000000E+00  0.00000000000E+00  0.98730627645E+03  0.98730627646E+03  0.50400001928E-02 0. -1.
       -1   -1    0    0    0  501  0.00000000000E+00  0.00000000000E+00 -0.31179400041E+03  0.31179400045E+03  0.50400001928E-02 0.  1.
    10030    2    1    2    0    0  0.00000000000E+00  0.00000000000E+00  0.67551227603E+03  0.12991002769E+04  0.11096597201E+04 0.  0.
        1    1    3    3  502    0  0.14835962182E+03 -0.43913103904E+03 -0.19245223442E+02  0.46391489035E+03  0.50400001928E-02 0.  1.
       -1    1    3    3    0  502 -0.14835962182E+03  0.43913103904E+03  0.69475749948E+03  0.83518538657E+03  0.50400001928E-02 0. -1.
</event>
<event>
 5   0  0.1468556E-03  0.1102447E+04  0.7818609E-02  0.9202810E-01
       -1   -1    0    0    0  501  0.00000000000E+00  0.00000000000E+00  0.14707336633E+03  0.14707336641E+03  0.50400001928E-02 0.  1.
        1   -1    0    0  501    0  0.00000000000E+00  0.00000000000E+00 -0.20659571806E+04  0.20659571806E+04  0.50400001928E-02 0. -1.
    10030    2    1    2    0    0  0.00000000000E+00  0.00000000000E+00 -0.19188838142E+04  0.22130305470E+04  0.11024468737E+04 0.  0.
        5    1    3    3  502    0  0.34628772243E+02  0.47823272282E+03 -0.41367242980E+03  0.63328718463E+03  0.46999998093E+01 0.  1.
       -5    1    3    3    0  502 -0.34628772243E+02 -0.47823272282E+03 -0.15052113844E+04  0.15797433623E+04  0.46999998093E+01 0. -1.
</event>
<event>
 5   0  0.2488472E-03  0.1103041E+04  0.7818609E-02  0.9202233E-01
        2   -1    0    0  501    0  0.00000000000E+00  0.00000000000E+00  0.33994887870E+03  0.33994887871E+03  0.25500000920E-02 0. -1.
       -2   -1    0    0    0  501  0.00000000000E+00  0.00000000000E+00 -0.89476656160E+03  0.89476656160E+03  0.25500000920E-02 0.  1.
    10030    2    1    2    0    0  0.00000000000E+00  0.00000000000E+00 -0.55481768289E+03  0.12347154403E+04  0.11030410497E+04 0.  0.
        2    1    3    3  502    0 -0.41308096720E+03 -0.36181299041E+03 -0.21999942719E+03  0.59156087891E+03  0.25500000920E-02 0. -1.
       -2    1    3    3    0  502  0.41308096720E+03  0.36181299041E+03 -0.33481825571E+03  0.64315456140E+03  0.25500000920E-02 0.  1.
</event>
<event>
 5   0  0.2467448E-03  0.1105276E+04  0.7818609E-02  0.9200065E-01
       -2   -1    0    0    0  501  0.00000000000E+00  0.00000000000E+00  0.23049072588E+03  0.23049072589E+03  0.25500000920E-02 0. -1.
        2   -1    0    0  501    0  0.00000000000E+00  0.00000000000E+00 -0.13250373273E+04  0.13250373273E+04  0.25500000920E-02 0.  1.
    10030    2    1    2    0    0  0.00000000000E+00  0.00000000000E+00 -0.10945466014E+04  0.15555280532E+04  0.11052761020E+04 0.  0.
        1    1    3    3  502    0 -0.34526145425E+03  0.42811910725E+03 -0.47125763702E+03  0.72427563969E+03  0.50400001928E-02 0.  1.
       -1    1    3    3    0  502  0.34526145425E+03 -0.42811910725E+03 -0.62328896443E+03  0.83125241352E+03  0.50400001928E-02 0. -1.
</event>
<event>
 5   0  0.2483036E-03  0.1100982E+04  0.7818609E-02  0.9204235E-01
       -2   -1    0    0    0  501  0.00000000000E+00  0.00000000000E+00  0.60369336913E+03  0.60369336914E+03  0.25500000920E-02 0. -1.
        2   -1    0    0  501    0  0.00000000000E+00  0.00000000000E+00 -0.50197733931E+03  0.50197733932E+03  0.25500000920E-02 0.  1.
    10030    2    1    2    0    0  0.00000000000E+00  0.00000000000E+00  0.10171602982E+03  0.11056707085E+04  0.11009820911E+04 0.  0.
        3    1    3    3  502    0 -0.33008602666E+03  0.18203266782E+03  0.45374936405E+03  0.58989929032E+03  0.10100000352E+00 0. -1.
       -3    1    3    3    0  502  0.33008602666E+03 -0.18203266782E+03 -0.35203333423E+03  0.51577141813E+03  0.10100000352E+00 0.  1.
</event>
<event>
 5   0  0.9631750E-04  0.1137491E+04  0.7818609E-02  0.9169402E-01
       -3   -1    0    0    0  501  0.00000000000E+00  0.00000000000E+00  0.21347446994E+03  0.21347449383E+03  0.10100000352E+00 0.  1.
        3   -1    0    0  501    0  0.00000000000E+00  0.00000000000E+00 -0.15152706403E+04  0.15152706436E+04  0.10100000352E+00 0. -1.
    10030    2    1    2    0    0  0.00000000000E+00  0.00000000000E+00 -0.13017961703E+04  0.17287451375E+04  0.11374913104E+04 0.  0.
        2    1    3    3  502    0 -0.12721014437E+03  0.23031867549E+03  0.11541627718E+03  0.28731521045E+03  0.25500000920E-02 0.  1.
       -2    1    3    3    0  502  0.12721014437E+03 -0.23031867549E+03 -0.14172124475E+04  0.14414299270E+04  0.25500000920E-02 0. -1.
</event>
<event>
 5   0  0.9631750E-04  0.1104950E+04  0.7818609E-02  0.9200380E-01
       -4   -1    0    0    0  501  0.00000000000E+00  0.00000000000E+00  0.31877792501E+03  0.31878045482E+03  0.12699999809E+01 0. -1.
        4   -1    0    0  501    0  0.00000000000E+00  0.00000000000E+00 -0.95749011341E+03  0.95749095566E+03  0.12699999809E+01 0.  1.
    10030    2    1    2    0    0  0.00000000000E+00  0.00000000000E+00 -0.63871218839E+03  0.12762714105E+04  0.11049504304E+04 0.  0.
        2    1    3    3  502    0  0.34094263561E+03 -0.41791281332E+03 -0.45765290579E+03  0.70734657877E+03  0.25500000920E-02 0.  1.
       -2    1    3    3    0  502 -0.34094263561E+03  0.41791281332E+03 -0.18105928260E+03  0.56892483171E+03  0.25500000920E-02 0. -1.
</event>
<event>
 5   0  0.2438115E-03  0.1101158E+04  0.7818609E-02  0.9204063E-01
       -2   -1    0    0    0  501  0.00000000000E+00  0.00000000000E+00  0.54986109076E+03  0.54986109076E+03  0.25500000920E-02 0. -1.
        2   -1    0    0  501    0  0.00000000000E+00  0.00000000000E+00 -0.55129830533E+03  0.55129830534E+03  0.25500000920E-02 0.  1.
    10030    2    1    2    0    0  0.00000000000E+00  0.00000000000E+00 -0.14372145754E+01  0.11011593961E+04  0.11011584582E+04 0.  0.
        4    1    3    3  502    0  0.20730537910E+03  0.49282319770E+03  0.13075640804E+03  0.55040809909E+03  0.12699999809E+01 0. -1.
       -4    1    3    3    0  502 -0.20730537910E+03 -0.49282319770E+03 -0.13219362262E+03  0.55075129701E+03  0.12699999809E+01 0.  1.
</event>
<event>
 5   0  0.2467448E-03  0.1105809E+04  0.7818609E-02  0.9199548E-01
       -2   -1    0    0    0  501  0.00000000000E+00  0.00000000000E+00  0.33093374900E+03  0.33093374901E+03  0.25500000920E-02 0. -1.
        2   -1    0    0  501    0  0.00000000000E+00  0.00000000000E+00 -0.92376082927E+03  0.92376082927E+03  0.25500000920E-02 0.  1.
    10030    2    1    2    0    0  0.00000000000E+00  0.00000000000E+00 -0.59282708026E+03  0.12546945783E+04  0.11058094491E+04 0.  0.
        1    1    3    3  502    0 -0.34443542846E+03 -0.17363995232E+03 -0.74587532711E+03  0.83971221323E+03  0.50400001928E-02 0.  1.
       -1    1    3    3    0  502  0.34443542846E+03  0.17363995232E+03  0.15304824685E+03  0.41498236506E+03  0.50400001928E-02 0. -1.
</event>
<event>
 5   0  0.1479573E-03  0.1099326E+04  0.7818609E-02  0.9205849E-01
        1   -1    0    0  501    0  0.00000000000E+00  0.00000000000E+00  0.13575754879E+04  0.13575754879E+04  0.50400001928E-02 0.  1.
       -1   -1    0    0    0  501  0.00000000000E+00  0.00000000000E+00 -0.22255077829E+03  0.22255077834E+03  0.50400001928E-02 0. -1.
    10030    2    1    2    0    0  0.00000000000E+00  0.00000000000E+00  0.11350247096E+04  0.15801262662E+04  0.10993261235E+04 0.  0.
        4    1    3    3  502    0 -0.34833674746E+03 -0.41220432726E+03  0.41760627751E+03  0.68238369922E+03  0.12699999809E+01 0. -1.
       -4    1    3    3    0  502  0.34833674746E+03  0.41220432726E+03  0.71741843210E+03  0.89774256703E+03  0.12699999809E+01 0.  1.
</event>
<event>
 5   0  0.1468556E-03  0.1131976E+04  0.7818609E-02  0.9174574E-01
        1   -1    0    0  501    0  0.00000000000E+00  0.00000000000E+00  0.32317087948E+03  0.32317087952E+03  0.50400001928E-02 0. -1.
       -1   -1    0    0    0  501  0.00000000000E+00  0.00000000000E+00 -0.99124811569E+03  0.99124811570E+03  0.50400001928E-02 0.  1.
    10030    2    1    2    0    0  0.00000000000E+00  0.00000000000E+00 -0.66807723620E+03  0.13144189952E+04  0.11319761930E+04 0.  0.
        5    1    3    3  502    0  0.43066300974E+03  0.34750180351E+03 -0.47188251257E+03  0.72727115100E+03  0.46999998093E+01 0. -1.
       -5    1    3    3    0  502 -0.43066300974E+03 -0.34750180351E+03 -0.19619472363E+03  0.58714784423E+03  0.46999998093E+01 0.  1.
</event>
<event>
 5   0  0.2392585E-03  0.1092424E+04  0.7818609E-02  0.9212608E-01
        2   -1    0    0  501    0  0.00000000000E+00  0.00000000000E+00  0.80352518667E+03  0.80352518667E+03  0.25500000920E-02 0.  1.
       -2   -1    0    0    0  501  0.00000000000E+00  0.00000000000E+00 -0.37129827465E+03  0.37129827466E+03  0.25500000920E-02 0. -1.
    10030    2    1    2    0    0  0.00000000000E+00  0.00000000000E+00  0.43222691202E+03  0.11748234613E+04  0.10924239387E+04 0.  0.
        5    1    3    3  502    0 -0.17325594942E+03 -0.51701346756E+03  0.25020428773E+03  0.59995401928E+03  0.46999998093E+01 0. -1.
       -5    1    3    3    0  502  0.17325594942E+03  0.51701346756E+03  0.18202262429E+03  0.57486944205E+03  0.46999998093E+01 0.  1.
</event>
<event>
 5   0  0.2392585E-03  0.1100348E+04  0.7818609E-02  0.9204853E-01
       -2   -1    0    0    0  501  0.00000000000E+00  0.00000000000E+00  0.43966208490E+03  0.43966208491E+03  0.25500000920E-02 0.  1.
        2   -1    0    0  501    0  0.00000000000E+00  0.00000000000E+00 -0.68846407709E+03  0.68846407710E+03  0.25500000920E-02 0. -1.
    10030    2    1    2    0    0  0.00000000000E+00  0.00000000000E+00 -0.24880199219E+03  0.11281261620E+04  0.11003482204E+04 0.  0.
        5    1    3    3  502    0  0.25666110078E+03  0.26772519626E+03  0.29220394821E+03  0.47218316225E+03  0.46999998093E+01 0.  1.
       -5    1    3    3    0  502 -0.25666110078E+03 -0.26772519626E+03 -0.54100594041E+03  0.65594299975E+03  0.46999998093E+01 0. -1.
</event>
<event>
 5   0  0.2392585E-03  0.1101855E+04  0.7818609E-02  0.9203386E-01
       -2   -1    0    0    0  501  0.00000000000E+00  0.00000000000E+00  0.44326266646E+03  0.44326266646E+03  0.25500000920E-02 0. -1.
        2   -1    0    0  501    0  0.00000000000E+00  0.00000000000E+00 -0.68474349358E+03  0.68474349359E+03  0.25500000920E-02 0.  1.
    10030    2    1    2    0    0  0.00000000000E+00  0.00000000000E+00 -0.24148082712E+03  0.11280061600E+04  0.11018552116E+04 0.  0.
        5    1    3    3  502    0  0.28903080496E+03 -0.29976452605E+02 -0.59988899921E+03  0.66657804892E+03  0.46999998093E+01 0.  1.
       -5    1    3    3    0  502 -0.28903080496E+03  0.29976452605E+02  0.35840817208E+03  0.46142811113E+03  0.46999998093E+01 0. -1.
</event>
<event>
 5   0  0.2438115E-03  0.1136353E+04  0.7818609E-02  0.9170466E-01
       -2   -1    0    0    0  501  0.00000000000E+00  0.00000000000E+00  0.56781008901E+03  0.56781008902E+03  0.25500000920E-02 0. -1.
        2   -1    0    0  501    0  0.00000000000E+00  0.00000000000E+00 -0.56854356149E+03  0.56854356149E+03  0.25500000920E-02 0.  1.
    10030    2    1    2    0    0  0.00000000000E+00  0.00000000000E+00 -0.73347247314E+00  0.11363536505E+04  0.11363534138E+04 0.  0.
        4    1    3    3  502    0  0.28692780625E+03  0.48606994936E+03 -0.65417466093E+02  0.56821881300E+03  0.12699999809E+01 0. -1.
       -4    1    3    3    0  502 -0.28692780625E+03 -0.48606994936E+03  0.64683993620E+02  0.56813483752E+03  0.12699999809E+01 0.  1.
</event>
<event>
 5   0  0.2438115E-03  0.1109627E+04  0.7818609E-02  0.9195859E-01
       -2   -1    0    0    0  501  0.00000000000E+00  0.00000000000E+00  0.32310427072E+03  0.32310427073E+03  0.25500000920E-02 0.  1.
        2   -1    0    0  501    0  0.00000000000E+00  0.00000000000E+00 -0.95268904457E+03  0.95268904458E+03  0.25500000920E-02 0. -1.
    10030    2    1    2    0    0  0.00000000000E+00  0.00000000000E+00 -0.62958477385E+03  0.12757933153E+04  0.11096267823E+04 0.  0.
        4    1    3    3  502    0 -0.25639697662E+03 -0.32032593248E+02  0.24969945635E+03  0.35932844036E+03  0.12699999809E+01 0.  1.
       -4    1    3    3    0  502  0.25639697662E+03  0.32032593248E+02 -0.87928423019E+03  0.91646487495E+03  0.12699999809E+01 0. -1.
</event>
<event>
 5   0  0.1468556E-03  0.1096170E+04  0.7818609E-02  0.9208932E-01
        1   -1    0    0  501    0  0.00000000000E+00  0.00000000000E+00  0.76774391665E+03  0.76774391666E+03  0.50400001928E-02 0. -1.
       -1   -1    0    0    0  501  0.00000000000E+00  0.00000000000E+00 -0.39127293079E+03  0.39127293082E+03  0.50400001928E-02 0.  1.
    10030    2    1    2    0    0  0.00000000000E+00  0.00000000000E+00  0.37647098585E+03  0.11590168475E+04  0.10961704473E+04 0.  0.
        5    1    3    3  502    0 -0.46648168679E+03 -0.87157329786E+02  0.47813320696E+03  0.67367278247E+03  0.46999998093E+01 0. -1.
       -5    1    3    3    0  502  0.46648168679E+03  0.87157329786E+02 -0.10166222110E+03  0.48534406502E+03  0.46999998093E+01 0.  1.
</event>
<event>
 5   0  0.2483036E-03  0.1092782E+04  0.7818609E-02  0.9212255E-01
       -2   -1    0    0    0  501  0.00000000000E+00  0.00000000000E+00  0.37732515405E+03  0.37732515406E+03  0.25500000920E-02 0. -1.
        2   -1    0    0  501    0  0.00000000000E+00  0.00000000000E+00 -0.79120958045E+03  0.79120958045E+03  0.25500000920E-02 0.  1.
    10030    2    1    2    0    0  0.00000000000E+00  0.00000000000E+00 -0.41388442639E+03  0.11685347345E+04  0.10927822781E+04 0.  0.
        3    1    3    3  502    0 -0.15340049768E+03  0.49981778482E+03 -0.37213910079E+02  0.52415113853E+03  0.10100000352E+00 0. -1.
       -3    1    3    3    0  502  0.15340049768E+03 -0.49981778482E+03 -0.37667051632E+03  0.64438359599E+03  0.10100000352E+00 0.  1.
</event>
<event>
 5   0  0.2488472E-03  0.1097385E+04  0.7818609E-02  0.9207744E-01
       -2   -1    0    0    0  501  0.00000000000E+00  0.00000000000E+00  0.65841190050E+03  0.65841190051E+03  0.25500000920E-02 0.  1.
        2   -1    0    0  501    0  0.00000000000E+00  0.00000000000E+00 -0.45725730177E+03  0.45725730178E+03  0.25500000920E-02 0. -1.
    10030    2    1    2    0    0  0.00000000000E+00  0.00000000000E+00  0.20115459873E+03  0.11156692023E+04  0.10973853454E+04 0.  0.
        2    1    3    3  502    0  0.11529614835E+03  0.15997752982E+03 -0.41998667683E+03  0.46397717680E+03  0.25500000920E-02 0. -1.
       -2    1    3    3    0  502 -0.11529614835E+03 -0.15997752982E+03  0.62114127556E+03  0.65169202548E+03  0.25500000920E-02 0.  1.
</event>
<event>
 5   0  0.1480937E-03  0.1098319E+04  0.7818609E-02  0.9206832E-01
        1   -1    0    0  501    0  0.00000000000E+00  0.00000000000E+00  0.27694235944E+03  0.27694235949E+03  0.50400001928E-02 0.  1.
       -1   -1    0    0    0  501  0.00000000000E+00  0.00000000000E+00 -0.10889497074E+04  0.10889497074E+04  0.50400001928E-02 0. -1.
    10030    2    1    2    0    0  0.00000000000E+00  0.00000000000E+00 -0.81200734795E+03  0.13658920669E+04  0.10983192638E+04 0.  0.
        1    1    3    3  502    0 -0.14522049968E+03 -0.41977737559E+03 -0.44197253955E+01  0.44420892898E+03  0.50400001928E-02 0.  1.
       -1    1    3    3    0  502  0.14522049968E+03  0.41977737559E+03 -0.80758762255E+03  0.92168313791E+03  0.50400001928E-02 0. -1.
</event>
<event>
 5   0  0.2392585E-03  0.1098911E+04  0.7818609E-02  0.9206254E-01
       -2   -1    0    0    0  501  0.00000000000E+00  0.00000000000E+00  0.46201976828E+03  0.46201976829E+03  0.25500000920E-02 0. -1.
        2   -1    0    0  501    0  0.00000000000E+00  0.00000000000E+00 -0.65343827701E+03  0.65343827702E+03  0.25500000920E-02 0.  1.
    10030    2    1    2    0    0  0.00000000000E+00  0.00000000000E+00 -0.19141850873E+03  0.11154580453E+04  0.10989110998E+04 0.  0.
        5    1    3    3  502    0 -0.13692023223E+03  0.21515326458E+03  0.39828208821E+03  0.47295749179E+03  0.46999998093E+01 0. -1.
       -5    1    3    3    0  502  0.13692023223E+03 -0.21515326458E+03 -0.58970059693E+03  0.64250055352E+03  0.46999998093E+01 0.  1.
</event>
<event>
 5   0  0.2488472E-03  0.1103076E+04  0.7818609E-02  0.9202199E-01
       -2   -1    0    0    0  501  0.00000000000E+00  0.00000000000E+00  0.58250521832E+03  0.58250521832E+03  0.25500000920E-02 0. -1.
        2   -1    0    0  501    0  0.00000000000E+00  0.00000000000E+00 -0.52221675628E+03  0.52221675628E+03  0.25500000920E-02 0.  1.
    10030    2    1    2    0    0  0.00000000000E+00  0.00000000000E+00  0.60288462038E+02  0.11047219746E+04  0.11030756740E+04 0.  0.
        2    1    3    3  502    0  0.19594736843E+03 -0.17271792400E+03  0.51663370020E+03  0.57891038395E+03  0.25500000920E-02 0. -1.
       -2    1    3    3    0  502 -0.19594736843E+03  0.17271792400E+03 -0.45634523816E+03  0.52581159065E+03  0.25500000920E-02 0.  1.
</event>
<event>
 5   0  0.1480937E-03  0.1098654E+04  0.7818609E-02  0.9206505E-01
        1   -1    0    0  501    0  0.00000000000E+00  0.00000000000E+00  0.15888265507E+04  0.15888265507E+04  0.50400001928E-02 0. -1.
       -1   -1    0    0    0  501  0.00000000000E+00  0.00000000000E+00 -0.18992637535E+03  0.18992637541E+03  0.50400001928E-02 0.  1.
    10030    2    1    2    0    0  0.00000000000E+00  0.00000000000E+00  0.13989001753E+04  0.17787529261E+04  0.10986538452E+04 0.  0.
        1    1    3    3  502    0 -0.46547035234E+03  0.20796264797E+03  0.36824495257E+03  0.62890019636E+03  0.50400001928E-02 0.  1.
       -1    1    3    3    0  502  0.46547035234E+03 -0.20796264797E+03  0.10306552227E+04  0.11498527297E+04  0.50400001928E-02 0. -1.
</event>
<event>
 5   0  0.2392585E-03  0.1099759E+04  0.7818609E-02  0.9205427E-01
        2   -1    0    0  501    0  0.00000000000E+00  0.00000000000E+00  0.62310725095E+03  0.62310725096E+03  0.25500000920E-02 0.  1.
       -2   -1    0    0    0  501  0.00000000000E+00  0.00000000000E+00 -0.48525755979E+03  0.48525755979E+03  0.25500000920E-02 0. -1.
    10030    2    1    2    0    0  0.00000000000E+00  0.00000000000E+00  0.13784969117E+03  0.11083648108E+04  0.10997590720E+04 0.  0.
        5    1    3    3  502    0  0.25389446997E+03  0.47543765946E+03 -0.40747849109E+02  0.54054217885E+03  0.46999998093E+01 0.  1.
       -5    1    3    3    0  502 -0.25389446997E+03 -0.47543765946E+03  0.17859754028E+03  0.56782263190E+03  0.46999998093E+01 0. -1.
</event>
<event>
 5   0  0.2392585E-03  0.1104026E+04  0.7818609E-02  0.9201276E-01
        2   -1    0    0  501    0  0.00000000000E+00  0.00000000000E+00  0.25304783301E+04  0.25304783301E+04  0.25500000920E-02 0. -1.
       -2   -1    0    0    0  501  0.00000000000E+00  0.00000000000E+00 -0.12041931985E+03  0.12041931988E+03  0.25500000920E-02 0.  1.
    10030    2    1    2    0    0  0.00000000000E+00  0.00000000000E+00  0.24100590102E+04  0.26508976500E+04  0.11040262306E+04 0.  0.
        5    1    3    3  502    0  0.63469564868E+02 -0.11313888225E+03  0.24933086002E+04  0.24966855345E+04  0.46999998093E+01 0. -1.
       -5    1    3    3    0  502 -0.63469564868E+02  0.11313888225E+03 -0.83249589939E+02  0.15421211549E+03  0.46999998093E+01 0.  1.
</event>
<event>
 5   0  0.2483036E-03  0.1109216E+04  0.7818609E-02  0.9196256E-01
       -2   -1    0    0    0  501  0.00000000000E+00  0.00000000000E+00  0.31687336773E+03  0.31687336774E+03  0.25500000920E-02 0.  1.
        2   -1    0    0  501    0  0.00000000000E+00  0.00000000000E+00 -0.97070335015E+03  0.97070335015E+03  0.25500000920E-02 0. -1.
    10030    2    1    2    0    0  0.00000000000E+00  0.00000000000E+00 -0.65382998242E+03  0.12875767179E+04  0.11092160108E+04 0.  0.
        3    1    3    3  502    0 -0.45549781408E+03  0.19365803823E+02 -0.69350832388E+03  0.82994403334E+03  0.10100000352E+00 0. -1.
       -3    1    3    3    0  502  0.45549781408E+03 -0.19365803823E+02  0.39678341458E+02  0.45763268455E+03  0.10100000352E+00 0.  1.
</event>
<event>
 5   0  0.9631750E-04  0.9625367E+03  0.7818609E-02  0.9350616E-01
       -4   -1    0    0    0  501  0.00000000000E+00  0.00000000000E+00  0.25495128989E+03  0.25495445302E+03  0.12699999809E+01 0. -1.
        4   -1    0    0  501    0  0.00000000000E+00  0.00000000000E+00 -0.90847505586E+03  0.90847594356E+03  0.12699999809E+01 0.  1.
    10030    2    1    2    0    0  0.00000000000E+00  0.00000000000E+00 -0.65352376597E+03  0.11634303966E+04  0.96253673956E+03 0.  0.
        1    1    3    3  502    0  0.25575413333E+02 -0.31325104038E+03  0.11377854718E+03  0.33425420550E+03  0.50400001928E-02 0. -1.
       -1    1    3    3    0  502 -0.25575413333E+02  0.31325104038E+03 -0.76730231315E+03  0.82917619108E+03  0.50400001928E-02 0.  1.
</event>
<event>
 5   0  0.1468556E-03  0.1102612E+04  0.7818609E-02  0.9202650E-01
        1   -1    0    0  501    0  0.00000000000E+00  0.00000000000E+00  0.55347924175E+03  0.55347924177E+03  0.50400001928E-02 0.  1.
       -1   -1    0    0    0  501  0.00000000000E+00  0.00000000000E+00 -0.54914135672E+03  0.54914135675E+03  0.50400001928E-02 0. -1.
    10030    2    1    2    0    0  0.00000000000E+00  0.00000000000E+00  0.43378850226E+01  0.11026205985E+04  0.11026120655E+04 0.  0.
        5    1    3    3  502    0  0.53173776160E+03  0.65977443997E+02  0.13185487791E+03  0.55182050438E+03  0.46999998093E+01 0.  1.
       -5    1    3    3    0  502 -0.53173776160E+03 -0.65977443997E+02 -0.12751699288E+03  0.55080009414E+03  0.46999998093E+01 0. -1.
</event>
<event>
 5   0  0.2488472E-03  0.1157149E+04  0.7818609E-02  0.9151214E-01
       -2   -1    0    0    0  501  0.00000000000E+00  0.00000000000E+00  0.14354083841E+03  0.14354083843E+03  0.25500000920E-02 0.  1.
        2   -1    0    0  501    0  0.00000000000E+00  0.00000000000E+00 -0.23320781156E+04  0.23320781156E+04  0.25500000920E-02 0. -1.
    10030    2    1    2    0    0  0.00000000000E+00  0.00000000000E+00 -0.21885372772E+04  0.24756189541E+04  0.11571489930E+04 0.  0.
        2    1    3    3  502    0 -0.37532636982E+03  0.83951158490E+02 -0.16953061411E+03  0.42030739943E+03  0.25500000920E-02 0.  1.
       -2    1    3    3    0  502  0.37532636982E+03 -0.83951158490E+02 -0.20190066631E+04  0.20553115546E+04  0.25500000920E-02 0. -1.
</event>
<event>
 5   0  0.2467448E-03  0.1100269E+04  0.7818609E-02  0.9204930E-01
        2   -1    0    0  501    0  0.00000000000E+00  0.00000000000E+00  0.57946478443E+03  0.57946478443E+03  0.25500000920E-02 0. -1.
       -2   -1    0    0    0  501  0.00000000000E+00  0.00000000000E+00 -0.52228850673E+03  0.52228850674E+03  0.25500000920E-02 0.  1.
    10030    2    1    2    0    0  0.00000000000E+00  0.00000000000E+00  0.57176277696E+02  0.11017532912E+04  0.11002686889E+04 0.  0.
        1    1    3    3  502    0  0.10593438344E+03  0.16456631936E+03 -0.48624918840E+03  0.52415879303E+03  0.50400001928E-02 0.  1.
       -1    1    3    3    0  502 -0.10593438344E+03 -0.16456631936E+03  0.54342546610E+03  0.57759449815E+03  0.50400001928E-02 0. -1.
</event>
<event>
 5   0  0.1415400E-03  0.1102694E+04  0.7818609E-02  0.9202570E-01
       -1   -1    0    0    0  501  0.00000000000E+00  0.00000000000E+00  0.18242570499E+03  0.18242570506E+03  0.50400001928E-02 0.  1.
        1   -1    0    0  501    0  0.00000000000E+00  0.00000000000E+00 -0.16663409194E+04  0.16663409194E+04  0.50400001928E-02 0. -1.
    10030    2    1    2    0    0  0.00000000000E+00  0.00000000000E+00 -0.14839152144E+04  0.18487666245E+04  0.11026938234E+04 0.  0.
        2    1    3    3  502    0 -0.49269452527E+03  0.18893998499E+03 -0.10098829668E+04  0.11394339910E+04  0.25500000920E-02 0. -1.
       -2    1    3    3    0  502  0.49269452527E+03 -0.18893998499E+03 -0.47403224764E+03  0.70933263351E+03  0.25500000920E-02 0.  1.
</event>
<event>
 5   0  0.1509004E-03  0.1101262E+04  0.7818609E-02  0.9203963E-01
       -1   -1    0    0    0  501  0.00000000000E+00  0.00000000000E+00  0.32377135497E+03  0.32377135501E+03  0.50400001928E-02 0.  1.
        1   -1    0    0  501    0  0.00000000000E+00  0.00000000000E+00 -0.93644620151E+03  0.93644620152E+03  0.50400001928E-02 0. -1.
    10030    2    1    2    0    0  0.00000000000E+00  0.00000000000E+00 -0.61267484654E+03  0.12602175565E+04  0.11012619226E+04 0.  0.
        3    1    3    3  502    0 -0.33268484808E+03  0.43229257883E+03 -0.39226477709E+03  0.67188373057E+03  0.10100000352E+00 0. -1.
       -3    1    3    3    0  502  0.33268484808E+03 -0.43229257883E+03 -0.22041006945E+03  0.58833382596E+03  0.10100000352E+00 0.  1.
</event>
<event>
 5   0  0.2488472E-03  0.1088576E+04  0.7818609E-02  0.9216399E-01
        2   -1    0    0  501    0  0.00000000000E+00  0.00000000000E+00  0.13718381032E+04  0.13718381032E+04  0.25500000920E-02 0. -1.
       -2   -1    0    0    0  501  0.00000000000E+00  0.00000000000E+00 -0.21595061274E+03  0.21595061276E+03  0.25500000920E-02 0.  1.
    10030    2    1    2    0    0  0.00000000000E+00  0.00000000000E+00  0.11558874905E+04  0.15877887160E+04  0.10885757282E+04 0.  0.
        2    1    3    3  502    0 -0.31309131921E+03 -0.56904561501E+02 -0.66128580359E+02  0.32501891088E+03  0.25500000920E-02 0.  1.
       -2    1    3    3    0  502  0.31309131921E+03  0.56904561501E+02  0.12220160708E+04  0.12627698051E+04  0.25500000920E-02 0. -1.
</event>
<event>
 5   0  0.1480937E-03  0.1087135E+04  0.7818609E-02  0.9217823E-01
        1   -1    0    0  501    0  0.00000000000E+00  0.00000000000E+00  0.11885149182E+04  0.11885149182E+04  0.50400001928E-02 0.  1.
       -1   -1    0    0    0  501  0.00000000000E+00  0.00000000000E+00 -0.24860063794E+03  0.24860063799E+03  0.50400001928E-02 0. -1.
    10030    2    1    2    0    0  0.00000000000E+00  0.00000000000E+00  0.93991428029E+03  0.14371155562E+04  0.10871348894E+04 0.  0.
        1    1    3    3  502    0 -0.24630341823E+03  0.47128901516E+02  0.11074767704E+04  0.11355136741E+04  0.50400001928E-02 0.  1.
       -1    1    3    3    0  502  0.24630341823E+03 -0.47128901516E+02 -0.16756249007E+03  0.30160188211E+03  0.50400001928E-02 0. -1.
</event>
<event>
 5   0  0.1480937E-03  0.1093707E+04  0.7818609E-02  0.9211347E-01
        1   -1    0    0  501    0  0.00000000000E+00  0.00000000000E+00  0.16454259962E+04  0.16454259962E+04  0.50400001928E-02 0. -1.
       -1   -1    0    0    0  501  0.00000000000E+00  0.00000000000E+00 -0.18174565287E+03  0.18174565294E+03  0.50400001928E-02 0.  1.
    10030    2    1    2    0    0  0.00000000000E+00  0.00000000000E+00  0.14636803433E+04  0.18271716491E+04  0.10937074965E+04 0.  0.
        1    1    3    3  502    0 -0.76972199733E+02  0.46086412689E+03  0.12065101442E+04  0.12938265691E+04  0.50400001928E-02 0. -1.
       -1    1    3    3    0  502  0.76972199733E+02 -0.46086412689E+03  0.25717019910E+03  0.53334507996E+03  0.50400001928E-02 0.  1.
</event>
<event>
 5   0  0.1415400E-03  0.1106667E+04  0.7818609E-02  0.9198718E-01
       -1   -1    0    0    0  501  0.00000000000E+00  0.00000000000E+00  0.25865505560E+03  0.25865505565E+03  0.50400001928E-02 0.  1.
        1   -1    0    0  501    0  0.00000000000E+00  0.00000000000E+00 -0.11837306297E+04  0.11837306297E+04  0.50400001928E-02 0. -1.
    10030    2    1    2    0    0  0.00000000000E+00  0.00000000000E+00 -0.92507557405E+03  0.14423856853E+04  0.11066669090E+04 0.  0.
        2    1    3    3  502    0 -0.40840887438E+03 -0.22372396862E+03 -0.72992881539E+02  0.47135780843E+03  0.25500000920E-02 0.  1.
       -2    1    3    3    0  502  0.40840887438E+03  0.22372396862E+03 -0.85208269251E+03  0.97102787688E+03  0.25500000920E-02 0. -1.
</event>
<event>
 5   0  0.2438115E-03  0.1099772E+04  0.7818609E-02  0.9205414E-01
       -2   -1    0    0    0  501  0.00000000000E+00  0.00000000000E+00  0.38261303840E+03  0.38261303841E+03  0.25500000920E-02 0.  1.
        2   -1    0    0  501    0  0.00000000000E+00  0.00000000000E+00 -0.79028884150E+03  0.79028884150E+03  0.25500000920E-02 0. -1.
    10030    2    1    2    0    0  0.00000000000E+00  0.00000000000E+00 -0.40767580309E+03  0.11729018799E+04  0.10997723671E+04 0.  0.
        4    1    3    3  502    0 -0.46648514890E+03 -0.75254878070E+02  0.96113758012E+02  0.48219410842E+03  0.12699999809E+01 0. -1.
       -4    1    3    3    0  502  0.46648514890E+03  0.75254878070E+02 -0.50378956110E+03  0.69070777149E+03  0.12699999809E+01 0.  1.
</event>
<event>
 5   0  0.2392585E-03  0.1094728E+04  0.7818609E-02  0.9210345E-01
        2   -1    0    0  501    0  0.00000000000E+00  0.00000000000E+00  0.61443280142E+03  0.61443280143E+03  0.25500000920E-02 0.  1.
       -2   -1    0    0    0  501  0.00000000000E+00  0.00000000000E+00 -0.48761653619E+03  0.48761653620E+03  0.25500000920E-02 0. -1.
    10030    2    1    2    0    0  0.00000000000E+00  0.00000000000E+00  0.12681626523E+03  0.11020493376E+04  0.10947284492E+04 0.  0.
        5    1    3    3  502    0  0.40070106922E+03  0.35036397577E+03 -0.64995790453E+02  0.53624882765E+03  0.46999998093E+01 0. -1.
       -5    1    3    3    0  502 -0.40070106922E+03 -0.35036397577E+03  0.19181205568E+03  0.56580050998E+03  0.46999998093E+01 0.  1.
</event>
<event>
 5   0  0.2438115E-03  0.1120280E+04  0.7818609E-02  0.9185648E-01
        2   -1    0    0  501    0  0.00000000000E+00  0.00000000000E+00  0.19589110620E+04  0.19589110620E+04  0.25500000920E-02 0.  1.
       -2   -1    0    0    0  501  0.00000000000E+00  0.00000000000E+00 -0.16016889313E+03  0.16016889315E+03  0.25500000920E-02 0. -1.
    10030    2    1    2    0    0  0.00000000000E+00  0.00000000000E+00  0.17987421689E+04  0.21190799551E+04  0.11202796375E+04 0.  0.
        4    1    3    3  502    0 -0.49471974350E+03 -0.12810774589E+03  0.46556427000E+03  0.69131101652E+03  0.12699999809E+01 0. -1.
       -4    1    3    3    0  502  0.49471974350E+03  0.12810774589E+03  0.13331778989E+04  0.14277689386E+04  0.12699999809E+01 0.  1.
</event>
<event>
 5   0  0.2467448E-03  0.1095081E+04  0.7818609E-02  0.9210000E-01
        2   -1    0    0  501    0  0.00000000000E+00  0.00000000000E+00  0.87202029479E+03  0.87202029480E+03  0.25500000920E-02 0. -1.
       -2   -1    0    0    0  501  0.00000000000E+00  0.00000000000E+00 -0.34379974562E+03  0.34379974563E+03  0.25500000920E-02 0.  1.
    10030    2    1    2    0    0  0.00000000000E+00  0.00000000000E+00  0.52822054917E+03  0.12158200404E+04  0.10950805551E+04 0.  0.
        1    1    3    3  502    0 -0.49279594493E+03 -0.13235113241E+03  0.48458964074E+03  0.70369864681E+03  0.50400001928E-02 0. -1.
       -1    1    3    3    0  502  0.49279594493E+03  0.13235113241E+03  0.43630908437E+02  0.51212139361E+03  0.50400001928E-02 0.  1.
</event>
<event>
 5   0  0.2392585E-03  0.1089748E+04  0.7818609E-02  0.9215242E-01
        2   -1    0    0  501    0  0.00000000000E+00  0.00000000000E+00  0.13682009690E+04  0.13682009690E+04  0.25500000920E-02 0.  1.
       -2   -1    0    0    0  501  0.00000000000E+00  0.00000000000E+00 -0.21699126828E+03  0.21699126829E+03  0.25500000920E-02 0. -1.
    10030    2    1    2    0    0  0.00000000000E+00  0.00000000000E+00  0.11512097007E+04  0.15851922373E+04  0.10897479773E+04 0.  0.
        5    1    3    3  502    0 -0.27956355925E+03  0.44218103681E+03  0.35410870945E+03  0.63173959911E+03  0.46999998093E+01 0.  1.
       -5    1    3    3    0  502  0.27956355925E+03 -0.44218103681E+03  0.79710099124E+03  0.95345263816E+03  0.46999998093E+01 0. -1.
</event>
<event>
 5   0  0.2483036E-03  0.1099312E+04  0.7818609E-02  0.9205863E-01
        2   -1    0    0  501    0  0.00000000000E+00  0.00000000000E+00  0.13876511043E+04  0.13876511043E+04  0.25500000920E-02 0.  1.
       -2   -1    0    0    0  501  0.00000000000E+00  0.00000000000E+00 -0.21772165892E+03  0.21772165893E+03  0.25500000920E-02 0. -1.
    10030    2    1    2    0    0  0.00000000000E+00  0.00000000000E+00  0.11699294453E+04  0.16053727632E+04  0.10993119674E+04 0.  0.
        3    1    3    3  502    0 -0.93015226568E+02  0.14965754883E+03  0.13452868782E+04  0.13567778039E+04  0.10100000352E+00 0.  1.
       -3    1    3    3    0  502  0.93015226568E+02 -0.14965754883E+03 -0.17535743290E+03  0.24859495926E+03  0.10100000352E+00 0. -1.
</event>
<event>
 5   0  0.2438115E-03  0.1097076E+04  0.7818609E-02  0.9208047E-01
       -2   -1    0    0    0  501  0.00000000000E+00  0.00000000000E+00  0.46030420385E+03  0.46030420386E+03  0.25500000920E-02 0.  1.
        2   -1    0    0  501    0  0.00000000000E+00  0.00000000000E+00 -0.65368438886E+03  0.65368438887E+03  0.25500000920E-02 0. -1.
    10030    2    1    2    0    0  0.00000000000E+00  0.00000000000E+00 -0.19338018501E+03  0.11139885927E+04  0.10970755164E+04 0.  0.
        4    1    3    3  502    0  0.50461301120E+03  0.35306582513E+02 -0.31211929875E+03  0.59439121410E+03  0.12699999809E+01 0. -1.
       -4    1    3    3    0  502 -0.50461301120E+03 -0.35306582513E+02  0.11873911374E+03  0.51959737863E+03  0.12699999809E+01 0.  1.
</event>
<event>
 5   0  0.1509004E-03  0.1097094E+04  0.7818609E-02  0.9208028E-01
        1   -1    0    0  501    0  0.00000000000E+00  0.00000000000E+00  0.11614010942E+04  0.11614010942E+04  0.50400001928E-02 0.  1.
       -1   -1    0    0    0  501  0.00000000000E+00  0.00000000000E+00 -0.25908709104E+03  0.25908709109E+03  0.50400001928E-02 0. -1.
    10030    2    1    2    0    0  0.00000000000E+00  0.00000000000E+00  0.90231400319E+03  0.14204881853E+04  0.10970944008E+04 0.  0.
        3    1    3    3  502    0  0.10002902139E+03 -0.30371885954E+03 -0.12592996770E+03  0.34367036201E+03  0.10100000352E+00 0. -1.
       -3    1    3    3    0  502 -0.10002902139E+03  0.30371885954E+03  0.10282439709E+04  0.10768178233E+04  0.10100000352E+00 0.  1.
</event>
<event>
 5   0  0.1415400E-03  0.1108546E+04  0.7818609E-02  0.9196902E-01
       -1   -1    0    0    0  501  0.00000000000E+00  0.00000000000E+00  0.11327408023E+03  0.11327408034E+03  0.50400001928E-02 0. -1.
        1   -1    0    0  501    0  0.00000000000E+00  0.00000000000E+00 -0.27121713757E+04  0.27121713757E+04  0.50400001928E-02 0.  1.
    10030    2    1    2    0    0  0.00000000000E+00  0.00000000000E+00 -0.25988972954E+04  0.28254454560E+04  0.11085462880E+04 0.  0.
        2    1    3    3  502    0  0.24260664760E+03 -0.47565264953E+03 -0.16784837329E+04  0.17613662510E+04  0.25500000920E-02 0. -1.
       -2    1    3    3    0  502 -0.24260664760E+03  0.47565264953E+03 -0.92041356255E+03  0.10640792050E+04  0.25500000920E-02 0.  1.
</event>
<event>
 5   0  0.1509004E-03  0.1109171E+04  0.7818609E-02  0.9196299E-01
        1   -1    0    0  501    0  0.00000000000E+00  0.00000000000E+00  0.11450131072E+04  0.11450131072E+04  0.50400001928E-02 0. -1.
       -1   -1    0    0    0  501  0.00000000000E+00  0.00000000000E+00 -0.26861288065E+03  0.26861288070E+03  0.50400001928E-02 0.  1.
    10030    2    1    2    0    0  0.00000000000E+00  0.00000000000E+00  0.87640022650E+03  0.14136259879E+04  0.11091713468E+04 0.  0.
        3    1    3    3  502    0 -0.14989135551E+03  0.14923287741E+02 -0.24204143005E+03  0.28508627998E+03  0.10100000352E+00 0.  1.
       -3    1    3    3    0  502  0.14989135551E+03 -0.14923287741E+02  0.11184416565E+04  0.11285397079E+04  0.10100000352E+00 0. -1.
</event>
<event>
 5   0  0.2438115E-03  0.1142201E+04  0.7818609E-02  0.9165009E-01
       -2   -1    0    0    0  501  0.00000000000E+00  0.00000000000E+00  0.32300747508E+03  0.32300747509E+03  0.25500000920E-02 0.  1.
        2   -1    0    0  501    0  0.00000000000E+00  0.00000000000E+00 -0.10097470577E+04  0.10097470577E+04  0.25500000920E-02 0. -1.
    10030    2    1    2    0    0  0.00000000000E+00  0.00000000000E+00 -0.68673958263E+03  0.13327545328E+04  0.11422011164E+04 0.  0.
        4    1    3    3  502    0  0.42275498358E+03 -0.23045027123E+02 -0.79058908723E+03  0.89681969601E+03  0.12699999809E+01 0. -1.
       -4    1    3    3    0  502 -0.42275498358E+03  0.23045027123E+02  0.10384950460E+03  0.43593483678E+03  0.12699999809E+01 0.  1.
</event>
<event>
 5   0  0.1480937E-03  0.1172730E+04  0.7818609E-02  0.9137067E-01
       -1   -1    0    0    0  501  0.00000000000E+00  0.00000000000E+00  0.58204257544E+03  0.58204257546E+03  0.50400001928E-02 0.  1.
        1   -1    0    0  501    0  0.00000000000E+00  0.00000000000E+00 -0.59071917379E+03  0.59071917381E+03  0.50400001928E-02 0. -1.
    10030    2    1    2    0    0  0.00000000000E+00  0.00000000000E+00 -0.86765983564E+01  0.11727617493E+04  0.11727296522E+04 0.  0.
        1    1    3    3  502    0 -0.52219251841E+01 -0.18562765784E+03 -0.56053587788E+03  0.59049586474E+03  0.50400001928E-02 0. -1.
       -1    1    3    3    0  502  0.52219251841E+01  0.18562765784E+03  0.55185927953E+03  0.58226588453E+03  0.50400001928E-02 0.  1.
</event>
<event>
 5   0  0.1468556E-03  0.1097497E+04  0.7818609E-02  0.9207635E-01
       -1   -1    0    0    0  501  0.00000000000E+00  0.00000000000E+00  0.12195921217E+03  0.12195921227E+03  0.50400001928E-02 0. -1.
        1   -1    0    0  501    0  0.00000000000E+00  0.00000000000E+00 -0.24690634000E+04  0.24690634000E+04  0.50400001928E-02 0.  1.
    10030    2    1    2    0    0  0.00000000000E+00  0.00000000000E+00 -0.23471041879E+04  0.25910226123E+04  0.10974972022E+04 0.  0.
        5    1    3    3  502    0 -0.90529107382E+02  0.47712856059E+03 -0.57046895108E+03  0.74920230696E+03  0.46999998093E+01 0. -1.
       -5    1    3    3    0  502  0.90529107382E+02 -0.47712856059E+03 -0.17766352368E+04  0.18418203053E+04  0.46999998093E+01 0.  1.
</event>
<event>
 5   0  0.1480937E-03  0.1102493E+04  0.7818609E-02  0.9202765E-01
        1   -1    0    0  501    0  0.00000000000E+00  0.00000000000E+00  0.10132275255E+04  0.10132275255E+04  0.50400001928E-02 0. -1.
       -1   -1    0    0    0  501  0.00000000000E+00  0.00000000000E+00 -0.29990578944E+03  0.29990578949E+03  0.50400001928E-02 0.  1.
    10030    2    1    2    0    0  0.00000000000E+00  0.00000000000E+00  0.71332173603E+03  0.13131333150E+04  0.11024931763E+04 0.  0.
        1    1    3    3  502    0  0.30986319947E+03  0.43188832550E+02 -0.18391720713E+03  0.36291323584E+03  0.50400001928E-02 0.  1.
       -1    1    3    3    0  502 -0.30986319947E+03 -0.43188832550E+02  0.89723894317E+03  0.95022007914E+03  0.50400001928E-02 0. -1.
</event>
<event>
 5   0  0.1415400E-03  0.1084325E+04  0.7818609E-02  0.9220606E-01
       -1   -1    0    0    0  501  0.00000000000E+00  0.00000000000E+00  0.27325961675E+03  0.27325961680E+03  0.50400001928E-02 0. -1.
        1   -1    0    0  501    0  0.00000000000E+00  0.00000000000E+00 -0.10756814029E+04  0.10756814029E+04  0.50400001928E-02 0.  1.
    10030    2    1    2    0    0  0.00000000000E+00  0.00000000000E+00 -0.80242178616E+03  0.13489410197E+04  0.10843252057E+04 0.  0.
        2    1    3    3  502    0 -0.26617109307E+03 -0.46851396268E+03 -0.47572762683E+03  0.71879702208E+03  0.25500000920E-02 0.  1.
       -2    1    3    3    0  502  0.26617109307E+03  0.46851396268E+03 -0.32669415932E+03  0.63014399763E+03  0.25500000920E-02 0. -1.
</event>
<event>
 5   0  0.2392585E-03  0.1035674E+04  0.7818609E-02  0.9270261E-01
        2   -1    0    0  501    0  0.00000000000E+00  0.00000000000E+00  0.51304662090E+03  0.51304662091E+03  0.25500000920E-02 0.  1.
       -2   -1    0    0    0  501  0.00000000000E+00  0.00000000000E+00 -0.52267197409E+03  0.52267197410E+03  0.25500000920E-02 0. -1.
    10030    2    1    2    0    0  0.00000000000E+00  0.00000000000E+00 -0.96253531905E+01  0.10357185950E+04  0.10356738679E+04 0.  0.
        5    1    3    3  502    0 -0.23514893591E+03  0.97367525798E+02  0.44615861738E+03  0.51366823827E+03  0.46999998093E+01 0.  1.
       -5    1    3    3    0  502  0.23514893591E+03 -0.97367525798E+02 -0.45578397057E+03  0.52205035674E+03  0.46999998093E+01 0. -1.
</event>
<event>
 5   0  0.2438115E-03  0.1097187E+04  0.7818609E-02  0.9207938E-01
        2   -1    0    0  501    0  0.00000000000E+00  0.00000000000E+00  0.10868003353E+04  0.10868003353E+04  0.25500000920E-02 0. -1.
       -2   -1    0    0    0  501  0.00000000000E+00  0.00000000000E+00 -0.27691821803E+03  0.27691821804E+03  0.25500000920E-02 0.  1.
    10030    2    1    2    0    0  0.00000000000E+00  0.00000000000E+00  0.80988211725E+03  0.13637185533E+04  0.10971869708E+04 0.  0.
        4    1    3    3  502    0  0.16772673144E+03 -0.50917148342E+03  0.54970470128E+03  0.76783118423E+03  0.12699999809E+01 0. -1.
       -4    1    3    3    0  502 -0.16772673144E+03  0.50917148342E+03  0.26017741597E+03  0.59588736909E+03  0.12699999809E+01 0.  1.
</event>
<event>
 5   0  0.1509004E-03  0.1101099E+04  0.7818609E-02  0.9204122E-01
        1   -1    0    0  501    0  0.00000000000E+00  0.00000000000E+00  0.65890632029E+03  0.65890632031E+03  0.50400001928E-02 0.  1.
       -1   -1    0    0    0  501  0.00000000000E+00  0.00000000000E+00 -0.46001166804E+03  0.46001166807E+03  0.50400001928E-02 0. -1.
    10030    2    1    2    0    0  0.00000000000E+00  0.00000000000E+00  0.19889465225E+03  0.11189179884E+04  0.11010987158E+04 0.  0.
        3    1    3    3  502    0 -0.26359844247E+03 -0.48333539302E+03  0.10220121606E+03  0.55994851530E+03  0.10100000352E+00 0. -1.
       -3    1    3    3    0  502  0.26359844247E+03  0.48333539302E+03  0.96693436192E+02  0.55896947307E+03  0.10100000352E+00 0.  1.
</event>
<event>
 5   0  0.9631750E-04  0.1123053E+04  0.7818609E-02  0.9183009E-01
        4   -1    0    0  501    0  0.00000000000E+00  0.00000000000E+00  0.91350117692E+03  0.91350205973E+03  0.12699999809E+01 0.  1.
       -4   -1    0    0    0  501  0.00000000000E+00  0.00000000000E+00 -0.34516672488E+03  0.34516906128E+03  0.12699999809E+01 0. -1.
    10030    2    1    2    0    0  0.00000000000E+00  0.00000000000E+00  0.56833445205E+03  0.12586711210E+04  0.11230534010E+04 0.  0.
        5    1    3    3  502    0  0.21272431268E+03  0.46231492393E+03  0.18229922465E+02  0.50925547829E+03  0.46999998093E+01 0.  1.
       -5    1    3    3    0  502 -0.21272431268E+03 -0.46231492393E+03  0.55010452958E+03  0.74941564272E+03  0.46999998093E+01 0. -1.
</event>
<event>
 5   0  0.2438115E-03  0.1097504E+04  0.7818609E-02  0.9207628E-01
       -2   -1    0    0    0  501  0.00000000000E+00  0.00000000000E+00  0.34606213411E+03  0.34606213412E+03  0.25500000920E-02 0.  1.
        2   -1    0    0  501    0  0.00000000000E+00  0.00000000000E+00 -0.87015786249E+03  0.87015786249E+03  0.25500000920E-02 0. -1.
    10030    2    1    2    0    0  0.00000000000E+00  0.00000000000E+00 -0.52409572837E+03  0.12162199966E+04  0.10975038714E+04 0.  0.
        4    1    3    3  502    0 -0.95734931997E+02  0.23604211322E+03  0.27657939285E+03  0.37600376310E+03  0.12699999809E+01 0.  1.
       -4    1    3    3    0  502  0.95734931997E+02 -0.23604211322E+03 -0.80067512122E+03  0.84021623351E+03  0.12699999809E+01 0. -1.
</event>
<event>
 5   0  0.1480937E-03  0.1095726E+04  0.7818609E-02  0.9209368E-01
       -1   -1    0    0    0  501  0.00000000000E+00  0.00000000000E+00  0.57967564597E+03  0.57967564599E+03  0.50400001928E-02 0. -1.
        1   -1    0    0  501    0  0.00000000000E+00  0.00000000000E+00 -0.51779604706E+03  0.51779604709E+03  0.50400001928E-02 0.  1.
    10030    2    1    2    0    0  0.00000000000E+00  0.00000000000E+00  0.61879598901E+02  0.10974716931E+04  0.10957258016E+04 0.  0.
        1    1    3    3  502    0  0.43457478042E+03 -0.32772612340E+03 -0.31562405951E+02  0.54521173614E+03  0.50400001928E-02 0.  1.
       -1    1    3    3    0  502 -0.43457478042E+03  0.32772612340E+03  0.93442004852E+02  0.55225995693E+03  0.50400001928E-02 0. -1.
</event>
<event>
 5   0  0.2467448E-03  0.1101851E+04  0.7818609E-02  0.9203390E-01
        2   -1    0    0  501    0  0.00000000000E+00  0.00000000000E+00  0.96751392948E+03  0.96751392948E+03  0.25500000920E-02 0.  1.
       -2   -1    0    0    0  501  0.00000000000E+00  0.00000000000E+00 -0.31371010403E+03  0.31371010404E+03  0.25500000920E-02 0. -1.
    10030    2    1    2    0    0  0.00000000000E+00  0.00000000000E+00  0.65380382545E+03  0.12812240335E+04  0.11018509799E+04 0.  0.
        1    1    3    3  502    0 -0.12091688071E+03 -0.27329838670E+02  0.95108549707E+03  0.95913056196E+03  0.50400001928E-02 0.  1.
       -1    1    3    3    0  502  0.12091688071E+03  0.27329838670E+02 -0.29728167162E+03  0.32209347157E+03  0.50400001928E-02 0. -1.
</event>
<event>
 5   0  0.1479573E-03  0.1095463E+04  0.7818609E-02  0.9209625E-01
       -1   -1    0    0    0  501  0.00000000000E+00  0.00000000000E+00  0.51196067011E+03  0.51196067013E+03  0.50400001928E-02 0. -1.
        1   -1    0    0  501    0  0.00000000000E+00  0.00000000000E+00 -0.58600207084E+03  0.58600207087E+03  0.50400001928E-02 0.  1.
    10030    2    1    2    0    0  0.00000000000E+00  0.00000000000E+00 -0.74041400735E+02  0.10979627410E+04  0.10954633958E+04 0.  0.
        4    1    3    3  502    0 -0.15866454712E+03 -0.11803513184E+02  0.48828827813E+03  0.51355702400E+03  0.12699999809E+01 0. -1.
       -4    1    3    3    0  502  0.15866454712E+03  0.11803513184E+02 -0.56232967886E+03  0.58440571700E+03  0.12699999809E+01 0.  1.
</event>
<event>
 5   0  0.1480937E-03  0.1099642E+04  0.7818609E-02  0.9205541E-01
       -1   -1    0    0    0  501  0.00000000000E+00  0.00000000000E+00  0.22859927425E+03  0.22859927430E+03  0.50400001928E-02 0. -1.
        1   -1    0    0  501    0  0.00000000000E+00  0.00000000000E+00 -0.13224153549E+04  0.13224153550E+04  0.50400001928E-02 0.  1.
    10030    2    1    2    0    0  0.00000000000E+00  0.00000000000E+00 -0.10938160807E+04  0.15510146293E+04  0.10996421062E+04 0.  0.
        1    1    3    3  502    0  0.41357726324E+03 -0.32676921413E+03 -0.32622922400E+03  0.61987884186E+03  0.50400001928E-02 0. -1.
       -1    1    3    3    0  502 -0.41357726324E+03  0.32676921413E+03 -0.76758685669E+03  0.93113578739E+03  0.50400001928E-02 0.  1.
</event>
<event>
 5   0  0.2483036E-03  0.1096304E+04  0.7818609E-02  0.9208801E-01
        2   -1    0    0  501    0  0.00000000000E+00  0.00000000000E+00  0.10975367021E+04  0.10975367021E+04  0.25500000920E-02 0. -1.
       -2   -1    0    0    0  501  0.00000000000E+00  0.00000000000E+00 -0.27376836652E+03  0.27376836653E+03  0.25500000920E-02 0.  1.
    10030    2    1    2    0    0  0.00000000000E+00  0.00000000000E+00  0.82376833560E+03  0.13713050687E+04  0.10963043923E+04 0.  0.
        3    1    3    3  502    0 -0.24184528165E+03  0.18782310669E+03 -0.15680837834E+03  0.34402839619E+03  0.10100000352E+00 0.  1.
       -3    1    3    3    0  502  0.24184528165E+03 -0.18782310669E+03  0.98057671394E+03  0.10272766725E+04  0.10100000352E+00 0. -1.
</event>
<event>
 5   0  0.1468556E-03  0.1102747E+04  0.7818609E-02  0.9202519E-01
       -1   -1    0    0    0  501  0.00000000000E+00  0.00000000000E+00  0.23305365687E+03  0.23305365692E+03  0.50400001928E-02 0. -1.
        1   -1    0    0  501    0  0.00000000000E+00  0.00000000000E+00 -0.13044749306E+04  0.13044749306E+04  0.50400001928E-02 0.  1.
    10030    2    1    2    0    0  0.00000000000E+00  0.00000000000E+00 -0.10714212737E+04  0.15375285875E+04  0.11027468484E+04 0.  0.
        5    1    3    3  502    0 -0.46547056454E+03  0.17403526676E+03 -0.20271770917E+03  0.53671936815E+03  0.46999998093E+01 0. -1.
       -5    1    3    3    0  502  0.46547056454E+03 -0.17403526676E+03 -0.86870356458E+03  0.10008092194E+04  0.46999998093E+01 0.  1.
</event>
<event>
 5   0  0.2483036E-03  0.1093444E+04  0.7818609E-02  0.9211606E-01
        2   -1    0    0  501    0  0.00000000000E+00  0.00000000000E+00  0.85714142075E+03  0.85714142075E+03  0.25500000920E-02 0. -1.
       -2   -1    0    0    0  501  0.00000000000E+00  0.00000000000E+00 -0.34872277571E+03  0.34872277572E+03  0.25500000920E-02 0.  1.
    10030    2    1    2    0    0  0.00000000000E+00  0.00000000000E+00  0.50841864504E+03  0.12058641965E+04  0.10934436162E+04 0.  0.
        3    1    3    3  502    0 -0.51486393383E+03  0.15085737018E+03  0.13822025884E+03  0.55402857928E+03  0.10100000352E+00 0. -1.
       -3    1    3    3    0  502  0.51486393383E+03 -0.15085737018E+03  0.37019838620E+03  0.65183561719E+03  0.10100000352E+00 0.  1.
</event>
<event>
 5   0  0.2438115E-03  0.1102255E+04  0.7818609E-02  0.9202997E-01
       -2   -1    0    0    0  501  0.00000000000E+00  0.00000000000E+00  0.25269393680E+03  0.25269393682E+03  0.25500000920E-02 0. -1.
        2   -1    0    0  501    0  0.00000000000E+00  0.00000000000E+00 -0.12020139067E+04  0.12020139067E+04  0.25500000920E-02 0.  1.
    10030    2    1    2    0    0  0.00000000000E+00  0.00000000000E+00 -0.94931996989E+03  0.14547078435E+04  0.11022551904E+04 0.  0.
        4    1    3    3  502    0 -0.16273722503E+02 -0.40590009326E+03 -0.96620537505E+03  0.10481288849E+04  0.12699999809E+01 0.  1.
       -4    1    3    3    0  502  0.16273722503E+02  0.40590009326E+03  0.16885405158E+02  0.40657895858E+03  0.12699999809E+01 0. -1.
</event>
<event>
 5   0  0.2483036E-03  0.1089403E+04  0.7818609E-02  0.9215582E-01
       -2   -1    0    0    0  501  0.00000000000E+00  0.00000000000E+00  0.69856664764E+03  0.69856664764E+03  0.25500000920E-02 0.  1.
        2   -1    0    0  501    0  0.00000000000E+00  0.00000000000E+00 -0.42472677402E+03  0.42472677403E+03  0.25500000920E-02 0. -1.
    10030    2    1    2    0    0  0.00000000000E+00  0.00000000000E+00  0.27383987362E+03  0.11232934217E+04  0.10894034307E+04 0.  0.
        3    1    3    3  502    0  0.26711444100E+02  0.24868108396E+03 -0.36201756400E+03  0.44001421524E+03  0.10100000352E+00 0. -1.
       -3    1    3    3    0  502 -0.26711444100E+02 -0.24868108396E+03  0.63585743762E+03  0.68327920643E+03  0.10100000352E+00 0.  1.
</event>
<event>
 5   0  0.2467448E-03  0.1102761E+04  0.7818609E-02  0.9202505E-01
        2   -1    0    0  501    0  0.00000000000E+00  0.00000000000E+00  0.12175851992E+04  0.12175851992E+04  0.25500000920E-02 0. -1.
       -2   -1    0    0    0  501  0.00000000000E+00  0.00000000000E+00 -0.24969132642E+03  0.24969132644E+03  0.25500000920E-02 0.  1.
    10030    2    1    2    0    0  0.00000000000E+00  0.00000000000E+00  0.96789387274E+03  0.14672765256E+04  0.11027610139E+04 0.  0.
        1    1    3    3  502    0  0.19844710137E+03  0.49478452042E+03  0.29659230548E+03  0.61004915325E+03  0.50400001928E-02 0. -1.
       -1    1    3    3    0  502 -0.19844710137E+03 -0.49478452042E+03  0.67130156726E+03  0.85722737235E+03  0.50400001928E-02 0.  1.
</event>
<event>
 5   0  0.9631750E-04  0.1087817E+04  0.7818609E-02  0.9217148E-01
       -4   -1    0    0    0  501  0.00000000000E+00  0.00000000000E+00  0.47445677279E+03  0.47445847252E+03  0.12699999809E+01 0. -1.
        4   -1    0    0  501    0  0.00000000000E+00  0.00000000000E+00 -0.62352364903E+03  0.62352494241E+03  0.12699999809E+01 0.  1.
    10030    2    1    2    0    0  0.00000000000E+00  0.00000000000E+00 -0.14906687625E+03  0.10979834149E+04  0.10878173771E+04 0.  0.
        5    1    3    3  502    0  0.13021694730E+03 -0.28197927289E+03  0.37612067737E+03  0.48780899709E+03  0.46999998093E+01 0. -1.
       -5    1    3    3    0  502 -0.13021694730E+03  0.28197927289E+03 -0.52518755362E+03  0.61017441783E+03  0.46999998093E+01 0.  1.
</event>
<event>
 5   0  0.1479573E-03  0.1091999E+04  0.7818609E-02  0.9213025E-01
        1   -1    0    0  501    0  0.00000000000E+00  0.00000000000E+00  0.81476446991E+03  0.81476446992E+03  0.50400001928E-02 0. -1.
       -1   -1    0    0    0  501  0.00000000000E+00  0.00000000000E+00 -0.36589162694E+03  0.36589162697E+03  0.50400001928E-02 0.  1.
    10030    2    1    2    0    0  0.00000000000E+00  0.00000000000E+00  0.44887284297E+03  0.11806560969E+04  0.10919990797E+04 0.  0.
        4    1    3    3  502    0  0.11029773479E+03  0.44276780654E+03 -0.99748623907E+02  0.46707635529E+03  0.12699999809E+01 0. -1.
       -4    1    3    3    0  502 -0.11029773479E+03 -0.44276780654E+03  0.54862146688E+03  0.71357974160E+03  0.12699999809E+01 0.  1.
</event>
<event>
 5   0  0.2392585E-03  0.1103901E+04  0.7818609E-02  0.9201398E-01
        2   -1    0    0  501    0  0.00000000000E+00  0.00000000000E+00  0.92312490198E+03  0.92312490198E+03  0.25500000920E-02 0.  1.
       -2   -1    0    0    0  501  0.00000000000E+00  0.00000000000E+00 -0.33001981776E+03  0.33001981777E+03  0.25500000920E-02 0. -1.
    10030    2    1    2    0    0  0.00000000000E+00  0.00000000000E+00  0.59310508422E+03  0.12531447197E+04  0.11039012853E+04 0.  0.
        5    1    3    3  502    0 -0.44229671280E+02 -0.52672239389E+03  0.47688332668E+03  0.71192172414E+03  0.46999998093E+01 0.  1.
       -5    1    3    3    0  502  0.44229671280E+02  0.52672239389E+03  0.11622175754E+03  0.54122299560E+03  0.46999998093E+01 0. -1.
</event>
<event>
 5   0  0.1480937E-03  0.1097704E+04  0.7818609E-02  0.9207433E-01
       -1   -1    0    0    0  501  0.00000000000E+00  0.00000000000E+00  0.41730632518E+03  0.41730632521E+03  0.50400001928E-02 0.  1.
        1   -1    0    0  501    0  0.00000000000E+00  0.00000000000E+00 -0.72186375677E+03  0.72186375679E+03  0.50400001928E-02 0. -1.
    10030    2    1    2    0    0  0.00000000000E+00  0.00000000000E+00 -0.30455743159E+03  0.11391700820E+04  0.10977036242E+04 0.  0.
        1    1    3    3  502    0  0.47278954982E+03 -0.27549073459E+03 -0.19646905430E+03  0.58139934003E+03  0.50400001928E-02 0.  1.
       -1    1    3    3    0  502 -0.47278954982E+03  0.27549073459E+03 -0.10808837729E+03  0.55777074197E+03  0.50400001928E-02 0. -1.
</event>
<event>
 5   0  0.1479573E-03  0.1113780E+04  0.7818609E-02  0.9191864E-01
       -1   -1    0    0    0  501  0.00000000000E+00  0.00000000000E+00  0.11718276073E+04  0.11718276073E+04  0.50400001928E-02 0. -1.
        1   -1    0    0  501    0  0.00000000000E+00  0.00000000000E+00 -0.26465198806E+03  0.26465198811E+03  0.50400001928E-02 0.  1.
    10030    2    1    2    0    0  0.00000000000E+00  0.00000000000E+00  0.90717561926E+03  0.14364795954E+04  0.11137800608E+04 0.  0.
        4    1    3    3  502    0 -0.19004956146E+03  0.43432506251E+03  0.83041918949E+03  0.95621898063E+03  0.12699999809E+01 0. -1.
       -4    1    3    3    0  502  0.19004956146E+03 -0.43432506251E+03  0.76756429768E+02  0.48026061482E+03  0.12699999809E+01 0.  1.
</event>
<event>
 5   0  0.1468556E-03  0.1089818E+04  0.7818609E-02  0.9215174E-01
        1   -1    0    0  501    0  0.00000000000E+00  0.00000000000E+00  0.16327108488E+04  0.16327108488E+04  0.50400001928E-02 0. -1.
       -1   -1    0    0    0  501  0.00000000000E+00  0.00000000000E+00 -0.18186047825E+03  0.18186047832E+03  0.50400001928E-02 0.  1.
    10030    2    1    2    0    0  0.00000000000E+00  0.00000000000E+00  0.14508503706E+04  0.18145713271E+04  0.10898175551E+04 0.  0.
        5    1    3    3  502    0  0.54659476204E+02 -0.54185055931E+03  0.75492001996E+03  0.93086841900E+03  0.46999998093E+01 0.  1.
       -5    1    3    3    0  502 -0.54659476204E+02  0.54185055931E+03  0.69593035060E+03  0.88370290813E+03  0.46999998093E+01 0. -1.
</event>
<event>
 5   0  0.2438115E-03  0.1014504E+04  0.7818609E-02  0.9292779E-01
        2   -1    0    0  501    0  0.00000000000E+00  0.00000000000E+00  0.96819856582E+03  0.96819856582E+03  0.25500000920E-02 0. -1.
       -2   -1    0    0    0  501  0.00000000000E+00  0.00000000000E+00 -0.26575602926E+03  0.26575602927E+03  0.25500000920E-02 0.  1.
    10030    2    1    2    0    0  0.00000000000E+00  0.00000000000E+00  0.70244253656E+03  0.12339545951E+04  0.10145040294E+04 0.  0.
        4    1    3    3  502    0 -0.41902337653E+03 -0.50982856659E+02  0.69335602265E+03  0.81174135585E+03  0.12699999809E+01 0. -1.
       -4    1    3    3    0  502  0.41902337653E+03  0.50982856659E+02  0.90865139122E+01  0.42221323924E+03  0.12699999809E+01 0.  1.
</event>
<event>
 5   0  0.1480937E-03  0.1099528E+04  0.7818609E-02  0.9205652E-01
        1   -1    0    0  501    0  0.00000000000E+00  0.00000000000E+00  0.19264158320E+04  0.19264158320E+04  0.50400001928E-02 0.  1.
       -1   -1    0    0    0  501  0.00000000000E+00  0.00000000000E+00 -0.15689256824E+03  0.15689256832E+03  0.50400001928E-02 0. -1.
    10030    2    1    2    0    0  0.00000000000E+00  0.00000000000E+00  0.17695232637E+04  0.20833084003E+04  0.10995277667E+04 0.  0.
        1    1    3    3  502    0  0.18444317568E+03 -0.91492434678E+02  0.18506098259E+04  0.18620276256E+04  0.50400001928E-02 0.  1.
       -1    1    3    3    0  502 -0.18444317568E+03  0.91492434678E+02 -0.81086562187E+02  0.22128077470E+03  0.50400001928E-02 0. -1.
</event>
<event>
 5   0  0.2488472E-03  0.1100161E+04  0.7818609E-02  0.9205035E-01
       -2   -1    0    0    0  501  0.00000000000E+00  0.00000000000E+00  0.30882205431E+03  0.30882205432E+03  0.25500000920E-02 0. -1.
        2   -1    0    0  501    0  0.00000000000E+00  0.00000000000E+00 -0.97981585201E+03  0.97981585202E+03  0.25500000920E-02 0.  1.
    10030    2    1    2    0    0  0.00000000000E+00  0.00000000000E+00 -0.67099379770E+03  0.12886379063E+04  0.11001613414E+04 0.  0.
        2    1    3    3  502    0  0.26340752933E+02 -0.77536340997E+02  0.30164262565E+03  0.31256038305E+03  0.25500000920E-02 0. -1.
       -2    1    3    3    0  502 -0.26340752933E+02  0.77536340997E+02 -0.97263642335E+03  0.97607752329E+03  0.25500000920E-02 0.  1.
</event>
<event>
 5   0  0.2392585E-03  0.1102049E+04  0.7818609E-02  0.9203197E-01
       -2   -1    0    0    0  501  0.00000000000E+00  0.00000000000E+00  0.24239947123E+03  0.24239947124E+03  0.25500000920E-02 0. -1.
        2   -1    0    0  501    0  0.00000000000E+00  0.00000000000E+00 -0.12525934130E+04  0.12525934130E+04  0.25500000920E-02 0.  1.
    10030    2    1    2    0    0  0.00000000000E+00  0.00000000000E+00 -0.10101939417E+04  0.14949928842E+04  0.11020489662E+04 0.  0.
        5    1    3    3  502    0  0.26409355840E+03 -0.25592368044E+03 -0.10617214162E+04  0.11236177256E+04  0.46999998093E+01 0.  1.
       -5    1    3    3    0  502 -0.26409355840E+03  0.25592368044E+03  0.51527474417E+02  0.37137515859E+03  0.46999998093E+01 0. -1.
</event>
<event>
 5   0  0.1509004E-03  0.1097996E+04  0.7818609E-02  0.9207147E-01
       -1   -1    0    0    0  501  0.00000000000E+00  0.00000000000E+00  0.37946577917E+03  0.37946577920E+03  0.50400001928E-02 0.  1.
        1   -1    0    0  501    0  0.00000000000E+00  0.00000000000E+00 -0.79427113149E+03  0.79427113150E+03  0.50400001928E-02 0. -1.
    10030    2    1    2    0    0  0.00000000000E+00  0.00000000000E+00 -0.41480535232E+03  0.11737369107E+04  0.10979958357E+04 0.  0.
        3    1    3    3  502    0  0.54894780102E+02 -0.37586849431E+03 -0.63111336017E+03  0.73661023987E+03  0.10100000352E+00 0. -1.
       -3    1    3    3    0  502 -0.54894780102E+02  0.37586849431E+03  0.21630800785E+03  0.43712667084E+03  0.10100000352E+00 0.  1.
</event>
<event>
 5   0  0.9631750E-04  0.1095904E+04  0.7818609E-02  0.9209193E-01
       -3   -1    0    0    0  501  0.00000000000E+00  0.00000000000E+00  0.59015167784E+03  0.59015168648E+03  0.10100000352E+00 0.  1.
        3   -1    0    0  501    0  0.00000000000E+00  0.00000000000E+00 -0.50877000153E+03  0.50877001155E+03  0.10100000352E+00 0. -1.
    10030    2    1    2    0    0  0.00000000000E+00  0.00000000000E+00  0.81381676310E+02  0.10989216980E+04  0.10959041569E+04 0.  0.
        3    1    3    3  502    0 -0.37323183457E+03  0.37887235929E+03  0.17298288081E+03  0.55925786023E+03  0.10100000352E+00 0.  1.
       -3    1    3    3    0  502  0.37323183457E+03 -0.37887235929E+03 -0.91601204496E+02  0.53966383781E+03  0.10100000352E+00 0. -1.
</event>
<event>
 5   0  0.1468556E-03  0.1238032E+04  0.7818609E-02  0.9080204E-01
       -1   -1    0    0    0  501  0.00000000000E+00  0.00000000000E+00  0.63907625021E+03  0.63907625022E+03  0.50400001928E-02 0. -1.
        1   -1    0    0  501    0  0.00000000000E+00  0.00000000000E+00 -0.59958531614E+03  0.59958531616E+03  0.50400001928E-02 0.  1.
    10030    2    1    2    0    0  0.00000000000E+00  0.00000000000E+00  0.39490934068E+02  0.12386615664E+04  0.12380318825E+04 0.  0.
        5    1    3    3  502    0  0.45224758059E+03  0.42264617198E+03  0.20738292796E+02  0.61936243640E+03  0.46999998093E+01 0. -1.
       -5    1    3    3    0  502 -0.45224758059E+03 -0.42264617198E+03  0.18752641272E+02  0.61929912998E+03  0.46999998093E+01 0.  1.
</event>
<event>
 5   0  0.2488472E-03  0.1105024E+04  0.7818609E-02  0.9200309E-01
       -2   -1    0    0    0  501  0.00000000000E+00  0.00000000000E+00  0.20737360359E+03  0.20737360361E+03  0.25500000920E-02 0.  1.
        2   -1    0    0  501    0  0.00000000000E+00  0.00000000000E+00 -0.14720759219E+04  0.14720759219E+04  0.25500000920E-02 0. -1.
    10030    2    1    2    0    0  0.00000000000E+00  0.00000000000E+00 -0.12647023183E+04  0.16794495255E+04  0.11050243232E+04 0.  0.
        2    1    3    3  502    0  0.15514920000E+03  0.55277338051E+00  0.17358625257E+03  0.23281702452E+03  0.25500000920E-02 0.  1.
       -2    1    3    3    0  502 -0.15514920000E+03 -0.55277338051E+00 -0.14382885709E+04  0.14466325010E+04  0.25500000920E-02 0. -1.
</event>
<event>
 5   0  0.1479573E-03  0.1102805E+04  0.7818609E-02  0.9202462E-01
       -1   -1    0    0    0  501  0.00000000000E+00  0.00000000000E+00  0.53650918760E+03  0.53650918762E+03  0.50400001928E-02 0.  1.
        1   -1    0    0  501    0  0.00000000000E+00  0.00000000000E+00 -0.56670906075E+03  0.56670906077E+03  0.50400001928E-02 0. -1.
    10030    2    1    2    0    0  0.00000000000E+00  0.00000000000E+00 -0.30199873149E+02  0.11032182484E+04  0.11028048201E+04 0.  0.
        4    1    3    3  502    0 -0.54373583857E+03 -0.87095937599E+02  0.13347327563E+02  0.55083039907E+03  0.12699999809E+01 0.  1.
       -4    1    3    3    0  502  0.54373583857E+03  0.87095937599E+02 -0.43547200713E+02  0.55238784932E+03  0.12699999809E+01 0. -1.
</event>
<event>
 5   0  0.2483036E-03  0.1096054E+04  0.7818609E-02  0.9209047E-01
       -2   -1    0    0    0  501  0.00000000000E+00  0.00000000000E+00  0.25136926461E+03  0.25136926462E+03  0.25500000920E-02 0. -1.
        2   -1    0    0  501    0  0.00000000000E+00  0.00000000000E+00 -0.11947896753E+04  0.11947896753E+04  0.25500000920E-02 0.  1.
    10030    2    1    2    0    0  0.00000000000E+00  0.00000000000E+00 -0.94342041067E+03  0.14461589399E+04  0.10960536521E+04 0.  0.
        3    1    3    3  502    0 -0.58660735446E+02  0.34082256301E+03 -0.10326317089E+04  0.10890038373E+04  0.10100000352E+00 0.  1.
       -3    1    3    3    0  502  0.58660735446E+02 -0.34082256301E+03  0.89211298230E+02  0.35715510255E+03  0.10100000352E+00 0. -1.
</event>
<event>
 5   0  0.2392585E-03  0.1096219E+04  0.7818609E-02  0.9208885E-01
       -2   -1    0    0    0  501  0.00000000000E+00  0.00000000000E+00  0.24954928813E+03  0.24954928814E+03  0.25500000920E-02 0. -1.
        2   -1    0    0  501    0  0.00000000000E+00  0.00000000000E+00 -0.12038666012E+04  0.12038666012E+04  0.25500000920E-02 0.  1.
    10030    2    1    2    0    0  0.00000000000E+00  0.00000000000E+00 -0.95431731311E+03  0.14534158894E+04  0.10962190536E+04 0.  0.
        5    1    3    3  502    0  0.22111778239E+03  0.10412866737E+02 -0.11419350562E+04  0.11632021595E+04  0.46999998093E+01 0.  1.
       -5    1    3    3    0  502 -0.22111778239E+03 -0.10412866737E+02  0.18761774305E+03  0.29021372984E+03  0.46999998093E+01 0. -1.
</event>
<event>
 5   0  0.2467448E-03  0.1100957E+04  0.7818609E-02  0.9204259E-01
        2   -1    0    0  501    0  0.00000000000E+00  0.00000000000E+00  0.45183640527E+03  0.45183640528E+03  0.25500000920E-02 0.  1.
       -2   -1    0    0    0  501  0.00000000000E+00  0.00000000000E+00 -0.67065590794E+03  0.67065590794E+03  0.25500000920E-02 0. -1.
    10030    2    1    2    0    0  0.00000000000E+00  0.00000000000E+00 -0.21881950267E+03  0.11224923132E+04  0.11009573191E+04 0.  0.
        1    1    3    3  502    0 -0.53416271963E+03 -0.13236074464E+03 -0.12299620282E+03  0.56389470976E+03  0.50400001928E-02 0.  1.
       -1    1    3    3    0  502  0.53416271963E+03  0.13236074464E+03 -0.95823299845E+02  0.55859760345E+03  0.50400001928E-02 0. -1.
</event>
<event>
 5   0  0.1479573E-03  0.1108979E+04  0.7818609E-02  0.9196484E-01
        1   -1    0    0  501    0  0.00000000000E+00  0.00000000000E+00  0.67935089812E+03  0.67935089814E+03  0.50400001928E-02 0.  1.
       -1   -1    0    0    0  501  0.00000000000E+00  0.00000000000E+00 -0.45257707539E+03  0.45257707542E+03  0.50400001928E-02 0. -1.
    10030    2    1    2    0    0  0.00000000000E+00  0.00000000000E+00  0.22677382273E+03  0.11319279736E+04  0.11089790668E+04 0.  0.
        4    1    3    3  502    0  0.36434648324E+03  0.38901642657E+03 -0.42665408834E+02  0.53470000000E+03  0.12699999809E+01 0. -1.
       -4    1    3    3    0  502 -0.36434648324E+03 -0.38901642657E+03  0.26943923156E+03  0.59722797355E+03  0.12699999809E+01 0.  1.
</event>
<event>
 5   0  0.2467448E-03  0.1100247E+04  0.7818609E-02  0.9204951E-01
        2   -1    0    0  501    0  0.00000000000E+00  0.00000000000E+00  0.81280137025E+03  0.81280137025E+03  0.25500000920E-02 0.  1.
       -2   -1    0    0    0  501  0.00000000000E+00  0.00000000000E+00 -0.37233712657E+03  0.37233712657E+03  0.25500000920E-02 0. -1.
    10030    2    1    2    0    0  0.00000000000E+00  0.00000000000E+00  0.44046424368E+03  0.11851384968E+04  0.11002474752E+04 0.  0.
        1    1    3    3  502    0  0.20226402778E+03 -0.51742776911E+02 -0.32800559398E+03  0.38881322200E+03  0.50400001928E-02 0. -1.
       -1    1    3    3    0  502 -0.20226402778E+03  0.51742776911E+02  0.76846983767E+03  0.79632527482E+03  0.50400001928E-02 0.  1.
</event>
<event>
 5   0  0.1479573E-03  0.1094209E+04  0.7818609E-02  0.9210855E-01
       -1   -1    0    0    0  501  0.00000000000E+00  0.00000000000E+00  0.60722628340E+03  0.60722628342E+03  0.50400001928E-02 0. -1.
        1   -1    0    0  501    0  0.00000000000E+00  0.00000000000E+00 -0.49293525044E+03  0.49293525046E+03  0.50400001928E-02 0.  1.
    10030    2    1    2    0    0  0.00000000000E+00  0.00000000000E+00  0.11429103296E+03  0.11001615339E+04  0.10942088285E+04 0.  0.
        4    1    3    3  502    0 -0.16592713035E+03 -0.23849977907E+03 -0.40895780685E+03  0.50165930459E+03  0.12699999809E+01 0.  1.
       -4    1    3    3    0  502  0.16592713035E+03  0.23849977907E+03  0.52324883981E+03  0.59850222929E+03  0.12699999809E+01 0. -1.
</event>
<event>
 5   0  0.2438115E-03  0.1103558E+04  0.7818609E-02  0.9201731E-01
       -2   -1    0    0    0  501  0.00000000000E+00  0.00000000000E+00  0.60143005827E+03  0.60143005827E+03  0.25500000920E-02 0.  1.
        2   -1    0    0  501    0  0.00000000000E+00  0.00000000000E+00 -0.50622700065E+03  0.50622700065E+03  0.25500000920E-02 0. -1.
    10030    2    1    2    0    0  0.00000000000E+00  0.00000000000E+00  0.95203057621E+02  0.11076570589E+04  0.11035581262E+04 0.  0.
        4    1    3    3  502    0  0.44743505379E+03  0.20836611052E+03 -0.19998033966E+03  0.53254888275E+03  0.12699999809E+01 0.  1.
       -4    1    3    3    0  502 -0.44743505379E+03 -0.20836611052E+03  0.29518339728E+03  0.57510817617E+03  0.12699999809E+01 0. -1.
</event>
<event>
 5   0  0.1480937E-03  0.1100461E+04  0.7818609E-02  0.9204742E-01
       -1   -1    0    0    0  501  0.00000000000E+00  0.00000000000E+00  0.20852600697E+03  0.20852600703E+03  0.50400001928E-02 0.  1.
        1   -1    0    0  501    0  0.00000000000E+00  0.00000000000E+00 -0.14518757267E+04  0.14518757267E+04  0.50400001928E-02 0. -1.
    10030    2    1    2    0    0  0.00000000000E+00  0.00000000000E+00 -0.12433497197E+04  0.16604017337E+04  0.11004614450E+04 0.  0.
        1    1    3    3  502    0 -0.31107287535E+03 -0.42950490543E+03 -0.40037081909E+03  0.66448294964E+03  0.50400001928E-02 0.  1.
       -1    1    3    3    0  502  0.31107287535E+03  0.42950490543E+03 -0.84297890064E+03  0.99591878409E+03  0.50400001928E-02 0. -1.
</event>
<event>
 5   0  0.2392585E-03  0.1101070E+04  0.7818609E-02  0.9204149E-01
       -2   -1    0    0    0  501  0.00000000000E+00  0.00000000000E+00  0.37621209784E+03  0.37621209785E+03  0.25500000920E-02 0.  1.
        2   -1    0    0  501    0  0.00000000000E+00  0.00000000000E+00 -0.80563297702E+03  0.80563297703E+03  0.25500000920E-02 0. -1.
    10030    2    1    2    0    0  0.00000000000E+00  0.00000000000E+00 -0.42942087918E+03  0.11818450749E+04  0.11010701565E+04 0.  0.
        5    1    3    3  502    0  0.48671230311E+03 -0.23521060597E+03 -0.32653526029E+03  0.63155384677E+03  0.46999998093E+01 0.  1.
       -5    1    3    3    0  502 -0.48671230311E+03  0.23521060597E+03 -0.10288561888E+03  0.55029122811E+03  0.46999998093E+01 0. -1.
</event>
<event>
 5   0  0.2392585E-03  0.1101974E+04  0.7818609E-02  0.9203270E-01
       -2   -1    0    0    0  501  0.00000000000E+00  0.00000000000E+00  0.32498403328E+03  0.32498403329E+03  0.25500000920E-02 0.  1.
        2   -1    0    0  501    0  0.00000000000E+00  0.00000000000E+00 -0.93415857292E+03  0.93415857292E+03  0.25500000920E-02 0. -1.
    10030    2    1    2    0    0  0.00000000000E+00  0.00000000000E+00 -0.60917453964E+03  0.12591426062E+04  0.11019739031E+04 0.  0.
        5    1    3    3  502    0  0.81398103648E+02 -0.30701971873E+03 -0.81899403373E+03  0.87844184568E+03  0.46999998093E+01 0. -1.
       -5    1    3    3    0  502 -0.81398103648E+02  0.30701971873E+03  0.20981949409E+03  0.38070076053E+03  0.46999998093E+01 0.  1.
</event>
<event>
 5   0  0.2488472E-03  0.1105738E+04  0.7818609E-02  0.9199617E-01
        2   -1    0    0  501    0  0.00000000000E+00  0.00000000000E+00  0.10063334162E+04  0.10063334162E+04  0.25500000920E-02 0.  1.
       -2   -1    0    0    0  501  0.00000000000E+00  0.00000000000E+00 -0.30374068076E+03  0.30374068077E+03  0.25500000920E-02 0. -1.
    10030    2    1    2    0    0  0.00000000000E+00  0.00000000000E+00  0.70259273544E+03  0.13100740970E+04  0.11057384807E+04 0.  0.
        2    1    3    3  502    0 -0.20047489952E+03  0.14379225990E+03  0.93749846321E+03  0.96941723106E+03  0.25500000920E-02 0.  1.
       -2    1    3    3    0  502  0.20047489952E+03 -0.14379225990E+03 -0.23490572777E+03  0.34065686591E+03  0.25500000920E-02 0. -1.
</event>
<event>
 5   0  0.2488472E-03  0.1107523E+04  0.7818609E-02  0.9197890E-01
        2   -1    0    0  501    0  0.00000000000E+00  0.00000000000E+00  0.44457293126E+03  0.44457293127E+03  0.25500000920E-02 0. -1.
       -2   -1    0    0    0  501  0.00000000000E+00  0.00000000000E+00 -0.68976730979E+03  0.68976730980E+03  0.25500000920E-02 0.  1.
    10030    2    1    2    0    0  0.00000000000E+00  0.00000000000E+00 -0.24519437853E+03  0.11343402411E+04  0.11075231371E+04 0.  0.
        2    1    3    3  502    0  0.19991722229E+03 -0.79498295753E+02 -0.64521214382E+03  0.68013644612E+03  0.25500000920E-02 0.  1.
       -2    1    3    3    0  502 -0.19991722229E+03  0.79498295753E+02  0.40001776529E+03  0.45420379495E+03  0.25500000920E-02 0. -1.
</event>
<event>
 5   0  0.2467448E-03  0.1099245E+04  0.7818609E-02  0.9205928E-01
        2   -1    0    0  501    0  0.00000000000E+00  0.00000000000E+00  0.51904276688E+03  0.51904276689E+03  0.25500000920E-02 0. -1.
       -2   -1    0    0    0  501  0.00000000000E+00  0.00000000000E+00 -0.58200395462E+03  0.58200395463E+03  0.25500000920E-02 0.  1.
    10030    2    1    2    0    0  0.00000000000E+00  0.00000000000E+00 -0.62961187744E+02  0.11010467215E+04  0.10992450918E+04 0.  0.
        1    1    3    3  502    0  0.32335864194E+03  0.29658536060E+03 -0.36302347950E+03  0.56948198754E+03  0.50400001928E-02 0.  1.
       -1    1    3    3    0  502 -0.32335864194E+03 -0.29658536060E+03  0.30006229176E+03  0.53156473397E+03  0.50400001928E-02 0. -1.
</event>
<event>
 5   0  0.1509004E-03  0.1101807E+04  0.7818609E-02  0.9203432E-01
        1   -1    0    0  501    0  0.00000000000E+00  0.00000000000E+00  0.50118438196E+03  0.50118438199E+03  0.50400001928E-02 0. -1.
       -1   -1    0    0    0  501  0.00000000000E+00  0.00000000000E+00 -0.60555491728E+03  0.60555491730E+03  0.50400001928E-02 0.  1.
    10030    2    1    2    0    0  0.00000000000E+00  0.00000000000E+00 -0.10437053531E+03  0.11067392993E+04  0.11018070012E+04 0.  0.
        3    1    3    3  502    0  0.37397111059E+03 -0.19515980217E+03 -0.40810593519E+03  0.58693458280E+03  0.10100000352E+00 0.  1.
       -3    1    3    3    0  502 -0.37397111059E+03  0.19515980217E+03  0.30373539987E+03  0.51980471649E+03  0.10100000352E+00 0. -1.
</event>
<event>
 5   0  0.1509004E-03  0.1093516E+04  0.7818609E-02  0.9211534E-01
        1   -1    0    0  501    0  0.00000000000E+00  0.00000000000E+00  0.51037893919E+03  0.51037893922E+03  0.50400001928E-02 0. -1.
       -1   -1    0    0    0  501  0.00000000000E+00  0.00000000000E+00 -0.58573053069E+03  0.58573053071E+03  0.50400001928E-02 0.  1.
    10030    2    1    2    0    0  0.00000000000E+00  0.00000000000E+00 -0.75351591496E+02  0.10961094699E+04  0.10935163957E+04 0.  0.
        3    1    3    3  502    0 -0.13068841538E+03  0.47513380872E+02  0.49235739379E+03  0.51161782289E+03  0.10100000352E+00 0. -1.
       -3    1    3    3    0  502  0.13068841538E+03 -0.47513380872E+02 -0.56770898529E+03  0.58449164704E+03  0.10100000352E+00 0.  1.
</event>
<event>
 5   0  0.9631750E-04  0.1078166E+04  0.7818609E-02  0.9226738E-01
        3   -1    0    0  501    0  0.00000000000E+00  0.00000000000E+00  0.37340374342E+03  0.37340375708E+03  0.10100000352E+00 0. -1.
       -3   -1    0    0    0  501  0.00000000000E+00  0.00000000000E+00 -0.77827345087E+03  0.77827345743E+03  0.10100000352E+00 0.  1.
    10030    2    1    2    0    0  0.00000000000E+00  0.00000000000E+00 -0.40486970745E+03  0.11516772145E+04  0.10781655376E+04 0.  0.
        4    1    3    3  502    0 -0.51315496292E+03  0.16473060771E+03 -0.18959756068E+03  0.57132568383E+03  0.12699999809E+01 0. -1.
       -4    1    3    3    0  502  0.51315496292E+03 -0.16473060771E+03 -0.21527214677E+03  0.58035153068E+03  0.12699999809E+01 0.  1.
</event>
<event>
 5   0  0.2483036E-03  0.1102642E+04  0.7818609E-02  0.9202621E-01
       -2   -1    0    0    0  501  0.00000000000E+00  0.00000000000E+00  0.22026257940E+03  0.22026257941E+03  0.25500000920E-02 0.  1.
        2   -1    0    0  501    0  0.00000000000E+00  0.00000000000E+00 -0.13799652518E+04  0.13799652518E+04  0.25500000920E-02 0. -1.
    10030    2    1    2    0    0  0.00000000000E+00  0.00000000000E+00 -0.11597026724E+04  0.16002278313E+04  0.11026417475E+04 0.  0.
        3    1    3    3  502    0 -0.11420066398E+03  0.32995099227E+03 -0.11990600508E+04  0.12488612671E+04  0.10100000352E+00 0. -1.
       -3    1    3    3    0  502  0.11420066398E+03 -0.32995099227E+03  0.39357378339E+02  0.35136656412E+03  0.10100000352E+00 0.  1.
</event>
<event>
 5   0  0.1480937E-03  0.1094265E+04  0.7818609E-02  0.9210799E-01
        1   -1    0    0  501    0  0.00000000000E+00  0.00000000000E+00  0.94265890322E+03  0.94265890323E+03  0.50400001928E-02 0. -1.
       -1   -1    0    0    0  501  0.00000000000E+00  0.00000000000E+00 -0.31756367270E+03  0.31756367274E+03  0.50400001928E-02 0.  1.
    10030    2    1    2    0    0  0.00000000000E+00  0.00000000000E+00  0.62509523052E+03  0.12602225760E+04  0.10942654586E+04 0.  0.
        1    1    3    3  502    0 -0.26102042047E+03  0.29841500894E+03 -0.12169270286E+03  0.41471953344E+03  0.50400001928E-02 0.  1.
       -1    1    3    3    0  502  0.26102042047E+03 -0.29841500894E+03  0.74678793338E+03  0.84550304253E+03  0.50400001928E-02 0. -1.
</event>
<event>
 5   0  0.2488472E-03  0.1097074E+04  0.7818609E-02  0.9208049E-01
       -2   -1    0    0    0  501  0.00000000000E+00  0.00000000000E+00  0.79885185093E+03  0.79885185094E+03  0.25500000920E-02 0.  1.
        2   -1    0    0  501    0  0.00000000000E+00  0.00000000000E+00 -0.37665636984E+03  0.37665636984E+03  0.25500000920E-02 0. -1.
    10030    2    1    2    0    0  0.00000000000E+00  0.00000000000E+00  0.42219548110E+03  0.11755082208E+04  0.10970736315E+04 0.  0.
        2    1    3    3  502    0 -0.44963790703E+02 -0.73498139272E+02  0.79155593987E+03  0.79623145184E+03  0.25500000920E-02 0.  1.
       -2    1    3    3    0  502  0.44963790703E+02  0.73498139272E+02 -0.36936045877E+03  0.37927676894E+03  0.25500000920E-02 0. -1.
</event>
<event>
 5   0  0.1479573E-03  0.1089082E+04  0.7818609E-02  0.9215899E-01
        1   -1    0    0  501    0  0.00000000000E+00  0.00000000000E+00  0.84953518360E+03  0.84953518362E+03  0.50400001928E-02 0. -1.
       -1   -1    0    0    0  501  0.00000000000E+00  0.00000000000E+00 -0.34904344742E+03  0.34904344746E+03  0.50400001928E-02 0.  1.
    10030    2    1    2    0    0  0.00000000000E+00  0.00000000000E+00  0.50049173618E+03  0.11985786311E+04  0.10890816117E+04 0.  0.
        4    1    3    3  502    0  0.14047329536E+02 -0.37616261106E+03 -0.18279618206E+03  0.41846349243E+03  0.12699999809E+01 0.  1.
       -4    1    3    3    0  502 -0.14047329536E+02  0.37616261106E+03  0.68328791824E+03  0.78011513864E+03  0.12699999809E+01 0. -1.
</event>
<event>
 5   0  0.1480937E-03  0.1095288E+04  0.7818609E-02  0.9209797E-01
       -1   -1    0    0    0  501  0.00000000000E+00  0.00000000000E+00  0.41939279390E+03  0.41939279393E+03  0.50400001928E-02 0. -1.
        1   -1    0    0  501    0  0.00000000000E+00  0.00000000000E+00 -0.71511438820E+03  0.71511438822E+03  0.50400001928E-02 0.  1.
    10030    2    1    2    0    0  0.00000000000E+00  0.00000000000E+00 -0.29572159430E+03  0.11345071822E+04  0.10952877636E+04 0.  0.
        1    1    3    3  502    0 -0.31942586672E+02  0.27139538183E+03  0.34372562920E+03  0.43911626059E+03  0.50400001928E-02 0. -1.
       -1    1    3    3    0  502  0.31942586672E+02 -0.27139538183E+03 -0.63944722350E+03  0.69539092156E+03  0.50400001928E-02 0.  1.
</event>
<event>
 5   0  0.1415400E-03  0.1101583E+04  0.7818609E-02  0.9203650E-01
       -1   -1    0    0    0  501  0.00000000000E+00  0.00000000000E+00  0.44854363660E+03  0.44854363662E+03  0.50400001928E-02 0.  1.
        1   -1    0    0  501    0  0.00000000000E+00  0.00000000000E+00 -0.67634742598E+03  0.67634742600E+03  0.50400001928E-02 0. -1.
    10030    2    1    2    0    0  0.00000000000E+00  0.00000000000E+00 -0.22780378939E+03  0.11248910626E+04  0.11015831046E+04 0.  0.
        2    1    3    3  502    0  0.18997854701E+03  0.10076220042E+03 -0.63170731143E+03  0.66730727306E+03  0.25500000920E-02 0. -1.
       -2    1    3    3    0  502 -0.18997854701E+03 -0.10076220042E+03  0.40390352204E+03  0.45758378957E+03  0.25500000920E-02 0.  1.
</event>
<event>
 5   0  0.1509004E-03  0.1115150E+04  0.7818609E-02  0.9190550E-01
        1   -1    0    0  501    0  0.00000000000E+00  0.00000000000E+00  0.10981116764E+04  0.10981116764E+04  0.50400001928E-02 0.  1.
       -1   -1    0    0    0  501  0.00000000000E+00  0.00000000000E+00 -0.28311338842E+03  0.28311338846E+03  0.50400001928E-02 0. -1.
    10030    2    1    2    0    0  0.00000000000E+00  0.00000000000E+00  0.81499828797E+03  0.13812250649E+04  0.11151504250E+04 0.  0.
        3    1    3    3  502    0 -0.43344342285E+03  0.25735656870E+02  0.84075168289E+03  0.94625521258E+03  0.10100000352E+00 0.  1.
       -3    1    3    3    0  502  0.43344342285E+03 -0.25735656870E+02 -0.25753394927E+02  0.43496985228E+03  0.10100000352E+00 0. -1.
</event>
<event>
 5   0  0.2438115E-03  0.1109242E+04  0.7818609E-02  0.9196230E-01
       -2   -1    0    0    0  501  0.00000000000E+00  0.00000000000E+00  0.22835181642E+03  0.22835181643E+03  0.25500000920E-02 0. -1.
        2   -1    0    0  501    0  0.00000000000E+00  0.00000000000E+00 -0.13470648967E+04  0.13470648967E+04  0.25500000920E-02 0.  1.
    10030    2    1    2    0    0  0.00000000000E+00  0.00000000000E+00 -0.11187130803E+04  0.15754167132E+04  0.11092424731E+04 0.  0.
        4    1    3    3  502    0  0.90754825417E+02  0.89515780812E+02  0.20726169387E+03  0.24332804194E+03  0.12699999809E+01 0. -1.
       -4    1    3    3    0  502 -0.90754825417E+02 -0.89515780812E+02 -0.13259747742E+04  0.13320886712E+04  0.12699999809E+01 0.  1.
</event>
<event>
 5   0  0.2438115E-03  0.1093932E+04  0.7818609E-02  0.9211126E-01
        2   -1    0    0  501    0  0.00000000000E+00  0.00000000000E+00  0.13980343155E+04  0.13980343156E+04  0.25500000920E-02 0. -1.
       -2   -1    0    0    0  501  0.00000000000E+00  0.00000000000E+00 -0.21399471395E+03  0.21399471397E+03  0.25500000920E-02 0.  1.
    10030    2    1    2    0    0  0.00000000000E+00  0.00000000000E+00  0.11840396016E+04  0.16120290295E+04  0.10939322711E+04 0.  0.
        4    1    3    3  502    0 -0.18183940671E+03 -0.81577006834E+02 -0.15858135767E+03  0.25469597126E+03  0.12699999809E+01 0.  1.
       -4    1    3    3    0  502  0.18183940671E+03  0.81577006834E+02  0.13426209593E+04  0.13573330583E+04  0.12699999809E+01 0. -1.
</event>
<event>
 5   0  0.1415400E-03  0.1096562E+04  0.7818609E-02  0.9208549E-01
       -1   -1    0    0    0  501  0.00000000000E+00  0.00000000000E+00  0.13631961404E+03  0.13631961413E+03  0.50400001928E-02 0. -1.
        1   -1    0    0  501    0  0.00000000000E+00  0.00000000000E+00 -0.22052014312E+04  0.22052014313E+04  0.50400001928E-02 0.  1.
    10030    2    1    2    0    0  0.00000000000E+00  0.00000000000E+00 -0.20688818172E+04  0.23415210454E+04  0.10965622793E+04 0.  0.
        2    1    3    3  502    0 -0.34667267330E+03 -0.30027698635E+03 -0.39290341400E+03  0.60392160392E+03  0.25500000920E-02 0. -1.
       -2    1    3    3    0  502  0.34667267330E+03  0.30027698635E+03 -0.16759784032E+04  0.17375994415E+04  0.25500000920E-02 0.  1.
</event>
<event>
 5   0  0.2438115E-03  0.1081199E+04  0.7818609E-02  0.9223713E-01
       -2   -1    0    0    0  501  0.00000000000E+00  0.00000000000E+00  0.28265302089E+04  0.28265302089E+04  0.25500000920E-02 0. -1.
        2   -1    0    0  501    0  0.00000000000E+00  0.00000000000E+00 -0.10339451162E+03  0.10339451165E+03  0.25500000920E-02 0.  1.
    10030    2    1    2    0    0  0.00000000000E+00  0.00000000000E+00  0.27231356973E+04  0.29299247205E+04  0.10811987987E+04 0.  0.
        4    1    3    3  502    0 -0.43325109721E+03  0.32249578615E+03  0.12988264050E+04  0.14066490993E+04  0.12699999809E+01 0. -1.
       -4    1    3    3    0  502  0.43325109721E+03 -0.32249578615E+03  0.14243092922E+04  0.15232756212E+04  0.12699999809E+01 0.  1.
</event>
<event>
 5   0  0.2467448E-03  0.1095182E+04  0.7818609E-02  0.9209901E-01
       -2   -1    0    0    0  501  0.00000000000E+00  0.00000000000E+00  0.20937744534E+03  0.20937744535E+03  0.25500000920E-02 0.  1.
        2   -1    0    0  501    0  0.00000000000E+00  0.00000000000E+00 -0.14321307499E+04  0.14321307499E+04  0.25500000920E-02 0. -1.
    10030    2    1    2    0    0  0.00000000000E+00  0.00000000000E+00 -0.12227533045E+04  0.16415081952E+04  0.10951819535E+04 0.  0.
        1    1    3    3  502    0 -0.40517953058E+03  0.13429538951E+02 -0.59636546080E+02  0.40976495967E+03  0.50400001928E-02 0.  1.
       -1    1    3    3    0  502  0.40517953058E+03 -0.13429538951E+02 -0.11631167585E+04  0.12317432356E+04  0.50400001928E-02 0. -1.
</event>
<event>
 5   0  0.2438115E-03  0.1102080E+04  0.7818609E-02  0.9203166E-01
       -2   -1    0    0    0  501  0.00000000000E+00  0.00000000000E+00  0.27574538628E+03  0.27574538629E+03  0.25500000920E-02 0.  1.
        2   -1    0    0  501    0  0.00000000000E+00  0.00000000000E+00 -0.11011800735E+04  0.11011800735E+04  0.25500000920E-02 0. -1.
    10030    2    1    2    0    0  0.00000000000E+00  0.00000000000E+00 -0.82543468718E+03  0.13769254598E+04  0.11020804412E+04 0.  0.
        4    1    3    3  502    0 -0.97316776038E+02 -0.29536071139E+03 -0.98106533340E+03  0.10291740893E+04  0.12699999809E+01 0. -1.
       -4    1    3    3    0  502  0.97316776038E+02  0.29536071139E+03  0.15563064621E+03  0.34775137048E+03  0.12699999809E+01 0.  1.
</event>
<event>
 5   0  0.1509004E-03  0.1102783E+04  0.7818609E-02  0.9202483E-01
       -1   -1    0    0    0  501  0.00000000000E+00  0.00000000000E+00  0.91975825366E+03  0.91975825368E+03  0.50400001928E-02 0.  1.
        1   -1    0    0  501    0  0.00000000000E+00  0.00000000000E+00 -0.33055728716E+03  0.33055728720E+03  0.50400001928E-02 0. -1.
    10030    2    1    2    0    0  0.00000000000E+00  0.00000000000E+00  0.58920096650E+03  0.12503155409E+04  0.11027833753E+04 0.  0.
        3    1    3    3  502    0  0.28668679576E+03 -0.27898673033E+02 -0.23847601856E+03  0.37394983147E+03  0.10100000352E+00 0. -1.
       -3    1    3    3    0  502 -0.28668679576E+03  0.27898673033E+02  0.82767698507E+03  0.87636570941E+03  0.10100000352E+00 0.  1.
</event>
<event>
 5   0  0.2392585E-03  0.1091840E+04  0.7818609E-02  0.9213181E-01
       -2   -1    0    0    0  501  0.00000000000E+00  0.00000000000E+00  0.90590084852E+03  0.90590084852E+03  0.25500000920E-02 0.  1.
        2   -1    0    0  501    0  0.00000000000E+00  0.00000000000E+00 -0.32898617130E+03  0.32898617131E+03  0.25500000920E-02 0. -1.
    10030    2    1    2    0    0  0.00000000000E+00  0.00000000000E+00  0.57691467721E+03  0.12348870198E+04  0.10918403761E+04 0.  0.
        5    1    3    3  502    0  0.39211714552E+03 -0.18661949905E+03  0.66258903610E+03  0.79223040461E+03  0.46999998093E+01 0.  1.
       -5    1    3    3    0  502 -0.39211714552E+03  0.18661949905E+03 -0.85674358885E+02  0.44265661523E+03  0.46999998093E+01 0. -1.
</event>
<event>
 5   0  0.1509004E-03  0.1091598E+04  0.7818609E-02  0.9213420E-01
       -1   -1    0    0    0  501  0.00000000000E+00  0.00000000000E+00  0.71635613850E+03  0.71635613851E+03  0.50400001928E-02 0.  1.
        1   -1    0    0  501    0  0.00000000000E+00  0.00000000000E+00 -0.41584968782E+03  0.41584968785E+03  0.50400001928E-02 0. -1.
    10030    2    1    2    0    0  0.00000000000E+00  0.00000000000E+00  0.30050645068E+03  0.11322058264E+04  0.10915978684E+04 0.  0.
        3    1    3    3  502    0  0.46877636456E+03  0.73981919209E+02  0.42985881585E+03  0.64031493509E+03  0.10100000352E+00 0.  1.
       -3    1    3    3    0  502 -0.46877636456E+03 -0.73981919209E+02 -0.12935236517E+03  0.49189089127E+03  0.10100000352E+00 0. -1.
</event>
<event>
 5   0  0.1509004E-03  0.1095580E+04  0.7818609E-02  0.9209511E-01
       -1   -1    0    0    0  501  0.00000000000E+00  0.00000000000E+00  0.40182728092E+03  0.40182728095E+03  0.50400001928E-02 0. -1.
        1   -1    0    0  501    0  0.00000000000E+00  0.00000000000E+00 -0.74677289033E+03  0.74677289035E+03  0.50400001928E-02 0.  1.
    10030    2    1    2    0    0  0.00000000000E+00  0.00000000000E+00 -0.34494560941E+03  0.11486001713E+04  0.10955797005E+04 0.  0.
        3    1    3    3  502    0  0.22568582365E+02  0.16420556862E+03  0.37490671313E+03  0.40991201913E+03  0.10100000352E+00 0. -1.
       -3    1    3    3    0  502 -0.22568582365E+02 -0.16420556862E+03 -0.71985232254E+03  0.73868815216E+03  0.10100000352E+00 0.  1.
</event>
<event>
 5   0  0.2483036E-03  0.1094796E+04  0.7818609E-02  0.9210278E-01
        2   -1    0    0  501    0  0.00000000000E+00  0.00000000000E+00  0.12912784074E+04  0.12912784074E+04  0.25500000920E-02 0.  1.
       -2   -1    0    0    0  501  0.00000000000E+00  0.00000000000E+00 -0.23205283902E+03  0.23205283903E+03  0.25500000920E-02 0. -1.
    10030    2    1    2    0    0  0.00000000000E+00  0.00000000000E+00  0.10592255683E+04  0.15233312464E+04  0.10947964567E+04 0.  0.
        3    1    3    3  502    0 -0.30673678720E+02  0.37896510643E+03 -0.18351184436E+02  0.38064708409E+03  0.10100000352E+00 0. -1.
       -3    1    3    3    0  502  0.30673678720E+02 -0.37896510643E+03  0.10775767528E+04  0.11426841623E+04  0.10100000352E+00 0.  1.
</event>
<event>
 5   0  0.1480937E-03  0.1107096E+04  0.7818609E-02  0.9198303E-01
        1   -1    0    0  501    0  0.00000000000E+00  0.00000000000E+00  0.10101245042E+04  0.10101245042E+04  0.50400001928E-02 0.  1.
       -1   -1    0    0    0  501  0.00000000000E+00  0.00000000000E+00 -0.30334424702E+03  0.30334424706E+03  0.50400001928E-02 0. -1.
    10030    2    1    2    0    0  0.00000000000E+00  0.00000000000E+00  0.70678025717E+03  0.13134687513E+04  0.11070961244E+04 0.  0.
        1    1    3    3  502    0 -0.35191489082E+03  0.42726977653E+03  0.34929662052E+03  0.65453165046E+03  0.50400001928E-02 0.  1.
       -1    1    3    3    0  502  0.35191489082E+03 -0.42726977653E+03  0.35748363665E+03  0.65893710080E+03  0.50400001928E-02 0. -1.
</event>
<event>
 5   0  0.1479573E-03  0.1100783E+04  0.7818609E-02  0.9204429E-01
       -1   -1    0    0    0  501  0.00000000000E+00  0.00000000000E+00  0.41786124677E+03  0.41786124680E+03  0.50400001928E-02 0. -1.
        1   -1    0    0  501    0  0.00000000000E+00  0.00000000000E+00 -0.72495534405E+03  0.72495534407E+03  0.50400001928E-02 0.  1.
    10030    2    1    2    0    0  0.00000000000E+00  0.00000000000E+00 -0.30709409728E+03  0.11428165909E+04  0.11007828922E+04 0.  0.
        4    1    3    3  502    0 -0.42805816992E+03 -0.27675397052E+03  0.61992251524E+02  0.51348924933E+03  0.12699999809E+01 0.  1.
       -4    1    3    3    0  502  0.42805816992E+03  0.27675397052E+03 -0.36908634880E+03  0.62932734154E+03  0.12699999809E+01 0. -1.
</event>
<event>
 5   0  0.1468556E-03  0.1097554E+04  0.7818609E-02  0.9207580E-01
        1   -1    0    0  501    0  0.00000000000E+00  0.00000000000E+00  0.10399098537E+04  0.10399098537E+04  0.50400001928E-02 0. -1.
       -1   -1    0    0    0  501  0.00000000000E+00  0.00000000000E+00 -0.28959814842E+03  0.28959814847E+03  0.50400001928E-02 0.  1.
    10030    2    1    2    0    0  0.00000000000E+00  0.00000000000E+00  0.75031170524E+03  0.13295080021E+04  0.10975535854E+04 0.  0.
        5    1    3    3  502    0 -0.28305029714E+03  0.88445606436E+02  0.93446573126E+03  0.98040215672E+03  0.46999998093E+01 0. -1.
       -5    1    3    3    0  502  0.28305029714E+03 -0.88445606436E+02 -0.18415402602E+03  0.34910584542E+03  0.46999998093E+01 0.  1.
</event>
<event>
 5   0  0.1479573E-03  0.1097399E+04  0.7818609E-02  0.9207731E-01
        1   -1    0    0  501    0  0.00000000000E+00  0.00000000000E+00  0.16568522942E+04  0.16568522943E+04  0.50400001928E-02 0.  1.
       -1   -1    0    0    0  501  0.00000000000E+00  0.00000000000E+00 -0.18171277162E+03  0.18171277169E+03  0.50400001928E-02 0. -1.
    10030    2    1    2    0    0  0.00000000000E+00  0.00000000000E+00  0.14751395226E+04  0.18385650659E+04  0.10973991482E+04 0.  0.
        4    1    3    3  502    0 -0.28930113777E+03 -0.77179914437E+02  0.15079144276E+04  0.15373546830E+04  0.12699999809E+01 0.  1.
       -4    1    3    3    0  502  0.28930113777E+03  0.77179914437E+02 -0.32774904953E+02  0.30121038296E+03  0.12699999809E+01 0. -1.
</event>
<event>
 5   0  0.1480937E-03  0.1103272E+04  0.7818609E-02  0.9202009E-01
       -1   -1    0    0    0  501  0.00000000000E+00  0.00000000000E+00  0.40653883387E+03  0.40653883390E+03  0.50400001928E-02 0. -1.
        1   -1    0    0  501    0  0.00000000000E+00  0.00000000000E+00 -0.74851955402E+03  0.74851955404E+03  0.50400001928E-02 0.  1.
    10030    2    1    2    0    0  0.00000000000E+00  0.00000000000E+00 -0.34198072015E+03  0.11550583879E+04  0.11032719821E+04 0.  0.
        1    1    3    3  502    0  0.50700546678E+03 -0.21563224322E+03 -0.14230998521E+03  0.56903773124E+03  0.50400001928E-02 0. -1.
       -1    1    3    3    0  502 -0.50700546678E+03  0.21563224322E+03 -0.19967073494E+03  0.58602065670E+03  0.50400001928E-02 0.  1.
</event>
<event>
 5   0  0.2438115E-03  0.1078686E+04  0.7818609E-02  0.9226218E-01
       -2   -1    0    0    0  501  0.00000000000E+00  0.00000000000E+00  0.18505417724E+03  0.18505417726E+03  0.25500000920E-02 0. -1.
        2   -1    0    0  501    0  0.00000000000E+00  0.00000000000E+00 -0.15719241162E+04  0.15719241162E+04  0.25500000920E-02 0.  1.
    10030    2    1    2    0    0  0.00000000000E+00  0.00000000000E+00 -0.13868699389E+04  0.17569782934E+04  0.10786864679E+04 0.  0.
        4    1    3    3  502    0 -0.31928622946E+03 -0.36790313405E+03 -0.31636182743E+03  0.58084665027E+03  0.12699999809E+01 0. -1.
       -4    1    3    3    0  502  0.31928622946E+03  0.36790313405E+03 -0.10705081115E+04  0.11761316432E+04  0.12699999809E+01 0.  1.
</event>
<event>
 5   0  0.1479573E-03  0.1103247E+04  0.7818609E-02  0.9202033E-01
       -1   -1    0    0    0  501  0.00000000000E+00  0.00000000000E+00  0.76952390230E+03  0.76952390231E+03  0.50400001928E-02 0.  1.
        1   -1    0    0  501    0  0.00000000000E+00  0.00000000000E+00 -0.39542463454E+03  0.39542463458E+03  0.50400001928E-02 0. -1.
    10030    2    1    2    0    0  0.00000000000E+00  0.00000000000E+00  0.37409926775E+03  0.11649485369E+04  0.11032474027E+04 0.  0.
        4    1    3    3  502    0  0.24909301683E+01 -0.28462894679E+03 -0.31188808942E+03  0.42225067828E+03  0.12699999809E+01 0. -1.
       -4    1    3    3    0  502 -0.24909301683E+01  0.28462894679E+03  0.68598735717E+03  0.74269785861E+03  0.12699999809E+01 0.  1.
</event>
<event>
 5   0  0.1479573E-03  0.1111808E+04  0.7818609E-02  0.9193758E-01
        1   -1    0    0  501    0  0.00000000000E+00  0.00000000000E+00  0.85996085081E+03  0.85996085083E+03  0.50400001928E-02 0.  1.
       -1   -1    0    0    0  501  0.00000000000E+00  0.00000000000E+00 -0.35935293109E+03  0.35935293112E+03  0.50400001928E-02 0. -1.
    10030    2    1    2    0    0  0.00000000000E+00  0.00000000000E+00  0.50060791973E+03  0.12193137819E+04  0.11118083511E+04 0.  0.
        4    1    3    3  502    0  0.28403066677E+03  0.47313887365E+03  0.17678432454E+03  0.57947228038E+03  0.12699999809E+01 0. -1.
       -4    1    3    3    0  502 -0.28403066677E+03 -0.47313887365E+03  0.32382359519E+03  0.63984150157E+03  0.12699999809E+01 0.  1.
</event>
<event>
 5   0  0.1509004E-03  0.1091313E+04  0.7818609E-02  0.9213700E-01
       -1   -1    0    0    0  501  0.00000000000E+00  0.00000000000E+00  0.20728473997E+03  0.20728474004E+03  0.50400001928E-02 0. -1.
        1   -1    0    0  501    0  0.00000000000E+00  0.00000000000E+00 -0.14363863825E+04  0.14363863825E+04  0.50400001928E-02 0.  1.
    10030    2    1    2    0    0  0.00000000000E+00  0.00000000000E+00 -0.12291016425E+04  0.16436711225E+04  0.10913129301E+04 0.  0.
        3    1    3    3  502    0 -0.33112660000E+03  0.19851494037E+02 -0.12670803125E+04  0.13097829727E+04  0.10100000352E+00 0.  1.
       -3    1    3    3    0  502  0.33112660000E+03 -0.19851494037E+02  0.37978669957E+02  0.33388814986E+03  0.10100000352E+00 0. -1.
</event>
<event>
 5   0  0.1509004E-03  0.1099350E+04  0.7818609E-02  0.9205826E-01
       -1   -1    0    0    0  501  0.00000000000E+00  0.00000000000E+00  0.33754589264E+03  0.33754589268E+03  0.50400001928E-02 0.  1.
        1   -1    0    0  501    0  0.00000000000E+00  0.00000000000E+00 -0.89511528693E+03  0.89511528694E+03  0.50400001928E-02 0. -1.
    10030    2    1    2    0    0  0.00000000000E+00  0.00000000000E+00 -0.55756939428E+03  0.12326611796E+04  0.10993497871E+04 0.  0.
        3    1    3    3  502    0  0.53127582082E+03  0.42384640202E+02 -0.12796731913E+03  0.54811139422E+03  0.10100000352E+00 0. -1.
       -3    1    3    3    0  502 -0.53127582082E+03 -0.42384640202E+02 -0.42960207515E+03  0.68454978540E+03  0.10100000352E+00 0.  1.
</event>
<event>
 5   0  0.2438115E-03  0.1092978E+04  0.7818609E-02  0.9212064E-01
       -2   -1    0    0    0  501  0.00000000000E+00  0.00000000000E+00  0.18906663016E+04  0.18906663016E+04  0.25500000920E-02 0. -1.
        2   -1    0    0  501    0  0.00000000000E+00  0.00000000000E+00 -0.15796017604E+03  0.15796017606E+03  0.25500000920E-02 0.  1.
    10030    2    1    2    0    0  0.00000000000E+00  0.00000000000E+00  0.17327061256E+04  0.20486264777E+04  0.10929775512E+04 0.  0.
        4    1    3    3  502    0  0.41388959202E+03 -0.10574496660E+03  0.15051799142E+04  0.15646260830E+04  0.12699999809E+01 0. -1.
       -4    1    3    3    0  502 -0.41388959202E+03  0.10574496660E+03  0.22752621134E+03  0.48400039472E+03  0.12699999809E+01 0.  1.
</event>
<event>
 5   0  0.1415400E-03  0.1095034E+04  0.7818609E-02  0.9210045E-01
        1   -1    0    0  501    0  0.00000000000E+00  0.00000000000E+00  0.10335827186E+04  0.10335827186E+04  0.50400001928E-02 0. -1.
       -1   -1    0    0    0  501  0.00000000000E+00  0.00000000000E+00 -0.29003486167E+03  0.29003486171E+03  0.50400001928E-02 0.  1.
    10030    2    1    2    0    0  0.00000000000E+00  0.00000000000E+00  0.74354785692E+03  0.13236175803E+04  0.10950342841E+04 0.  0.
        2    1    3    3  502    0  0.55906035412E+02 -0.14001675320E+03 -0.26444977733E+03  0.30440739266E+03  0.25500000920E-02 0.  1.
       -2    1    3    3    0  502 -0.55906035412E+02  0.14001675320E+03  0.10079976342E+04  0.10192101877E+04  0.25500000920E-02 0. -1.
</event>
<event>
 5   0  0.1479573E-03  0.1103244E+04  0.7818609E-02  0.9202036E-01
       -1   -1    0    0    0  501  0.00000000000E+00  0.00000000000E+00  0.72167829927E+03  0.72167829928E+03  0.50400001928E-02 0.  1.
        1   -1    0    0  501    0  0.00000000000E+00  0.00000000000E+00 -0.42163753418E+03  0.42163753421E+03  0.50400001928E-02 0. -1.
    10030    2    1    2    0    0  0.00000000000E+00  0.00000000000E+00  0.30004076509E+03  0.11433158335E+04  0.11032436877E+04 0.  0.
        4    1    3    3  502    0 -0.40932477520E+03 -0.14892780870E+03 -0.20073872813E+03  0.47960808340E+03  0.12699999809E+01 0. -1.
       -4    1    3    3    0  502  0.40932477520E+03  0.14892780870E+03  0.50077949322E+03  0.66370775009E+03  0.12699999809E+01 0.  1.
</event>
<event>
 5   0  0.2438115E-03  0.1099481E+04  0.7818609E-02  0.9205698E-01
        2   -1    0    0  501    0  0.00000000000E+00  0.00000000000E+00  0.45368400598E+03  0.45368400599E+03  0.25500000920E-02 0. -1.
       -2   -1    0    0    0  501  0.00000000000E+00  0.00000000000E+00 -0.66613429355E+03  0.66613429355E+03  0.25500000920E-02 0.  1.
    10030    2    1    2    0    0  0.00000000000E+00  0.00000000000E+00 -0.21245028757E+03  0.11198182995E+04  0.10994807408E+04 0.  0.
        4    1    3    3  502    0 -0.18082676003E+03 -0.30930088971E+03 -0.53088789031E+03  0.64047554403E+03  0.12699999809E+01 0.  1.
       -4    1    3    3    0  502  0.18082676003E+03  0.30930088971E+03  0.31843760274E+03  0.47934275551E+03  0.12699999809E+01 0. -1.
</event>
<event>
 5   0  0.2392585E-03  0.1092776E+04  0.7818609E-02  0.9212261E-01
       -2   -1    0    0    0  501  0.00000000000E+00  0.00000000000E+00  0.17340859544E+03  0.17340859546E+03  0.25500000920E-02 0. -1.
        2   -1    0    0  501    0  0.00000000000E+00  0.00000000000E+00 -0.17215989399E+04  0.17215989399E+04  0.25500000920E-02 0.  1.
    10030    2    1    2    0    0  0.00000000000E+00  0.00000000000E+00 -0.15481903444E+04  0.18950075353E+04  0.10927763799E+04 0.  0.
        5    1    3    3  502    0  0.15197917969E+03 -0.52048168633E+03 -0.65752002687E+03  0.85226376938E+03  0.46999998093E+01 0. -1.
       -5    1    3    3    0  502 -0.15197917969E+03  0.52048168633E+03 -0.89067031755E+03  0.10427437659E+04  0.46999998093E+01 0.  1.
</event>
<event>
 5   0  0.1479573E-03  0.1098882E+04  0.7818609E-02  0.9206282E-01
        1   -1    0    0  501    0  0.00000000000E+00  0.00000000000E+00  0.11671709185E+04  0.11671709185E+04  0.50400001928E-02 0. -1.
       -1   -1    0    0    0  501  0.00000000000E+00  0.00000000000E+00 -0.25864733753E+03  0.25864733758E+03  0.50400001928E-02 0.  1.
    10030    2    1    2    0    0  0.00000000000E+00  0.00000000000E+00  0.90852358096E+03  0.14258182561E+04  0.10988824333E+04 0.  0.
        4    1    3    3  502    0  0.18176842324E+03  0.51032147520E+03  0.57329626737E+03  0.78875724455E+03  0.12699999809E+01 0. -1.
       -4    1    3    3    0  502 -0.18176842324E+03 -0.51032147520E+03  0.33522731358E+03  0.63706101153E+03  0.12699999809E+01 0.  1.
</event>
<event>
 5   0  0.2438115E-03  0.1098377E+04  0.7818609E-02  0.9206775E-01
       -2   -1    0    0    0  501  0.00000000000E+00  0.00000000000E+00  0.38340114586E+03  0.38340114587E+03  0.25500000920E-02 0. -1.
        2   -1    0    0  501    0  0.00000000000E+00  0.00000000000E+00 -0.78666450144E+03  0.78666450144E+03  0.25500000920E-02 0.  1.
    10030    2    1    2    0    0  0.00000000000E+00  0.00000000000E+00 -0.40326335558E+03  0.11700656473E+04  0.10983771142E+04 0.  0.
        4    1    3    3  502    0 -0.60579576252E+01  0.47936886895E+03 -0.48702650765E+03  0.68339420793E+03  0.12699999809E+01 0.  1.
       -4    1    3    3    0  502  0.60579576252E+01 -0.47936886895E+03  0.83763152075E+02  0.48667143939E+03  0.12699999809E+01 0. -1.
</event>
<event>
 5   0  0.2483036E-03  0.1081505E+04  0.7818609E-02  0.9223408E-01
        2   -1    0    0  501    0  0.00000000000E+00  0.00000000000E+00  0.89470008049E+03  0.89470008050E+03  0.25500000920E-02 0.  1.
       -2   -1    0    0    0  501  0.00000000000E+00  0.00000000000E+00 -0.32682820708E+03  0.32682820709E+03  0.25500000920E-02 0. -1.
    10030    2    1    2    0    0  0.00000000000E+00  0.00000000000E+00  0.56787187341E+03  0.12215282876E+04  0.10815049204E+04 0.  0.
        3    1    3    3  502    0  0.10202037326E+03  0.46350808377E+03  0.57665266982E+03  0.74684416855E+03  0.10100000352E+00 0. -1.
       -3    1    3    3    0  502 -0.10202037326E+03 -0.46350808377E+03 -0.87807964111E+01  0.47468411904E+03  0.10100000352E+00 0.  1.
</event>
<event>
 5   0  0.1468556E-03  0.1094936E+04  0.7818609E-02  0.9210142E-01
       -1   -1    0    0    0  501  0.00000000000E+00  0.00000000000E+00  0.21509510067E+03  0.21509510073E+03  0.50400001928E-02 0. -1.
        1   -1    0    0  501    0  0.00000000000E+00  0.00000000000E+00 -0.13934356753E+04  0.13934356753E+04  0.50400001928E-02 0.  1.
    10030    2    1    2    0    0  0.00000000000E+00  0.00000000000E+00 -0.11783405746E+04  0.16085307760E+04  0.10949359560E+04 0.  0.
        5    1    3    3  502    0 -0.15317343421E+03  0.52541562595E+03 -0.56971331650E+03  0.79001204670E+03  0.46999998093E+01 0.  1.
       -5    1    3    3    0  502  0.15317343421E+03 -0.52541562595E+03 -0.60862725813E+03  0.81851872933E+03  0.46999998093E+01 0. -1.
</event>
<event>
 5   0  0.2488472E-03  0.1095299E+04  0.7818609E-02  0.9209786E-01
        2   -1    0    0  501    0  0.00000000000E+00  0.00000000000E+00  0.67880576750E+03  0.67880576750E+03  0.25500000920E-02 0. -1.
       -2   -1    0    0    0  501  0.00000000000E+00  0.00000000000E+00 -0.44183481810E+03  0.44183481811E+03  0.25500000920E-02 0.  1.
    10030    2    1    2    0    0  0.00000000000E+00  0.00000000000E+00  0.23697094940E+03  0.11206405856E+04  0.10952990876E+04 0.  0.
        2    1    3    3  502    0  0.32469110856E+02 -0.71944335544E+02  0.67295546682E+03  0.67756866140E+03  0.25500000920E-02 0. -1.
       -2    1    3    3    0  502 -0.32469110856E+02  0.71944335544E+02 -0.43598451743E+03  0.44307192421E+03  0.25500000920E-02 0.  1.
</event>
<event>
 5   0  0.1468556E-03  0.1124247E+04  0.7818609E-02  0.9181876E-01
        1   -1    0    0  501    0  0.00000000000E+00  0.00000000000E+00  0.77825315664E+03  0.77825315666E+03  0.50400001928E-02 0.  1.
       -1   -1    0    0    0  501  0.00000000000E+00  0.00000000000E+00 -0.40601582845E+03  0.40601582848E+03  0.50400001928E-02 0. -1.
    10030    2    1    2    0    0  0.00000000000E+00  0.00000000000E+00  0.37223732819E+03  0.11842689851E+04  0.11242474820E+04 0.  0.
        5    1    3    3  502    0  0.33837279425E+03  0.42421836063E+03  0.34058877943E+03  0.64068726541E+03  0.46999998093E+01 0.  1.
       -5    1    3    3    0  502 -0.33837279425E+03 -0.42421836063E+03  0.31648548763E+02  0.54358171973E+03  0.46999998093E+01 0. -1.
</event>
<event>
 5   0  0.2488472E-03  0.1032356E+04  0.7818609E-02  0.9273752E-01
        2   -1    0    0  501    0  0.00000000000E+00  0.00000000000E+00  0.13423172260E+04  0.13423172260E+04  0.25500000920E-02 0.  1.
       -2   -1    0    0    0  501  0.00000000000E+00  0.00000000000E+00 -0.19849232095E+03  0.19849232097E+03  0.25500000920E-02 0. -1.
    10030    2    1    2    0    0  0.00000000000E+00  0.00000000000E+00  0.11438249051E+04  0.15408095470E+04  0.10323558721E+04 0.  0.
        2    1    3    3  502    0  0.45934573293E+03  0.91457655926E+02  0.89574636987E+03  0.10108039198E+04  0.25500000920E-02 0.  1.
       -2    1    3    3    0  502 -0.45934573293E+03 -0.91457655926E+02  0.24807853520E+03  0.53000562716E+03  0.25500000920E-02 0. -1.
</event>
<event>
 5   0  0.1509004E-03  0.1038075E+04  0.7818609E-02  0.9267743E-01
       -1   -1    0    0    0  501  0.00000000000E+00  0.00000000000E+00  0.18674841873E+03  0.18674841880E+03  0.50400001928E-02 0.  1.
        1   -1    0    0  501    0  0.00000000000E+00  0.00000000000E+00 -0.14425831033E+04  0.14425831033E+04  0.50400001928E-02 0. -1.
    10030    2    1    2    0    0  0.00000000000E+00  0.00000000000E+00 -0.12558346846E+04  0.16293315221E+04  0.10380753605E+04 0.  0.
        3    1    3    3  502    0 -0.22662151762E+03 -0.20797775529E+03  0.28282978723E+02  0.30888832291E+03  0.10100000352E+00 0.  1.
       -3    1    3    3    0  502  0.22662151762E+03  0.20797775529E+03 -0.12841176633E+04  0.13204431992E+04  0.10100000352E+00 0. -1.
</event>
<event>
 5   0  0.2483036E-03  0.1101458E+04  0.7818609E-02  0.9203771E-01
       -2   -1    0    0    0  501  0.00000000000E+00  0.00000000000E+00  0.34232327427E+03  0.34232327428E+03  0.25500000920E-02 0. -1.
        2   -1    0    0  501    0  0.00000000000E+00  0.00000000000E+00 -0.88601249214E+03  0.88601249214E+03  0.25500000920E-02 0.  1.
    10030    2    1    2    0    0  0.00000000000E+00  0.00000000000E+00 -0.54368921787E+03  0.12283357664E+04  0.11014584828E+04 0.  0.
        3    1    3    3  502    0 -0.35339205684E+02 -0.41024696926E+03 -0.67969219258E+03  0.79469045678E+03  0.10100000352E+00 0.  1.
       -3    1    3    3    0  502  0.35339205684E+02  0.41024696926E+03  0.13600297470E+03  0.43364530964E+03  0.10100000352E+00 0. -1.
</event>
<event>
 5   0  0.1415400E-03  0.1100079E+04  0.7818609E-02  0.9205115E-01
       -1   -1    0    0    0  501  0.00000000000E+00  0.00000000000E+00  0.42663821684E+03  0.42663821686E+03  0.50400001928E-02 0.  1.
        1   -1    0    0  501    0  0.00000000000E+00  0.00000000000E+00 -0.70913320455E+03  0.70913320457E+03  0.50400001928E-02 0. -1.
    10030    2    1    2    0    0  0.00000000000E+00  0.00000000000E+00 -0.28249498771E+03  0.11357714214E+04  0.11000787716E+04 0.  0.
        2    1    3    3  502    0 -0.25463786358E+03  0.48465351299E+03 -0.19601439141E+03  0.58150761893E+03  0.25500000920E-02 0.  1.
       -2    1    3    3    0  502  0.25463786358E+03 -0.48465351299E+03 -0.86480596305E+02  0.55426380250E+03  0.25500000920E-02 0. -1.
</event>
<event>
 5   0  0.1480937E-03  0.1101361E+04  0.7818609E-02  0.9203867E-01
        1   -1    0    0  501    0  0.00000000000E+00  0.00000000000E+00  0.96206455603E+03  0.96206455605E+03  0.50400001928E-02 0. -1.
       -1   -1    0    0    0  501  0.00000000000E+00  0.00000000000E+00 -0.31520633137E+03  0.31520633142E+03  0.50400001928E-02 0.  1.
    10030    2    1    2    0    0  0.00000000000E+00  0.00000000000E+00  0.64685822466E+03  0.12772708875E+04  0.11013606844E+04 0.  0.
        1    1    3    3  502    0  0.15488049237E+03  0.40633957771E+03 -0.68393537866E+02  0.44020165308E+03  0.50400001928E-02 0.  1.
       -1    1    3    3    0  502 -0.15488049237E+03 -0.40633957771E+03  0.71525176252E+03  0.83706923438E+03  0.50400001928E-02 0. -1.
</event>
<event>
 5   0  0.2488472E-03  0.1100794E+04  0.7818609E-02  0.9204418E-01
       -2   -1    0    0    0  501  0.00000000000E+00  0.00000000000E+00  0.50157100708E+03  0.50157100709E+03  0.25500000920E-02 0. -1.
        2   -1    0    0  501    0  0.00000000000E+00  0.00000000000E+00 -0.60397611407E+03  0.60397611407E+03  0.25500000920E-02 0.  1.
    10030    2    1    2    0    0  0.00000000000E+00  0.00000000000E+00 -0.10240510699E+03  0.11055471212E+04  0.11007940912E+04 0.  0.
        2    1    3    3  502    0 -0.11271284873E+03  0.28787172405E+03 -0.50853959157E+03  0.59513597772E+03  0.25500000920E-02 0.  1.
       -2    1    3    3    0  502  0.11271284873E+03 -0.28787172405E+03  0.40613448458E+03  0.51041114344E+03  0.25500000920E-02 0. -1.
</event>
<event>
 5   0  0.1509004E-03  0.1100502E+04  0.7818609E-02  0.9204703E-01
       -1   -1    0    0    0  501  0.00000000000E+00  0.00000000000E+00  0.53871530939E+03  0.53871530941E+03  0.50400001928E-02 0. -1.
        1   -1    0    0  501    0  0.00000000000E+00  0.00000000000E+00 -0.56203357696E+03  0.56203357698E+03  0.50400001928E-02 0.  1.
    10030    2    1    2    0    0  0.00000000000E+00  0.00000000000E+00 -0.23318267567E+02  0.11007488864E+04  0.11005018716E+04 0.  0.
        3    1    3    3  502    0 -0.23118236527E+03 -0.97877511588E+02  0.47809430232E+03  0.53999950500E+03  0.10100000352E+00 0. -1.
       -3    1    3    3    0  502  0.23118236527E+03  0.97877511588E+02 -0.50141256989E+03  0.56074938139E+03  0.10100000352E+00 0.  1.
</event>
<event>
 5   0  0.2438115E-03  0.1099695E+04  0.7818609E-02  0.9205489E-01
       -2   -1    0    0    0  501  0.00000000000E+00  0.00000000000E+00  0.36110752179E+03  0.36110752180E+03  0.25500000920E-02 0.  1.
        2   -1    0    0  501    0  0.00000000000E+00  0.00000000000E+00 -0.83723655791E+03  0.83723655792E+03  0.25500000920E-02 0. -1.
    10030    2    1    2    0    0  0.00000000000E+00  0.00000000000E+00 -0.47612903613E+03  0.11983440797E+04  0.10996952643E+04 0.  0.
        4    1    3    3  502    0  0.42364822182E+02  0.17516421665E+03  0.32800950709E+03  0.37425810692E+03  0.12699999809E+01 0.  1.
       -4    1    3    3    0  502 -0.42364822182E+02 -0.17516421665E+03 -0.80413854322E+03  0.82408597279E+03  0.12699999809E+01 0. -1.
</event>
<event>
 5   0  0.2483036E-03  0.1088291E+04  0.7818609E-02  0.9216680E-01
       -2   -1    0    0    0  501  0.00000000000E+00  0.00000000000E+00  0.59050574257E+03  0.59050574257E+03  0.25500000920E-02 0. -1.
        2   -1    0    0  501    0  0.00000000000E+00  0.00000000000E+00 -0.50142489022E+03  0.50142489023E+03  0.25500000920E-02 0.  1.
    10030    2    1    2    0    0  0.00000000000E+00  0.00000000000E+00  0.89080852344E+02  0.10919306328E+04  0.10882909118E+04 0.  0.
        3    1    3    3  502    0  0.29589218817E+03 -0.28897304006E+03  0.39932827158E+03  0.57490928291E+03  0.10100000352E+00 0. -1.
       -3    1    3    3    0  502 -0.29589218817E+03  0.28897304006E+03 -0.31024741923E+03  0.51702134989E+03  0.10100000352E+00 0.  1.
</event>
<event>
 5   0  0.2392585E-03  0.1106502E+04  0.7818609E-02  0.9198878E-01
       -2   -1    0    0    0  501  0.00000000000E+00  0.00000000000E+00  0.37136057934E+03  0.37136057935E+03  0.25500000920E-02 0. -1.
        2   -1    0    0  501    0  0.00000000000E+00  0.00000000000E+00 -0.82423036775E+03  0.82423036776E+03  0.25500000920E-02 0.  1.
    10030    2    1    2    0    0  0.00000000000E+00  0.00000000000E+00 -0.45286978841E+03  0.11955909471E+04  0.11065019962E+04 0.  0.
        5    1    3    3  502    0  0.34320499860E+03 -0.36244399503E+03  0.31328873564E+02  0.50015888367E+03  0.46999998093E+01 0. -1.
       -5    1    3    3    0  502 -0.34320499860E+03  0.36244399503E+03 -0.48419866198E+03  0.69543206344E+03  0.46999998093E+01 0.  1.
</event>
<event>
 5   0  0.1479573E-03  0.1102130E+04  0.7818609E-02  0.9203118E-01
       -1   -1    0    0    0  501  0.00000000000E+00  0.00000000000E+00  0.76753165506E+03  0.76753165508E+03  0.50400001928E-02 0.  1.
        1   -1    0    0  501    0  0.00000000000E+00  0.00000000000E+00 -0.39564865073E+03  0.39564865076E+03  0.50400001928E-02 0. -1.
    10030    2    1    2    0    0  0.00000000000E+00  0.00000000000E+00  0.37188300433E+03  0.11631803058E+04  0.11021304165E+04 0.  0.
        4    1    3    3  502    0 -0.24406316252E+03  0.49398619526E+03  0.17638087766E+03  0.57853350405E+03  0.12699999809E+01 0. -1.
       -4    1    3    3    0  502  0.24406316252E+03 -0.49398619526E+03  0.19550212668E+03  0.58464680178E+03  0.12699999809E+01 0.  1.
</event>
<event>
 5   0  0.1480937E-03  0.1095824E+04  0.7818609E-02  0.9209272E-01
        1   -1    0    0  501    0  0.00000000000E+00  0.00000000000E+00  0.12937643791E+04  0.12937643791E+04  0.50400001928E-02 0. -1.
       -1   -1    0    0    0  501  0.00000000000E+00  0.00000000000E+00 -0.23204181103E+03  0.23204181108E+03  0.50400001928E-02 0.  1.
    10030    2    1    2    0    0  0.00000000000E+00  0.00000000000E+00  0.10617225680E+04  0.15258061902E+04  0.10958237625E+04 0.  0.
        1    1    3    3  502    0 -0.36501808653E+03  0.40188599846E+03  0.63371748410E+03  0.83447493008E+03  0.50400001928E-02 0. -1.
       -1    1    3    3    0  502  0.36501808653E+03 -0.40188599846E+03  0.42800508394E+03  0.69133126008E+03  0.50400001928E-02 0.  1.
</event>
<event>
 5   0  0.1468556E-03  0.1109078E+04  0.7818609E-02  0.9196389E-01
        1   -1    0    0  501    0  0.00000000000E+00  0.00000000000E+00  0.58042786809E+03  0.58042786811E+03  0.50400001928E-02 0.  1.
       -1   -1    0    0    0  501  0.00000000000E+00  0.00000000000E+00 -0.52980485801E+03  0.52980485804E+03  0.50400001928E-02 0. -1.
    10030    2    1    2    0    0  0.00000000000E+00  0.00000000000E+00  0.50623010074E+02  0.11102327261E+04  0.11090780031E+04 0.  0.
        5    1    3    3  502    0  0.24344494863E+03 -0.17085295167E+03  0.49381078702E+03  0.57647841025E+03  0.46999998093E+01 0.  1.
       -5    1    3    3    0  502 -0.24344494863E+03  0.17085295167E+03 -0.44318777695E+03  0.53375431590E+03  0.46999998093E+01 0. -1.
</event>
<event>
 5   0  0.2438115E-03  0.1109007E+04  0.7818609E-02  0.9196457E-01
       -2   -1    0    0    0  501  0.00000000000E+00  0.00000000000E+00  0.59217672863E+03  0.59217672863E+03  0.25500000920E-02 0.  1.
        2   -1    0    0  501    0  0.00000000000E+00  0.00000000000E+00 -0.51922708280E+03  0.51922708280E+03  0.25500000920E-02 0. -1.
    10030    2    1    2    0    0  0.00000000000E+00  0.00000000000E+00  0.72949645828E+02  0.11114038114E+04  0.11090071151E+04 0.  0.
        4    1    3    3  502    0 -0.27991782100E+03 -0.32662954799E+03 -0.31418382191E+03  0.53268558736E+03  0.12699999809E+01 0. -1.
       -4    1    3    3    0  502  0.27991782100E+03  0.32662954799E+03  0.38713346774E+03  0.57871822407E+03  0.12699999809E+01 0.  1.
</event>
<event>
 5   0  0.2467448E-03  0.1097280E+04  0.7818609E-02  0.9207847E-01
        2   -1    0    0  501    0  0.00000000000E+00  0.00000000000E+00  0.77459350325E+03  0.77459350326E+03  0.25500000920E-02 0.  1.
       -2   -1    0    0    0  501  0.00000000000E+00  0.00000000000E+00 -0.38859877738E+03  0.38859877739E+03  0.25500000920E-02 0. -1.
    10030    2    1    2    0    0  0.00000000000E+00  0.00000000000E+00  0.38599472587E+03  0.11631922806E+04  0.10972804351E+04 0.  0.
        1    1    3    3  502    0 -0.50414347855E+03  0.21354759925E+03  0.23036930917E+03  0.59399767907E+03  0.50400001928E-02 0. -1.
       -1    1    3    3    0  502  0.50414347855E+03 -0.21354759925E+03  0.15562541670E+03  0.56919460157E+03  0.50400001928E-02 0.  1.
</event>
<event>
 5   0  0.2392585E-03  0.1097935E+04  0.7818609E-02  0.9207207E-01
       -2   -1    0    0    0  501  0.00000000000E+00  0.00000000000E+00  0.68430617850E+03  0.68430617850E+03  0.25500000920E-02 0.  1.
        2   -1    0    0  501    0  0.00000000000E+00  0.00000000000E+00 -0.44039557183E+03  0.44039557183E+03  0.25500000920E-02 0. -1.
    10030    2    1    2    0    0  0.00000000000E+00  0.00000000000E+00  0.24391060667E+03  0.11247017503E+04  0.10979351726E+04 0.  0.
        5    1    3    3  502    0  0.23482688861E+03 -0.49389235916E+03  0.17076124715E+03  0.57293526997E+03  0.46999998093E+01 0.  1.
       -5    1    3    3    0  502 -0.23482688861E+03  0.49389235916E+03  0.73149359526E+02  0.55176648036E+03  0.46999998093E+01 0. -1.
</event>
<event>
 5   0  0.2438115E-03  0.1076985E+04  0.7818609E-02  0.9227918E-01
        2   -1    0    0  501    0  0.00000000000E+00  0.00000000000E+00  0.74214170970E+03  0.74214170970E+03  0.25500000920E-02 0. -1.
       -2   -1    0    0    0  501  0.00000000000E+00  0.00000000000E+00 -0.39072634228E+03  0.39072634228E+03  0.25500000920E-02 0.  1.
    10030    2    1    2    0    0  0.00000000000E+00  0.00000000000E+00  0.35141536742E+03  0.11328680520E+04  0.10769852658E+04 0.  0.
        4    1    3    3  502    0 -0.51910725025E+03  0.40899045643E+02  0.31374086199E+02  0.52166178256E+03  0.12699999809E+01 0.  1.
       -4    1    3    3    0  502  0.51910725025E+03 -0.40899045643E+02  0.32004128123E+03  0.61120626943E+03  0.12699999809E+01 0. -1.
</event>
<event>
 5   0  0.2488472E-03  0.1100944E+04  0.7818609E-02  0.9204273E-01
        2   -1    0    0  501    0  0.00000000000E+00  0.00000000000E+00  0.10790714241E+04  0.10790714241E+04  0.25500000920E-02 0.  1.
       -2   -1    0    0    0  501  0.00000000000E+00  0.00000000000E+00 -0.28081481164E+03  0.28081481165E+03  0.25500000920E-02 0. -1.
    10030    2    1    2    0    0  0.00000000000E+00  0.00000000000E+00  0.79825661250E+03  0.13598862358E+04  0.11009436656E+04 0.  0.
        2    1    3    3  502    0 -0.18473377083E+03  0.45109404885E+03  0.83228734401E+02  0.49450928124E+03  0.25500000920E-02 0. -1.
       -2    1    3    3    0  502  0.18473377083E+03 -0.45109404885E+03  0.71502787810E+03  0.86537695455E+03  0.25500000920E-02 0.  1.
</event>
<event>
 5   0  0.2392585E-03  0.1100173E+04  0.7818609E-02  0.9205023E-01
       -2   -1    0    0    0  501  0.00000000000E+00  0.00000000000E+00  0.60251818646E+03  0.60251818646E+03  0.25500000920E-02 0. -1.
        2   -1    0    0  501    0  0.00000000000E+00  0.00000000000E+00 -0.50221732431E+03  0.50221732431E+03  0.25500000920E-02 0.  1.
    10030    2    1    2    0    0  0.00000000000E+00  0.00000000000E+00  0.10030086215E+03  0.11047355108E+04  0.11001728436E+04 0.  0.
        5    1    3    3  502    0  0.39570160680E+03  0.24117384118E+03 -0.24743719884E+03  0.52534925589E+03  0.46999998093E+01 0. -1.
       -5    1    3    3    0  502 -0.39570160680E+03 -0.24117384118E+03  0.34773806100E+03  0.57938625489E+03  0.46999998093E+01 0.  1.
</event>
<event>
 5   0  0.2392585E-03  0.1080008E+04  0.7818609E-02  0.9224900E-01
       -2   -1    0    0    0  501  0.00000000000E+00  0.00000000000E+00  0.23516987564E+03  0.23516987565E+03  0.25500000920E-02 0. -1.
        2   -1    0    0  501    0  0.00000000000E+00  0.00000000000E+00 -0.12399726649E+04  0.12399726650E+04  0.25500000920E-02 0.  1.
    10030    2    1    2    0    0  0.00000000000E+00  0.00000000000E+00 -0.10048027893E+04  0.14751425406E+04  0.10800078100E+04 0.  0.
        5    1    3    3  502    0  0.15691538706E+03  0.51489376834E+03 -0.56105556016E+03  0.77752393079E+03  0.46999998093E+01 0. -1.
       -5    1    3    3    0  502 -0.15691538706E+03 -0.51489376834E+03 -0.44374722915E+03  0.69761860981E+03  0.46999998093E+01 0.  1.
</event>
<event>
 5   0  0.9631750E-04  0.1099527E+04  0.7818609E-02  0.9205653E-01
       -4   -1    0    0    0  501  0.00000000000E+00  0.00000000000E+00  0.68952183366E+03  0.68952300324E+03  0.12699999809E+01 0.  1.
        4   -1    0    0  501    0  0.00000000000E+00  0.00000000000E+00 -0.43833015521E+03  0.43833199503E+03  0.12699999809E+01 0. -1.
    10030    2    1    2    0    0  0.00000000000E+00  0.00000000000E+00  0.25119167845E+03  0.11278549983E+04  0.10995270064E+04 0.  0.
        5    1    3    3  502    0 -0.93971726819E+02  0.22057416938E+03  0.63304749341E+03  0.67694524782E+03  0.46999998093E+01 0.  1.
       -5    1    3    3    0  502  0.93971726819E+02 -0.22057416938E+03 -0.38185581496E+03  0.45090975045E+03  0.46999998093E+01 0. -1.
</event>
<event>
 5   0  0.1415400E-03  0.1102748E+04  0.7818609E-02  0.9202518E-01
        1   -1    0    0  501    0  0.00000000000E+00  0.00000000000E+00  0.73647830814E+03  0.73647830816E+03  0.50400001928E-02 0. -1.
       -1   -1    0    0    0  501  0.00000000000E+00  0.00000000000E+00 -0.41279324895E+03  0.41279324898E+03  0.50400001928E-02 0.  1.
    10030    2    1    2    0    0  0.00000000000E+00  0.00000000000E+00  0.32368505919E+03  0.11492715571E+04  0.11027479741E+04 0.  0.
        2    1    3    3  502    0  0.50050236576E+03 -0.74721708721E+02  0.39000172166E+03  0.63889537077E+03  0.25500000920E-02 0. -1.
       -2    1    3    3    0  502 -0.50050236576E+03  0.74721708721E+02 -0.66316662465E+02  0.51037618637E+03  0.25500000920E-02 0.  1.
</event>
<event>
 5   0  0.9631750E-04  0.1096170E+04  0.7818609E-02  0.9208933E-01
       -4   -1    0    0    0  501  0.00000000000E+00  0.00000000000E+00  0.48388895306E+03  0.48389061966E+03  0.12699999809E+01 0. -1.
        4   -1    0    0  501    0  0.00000000000E+00  0.00000000000E+00 -0.62079385263E+03  0.62079515169E+03  0.12699999809E+01 0.  1.
    10030    2    1    2    0    0  0.00000000000E+00  0.00000000000E+00 -0.13690489957E+03  0.11046857714E+04  0.10961695589E+04 0.  0.
        2    1    3    3  502    0 -0.32184308290E+03 -0.43983922509E+03 -0.12682839415E+03  0.55957747945E+03  0.25500000920E-02 0.  1.
       -2    1    3    3    0  502  0.32184308290E+03  0.43983922509E+03 -0.10076505414E+02  0.54510829191E+03  0.25500000920E-02 0. -1.
</event>
<event>
 5   0  0.1468556E-03  0.9614377E+03  0.7818609E-02  0.9351881E-01
       -1   -1    0    0    0  501  0.00000000000E+00  0.00000000000E+00  0.37384457470E+03  0.37384457473E+03  0.50400001928E-02 0. -1.
        1   -1    0    0  501    0  0.00000000000E+00  0.00000000000E+00 -0.61814625398E+03  0.61814625400E+03  0.50400001928E-02 0.  1.
    10030    2    1    2    0    0  0.00000000000E+00  0.00000000000E+00 -0.24430167928E+03  0.99199082873E+03  0.96143772226E+03 0.  0.
        5    1    3    3  502    0 -0.29677660877E+03  0.10631368089E+03  0.25227188921E+03  0.40378478220E+03  0.46999998093E+01 0. -1.
       -5    1    3    3    0  502  0.29677660877E+03 -0.10631368089E+03 -0.49657356848E+03  0.58820604653E+03  0.46999998093E+01 0.  1.
</event>
<event>
 5   0  0.2483036E-03  0.1108768E+04  0.7818609E-02  0.9196688E-01
       -2   -1    0    0    0  501  0.00000000000E+00  0.00000000000E+00  0.23572481807E+03  0.23572481809E+03  0.25500000920E-02 0.  1.
        2   -1    0    0  501    0  0.00000000000E+00  0.00000000000E+00 -0.13038155575E+04  0.13038155575E+04  0.25500000920E-02 0. -1.
    10030    2    1    2    0    0  0.00000000000E+00  0.00000000000E+00 -0.10680907395E+04  0.15395403756E+04  0.11087681184E+04 0.  0.
        3    1    3    3  502    0 -0.47574167565E+03 -0.27508769722E+03 -0.43259549666E+03  0.69938705811E+03  0.10100000352E+00 0.  1.
       -3    1    3    3    0  502  0.47574167565E+03  0.27508769722E+03 -0.63549524280E+03  0.84015331752E+03  0.10100000352E+00 0. -1.
</event>
<event>
 5   0  0.1480937E-03  0.1101822E+04  0.7818609E-02  0.9203418E-01
        1   -1    0    0  501    0  0.00000000000E+00  0.00000000000E+00  0.82308943649E+03  0.82308943650E+03  0.50400001928E-02 0. -1.
       -1   -1    0    0    0  501  0.00000000000E+00  0.00000000000E+00 -0.36873620550E+03  0.36873620554E+03  0.50400001928E-02 0.  1.
    10030    2    1    2    0    0  0.00000000000E+00  0.00000000000E+00  0.45435323098E+03  0.11918256420E+04  0.11018219015E+04 0.  0.
        1    1    3    3  502    0 -0.16290095899E+03 -0.17800159887E+03 -0.30853837028E+03  0.39168510005E+03  0.50400001928E-02 0.  1.
       -1    1    3    3    0  502  0.16290095899E+03  0.17800159887E+03  0.76289160126E+03  0.80014054199E+03  0.50400001928E-02 0. -1.
</event>
<event>
 5   0  0.1415400E-03  0.1099906E+04  0.7818609E-02  0.9205284E-01
       -1   -1    0    0    0  501  0.00000000000E+00  0.00000000000E+00  0.39883147814E+03  0.39883147818E+03  0.50400001928E-02 0.  1.
        1   -1    0    0  501    0  0.00000000000E+00  0.00000000000E+00 -0.75833585270E+03  0.75833585272E+03  0.50400001928E-02 0. -1.
    10030    2    1    2    0    0  0.00000000000E+00  0.00000000000E+00 -0.35950437456E+03  0.11571673309E+04  0.10999058307E+04 0.  0.
        2    1    3    3  502    0  0.46478558057E+03  0.17590114266E+03 -0.42755955453E+03  0.65557152208E+03  0.25500000920E-02 0. -1.
       -2    1    3    3    0  502 -0.46478558057E+03 -0.17590114266E+03  0.68055179969E+02  0.50159580881E+03  0.25500000920E-02 0.  1.
</event>
<event>
 5   0  0.1468556E-03  0.1094969E+04  0.7818609E-02  0.9210109E-01
        1   -1    0    0  501    0  0.00000000000E+00  0.00000000000E+00  0.47747640800E+03  0.47747640803E+03  0.50400001928E-02 0. -1.
       -1   -1    0    0    0  501  0.00000000000E+00  0.00000000000E+00 -0.62775764621E+03  0.62775764623E+03  0.50400001928E-02 0.  1.
    10030    2    1    2    0    0  0.00000000000E+00  0.00000000000E+00 -0.15028123821E+03  0.11052340543E+04  0.10949693439E+04 0.  0.
        5    1    3    3  502    0  0.12873923368E+03 -0.46251455994E+03 -0.34071136144E+03  0.58872729702E+03  0.46999998093E+01 0.  1.
       -5    1    3    3    0  502 -0.12873923368E+03  0.46251455994E+03  0.19043012323E+03  0.51650675724E+03  0.46999998093E+01 0. -1.
</event>
<event>
 5   0  0.2488472E-03  0.1108697E+04  0.7818609E-02  0.9196756E-01
        2   -1    0    0  501    0  0.00000000000E+00  0.00000000000E+00  0.51480432641E+03  0.51480432642E+03  0.25500000920E-02 0. -1.
       -2   -1    0    0    0  501  0.00000000000E+00  0.00000000000E+00 -0.59693059369E+03  0.59693059369E+03  0.25500000920E-02 0.  1.
    10030    2    1    2    0    0  0.00000000000E+00  0.00000000000E+00 -0.82126267273E+02  0.11117349201E+04  0.11086973477E+04 0.  0.
        2    1    3    3  502    0 -0.11408290669E+03 -0.54151326343E+03 -0.85562941604E+01  0.55346610939E+03  0.25500000920E-02 0.  1.
       -2    1    3    3    0  502  0.11408290669E+03  0.54151326343E+03 -0.73569973112E+02  0.55826881072E+03  0.25500000920E-02 0. -1.
</event>
<event>
 5   0  0.2438115E-03  0.1117296E+04  0.7818609E-02  0.9188497E-01
        2   -1    0    0  501    0  0.00000000000E+00  0.00000000000E+00  0.69101468355E+03  0.69101468356E+03  0.25500000920E-02 0. -1.
       -2   -1    0    0    0  501  0.00000000000E+00  0.00000000000E+00 -0.45163630216E+03  0.45163630216E+03  0.25500000920E-02 0.  1.
    10030    2    1    2    0    0  0.00000000000E+00  0.00000000000E+00  0.23937838140E+03  0.11426509857E+04  0.11172955140E+04 0.  0.
        4    1    3    3  502    0  0.47491951177E+03 -0.28125857168E+03  0.31531003839E+02  0.55285689279E+03  0.12699999809E+01 0.  1.
       -4    1    3    3    0  502 -0.47491951177E+03  0.28125857168E+03  0.20784737756E+03  0.58979409293E+03  0.12699999809E+01 0. -1.
</event>
<event>
 5   0  0.1509004E-03  0.9789398E+03  0.7818609E-02  0.9331950E-01
       -1   -1    0    0    0  501  0.00000000000E+00  0.00000000000E+00  0.17051854720E+04  0.17051854720E+04  0.50400001928E-02 0. -1.
        1   -1    0    0  501    0  0.00000000000E+00  0.00000000000E+00 -0.14050131165E+03  0.14050131174E+03  0.50400001928E-02 0.  1.
    10030    2    1    2    0    0  0.00000000000E+00  0.00000000000E+00  0.15646841603E+04  0.18456867837E+04  0.97893982553E+03 0.  0.
        3    1    3    3  502    0  0.42044808492E+02 -0.48660755358E+03  0.72194741480E+03  0.87164370993E+03  0.10100000352E+00 0.  1.
       -3    1    3    3    0  502 -0.42044808492E+02  0.48660755358E+03  0.84273674551E+03  0.97404307377E+03  0.10100000352E+00 0. -1.
</event>
<event>
 5   0  0.2488472E-03  0.1096642E+04  0.7818609E-02  0.9208471E-01
        2   -1    0    0  501    0  0.00000000000E+00  0.00000000000E+00  0.19541862003E+04  0.19541862003E+04  0.25500000920E-02 0. -1.
       -2   -1    0    0    0  501  0.00000000000E+00  0.00000000000E+00 -0.15385236522E+03  0.15385236525E+03  0.25500000920E-02 0.  1.
    10030    2    1    2    0    0  0.00000000000E+00  0.00000000000E+00  0.18003338351E+04  0.21080385656E+04  0.10966424559E+04 0.  0.
        2    1    3    3  502    0  0.43696839014E+03  0.10208360054E+03  0.29444342620E+03  0.53671162343E+03  0.25500000920E-02 0.  1.
       -2    1    3    3    0  502 -0.43696839014E+03 -0.10208360054E+03  0.15058904089E+04  0.15713269421E+04  0.25500000920E-02 0. -1.
</event>
<event>
 5   0  0.1468556E-03  0.1091692E+04  0.7818609E-02  0.9213327E-01
       -1   -1    0    0    0  501  0.00000000000E+00  0.00000000000E+00  0.27758817996E+03  0.27758818001E+03  0.50400001928E-02 0. -1.
        1   -1    0    0  501    0  0.00000000000E+00  0.00000000000E+00 -0.10733448804E+04  0.10733448804E+04  0.50400001928E-02 0.  1.
    10030    2    1    2    0    0  0.00000000000E+00  0.00000000000E+00 -0.79575670039E+03  0.13509330604E+04  0.10916919929E+04 0.  0.
        5    1    3    3  502    0  0.24011107891E+03  0.22857688817E+03  0.13871038038E+03  0.35939307679E+03  0.46999998093E+01 0. -1.
       -5    1    3    3    0  502 -0.24011107891E+03 -0.22857688817E+03 -0.93446708077E+03  0.99153998359E+03  0.46999998093E+01 0.  1.
</event>
<event>
 5   0  0.9631750E-04  0.1102126E+04  0.7818609E-02  0.9203122E-01
       -3   -1    0    0    0  501  0.00000000000E+00  0.00000000000E+00  0.30631326609E+03  0.30631328274E+03  0.10100000352E+00 0. -1.
        3   -1    0    0  501    0  0.00000000000E+00  0.00000000000E+00 -0.99137253045E+03  0.99137253559E+03  0.10100000352E+00 0.  1.
    10030    2    1    2    0    0  0.00000000000E+00  0.00000000000E+00 -0.68505926436E+03  0.12976858183E+04  0.11021262575E+04 0.  0.
        1    1    3    3  502    0  0.21124723142E+03 -0.28190697359E+03  0.15642320779E+03  0.38544150594E+03  0.50400001928E-02 0. -1.
       -1    1    3    3    0  502 -0.21124723142E+03  0.28190697359E+03 -0.84148247215E+03  0.91224431239E+03  0.50400001928E-02 0.  1.
</event>
<event>
 5   0  0.1479573E-03  0.1090950E+04  0.7818609E-02  0.9214058E-01
        1   -1    0    0  501    0  0.00000000000E+00  0.00000000000E+00  0.10391071949E+04  0.10391071949E+04  0.50400001928E-02 0.  1.
       -1   -1    0    0    0  501  0.00000000000E+00  0.00000000000E+00 -0.28634461229E+03  0.28634461234E+03  0.50400001928E-02 0. -1.
    10030    2    1    2    0    0  0.00000000000E+00  0.00000000000E+00  0.75276258260E+03  0.13254518072E+04  0.10909495807E+04 0.  0.
        4    1    3    3  502    0 -0.16399693560E+02  0.46524051846E+03  0.30976833584E+02  0.46656067889E+03  0.12699999809E+01 0. -1.
       -4    1    3    3    0  502  0.16399693560E+02 -0.46524051846E+03  0.72178574901E+03  0.85889112834E+03  0.12699999809E+01 0.  1.
</event>
<event>
 5   0  0.1415400E-03  0.1100348E+04  0.7818609E-02  0.9204853E-01
       -1   -1    0    0    0  501  0.00000000000E+00  0.00000000000E+00  0.17602102800E+04  0.17602102800E+04  0.50400001928E-02 0. -1.
        1   -1    0    0  501    0  0.00000000000E+00  0.00000000000E+00 -0.17196316834E+03  0.17196316842E+03  0.50400001928E-02 0.  1.
    10030    2    1    2    0    0  0.00000000000E+00  0.00000000000E+00  0.15882471117E+04  0.19321734484E+04  0.11003478301E+04 0.  0.
        2    1    3    3  502    0 -0.27286020447E+03  0.24282509923E+02  0.16319402254E+04  0.16547722594E+04  0.25500000920E-02 0. -1.
       -2    1    3    3    0  502  0.27286020447E+03 -0.24282509923E+02 -0.43693113681E+02  0.27740118900E+03  0.25500000920E-02 0.  1.
</event>
<event>
 5   0  0.1468556E-03  0.1101670E+04  0.7818609E-02  0.9203566E-01
        1   -1    0    0  501    0  0.00000000000E+00  0.00000000000E+00  0.18612709828E+03  0.18612709835E+03  0.50400001928E-02 0.  1.
       -1   -1    0    0    0  501  0.00000000000E+00  0.00000000000E+00 -0.16301712771E+04  0.16301712771E+04  0.50400001928E-02 0. -1.
    10030    2    1    2    0    0  0.00000000000E+00  0.00000000000E+00 -0.14440441788E+04  0.18162983754E+04  0.11016697319E+04 0.  0.
        5    1    3    3  502    0 -0.75873042398E+02 -0.47730336736E+03 -0.28637872847E+03  0.56179185574E+03  0.46999998093E+01 0.  1.
       -5    1    3    3    0  502  0.75873042398E+02  0.47730336736E+03 -0.11576654503E+04  0.12545065197E+04  0.46999998093E+01 0. -1.
</event>
<event>
 5   0  0.1480937E-03  0.1100266E+04  0.7818609E-02  0.9204932E-01
        1   -1    0    0  501    0  0.00000000000E+00  0.00000000000E+00  0.54999498121E+03  0.54999498123E+03  0.50400001928E-02 0. -1.
       -1   -1    0    0    0  501  0.00000000000E+00  0.00000000000E+00 -0.55027144423E+03  0.55027144426E+03  0.50400001928E-02 0.  1.
    10030    2    1    2    0    0  0.00000000000E+00  0.00000000000E+00 -0.27646302303E+00  0.11002664255E+04  0.11002663908E+04 0.  0.
        1    1    3    3  502    0 -0.28606324257E+03  0.64971100444E+02  0.46525743205E+03  0.55001627317E+03  0.50400001928E-02 0. -1.
       -1    1    3    3    0  502  0.28606324257E+03 -0.64971100444E+02 -0.46553389508E+03  0.55025015232E+03  0.50400001928E-02 0.  1.
</event>
<event>
 5   0  0.2483036E-03  0.1097079E+04  0.7818609E-02  0.9208043E-01
        2   -1    0    0  501    0  0.00000000000E+00  0.00000000000E+00  0.93460289809E+03  0.93460289809E+03  0.25500000920E-02 0.  1.
       -2   -1    0    0    0  501  0.00000000000E+00  0.00000000000E+00 -0.32195042598E+03  0.32195042599E+03  0.25500000920E-02 0. -1.
    10030    2    1    2    0    0  0.00000000000E+00  0.00000000000E+00  0.61265247211E+03  0.12565533241E+04  0.10970793976E+04 0.  0.
        3    1    3    3  502    0 -0.45034491015E+03 -0.31275870057E+03  0.28760216980E+03  0.61914744702E+03  0.10100000352E+00 0. -1.
       -3    1    3    3    0  502  0.45034491015E+03  0.31275870057E+03  0.32505030232E+03  0.63740587706E+03  0.10100000352E+00 0.  1.
</event>
<event>
 5   0  0.2483036E-03  0.1101422E+04  0.7818609E-02  0.9203807E-01
       -2   -1    0    0    0  501  0.00000000000E+00  0.00000000000E+00  0.35659442265E+03  0.35659442266E+03  0.25500000920E-02 0.  1.
        2   -1    0    0  501    0  0.00000000000E+00  0.00000000000E+00 -0.85049794736E+03  0.85049794737E+03  0.25500000920E-02 0. -1.
    10030    2    1    2    0    0  0.00000000000E+00  0.00000000000E+00 -0.49390352471E+03  0.12070923700E+04  0.11014223977E+04 0.  0.
        3    1    3    3  502    0 -0.45821782190E+03 -0.19117548508E+03 -0.50807802083E+03  0.71039068396E+03  0.10100000352E+00 0. -1.
       -3    1    3    3    0  502  0.45821782190E+03  0.19117548508E+03  0.14174496120E+02  0.49670168607E+03  0.10100000352E+00 0.  1.
</event>
<event>
 5   0  0.1468556E-03  0.1097886E+04  0.7818609E-02  0.9207255E-01
        1   -1    0    0  501    0  0.00000000000E+00  0.00000000000E+00  0.23334594274E+04  0.23334594274E+04  0.50400001928E-02 0. -1.
       -1   -1    0    0    0  501  0.00000000000E+00  0.00000000000E+00 -0.12913804188E+03  0.12913804197E+03  0.50400001928E-02 0.  1.
    10030    2    1    2    0    0  0.00000000000E+00  0.00000000000E+00  0.22043213855E+04  0.24625974694E+04  0.10978859347E+04 0.  0.
        5    1    3    3  502    0 -0.51786195346E+03 -0.17077068846E+03  0.96078428785E+03  0.11047498217E+04  0.46999998093E+01 0.  1.
       -5    1    3    3    0  502  0.51786195346E+03  0.17077068846E+03  0.12435370977E+04  0.13578476476E+04  0.46999998093E+01 0. -1.
</event>
<event>
 5   0  0.1509004E-03  0.1101747E+04  0.7818609E-02  0.9203491E-01
       -1   -1    0    0    0  501  0.00000000000E+00  0.00000000000E+00  0.62851908056E+03  0.62851908058E+03  0.50400001928E-02 0.  1.
        1   -1    0    0  501    0  0.00000000000E+00  0.00000000000E+00 -0.48281991490E+03  0.48281991493E+03  0.50400001928E-02 0. -1.
    10030    2    1    2    0    0  0.00000000000E+00  0.00000000000E+00  0.14569916567E+03  0.11113389955E+04  0.11017468475E+04 0.  0.
        3    1    3    3  502    0 -0.12122994593E+03  0.40086298334E+03  0.43383918608E+03  0.60299608687E+03  0.10100000352E+00 0.  1.
       -3    1    3    3    0  502  0.12122994593E+03 -0.40086298334E+03 -0.28814002041E+03  0.50834290864E+03  0.10100000352E+00 0. -1.
</event>
<event>
 5   0  0.1509004E-03  0.1108080E+04  0.7818609E-02  0.9197352E-01
       -1   -1    0    0    0  501  0.00000000000E+00  0.00000000000E+00  0.43821368660E+03  0.43821368663E+03  0.50400001928E-02 0. -1.
        1   -1    0    0  501    0  0.00000000000E+00  0.00000000000E+00 -0.70048105537E+03  0.70048105539E+03  0.50400001928E-02 0.  1.
    10030    2    1    2    0    0  0.00000000000E+00  0.00000000000E+00 -0.26226736876E+03  0.11386947420E+04  0.11080801157E+04 0.  0.
        3    1    3    3  502    0  0.13143939456E+03 -0.17185050976E+03  0.39300871234E+03  0.44862542318E+03  0.10100000352E+00 0. -1.
       -3    1    3    3    0  502 -0.13143939456E+03  0.17185050976E+03 -0.65527608110E+03  0.69006931884E+03  0.10100000352E+00 0.  1.
</event>
<event>
 5   0  0.2488472E-03  0.1097607E+04  0.7818609E-02  0.9207527E-01
        2   -1    0    0  501    0  0.00000000000E+00  0.00000000000E+00  0.19862905106E+04  0.19862905106E+04  0.25500000920E-02 0.  1.
       -2   -1    0    0    0  501  0.00000000000E+00  0.00000000000E+00 -0.15163215297E+03  0.15163215299E+03  0.25500000920E-02 0. -1.
    10030    2    1    2    0    0  0.00000000000E+00  0.00000000000E+00  0.18346583576E+04  0.21379226636E+04  0.10976074099E+04 0.  0.
        2    1    3    3  502    0 -0.11017753550E+03  0.43382305709E+03  0.15358722313E+04  0.15997640592E+04  0.25500000920E-02 0.  1.
       -2    1    3    3    0  502  0.11017753550E+03 -0.43382305709E+03  0.29878612635E+03  0.53815860441E+03  0.25500000920E-02 0. -1.
</event>
<event>
 5   0  0.2488472E-03  0.1096193E+04  0.7818609E-02  0.9208910E-01
        2   -1    0    0  501    0  0.00000000000E+00  0.00000000000E+00  0.15435583095E+04  0.15435583095E+04  0.25500000920E-02 0.  1.
       -2   -1    0    0    0  501  0.00000000000E+00  0.00000000000E+00 -0.19462156033E+03  0.19462156034E+03  0.25500000920E-02 0. -1.
    10030    2    1    2    0    0  0.00000000000E+00  0.00000000000E+00  0.13489367492E+04  0.17381798698E+04  0.10961929149E+04 0.  0.
        2    1    3    3  502    0  0.49116047721E+03 -0.21834222925E+03  0.50444259171E+03  0.73713924857E+03  0.25500000920E-02 0. -1.
       -2    1    3    3    0  502 -0.49116047721E+03  0.21834222925E+03  0.84449415746E+03  0.10010406213E+04  0.25500000920E-02 0.  1.
</event>
<event>
 5   0  0.1479573E-03  0.1104590E+04  0.7818609E-02  0.9200730E-01
       -1   -1    0    0    0  501  0.00000000000E+00  0.00000000000E+00  0.16967127295E+03  0.16967127302E+03  0.50400001928E-02 0.  1.
        1   -1    0    0  501    0  0.00000000000E+00  0.00000000000E+00 -0.17977675812E+04  0.17977675812E+04  0.50400001928E-02 0. -1.
    10030    2    1    2    0    0  0.00000000000E+00  0.00000000000E+00 -0.16280963082E+04  0.19674388542E+04  0.11045895419E+04 0.  0.
        4    1    3    3  502    0 -0.17565159020E+03 -0.51254282089E+03 -0.62325491675E+03  0.82583408052E+03  0.12699999809E+01 0. -1.
       -4    1    3    3    0  502  0.17565159020E+03  0.51254282089E+03 -0.10048413915E+04  0.11416047737E+04  0.12699999809E+01 0.  1.
</event>
<event>
 5   0  0.2467448E-03  0.1151013E+04  0.7818609E-02  0.9156849E-01
        2   -1    0    0  501    0  0.00000000000E+00  0.00000000000E+00  0.10715438617E+04  0.10715438617E+04  0.25500000920E-02 0. -1.
       -2   -1    0    0    0  501  0.00000000000E+00  0.00000000000E+00 -0.30909410365E+03  0.30909410366E+03  0.25500000920E-02 0.  1.
    10030    2    1    2    0    0  0.00000000000E+00  0.00000000000E+00  0.76244975800E+03  0.13806379653E+04  0.11510132744E+04 0.  0.
        1    1    3    3  502    0 -0.29382629919E+03 -0.43800340140E+03  0.65744039604E+03  0.84285748980E+03  0.50400001928E-02 0.  1.
       -1    1    3    3    0  502  0.29382629919E+03  0.43800340140E+03  0.10500936196E+03  0.53778047553E+03  0.50400001928E-02 0. -1.
</event>
<event>
 5   0  0.9631750E-04  0.1100464E+04  0.7818609E-02  0.9204740E-01
       -3   -1    0    0    0  501  0.00000000000E+00  0.00000000000E+00  0.10288111977E+04  0.10288112026E+04  0.10100000352E+00 0. -1.
        3   -1    0    0  501    0  0.00000000000E+00  0.00000000000E+00 -0.29427664526E+03  0.29427666259E+03  0.10100000352E+00 0.  1.
    10030    2    1    2    0    0  0.00000000000E+00  0.00000000000E+00  0.73453455241E+03  0.13230878652E+04  0.11004637615E+04 0.  0.
        4    1    3    3  502    0  0.18968560657E+03  0.39954374945E+03  0.76080289337E+03  0.88002187048E+03  0.12699999809E+01 0. -1.
       -4    1    3    3    0  502 -0.18968560657E+03 -0.39954374945E+03 -0.26268340955E+02  0.44306599475E+03  0.12699999809E+01 0.  1.
</event>
<event>
 5   0  0.2392585E-03  0.1096565E+04  0.7818609E-02  0.9208546E-01
        2   -1    0    0  501    0  0.00000000000E+00  0.00000000000E+00  0.57957000623E+03  0.57957000623E+03  0.25500000920E-02 0.  1.
       -2   -1    0    0    0  501  0.00000000000E+00  0.00000000000E+00 -0.51868384920E+03  0.51868384921E+03  0.25500000920E-02 0. -1.
    10030    2    1    2    0    0  0.00000000000E+00  0.00000000000E+00  0.60886157029E+02  0.10982538554E+04  0.10965648211E+04 0.  0.
        5    1    3    3  502    0 -0.53939040649E+01  0.50915772138E+02 -0.51626400263E+03  0.51881800321E+03  0.46999998093E+01 0. -1.
       -5    1    3    3    0  502  0.53939040649E+01 -0.50915772138E+02  0.57715015966E+03  0.57943585222E+03  0.46999998093E+01 0.  1.
</event>
<event>
 5   0  0.2392585E-03  0.1115138E+04  0.7818609E-02  0.9190562E-01
        2   -1    0    0  501    0  0.00000000000E+00  0.00000000000E+00  0.11497083798E+04  0.11497083798E+04  0.25500000920E-02 0. -1.
       -2   -1    0    0    0  501  0.00000000000E+00  0.00000000000E+00 -0.27040171545E+03  0.27040171546E+03  0.25500000920E-02 0.  1.
    10030    2    1    2    0    0  0.00000000000E+00  0.00000000000E+00  0.87930666430E+03  0.14201100952E+04  0.11151378716E+04 0.  0.
        5    1    3    3  502    0  0.12955151266E+03  0.28391426646E+03 -0.14873221943E+03  0.34573728209E+03  0.46999998093E+01 0.  1.
       -5    1    3    3    0  502 -0.12955151266E+03 -0.28391426646E+03  0.10280388837E+04  0.10743728131E+04  0.46999998093E+01 0. -1.
</event>
<event>
 5   0  0.2488472E-03  0.1094348E+04  0.7818609E-02  0.9210718E-01
       -2   -1    0    0    0  501  0.00000000000E+00  0.00000000000E+00  0.36189130426E+03  0.36189130427E+03  0.25500000920E-02 0. -1.
        2   -1    0    0  501    0  0.00000000000E+00  0.00000000000E+00 -0.82731850436E+03  0.82731850437E+03  0.25500000920E-02 0.  1.
    10030    2    1    2    0    0  0.00000000000E+00  0.00000000000E+00 -0.46542720010E+03  0.11892098086E+04  0.10943479750E+04 0.  0.
        2    1    3    3  502    0  0.51063940094E+03 -0.11334549461E+03 -0.58167838051E+02  0.52629202571E+03  0.25500000920E-02 0. -1.
       -2    1    3    3    0  502 -0.51063940094E+03  0.11334549461E+03 -0.40725936205E+03  0.66291778293E+03  0.25500000920E-02 0.  1.
</event>
<event>
 5   0  0.1468556E-03  0.1105039E+04  0.7818609E-02  0.9200295E-01
        1   -1    0    0  501    0  0.00000000000E+00  0.00000000000E+00  0.48559191122E+03  0.48559191125E+03  0.50400001928E-02 0. -1.
       -1   -1    0    0    0  501  0.00000000000E+00  0.00000000000E+00 -0.62867118600E+03  0.62867118602E+03  0.50400001928E-02 0.  1.
    10030    2    1    2    0    0  0.00000000000E+00  0.00000000000E+00 -0.14307927478E+03  0.11142630973E+04  0.11050387193E+04 0.  0.
        5    1    3    3  502    0 -0.35099118483E+03 -0.22092611717E+03 -0.43962433126E+03  0.60439623072E+03  0.46999998093E+01 0.  1.
       -5    1    3    3    0  502  0.35099118483E+03  0.22092611717E+03  0.29654505648E+03  0.50986686654E+03  0.46999998093E+01 0. -1.
</event>
<event>
 5   0  0.2483036E-03  0.1095817E+04  0.7818609E-02  0.9209279E-01
       -2   -1    0    0    0  501  0.00000000000E+00  0.00000000000E+00  0.13093235677E+03  0.13093235679E+03  0.25500000920E-02 0. -1.
        2   -1    0    0  501    0  0.00000000000E+00  0.00000000000E+00 -0.22928141633E+04  0.22928141633E+04  0.25500000920E-02 0.  1.
    10030    2    1    2    0    0  0.00000000000E+00  0.00000000000E+00 -0.21618818065E+04  0.24237465201E+04  0.10958167038E+04 0.  0.
        3    1    3    3  502    0  0.29934355154E+03  0.44234153421E+03 -0.81067384992E+03  0.97080620923E+03  0.10100000352E+00 0. -1.
       -3    1    3    3    0  502 -0.29934355154E+03 -0.44234153421E+03 -0.13512079566E+04  0.14529403109E+04  0.10100000352E+00 0.  1.
</event>
<event>
 5   0  0.1509004E-03  0.1100959E+04  0.7818609E-02  0.9204258E-01
       -1   -1    0    0    0  501  0.00000000000E+00  0.00000000000E+00  0.21938098563E+03  0.21938098569E+03  0.50400001928E-02 0.  1.
        1   -1    0    0  501    0  0.00000000000E+00  0.00000000000E+00 -0.13812849948E+04  0.13812849948E+04  0.50400001928E-02 0. -1.
    10030    2    1    2    0    0  0.00000000000E+00  0.00000000000E+00 -0.11619040091E+04  0.16006659805E+04  0.11009589704E+04 0.  0.
        3    1    3    3  502    0 -0.23045583527E+03 -0.34095986281E+03 -0.49410692689E+02  0.41449360286E+03  0.10100000352E+00 0.  1.
       -3    1    3    3    0  502  0.23045583527E+03  0.34095986281E+03 -0.11124933165E+04  0.11861723776E+04  0.10100000352E+00 0. -1.
</event>
<event>
 5   0  0.2438115E-03  0.1125261E+04  0.7818609E-02  0.9180915E-01
        2   -1    0    0  501    0  0.00000000000E+00  0.00000000000E+00  0.17469218237E+04  0.17469218237E+04  0.25500000920E-02 0.  1.
       -2   -1    0    0    0  501  0.00000000000E+00  0.00000000000E+00 -0.18120618661E+03  0.18120618663E+03  0.25500000920E-02 0. -1.
    10030    2    1    2    0    0  0.00000000000E+00  0.00000000000E+00  0.15657156371E+04  0.19281280103E+04  0.11252609333E+04 0.  0.
        4    1    3    3  502    0  0.48668717849E+03 -0.27853707266E+03  0.70425869113E+03  0.90023842813E+03  0.12699999809E+01 0.  1.
       -4    1    3    3    0  502 -0.48668717849E+03  0.27853707266E+03  0.86145694595E+03  0.10278895822E+04  0.12699999809E+01 0. -1.
</event>
<event>
 5   0  0.1415400E-03  0.1102054E+04  0.7818609E-02  0.9203192E-01
        1   -1    0    0  501    0  0.00000000000E+00  0.00000000000E+00  0.14600461154E+04  0.14600461154E+04  0.50400001928E-02 0. -1.
       -1   -1    0    0    0  501  0.00000000000E+00  0.00000000000E+00 -0.20795972921E+03  0.20795972928E+03  0.50400001928E-02 0.  1.
    10030    2    1    2    0    0  0.00000000000E+00  0.00000000000E+00  0.12520863862E+04  0.16680058447E+04  0.11020540728E+04 0.  0.
        2    1    3    3  502    0 -0.27207371701E+03  0.26981551635E+03  0.26698888760E+02  0.38410591120E+03  0.25500000920E-02 0.  1.
       -2    1    3    3    0  502  0.27207371701E+03 -0.26981551635E+03  0.12253874974E+04  0.12838999335E+04  0.25500000920E-02 0. -1.
</event>
<event>
 5   0  0.1480937E-03  0.1090875E+04  0.7818609E-02  0.9214132E-01
        1   -1    0    0  501    0  0.00000000000E+00  0.00000000000E+00  0.65292649988E+03  0.65292649990E+03  0.50400001928E-02 0. -1.
       -1   -1    0    0    0  501  0.00000000000E+00  0.00000000000E+00 -0.45564411640E+03  0.45564411643E+03  0.50400001928E-02 0.  1.
    10030    2    1    2    0    0  0.00000000000E+00  0.00000000000E+00  0.19728238348E+03  0.11085706163E+04  0.10908750948E+04 0.  0.
        1    1    3    3  502    0  0.74676223896E+02  0.49980285535E+03  0.30720856037E+03  0.59140217469E+03  0.50400001928E-02 0.  1.
       -1    1    3    3    0  502 -0.74676223896E+02 -0.49980285535E+03 -0.10992617689E+03  0.51716844164E+03  0.50400001928E-02 0. -1.
</event>
<event>
 5   0  0.2392585E-03  0.1098280E+04  0.7818609E-02  0.9206870E-01
        2   -1    0    0  501    0  0.00000000000E+00  0.00000000000E+00  0.35468434241E+03  0.35468434242E+03  0.25500000920E-02 0.  1.
       -2   -1    0    0    0  501  0.00000000000E+00  0.00000000000E+00 -0.85020582999E+03  0.85020583000E+03  0.25500000920E-02 0. -1.
    10030    2    1    2    0    0  0.00000000000E+00  0.00000000000E+00 -0.49552148758E+03  0.12048901724E+04  0.10982799201E+04 0.  0.
        5    1    3    3  502    0  0.30014947102E+02 -0.51487329779E+03 -0.45457286871E+03  0.68749835839E+03  0.46999998093E+01 0. -1.
       -5    1    3    3    0  502 -0.30014947102E+02  0.51487329779E+03 -0.40948618876E+02  0.51739181402E+03  0.46999998093E+01 0.  1.
</event>
<event>
 5   0  0.1468556E-03  0.1103458E+04  0.7818609E-02  0.9201828E-01
        1   -1    0    0  501    0  0.00000000000E+00  0.00000000000E+00  0.56508608621E+03  0.56508608623E+03  0.50400001928E-02 0.  1.
       -1   -1    0    0    0  501  0.00000000000E+00  0.00000000000E+00 -0.53868812206E+03  0.53868812208E+03  0.50400001928E-02 0. -1.
    10030    2    1    2    0    0  0.00000000000E+00  0.00000000000E+00  0.26397964148E+02  0.11037742083E+04  0.11034584951E+04 0.  0.
        5    1    3    3  502    0 -0.20327061553E+03  0.58602490412E+02 -0.49648569056E+03  0.53969743927E+03  0.46999998093E+01 0. -1.
       -5    1    3    3    0  502  0.20327061553E+03 -0.58602490412E+02  0.52288365471E+03  0.56407676905E+03  0.46999998093E+01 0.  1.
</event>
<event>
 5   0  0.2483036E-03  0.1108903E+04  0.7818609E-02  0.9196557E-01
       -2   -1    0    0    0  501  0.00000000000E+00  0.00000000000E+00  0.13203824619E+03  0.13203824622E+03  0.25500000920E-02 0. -1.
        2   -1    0    0  501    0  0.00000000000E+00  0.00000000000E+00 -0.23282390041E+04  0.23282390041E+04  0.25500000920E-02 0.  1.
    10030    2    1    2    0    0  0.00000000000E+00  0.00000000000E+00 -0.21962007579E+04  0.24602772503E+04  0.11089032327E+04 0.  0.
        3    1    3    3  502    0  0.65920007242E+02  0.12592694337E+03  0.90929745861E+02  0.16873432166E+03  0.10100000352E+00 0. -1.
       -3    1    3    3    0  502 -0.65920007242E+02 -0.12592694337E+03 -0.22871305038E+04  0.22915429287E+04  0.10100000352E+00 0.  1.
</event>
<event>
 5   0  0.2467448E-03  0.1102760E+04  0.7818609E-02  0.9202506E-01
        2   -1    0    0  501    0  0.00000000000E+00  0.00000000000E+00  0.11542412734E+04  0.11542412734E+04  0.25500000920E-02 0.  1.
       -2   -1    0    0    0  501  0.00000000000E+00  0.00000000000E+00 -0.26339372357E+03  0.26339372359E+03  0.25500000920E-02 0. -1.
    10030    2    1    2    0    0  0.00000000000E+00  0.00000000000E+00  0.89084754982E+03  0.14176349970E+04  0.11027600046E+04 0.  0.
        1    1    3    3  502    0 -0.32202418925E+03 -0.41789229990E+03  0.23939178731E+03  0.57934616650E+03  0.50400001928E-02 0. -1.
       -1    1    3    3    0  502  0.32202418925E+03  0.41789229990E+03  0.65145576251E+03  0.83828883048E+03  0.50400001928E-02 0.  1.
</event>
<event>
 5   0  0.1415400E-03  0.1105552E+04  0.7818609E-02  0.9199798E-01
        1   -1    0    0  501    0  0.00000000000E+00  0.00000000000E+00  0.11311401651E+04  0.11311401651E+04  0.50400001928E-02 0. -1.
       -1   -1    0    0    0  501  0.00000000000E+00  0.00000000000E+00 -0.27013554658E+03  0.27013554662E+03  0.50400001928E-02 0.  1.
    10030    2    1    2    0    0  0.00000000000E+00  0.00000000000E+00  0.86100461850E+03  0.14012757117E+04  0.11055517478E+04 0.  0.
        2    1    3    3  502    0  0.24102230342E+03 -0.31031292546E+03  0.92331847413E+03  0.10034454978E+04  0.25500000920E-02 0. -1.
       -2    1    3    3    0  502 -0.24102230342E+03  0.31031292546E+03 -0.62313855632E+02  0.39783021387E+03  0.25500000920E-02 0.  1.
</event>
<event>
 5   0  0.1415400E-03  0.1097759E+04  0.7818609E-02  0.9207379E-01
       -1   -1    0    0    0  501  0.00000000000E+00  0.00000000000E+00  0.18939650584E+03  0.18939650590E+03  0.50400001928E-02 0. -1.
        1   -1    0    0  501    0  0.00000000000E+00  0.00000000000E+00 -0.15906772769E+04  0.15906772769E+04  0.50400001928E-02 0.  1.
    10030    2    1    2    0    0  0.00000000000E+00  0.00000000000E+00 -0.14012807711E+04  0.17800737828E+04  0.10977590231E+04 0.  0.
        2    1    3    3  502    0 -0.68125463696E+02 -0.32379355840E+03 -0.14107718026E+04  0.14490550115E+04  0.25500000920E-02 0.  1.
       -2    1    3    3    0  502  0.68125463696E+02  0.32379355840E+03  0.94910315710E+01  0.33101877130E+03  0.25500000920E-02 0. -1.
</event>
<event>
 5   0  0.2483036E-03  0.1129042E+04  0.7818609E-02  0.9177339E-01
       -2   -1    0    0    0  501  0.00000000000E+00  0.00000000000E+00  0.10232671028E+04  0.10232671028E+04  0.25500000920E-02 0.  1.
        2   -1    0    0  501    0  0.00000000000E+00  0.00000000000E+00 -0.31143744282E+03  0.31143744283E+03  0.25500000920E-02 0. -1.
    10030    2    1    2    0    0  0.00000000000E+00  0.00000000000E+00  0.71182965998E+03  0.13347045456E+04  0.11290415224E+04 0.  0.
        3    1    3    3  502    0 -0.26302101960E+03  0.16003430181E+03 -0.20344997730E+03  0.36902972505E+03  0.10100000352E+00 0. -1.
       -3    1    3    3    0  502  0.26302101960E+03 -0.16003430181E+03  0.91527963728E+03  0.96567482059E+03  0.10100000352E+00 0.  1.
</event>
<event>
 5   0  0.2483036E-03  0.1148877E+04  0.7818609E-02  0.9158820E-01
       -2   -1    0    0    0  501  0.00000000000E+00  0.00000000000E+00  0.42025230295E+03  0.42025230296E+03  0.25500000920E-02 0.  1.
        2   -1    0    0  501    0  0.00000000000E+00  0.00000000000E+00 -0.78519413621E+03  0.78519413622E+03  0.25500000920E-02 0. -1.
    10030    2    1    2    0    0  0.00000000000E+00  0.00000000000E+00 -0.36494183326E+03  0.12054464392E+04  0.11488770935E+04 0.  0.
        3    1    3    3  502    0  0.38129474592E+03 -0.42512266696E+03 -0.24769837801E+03  0.62247045062E+03  0.10100000352E+00 0. -1.
       -3    1    3    3    0  502 -0.38129474592E+03  0.42512266696E+03 -0.11724345525E+03  0.58297598855E+03  0.10100000352E+00 0.  1.
</event>
<event>
 5   0  0.1479573E-03  0.1104009E+04  0.7818609E-02  0.9201293E-01
        1   -1    0    0  501    0  0.00000000000E+00  0.00000000000E+00  0.10118609059E+04  0.10118609060E+04  0.50400001928E-02 0.  1.
       -1   -1    0    0    0  501  0.00000000000E+00  0.00000000000E+00 -0.30113732860E+03  0.30113732864E+03  0.50400001928E-02 0. -1.
    10030    2    1    2    0    0  0.00000000000E+00  0.00000000000E+00  0.71072357735E+03  0.13129982346E+04  0.11040092213E+04 0.  0.
        4    1    3    3  502    0 -0.20035748544E+03  0.51435716226E+03  0.35413448799E+03  0.65583478165E+03  0.12699999809E+01 0. -1.
       -4    1    3    3    0  502  0.20035748544E+03 -0.51435716226E+03  0.35658908936E+03  0.65716345295E+03  0.12699999809E+01 0.  1.
</event>
<event>
 5   0  0.1479573E-03  0.1101041E+04  0.7818609E-02  0.9204178E-01
        1   -1    0    0  501    0  0.00000000000E+00  0.00000000000E+00  0.88868099981E+03  0.88868099982E+03  0.50400001928E-02 0. -1.
       -1   -1    0    0    0  501  0.00000000000E+00  0.00000000000E+00 -0.34103675705E+03  0.34103675708E+03  0.50400001928E-02 0.  1.
    10030    2    1    2    0    0  0.00000000000E+00  0.00000000000E+00  0.54764424276E+03  0.12297177569E+04  0.11010411187E+04 0.  0.
        4    1    3    3  502    0 -0.48131210928E+02  0.54782620466E+03  0.30210137690E+03  0.62745280205E+03  0.12699999809E+01 0. -1.
       -4    1    3    3    0  502  0.48131210928E+02 -0.54782620466E+03  0.24554286586E+03  0.60226495486E+03  0.12699999809E+01 0.  1.
</event>
<event>
 5   0  0.1480937E-03  0.1094034E+04  0.7818609E-02  0.9211026E-01
        1   -1    0    0  501    0  0.00000000000E+00  0.00000000000E+00  0.48907138685E+03  0.48907138687E+03  0.50400001928E-02 0.  1.
       -1   -1    0    0    0  501  0.00000000000E+00  0.00000000000E+00 -0.61182786246E+03  0.61182786248E+03  0.50400001928E-02 0. -1.
    10030    2    1    2    0    0  0.00000000000E+00  0.00000000000E+00 -0.12275647561E+03  0.11008992494E+04  0.10940338226E+04 0.  0.
        1    1    3    3  502    0 -0.71123115604E+02 -0.86196520317E+02  0.47746239062E+03  0.49036585543E+03  0.50400001928E-02 0.  1.
       -1    1    3    3    0  502  0.71123115604E+02  0.86196520317E+02 -0.60021886623E+03  0.61053339392E+03  0.50400001928E-02 0. -1.
</event>
<event>
 5   0  0.1480937E-03  0.1120691E+04  0.7818609E-02  0.9185257E-01
       -1   -1    0    0    0  501  0.00000000000E+00  0.00000000000E+00  0.36848486395E+03  0.36848486399E+03  0.50400001928E-02 0.  1.
        1   -1    0    0  501    0  0.00000000000E+00  0.00000000000E+00 -0.85210283473E+03  0.85210283474E+03  0.50400001928E-02 0. -1.
    10030    2    1    2    0    0  0.00000000000E+00  0.00000000000E+00 -0.48361797078E+03  0.12205876987E+04  0.11206908533E+04 0.  0.
        1    1    3    3  502    0 -0.41725766340E+03  0.36156695787E+03 -0.13761322432E+03  0.56900968553E+03  0.50400001928E-02 0.  1.
       -1    1    3    3    0  502  0.41725766340E+03 -0.36156695787E+03 -0.34600474645E+03  0.65157801320E+03  0.50400001928E-02 0. -1.
</event>
<event>
 5   0  0.1415400E-03  0.1112066E+04  0.7818609E-02  0.9193511E-01
       -1   -1    0    0    0  501  0.00000000000E+00  0.00000000000E+00  0.39003332516E+03  0.39003332519E+03  0.50400001928E-02 0.  1.
        1   -1    0    0  501    0  0.00000000000E+00  0.00000000000E+00 -0.79268225833E+03  0.79268225834E+03  0.50400001928E-02 0. -1.
    10030    2    1    2    0    0  0.00000000000E+00  0.00000000000E+00 -0.40264893317E+03  0.11827155835E+04  0.11120656402E+04 0.  0.
        2    1    3    3  502    0  0.17270894271E+03  0.42044379701E+02 -0.76165095958E+03  0.78211782551E+03  0.25500000920E-02 0. -1.
       -2    1    3    3    0  502 -0.17270894271E+03 -0.42044379701E+02  0.35900202641E+03  0.40059775802E+03  0.25500000920E-02 0.  1.
</event>
<event>
 5   0  0.1468556E-03  0.1094897E+04  0.7818609E-02  0.9210179E-01
        1   -1    0    0  501    0  0.00000000000E+00  0.00000000000E+00  0.57099216362E+03  0.57099216364E+03  0.50400001928E-02 0.  1.
       -1   -1    0    0    0  501  0.00000000000E+00  0.00000000000E+00 -0.52487605761E+03  0.52487605763E+03  0.50400001928E-02 0. -1.
    10030    2    1    2    0    0  0.00000000000E+00  0.00000000000E+00  0.46116106011E+02  0.10958682213E+04  0.10948974670E+04 0.  0.
        5    1    3    3  502    0  0.41956524419E+02 -0.20586473786E+03  0.52901330184E+03  0.56922561763E+03  0.46999998093E+01 0.  1.
       -5    1    3    3    0  502 -0.41956524419E+02  0.20586473786E+03 -0.48289719583E+03  0.52664260365E+03  0.46999998093E+01 0. -1.
</event>
<event>
 5   0  0.1415400E-03  0.1113702E+04  0.7818609E-02  0.9191939E-01
       -1   -1    0    0    0  501  0.00000000000E+00  0.00000000000E+00  0.39721995744E+03  0.39721995747E+03  0.50400001928E-02 0. -1.
        1   -1    0    0  501    0  0.00000000000E+00  0.00000000000E+00 -0.78063296409E+03  0.78063296410E+03  0.50400001928E-02 0.  1.
    10030    2    1    2    0    0  0.00000000000E+00  0.00000000000E+00 -0.38341300665E+03  0.11778529216E+04  0.11137019221E+04 0.  0.
        2    1    3    3  502    0  0.51837964745E+03  0.49257369320E+02 -0.40040333712E+03  0.65686115710E+03  0.25500000920E-02 0.  1.
       -2    1    3    3    0  502 -0.51837964745E+03 -0.49257369320E+02  0.16990330472E+02  0.52099176448E+03  0.25500000920E-02 0. -1.
</event>
<event>
 5   0  0.2467448E-03  0.1098736E+04  0.7818609E-02  0.9206424E-01
        2   -1    0    0  501    0  0.00000000000E+00  0.00000000000E+00  0.13257707766E+04  0.13257707766E+04  0.25500000920E-02 0. -1.
       -2   -1    0    0    0  501  0.00000000000E+00  0.00000000000E+00 -0.22764522181E+03  0.22764522182E+03  0.25500000920E-02 0.  1.
    10030    2    1    2    0    0  0.00000000000E+00  0.00000000000E+00  0.10981255548E+04  0.15534159985E+04  0.10987363333E+04 0.  0.
        1    1    3    3  502    0  0.12924082373E+03 -0.51207938301E+03  0.33522085481E+03  0.62554097112E+03  0.50400001928E-02 0.  1.
       -1    1    3    3    0  502 -0.12924082373E+03  0.51207938301E+03  0.76290470001E+03  0.92787502734E+03  0.50400001928E-02 0. -1.
</event>
<event>
 5   0  0.2467448E-03  0.1103331E+04  0.7818609E-02  0.9201951E-01
        2   -1    0    0  501    0  0.00000000000E+00  0.00000000000E+00  0.96111488225E+03  0.96111488226E+03  0.25500000920E-02 0.  1.
       -2   -1    0    0    0  501  0.00000000000E+00  0.00000000000E+00 -0.31664770136E+03  0.31664770137E+03  0.25500000920E-02 0. -1.
    10030    2    1    2    0    0  0.00000000000E+00  0.00000000000E+00  0.64446718090E+03  0.12777625836E+04  0.11033309897E+04 0.  0.
        1    1    3    3  502    0  0.11163153545E+03  0.32450580994E+02  0.94676835500E+03  0.95387890110E+03  0.50400001928E-02 0.  1.
       -1    1    3    3    0  502 -0.11163153545E+03 -0.32450580994E+02 -0.30230117410E+03  0.32388368252E+03  0.50400001928E-02 0. -1.
</event>
<event>
 5   0  0.2488472E-03  0.1101958E+04  0.7818609E-02  0.9203286E-01
        2   -1    0    0  501    0  0.00000000000E+00  0.00000000000E+00  0.10692042994E+04  0.10692042994E+04  0.25500000920E-02 0. -1.
       -2   -1    0    0    0  501  0.00000000000E+00  0.00000000000E+00 -0.28392868558E+03  0.28392868559E+03  0.25500000920E-02 0.  1.
    10030    2    1    2    0    0  0.00000000000E+00  0.00000000000E+00  0.78527561386E+03  0.13531329850E+04  0.11019578420E+04 0.  0.
        2    1    3    3  502    0  0.18410760332E+02 -0.63098731743E+02 -0.27909711222E+03  0.28673263522E+03  0.25500000920E-02 0.  1.
       -2    1    3    3    0  502 -0.18410760332E+02  0.63098731743E+02  0.10643727261E+04  0.10664003498E+04  0.25500000920E-02 0. -1.
</event>
<event>
 5   0  0.1479573E-03  0.1101229E+04  0.7818609E-02  0.9203994E-01
        1   -1    0    0  501    0  0.00000000000E+00  0.00000000000E+00  0.24186135052E+03  0.24186135058E+03  0.50400001928E-02 0.  1.
       -1   -1    0    0    0  501  0.00000000000E+00  0.00000000000E+00 -0.12535139655E+04  0.12535139655E+04  0.50400001928E-02 0. -1.
    10030    2    1    2    0    0  0.00000000000E+00  0.00000000000E+00 -0.10116526150E+04  0.14953753161E+04  0.11012294595E+04 0.  0.
        4    1    3    3  502    0  0.16035404486E+03 -0.37378720712E+01 -0.12210845221E+04  0.12315747702E+04  0.12699999809E+01 0. -1.
       -4    1    3    3    0  502 -0.16035404486E+03  0.37378720712E+01  0.20943190717E+03  0.26380054592E+03  0.12699999809E+01 0.  1.
</event>
<event>
 5   0  0.1479573E-03  0.1124580E+04  0.7818609E-02  0.9181560E-01
       -1   -1    0    0    0  501  0.00000000000E+00  0.00000000000E+00  0.23822039220E+03  0.23822039225E+03  0.50400001928E-02 0.  1.
        1   -1    0    0  501    0  0.00000000000E+00  0.00000000000E+00 -0.13272162959E+04  0.13272162959E+04  0.50400001928E-02 0. -1.
    10030    2    1    2    0    0  0.00000000000E+00  0.00000000000E+00 -0.10889959037E+04  0.15654366881E+04  0.11245798977E+04 0.  0.
        4    1    3    3  502    0  0.52195260705E+03  0.20052255515E+03 -0.62713928423E+03  0.84020778017E+03  0.12699999809E+01 0. -1.
       -4    1    3    3    0  502 -0.52195260705E+03 -0.20052255515E+03 -0.46185661943E+03  0.72522890796E+03  0.12699999809E+01 0.  1.
</event>
<event>
 5   0  0.1480937E-03  0.1089034E+04  0.7818609E-02  0.9215946E-01
        1   -1    0    0  501    0  0.00000000000E+00  0.00000000000E+00  0.40948676252E+03  0.40948676255E+03  0.50400001928E-02 0.  1.
       -1   -1    0    0    0  501  0.00000000000E+00  0.00000000000E+00 -0.72407425782E+03  0.72407425784E+03  0.50400001928E-02 0. -1.
    10030    2    1    2    0    0  0.00000000000E+00  0.00000000000E+00 -0.31458749530E+03  0.11335610204E+04  0.10890341109E+04 0.  0.
        1    1    3    3  502    0 -0.41603217336E+02  0.50371595543E+03  0.53567971397E+02  0.50826186069E+03  0.50400001928E-02 0.  1.
       -1    1    3    3    0  502  0.41603217336E+02 -0.50371595543E+03 -0.36815546670E+03  0.62529915971E+03  0.50400001928E-02 0. -1.
</event>
<event>
 5   0  0.1415400E-03  0.1087050E+04  0.7818609E-02  0.9217907E-01
       -1   -1    0    0    0  501  0.00000000000E+00  0.00000000000E+00  0.25383746832E+03  0.25383746837E+03  0.50400001928E-02 0. -1.
        1   -1    0    0  501    0  0.00000000000E+00  0.00000000000E+00 -0.11638125625E+04  0.11638125625E+04  0.50400001928E-02 0.  1.
    10030    2    1    2    0    0  0.00000000000E+00  0.00000000000E+00 -0.90997509419E+03  0.14176500309E+04  0.10870496484E+04 0.  0.
        2    1    3    3  502    0 -0.16108679763E+03  0.48077998459E+03 -0.19969542443E+03  0.54495560599E+03  0.25500000920E-02 0. -1.
       -2    1    3    3    0  502  0.16108679763E+03 -0.48077998459E+03 -0.71027966976E+03  0.87269442489E+03  0.25500000920E-02 0.  1.
</event>
<event>
 5   0  0.9631750E-04  0.1077326E+04  0.7818609E-02  0.9227578E-01
       -4   -1    0    0    0  501  0.00000000000E+00  0.00000000000E+00  0.39628033692E+03  0.39628237196E+03  0.12699999809E+01 0. -1.
        4   -1    0    0  501    0  0.00000000000E+00  0.00000000000E+00 -0.73219872999E+03  0.73219983139E+03  0.12699999809E+01 0.  1.
    10030    2    1    2    0    0  0.00000000000E+00  0.00000000000E+00 -0.33591839307E+03  0.11284822034E+04  0.10773258172E+04 0.  0.
        3    1    3    3  502    0 -0.21759464849E+03  0.18188765186E+03  0.31174663199E+03  0.42144575180E+03  0.10100000352E+00 0. -1.
       -3    1    3    3    0  502  0.21759464849E+03 -0.18188765186E+03 -0.64766502506E+03  0.70703645156E+03  0.10100000352E+00 0.  1.
</event>
<event>
 5   0  0.2483036E-03  0.1107673E+04  0.7818609E-02  0.9197746E-01
       -2   -1    0    0    0  501  0.00000000000E+00  0.00000000000E+00  0.60845285683E+03  0.60845285684E+03  0.25500000920E-02 0.  1.
        2   -1    0    0  501    0  0.00000000000E+00  0.00000000000E+00 -0.50412248774E+03  0.50412248775E+03  0.25500000920E-02 0. -1.
    10030    2    1    2    0    0  0.00000000000E+00  0.00000000000E+00  0.10433036909E+03  0.11125753446E+04  0.11076728179E+04 0.  0.
        3    1    3    3  502    0 -0.40052337632E+03  0.71325340139E+02  0.42963225744E+03  0.59168417755E+03  0.10100000352E+00 0.  1.
       -3    1    3    3    0  502  0.40052337632E+03 -0.71325340139E+02 -0.32530188835E+03  0.52089116703E+03  0.10100000352E+00 0. -1.
</event>
<event>
 5   0  0.2467448E-03  0.1081354E+04  0.7818609E-02  0.9223558E-01
       -2   -1    0    0    0  501  0.00000000000E+00  0.00000000000E+00  0.41777167335E+03  0.41777167336E+03  0.25500000920E-02 0.  1.
        2   -1    0    0  501    0  0.00000000000E+00  0.00000000000E+00 -0.69974065506E+03  0.69974065507E+03  0.25500000920E-02 0. -1.
    10030    2    1    2    0    0  0.00000000000E+00  0.00000000000E+00 -0.28196898171E+03  0.11175123284E+04  0.10813543811E+04 0.  0.
        1    1    3    3  502    0 -0.11210489342E+03  0.45204921460E+03  0.14281755475E+03  0.48714767116E+03  0.50400001928E-02 0.  1.
       -1    1    3    3    0  502  0.11210489342E+03 -0.45204921460E+03 -0.42478653646E+03  0.63036465727E+03  0.50400001928E-02 0. -1.
</event>
<event>
 5   0  0.2483036E-03  0.1092752E+04  0.7818609E-02  0.9212286E-01
        2   -1    0    0  501    0  0.00000000000E+00  0.00000000000E+00  0.54676835039E+03  0.54676835040E+03  0.25500000920E-02 0.  1.
       -2   -1    0    0    0  501  0.00000000000E+00  0.00000000000E+00 -0.54598352938E+03  0.54598352938E+03  0.25500000920E-02 0. -1.
    10030    2    1    2    0    0  0.00000000000E+00  0.00000000000E+00  0.78482101478E+00  0.10927518798E+04  0.10927515980E+04 0.  0.
        3    1    3    3  502    0 -0.11415915443E+03 -0.54989175273E+02 -0.53108715380E+03  0.54599422805E+03  0.10100000352E+00 0. -1.
       -3    1    3    3    0  502  0.11415915443E+03  0.54989175273E+02  0.53187197481E+03  0.54675765173E+03  0.10100000352E+00 0.  1.
</event>
<event>
 5   0  0.1479573E-03  0.1106672E+04  0.7818609E-02  0.9198714E-01
        1   -1    0    0  501    0  0.00000000000E+00  0.00000000000E+00  0.49976288724E+03  0.49976288726E+03  0.50400001928E-02 0.  1.
       -1   -1    0    0    0  501  0.00000000000E+00  0.00000000000E+00 -0.61265151017E+03  0.61265151020E+03  0.50400001928E-02 0. -1.
    10030    2    1    2    0    0  0.00000000000E+00  0.00000000000E+00 -0.11288862294E+03  0.11124143975E+04  0.11066715640E+04 0.  0.
        4    1    3    3  502    0 -0.19089165477E+03  0.43535737108E+03  0.22822701587E+03  0.52731854518E+03  0.12699999809E+01 0.  1.
       -4    1    3    3    0  502  0.19089165477E+03 -0.43535737108E+03 -0.34111563881E+03  0.58509585228E+03  0.12699999809E+01 0. -1.
</event>
<event>
 5   0  0.2488472E-03  0.1103173E+04  0.7818609E-02  0.9202105E-01
        2   -1    0    0  501    0  0.00000000000E+00  0.00000000000E+00  0.13792261224E+04  0.13792261224E+04  0.25500000920E-02 0.  1.
       -2   -1    0    0    0  501  0.00000000000E+00  0.00000000000E+00 -0.22059284324E+03  0.22059284325E+03  0.25500000920E-02 0. -1.
    10030    2    1    2    0    0  0.00000000000E+00  0.00000000000E+00  0.11586332792E+04  0.15998189657E+04  0.11031725374E+04 0.  0.
        2    1    3    3  502    0  0.40955369590E+03  0.94560468351E+02  0.10972861899E+04  0.11750374014E+04  0.25500000920E-02 0.  1.
       -2    1    3    3    0  502 -0.40955369590E+03 -0.94560468351E+02  0.61347089246E+02  0.42478156430E+03  0.25500000920E-02 0. -1.
</event>
<event>
 5   0  0.2488472E-03  0.1100446E+04  0.7818609E-02  0.9204757E-01
        2   -1    0    0  501    0  0.00000000000E+00  0.00000000000E+00  0.96771860626E+03  0.96771860626E+03  0.25500000920E-02 0. -1.
       -2   -1    0    0    0  501  0.00000000000E+00  0.00000000000E+00 -0.31284456499E+03  0.31284456500E+03  0.25500000920E-02 0.  1.
    10030    2    1    2    0    0  0.00000000000E+00  0.00000000000E+00  0.65487404127E+03  0.12805631713E+04  0.11004462848E+04 0.  0.
        2    1    3    3  502    0  0.38695367921E+03 -0.35271848888E+03  0.13063455124E+03  0.53963771943E+03  0.25500000920E-02 0.  1.
       -2    1    3    3    0  502 -0.38695367921E+03  0.35271848888E+03  0.52423949003E+03  0.74092545182E+03  0.25500000920E-02 0. -1.
</event>
<event>
 5   0  0.1479573E-03  0.1092776E+04  0.7818609E-02  0.9212262E-01
        1   -1    0    0  501    0  0.00000000000E+00  0.00000000000E+00  0.21379840765E+04  0.21379840765E+04  0.50400001928E-02 0. -1.
       -1   -1    0    0    0  501  0.00000000000E+00  0.00000000000E+00 -0.13963615494E+03  0.13963615504E+03  0.50400001928E-02 0.  1.
    10030    2    1    2    0    0  0.00000000000E+00  0.00000000000E+00  0.19983479215E+04  0.22776202315E+04  0.10927760537E+04 0.  0.
        4    1    3    3  502    0 -0.28187217790E+03  0.27986430232E+03  0.17811498017E+04  0.18249033348E+04  0.12699999809E+01 0. -1.
       -4    1    3    3    0  502  0.28187217790E+03 -0.27986430232E+03  0.21719811979E+03  0.45271689667E+03  0.12699999809E+01 0.  1.
</event>
<event>
 5   0  0.1415400E-03  0.1097464E+04  0.7818609E-02  0.9207667E-01
       -1   -1    0    0    0  501  0.00000000000E+00  0.00000000000E+00  0.10732465181E+03  0.10732465192E+03  0.50400001928E-02 0. -1.
        1   -1    0    0  501    0  0.00000000000E+00  0.00000000000E+00 -0.28055722865E+04  0.28055722865E+04  0.50400001928E-02 0.  1.
    10030    2    1    2    0    0  0.00000000000E+00  0.00000000000E+00 -0.26982476347E+04  0.29128969384E+04  0.10974644759E+04 0.  0.
        2    1    3    3  502    0  0.34528036343E+03 -0.31369533650E+03 -0.58222920223E+03  0.74606577287E+03  0.25500000920E-02 0. -1.
       -2    1    3    3    0  502 -0.34528036343E+03  0.31369533650E+03 -0.21160184325E+04  0.21668311656E+04  0.25500000920E-02 0.  1.
</event>
<event>
 5   0  0.1468556E-03  0.1104037E+04  0.7818609E-02  0.9201266E-01
       -1   -1    0    0    0  501  0.00000000000E+00  0.00000000000E+00  0.55755085085E+03  0.55755085087E+03  0.50400001928E-02 0. -1.
        1   -1    0    0  501    0  0.00000000000E+00  0.00000000000E+00 -0.54654101738E+03  0.54654101740E+03  0.50400001928E-02 0.  1.
    10030    2    1    2    0    0  0.00000000000E+00  0.00000000000E+00  0.11009833469E+02  0.11040918683E+04  0.11040369727E+04 0.  0.
        5    1    3    3  502    0 -0.26110181923E+03  0.25035315223E+03  0.42248063253E+03  0.55620395153E+03  0.46999998093E+01 0.  1.
       -5    1    3    3    0  502  0.26110181923E+03 -0.25035315223E+03 -0.41147079906E+03  0.54788791674E+03  0.46999998093E+01 0. -1.
</event>
<event>
 5   0  0.2438115E-03  0.1091983E+04  0.7818609E-02  0.9213042E-01
       -2   -1    0    0    0  501  0.00000000000E+00  0.00000000000E+00  0.16588516300E+03  0.16588516302E+03  0.25500000920E-02 0. -1.
        2   -1    0    0  501    0  0.00000000000E+00  0.00000000000E+00 -0.17970654390E+04  0.17970654390E+04  0.25500000920E-02 0.  1.
    10030    2    1    2    0    0  0.00000000000E+00  0.00000000000E+00 -0.16311802760E+04  0.19629506021E+04  0.10919825883E+04 0.  0.
        4    1    3    3  502    0 -0.22888054934E+02  0.24287961250E+03  0.62461870927E+02  0.25182824990E+03  0.12699999809E+01 0. -1.
       -4    1    3    3    0  502  0.22888054934E+02 -0.24287961250E+03 -0.16936421469E+04  0.17111223522E+04  0.12699999809E+01 0.  1.
</event>
<event>
 5   0  0.1468556E-03  0.1093669E+04  0.7818609E-02  0.9211385E-01
        1   -1    0    0  501    0  0.00000000000E+00  0.00000000000E+00  0.88518694347E+03  0.88518694349E+03  0.50400001928E-02 0.  1.
       -1   -1    0    0    0  501  0.00000000000E+00  0.00000000000E+00 -0.33781313581E+03  0.33781313585E+03  0.50400001928E-02 0. -1.
    10030    2    1    2    0    0  0.00000000000E+00  0.00000000000E+00  0.54737380766E+03  0.12230000793E+04  0.10936686467E+04 0.  0.
        5    1    3    3  502    0  0.74367552564E+02  0.28118789053E+03  0.79148654768E+03  0.84324978969E+03  0.46999998093E+01 0.  1.
       -5    1    3    3    0  502 -0.74367552564E+02 -0.28118789053E+03 -0.24411274002E+03  0.37975028965E+03  0.46999998093E+01 0. -1.
</event>
<event>
 5   0  0.2467448E-03  0.1108514E+04  0.7818609E-02  0.9196934E-01
        2   -1    0    0  501    0  0.00000000000E+00  0.00000000000E+00  0.91563196843E+03  0.91563196843E+03  0.25500000920E-02 0.  1.
       -2   -1    0    0    0  501  0.00000000000E+00  0.00000000000E+00 -0.33550657449E+03  0.33550657450E+03  0.25500000920E-02 0. -1.
    10030    2    1    2    0    0  0.00000000000E+00  0.00000000000E+00  0.58012539393E+03  0.12511385429E+04  0.11085135006E+04 0.  0.
        1    1    3    3  502    0 -0.74634540347E+02  0.28905598649E+03  0.81713381215E+03  0.86996054217E+03  0.50400001928E-02 0.  1.
       -1    1    3    3    0  502  0.74634540347E+02 -0.28905598649E+03 -0.23700841822E+03  0.38117800077E+03  0.50400001928E-02 0. -1.
</event>
<event>
 5   0  0.1468556E-03  0.1067412E+04  0.7818609E-02  0.9237550E-01
       -1   -1    0    0    0  501  0.00000000000E+00  0.00000000000E+00  0.35381730804E+03  0.35381730808E+03  0.50400001928E-02 0.  1.
        1   -1    0    0  501    0  0.00000000000E+00  0.00000000000E+00 -0.80505378965E+03  0.80505378966E+03  0.50400001928E-02 0. -1.
    10030    2    1    2    0    0  0.00000000000E+00  0.00000000000E+00 -0.45123648161E+03  0.11588710977E+04  0.10674117569E+04 0.  0.
        5    1    3    3  502    0 -0.10138914981E+03 -0.34245038763E+03  0.20493129010E+03  0.41178993595E+03  0.46999998093E+01 0.  1.
       -5    1    3    3    0  502  0.10138914981E+03  0.34245038763E+03 -0.65616777170E+03  0.74708116179E+03  0.46999998093E+01 0. -1.
</event>
<event>
 5   0  0.1480937E-03  0.1095978E+04  0.7818609E-02  0.9209121E-01
        1   -1    0    0  501    0  0.00000000000E+00  0.00000000000E+00  0.27175740973E+03  0.27175740978E+03  0.50400001928E-02 0.  1.
       -1   -1    0    0    0  501  0.00000000000E+00  0.00000000000E+00 -0.11050003855E+04  0.11050003855E+04  0.50400001928E-02 0. -1.
    10030    2    1    2    0    0  0.00000000000E+00  0.00000000000E+00 -0.83324297575E+03  0.13767577953E+04  0.10959781796E+04 0.  0.
        1    1    3    3  502    0 -0.15461075002E+03 -0.10891063158E+03  0.22946379127E+03  0.29735440340E+03  0.50400001928E-02 0.  1.
       -1    1    3    3    0  502  0.15461075002E+03  0.10891063158E+03 -0.10627067670E+04  0.10794033919E+04  0.50400001928E-02 0. -1.
</event>
<event>
 5   0  0.1509004E-03  0.1114712E+04  0.7818609E-02  0.9190970E-01
       -1   -1    0    0    0  501  0.00000000000E+00  0.00000000000E+00  0.40933566801E+03  0.40933566804E+03  0.50400001928E-02 0. -1.
        1   -1    0    0  501    0  0.00000000000E+00  0.00000000000E+00 -0.75890253768E+03  0.75890253769E+03  0.50400001928E-02 0.  1.
    10030    2    1    2    0    0  0.00000000000E+00  0.00000000000E+00 -0.34956686966E+03  0.11682382057E+04  0.11147122987E+04 0.  0.
        3    1    3    3  502    0 -0.27071267186E+03 -0.48495287773E+03 -0.22372959404E+03  0.59876505056E+03  0.10100000352E+00 0.  1.
       -3    1    3    3    0  502  0.27071267186E+03  0.48495287773E+03 -0.12583727562E+03  0.56947315517E+03  0.10100000352E+00 0. -1.
</event>
<event>
 5   0  0.1468556E-03  0.1097297E+04  0.7818609E-02  0.9207830E-01
        1   -1    0    0  501    0  0.00000000000E+00  0.00000000000E+00  0.62397415019E+03  0.62397415022E+03  0.50400001928E-02 0. -1.
       -1   -1    0    0    0  501  0.00000000000E+00  0.00000000000E+00 -0.48241622293E+03  0.48241622296E+03  0.50400001928E-02 0.  1.
    10030    2    1    2    0    0  0.00000000000E+00  0.00000000000E+00  0.14155792726E+03  0.11063903732E+04  0.10972971389E+04 0.  0.
        5    1    3    3  502    0 -0.12463300518E+03  0.51126030973E+03  0.22721841891E+03  0.57321094736E+03  0.46999998093E+01 0.  1.
       -5    1    3    3    0  502  0.12463300518E+03 -0.51126030973E+03 -0.85660491651E+02  0.53317942581E+03  0.46999998093E+01 0. -1.
</event>
<event>
 5   0  0.2438115E-03  0.1097572E+04  0.7818609E-02  0.9207562E-01
        2   -1    0    0  501    0  0.00000000000E+00  0.00000000000E+00  0.75773765226E+03  0.75773765227E+03  0.25500000920E-02 0. -1.
       -2   -1    0    0    0  501  0.00000000000E+00  0.00000000000E+00 -0.39745394468E+03  0.39745394468E+03  0.25500000920E-02 0.  1.
    10030    2    1    2    0    0  0.00000000000E+00  0.00000000000E+00  0.36028370759E+03  0.11551915969E+04  0.10975715356E+04 0.  0.
        4    1    3    3  502    0  0.45616843586E+03 -0.38959026494E+02 -0.13832657817E+03  0.47827116028E+03  0.12699999809E+01 0.  1.
       -4    1    3    3    0  502 -0.45616843586E+03  0.38959026494E+02  0.49861028576E+03  0.67692043667E+03  0.12699999809E+01 0. -1.
</event>
<event>
 5   0  0.2483036E-03  0.1097938E+04  0.7818609E-02  0.9207204E-01
        2   -1    0    0  501    0  0.00000000000E+00  0.00000000000E+00  0.45595871620E+03  0.45595871621E+03  0.25500000920E-02 0. -1.
       -2   -1    0    0    0  501  0.00000000000E+00  0.00000000000E+00 -0.66095204888E+03  0.66095204889E+03  0.25500000920E-02 0.  1.
    10030    2    1    2    0    0  0.00000000000E+00  0.00000000000E+00 -0.20499333268E+03  0.11169107651E+04  0.10979377900E+04 0.  0.
        3    1    3    3  502    0  0.24022594277E+03  0.49228927634E+03 -0.13931045035E+03  0.56521203716E+03  0.10100000352E+00 0.  1.
       -3    1    3    3    0  502 -0.24022594277E+03 -0.49228927634E+03 -0.65682882327E+02  0.55169872794E+03  0.10100000352E+00 0. -1.
</event>
<event>
 5   0  0.2488472E-03  0.1097138E+04  0.7818609E-02  0.9207986E-01
        2   -1    0    0  501    0  0.00000000000E+00  0.00000000000E+00  0.68829785401E+03  0.68829785402E+03  0.25500000920E-02 0.  1.
       -2   -1    0    0    0  501  0.00000000000E+00  0.00000000000E+00 -0.43720569859E+03  0.43720569859E+03  0.25500000920E-02 0. -1.
    10030    2    1    2    0    0  0.00000000000E+00  0.00000000000E+00  0.25109215543E+03  0.11255035526E+04  0.10971376288E+04 0.  0.
        2    1    3    3  502    0  0.33153106379E+03  0.10975925868E+03  0.55952957283E+03  0.65957052997E+03  0.25500000920E-02 0.  1.
       -2    1    3    3    0  502 -0.33153106379E+03 -0.10975925868E+03 -0.30843741741E+03  0.46593302264E+03  0.25500000920E-02 0. -1.
</event>
<event>
 5   0  0.2467448E-03  0.1099668E+04  0.7818609E-02  0.9205515E-01
        2   -1    0    0  501    0  0.00000000000E+00  0.00000000000E+00  0.54335096701E+03  0.54335096701E+03  0.25500000920E-02 0.  1.
       -2   -1    0    0    0  501  0.00000000000E+00  0.00000000000E+00 -0.55639465128E+03  0.55639465129E+03  0.25500000920E-02 0. -1.
    10030    2    1    2    0    0  0.00000000000E+00  0.00000000000E+00 -0.13043684275E+02  0.10997456183E+04  0.10996682624E+04 0.  0.
        1    1    3    3  502    0 -0.24628827082E+03  0.46880821998E+03  0.14140243078E+03  0.54811833295E+03  0.50400001928E-02 0. -1.
       -1    1    3    3    0  502  0.24628827082E+03 -0.46880821998E+03 -0.15444611506E+03  0.55162728535E+03  0.50400001928E-02 0.  1.
</event>
<event>
 5   0  0.2392585E-03  0.1095983E+04  0.7818609E-02  0.9209116E-01
       -2   -1    0    0    0  501  0.00000000000E+00  0.00000000000E+00  0.62879767124E+03  0.62879767124E+03  0.25500000920E-02 0. -1.
        2   -1    0    0  501    0  0.00000000000E+00  0.00000000000E+00 -0.47756992725E+03  0.47756992725E+03  0.25500000920E-02 0.  1.
    10030    2    1    2    0    0  0.00000000000E+00  0.00000000000E+00  0.15122774399E+03  0.11063675985E+04  0.10959833176E+04 0.  0.
        5    1    3    3  502    0  0.54461188459E+03  0.60561794656E+02  0.77342493191E+02  0.55342008191E+03  0.46999998093E+01 0. -1.
       -5    1    3    3    0  502 -0.54461188459E+03 -0.60561794656E+02  0.73885250798E+02  0.55294751658E+03  0.46999998093E+01 0.  1.
</event>
<event>
 5   0  0.2483036E-03  0.1096743E+04  0.7818609E-02  0.9208372E-01
       -2   -1    0    0    0  501  0.00000000000E+00  0.00000000000E+00  0.36141333949E+03  0.36141333950E+03  0.25500000920E-02 0.  1.
        2   -1    0    0  501    0  0.00000000000E+00  0.00000000000E+00 -0.83204323143E+03  0.83204323143E+03  0.25500000920E-02 0. -1.
    10030    2    1    2    0    0  0.00000000000E+00  0.00000000000E+00 -0.47062989193E+03  0.11934565709E+04  0.10967434028E+04 0.  0.
        3    1    3    3  502    0  0.24021230113E+03 -0.69984188247E+02 -0.76631189634E+03  0.80612261406E+03  0.10100000352E+00 0. -1.
       -3    1    3    3    0  502 -0.24021230113E+03  0.69984188247E+02  0.29568200441E+03  0.38733395688E+03  0.10100000352E+00 0.  1.
</event>
<event>
 5   0  0.1480937E-03  0.1097643E+04  0.7818609E-02  0.9207493E-01
       -1   -1    0    0    0  501  0.00000000000E+00  0.00000000000E+00  0.52431644620E+03  0.52431644623E+03  0.50400001928E-02 0. -1.
        1   -1    0    0  501    0  0.00000000000E+00  0.00000000000E+00 -0.57447151541E+03  0.57447151543E+03  0.50400001928E-02 0.  1.
    10030    2    1    2    0    0  0.00000000000E+00  0.00000000000E+00 -0.50155069206E+02  0.10987879617E+04  0.10976426803E+04 0.  0.
        1    1    3    3  502    0 -0.93778532690E+02  0.27046186990E+03 -0.49381906222E+03  0.57079006868E+03  0.50400001928E-02 0.  1.
       -1    1    3    3    0  502  0.93778532690E+02 -0.27046186990E+03  0.44366399302E+03  0.52799789298E+03  0.50400001928E-02 0. -1.
</event>
<event>
 5   0  0.1509004E-03  0.1089843E+04  0.7818609E-02  0.9215148E-01
        1   -1    0    0  501    0  0.00000000000E+00  0.00000000000E+00  0.28855594365E+03  0.28855594369E+03  0.50400001928E-02 0. -1.
       -1   -1    0    0    0  501  0.00000000000E+00  0.00000000000E+00 -0.10290542143E+04  0.10290542143E+04  0.50400001928E-02 0.  1.
    10030    2    1    2    0    0  0.00000000000E+00  0.00000000000E+00 -0.74049827066E+03  0.13176101580E+04  0.10898434932E+04 0.  0.
        3    1    3    3  502    0 -0.25638837392E+03  0.43239725942E+03 -0.62453203848E+03  0.80171233339E+03  0.10100000352E+00 0. -1.
       -3    1    3    3    0  502  0.25638837392E+03 -0.43239725942E+03 -0.11596623218E+03  0.51589782461E+03  0.10100000352E+00 0.  1.
</event>
<event>
 5   0  0.1468556E-03  0.1107779E+04  0.7818609E-02  0.9197643E-01
        1   -1    0    0  501    0  0.00000000000E+00  0.00000000000E+00  0.46512182423E+03  0.46512182425E+03  0.50400001928E-02 0.  1.
       -1   -1    0    0    0  501  0.00000000000E+00  0.00000000000E+00 -0.65959778544E+03  0.65959778546E+03  0.50400001928E-02 0. -1.
    10030    2    1    2    0    0  0.00000000000E+00  0.00000000000E+00 -0.19447596122E+03  0.11247196097E+04  0.11077785433E+04 0.  0.
        5    1    3    3  502    0  0.53119000178E+03  0.25831247478E+01 -0.25648608526E+03  0.58989549282E+03  0.46999998093E+01 0. -1.
       -5    1    3    3    0  502 -0.53119000178E+03 -0.25831247478E+01  0.62010124042E+02  0.53482411689E+03  0.46999998093E+01 0.  1.
</event>
<event>
 5   0  0.1509004E-03  0.1099602E+04  0.7818609E-02  0.9205580E-01
       -1   -1    0    0    0  501  0.00000000000E+00  0.00000000000E+00  0.48135962673E+03  0.48135962676E+03  0.50400001928E-02 0. -1.
        1   -1    0    0  501    0  0.00000000000E+00  0.00000000000E+00 -0.62797340539E+03  0.62797340541E+03  0.50400001928E-02 0.  1.
    10030    2    1    2    0    0  0.00000000000E+00  0.00000000000E+00 -0.14661377866E+03  0.11093330322E+04  0.10996018262E+04 0.  0.
        3    1    3    3  502    0  0.85353138146E+02  0.63452477373E+02  0.47088284499E+03  0.48274427908E+03  0.10100000352E+00 0. -1.
       -3    1    3    3    0  502 -0.85353138146E+02 -0.63452477373E+02 -0.61749662365E+03  0.62658875309E+03  0.10100000352E+00 0.  1.
</event>
<event>
 5   0  0.2488472E-03  0.1103012E+04  0.7818609E-02  0.9202261E-01
        2   -1    0    0  501    0  0.00000000000E+00  0.00000000000E+00  0.46419579231E+03  0.46419579231E+03  0.25500000920E-02 0.  1.
       -2   -1    0    0    0  501  0.00000000000E+00  0.00000000000E+00 -0.65523873669E+03  0.65523873669E+03  0.25500000920E-02 0. -1.
    10030    2    1    2    0    0  0.00000000000E+00  0.00000000000E+00 -0.19104294438E+03  0.11194345290E+04  0.11030123563E+04 0.  0.
        2    1    3    3  502    0  0.11921230697E+03 -0.16835181075E+03 -0.61461004986E+03  0.64830503601E+03  0.25500000920E-02 0. -1.
       -2    1    3    3    0  502 -0.11921230697E+03  0.16835181075E+03  0.42356710548E+03  0.47112949299E+03  0.25500000920E-02 0.  1.
</event>
<event>
 5   0  0.2483036E-03  0.1091143E+04  0.7818609E-02  0.9213868E-01
       -2   -1    0    0    0  501  0.00000000000E+00  0.00000000000E+00  0.44589090915E+03  0.44589090916E+03  0.25500000920E-02 0.  1.
        2   -1    0    0  501    0  0.00000000000E+00  0.00000000000E+00 -0.66753584458E+03  0.66753584458E+03  0.25500000920E-02 0. -1.
    10030    2    1    2    0    0  0.00000000000E+00  0.00000000000E+00 -0.22164493542E+03  0.11134267537E+04  0.10911428223E+04 0.  0.
        3    1    3    3  502    0 -0.48391007275E+03  0.55176026932E+02 -0.36167795423E+03  0.60665006819E+03  0.10100000352E+00 0. -1.
       -3    1    3    3    0  502  0.48391007275E+03 -0.55176026932E+02  0.14003301881E+03  0.50677668555E+03  0.10100000352E+00 0.  1.
</event>
<event>
 5   0  0.1509004E-03  0.1104451E+04  0.7818609E-02  0.9200864E-01
        1   -1    0    0  501    0  0.00000000000E+00  0.00000000000E+00  0.62795141417E+03  0.62795141419E+03  0.50400001928E-02 0.  1.
       -1   -1    0    0    0  501  0.00000000000E+00  0.00000000000E+00 -0.48563177051E+03  0.48563177054E+03  0.50400001928E-02 0. -1.
    10030    2    1    2    0    0  0.00000000000E+00  0.00000000000E+00  0.14231964366E+03  0.11135831847E+04  0.11044512793E+04 0.  0.
        3    1    3    3  502    0 -0.11907206734E+03 -0.19269336453E+02 -0.47218703777E+03  0.48735005221E+03  0.10100000352E+00 0. -1.
       -3    1    3    3    0  502  0.11907206734E+03  0.19269336453E+02  0.61450668143E+03  0.62623313252E+03  0.10100000352E+00 0.  1.
</event>
<event>
 5   0  0.1415400E-03  0.1109587E+04  0.7818609E-02  0.9195898E-01
        1   -1    0    0  501    0  0.00000000000E+00  0.00000000000E+00  0.92288773975E+03  0.92288773976E+03  0.50400001928E-02 0.  1.
       -1   -1    0    0    0  501  0.00000000000E+00  0.00000000000E+00 -0.33351383390E+03  0.33351383394E+03  0.50400001928E-02 0. -1.
    10030    2    1    2    0    0  0.00000000000E+00  0.00000000000E+00  0.58937390585E+03  0.12564015737E+04  0.11095870013E+04 0.  0.
        2    1    3    3  502    0 -0.38336941613E+03 -0.38788288597E+03  0.17937647870E+03  0.57410901715E+03  0.25500000920E-02 0. -1.
       -2    1    3    3    0  502  0.38336941613E+03  0.38788288597E+03  0.40999742715E+03  0.68229255655E+03  0.25500000920E-02 0.  1.
</event>
<event>
 5   0  0.2488472E-03  0.1100244E+04  0.7818609E-02  0.9204954E-01
        2   -1    0    0  501    0  0.00000000000E+00  0.00000000000E+00  0.51624276524E+03  0.51624276525E+03  0.25500000920E-02 0.  1.
       -2   -1    0    0    0  501  0.00000000000E+00  0.00000000000E+00 -0.58622416775E+03  0.58622416776E+03  0.25500000920E-02 0. -1.
    10030    2    1    2    0    0  0.00000000000E+00  0.00000000000E+00 -0.69981402512E+02  0.11024669330E+04  0.11002435829E+04 0.  0.
        2    1    3    3  502    0 -0.34877636913E+03  0.21544635625E+03  0.33259102739E+03  0.52790044477E+03  0.25500000920E-02 0.  1.
       -2    1    3    3    0  502  0.34877636913E+03 -0.21544635625E+03 -0.40257242990E+03  0.57456648824E+03  0.25500000920E-02 0. -1.
</event>
<event>
 5   0  0.1415400E-03  0.1104863E+04  0.7818609E-02  0.9200465E-01
        1   -1    0    0  501    0  0.00000000000E+00  0.00000000000E+00  0.26818132686E+03  0.26818132691E+03  0.50400001928E-02 0.  1.
       -1   -1    0    0    0  501  0.00000000000E+00  0.00000000000E+00 -0.11379641276E+04  0.11379641276E+04  0.50400001928E-02 0. -1.
    10030    2    1    2    0    0  0.00000000000E+00  0.00000000000E+00 -0.86978280071E+03  0.14061454545E+04  0.11048633032E+04 0.  0.
        2    1    3    3  502    0 -0.13937180989E+02  0.42148624234E+03 -0.88903899001E+03  0.98398944265E+03  0.25500000920E-02 0. -1.
       -2    1    3    3    0  502  0.13937180989E+02 -0.42148624234E+03  0.19256189296E+02  0.42215601184E+03  0.25500000920E-02 0.  1.
</event>
<event>
 5   0  0.9631750E-04  0.1122370E+04  0.7818609E-02  0.9183659E-01
       -3   -1    0    0    0  501  0.00000000000E+00  0.00000000000E+00  0.14666498619E+04  0.14666498654E+04  0.10100000352E+00 0. -1.
        3   -1    0    0  501    0  0.00000000000E+00  0.00000000000E+00 -0.21472645946E+03  0.21472648322E+03  0.10100000352E+00 0.  1.
    10030    2    1    2    0    0  0.00000000000E+00  0.00000000000E+00  0.12519234024E+04  0.16813763486E+04  0.11223699123E+04 0.  0.
        1    1    3    3  502    0  0.13184097006E+03  0.21205460558E+03  0.13788453159E+04  0.14012721371E+04  0.50400001928E-02 0. -1.
       -1    1    3    3    0  502 -0.13184097006E+03 -0.21205460558E+03 -0.12692191346E+03  0.28010421145E+03  0.50400001928E-02 0.  1.
</event>
<event>
 5   0  0.2467448E-03  0.1098610E+04  0.7818609E-02  0.9206548E-01
       -2   -1    0    0    0  501  0.00000000000E+00  0.00000000000E+00  0.26715762434E+03  0.26715762435E+03  0.25500000920E-02 0.  1.
        2   -1    0    0  501    0  0.00000000000E+00  0.00000000000E+00 -0.11294300099E+04  0.11294300099E+04  0.25500000920E-02 0. -1.
    10030    2    1    2    0    0  0.00000000000E+00  0.00000000000E+00 -0.86227238556E+03  0.13965876343E+04  0.10986097366E+04 0.  0.
        1    1    3    3  502    0  0.15522720763E+02  0.45168788295E+03 -0.82802310796E+03  0.94333724924E+03  0.50400001928E-02 0. -1.
       -1    1    3    3    0  502 -0.15522720763E+02 -0.45168788295E+03 -0.34249277600E+02  0.45325038501E+03  0.50400001928E-02 0.  1.
</event>
<event>
 5   0  0.1479573E-03  0.1102485E+04  0.7818609E-02  0.9202774E-01
       -1   -1    0    0    0  501  0.00000000000E+00  0.00000000000E+00  0.43926856278E+03  0.43926856281E+03  0.50400001928E-02 0. -1.
        1   -1    0    0  501    0  0.00000000000E+00  0.00000000000E+00 -0.69175916753E+03  0.69175916755E+03  0.50400001928E-02 0.  1.
    10030    2    1    2    0    0  0.00000000000E+00  0.00000000000E+00 -0.25249060475E+03  0.11310277304E+04  0.11024845674E+04 0.  0.
        4    1    3    3  502    0  0.52313829600E+03  0.17134369109E+03 -0.96616700746E+02  0.55889957683E+03  0.12699999809E+01 0.  1.
       -4    1    3    3    0  502 -0.52313829600E+03 -0.17134369109E+03 -0.15587390400E+03  0.57212815353E+03  0.12699999809E+01 0. -1.
</event>
<event>
 5   0  0.1480937E-03  0.1070125E+04  0.7818609E-02  0.9234809E-01
       -1   -1    0    0    0  501  0.00000000000E+00  0.00000000000E+00  0.15817187129E+03  0.15817187137E+03  0.50400001928E-02 0.  1.
        1   -1    0    0  501    0  0.00000000000E+00  0.00000000000E+00 -0.18100051106E+04  0.18100051106E+04  0.50400001928E-02 0. -1.
    10030    2    1    2    0    0  0.00000000000E+00  0.00000000000E+00 -0.16518332393E+04  0.19681769820E+04  0.10701250310E+04 0.  0.
        1    1    3    3  502    0 -0.34145162106E+02 -0.25780358833E+03 -0.16859545153E+04  0.17058930828E+04  0.50400001928E-02 0. -1.
       -1    1    3    3    0  502  0.34145162106E+02  0.25780358833E+03  0.34121276016E+02  0.26228389915E+03  0.50400001928E-02 0.  1.
</event>
<event>
 5   0  0.1415400E-03  0.1090581E+04  0.7818609E-02  0.9214421E-01
        1   -1    0    0  501    0  0.00000000000E+00  0.00000000000E+00  0.26207934359E+03  0.26207934364E+03  0.50400001928E-02 0.  1.
       -1   -1    0    0    0  501  0.00000000000E+00  0.00000000000E+00 -0.11345479102E+04  0.11345479102E+04  0.50400001928E-02 0. -1.
    10030    2    1    2    0    0  0.00000000000E+00  0.00000000000E+00 -0.87246856659E+03  0.13966272538E+04  0.10905807107E+04 0.  0.
        2    1    3    3  502    0 -0.35933338653E+03  0.11576077300E+02 -0.96127123690E+03  0.10263025281E+04  0.25500000920E-02 0. -1.
       -2    1    3    3    0  502  0.35933338653E+03 -0.11576077300E+02  0.88802670309E+02  0.37032472575E+03  0.25500000920E-02 0.  1.
</event>
<event>
 5   0  0.2467448E-03  0.1101765E+04  0.7818609E-02  0.9203473E-01
        2   -1    0    0  501    0  0.00000000000E+00  0.00000000000E+00  0.83128549274E+03  0.83128549274E+03  0.25500000920E-02 0.  1.
       -2   -1    0    0    0  501  0.00000000000E+00  0.00000000000E+00 -0.36506324863E+03  0.36506324864E+03  0.25500000920E-02 0. -1.
    10030    2    1    2    0    0  0.00000000000E+00  0.00000000000E+00  0.46622224411E+03  0.11963487414E+04  0.11017654606E+04 0.  0.
        1    1    3    3  502    0 -0.11882364230E+03 -0.42061264468E+03  0.59721447107E+03  0.74006701001E+03  0.50400001928E-02 0.  1.
       -1    1    3    3    0  502  0.11882364230E+03  0.42061264468E+03 -0.13099222696E+03  0.45628173137E+03  0.50400001928E-02 0. -1.
</event>
<event>
 5   0  0.2392585E-03  0.1111193E+04  0.7818609E-02  0.9194351E-01
        2   -1    0    0  501    0  0.00000000000E+00  0.00000000000E+00  0.63108871639E+03  0.63108871640E+03  0.25500000920E-02 0. -1.
       -2   -1    0    0    0  501  0.00000000000E+00  0.00000000000E+00 -0.48913473912E+03  0.48913473913E+03  0.25500000920E-02 0.  1.
    10030    2    1    2    0    0  0.00000000000E+00  0.00000000000E+00  0.14195397727E+03  0.11202234555E+04  0.11111928989E+04 0.  0.
        5    1    3    3  502    0  0.43192871293E+03  0.48578641054E+02 -0.27787429160E+03  0.51590552367E+03  0.46999998093E+01 0.  1.
       -5    1    3    3    0  502 -0.43192871293E+03 -0.48578641054E+02  0.41982826887E+03  0.60431793186E+03  0.46999998093E+01 0. -1.
</event>
<event>
 5   0  0.1509004E-03  0.1095669E+04  0.7818609E-02  0.9209423E-01
       -1   -1    0    0    0  501  0.00000000000E+00  0.00000000000E+00  0.19289932710E+03  0.19289932716E+03  0.50400001928E-02 0. -1.
        1   -1    0    0  501    0  0.00000000000E+00  0.00000000000E+00 -0.15558516016E+04  0.15558516016E+04  0.50400001928E-02 0.  1.
    10030    2    1    2    0    0  0.00000000000E+00  0.00000000000E+00 -0.13629522745E+04  0.17487509287E+04  0.10956691600E+04 0.  0.
        3    1    3    3  502    0 -0.39165013364E+03  0.10527372554E+02 -0.12926266564E+04  0.13506977218E+04  0.10100000352E+00 0.  1.
       -3    1    3    3    0  502  0.39165013364E+03 -0.10527372554E+02 -0.70325618055E+02  0.39805320688E+03  0.10100000352E+00 0. -1.
</event>
<event>
 5   0  0.2438115E-03  0.1106375E+04  0.7818609E-02  0.9199000E-01
        2   -1    0    0  501    0  0.00000000000E+00  0.00000000000E+00  0.73530119966E+03  0.73530119966E+03  0.25500000920E-02 0.  1.
       -2   -1    0    0    0  501  0.00000000000E+00  0.00000000000E+00 -0.41617836575E+03  0.41617836576E+03  0.25500000920E-02 0. -1.
    10030    2    1    2    0    0  0.00000000000E+00  0.00000000000E+00  0.31912283390E+03  0.11514795654E+04  0.11063750749E+04 0.  0.
        4    1    3    3  502    0  0.43480248728E+03  0.42356182127E+02 -0.19363719710E+03  0.47785377063E+03  0.12699999809E+01 0. -1.
       -4    1    3    3    0  502 -0.43480248728E+03 -0.42356182127E+02  0.51276003100E+03  0.67362579479E+03  0.12699999809E+01 0.  1.
</event>
<event>
 5   0  0.1479573E-03  0.1091558E+04  0.7818609E-02  0.9213459E-01
       -1   -1    0    0    0  501  0.00000000000E+00  0.00000000000E+00  0.49877343297E+03  0.49877343300E+03  0.50400001928E-02 0.  1.
        1   -1    0    0  501    0  0.00000000000E+00  0.00000000000E+00 -0.59721437001E+03  0.59721437003E+03  0.50400001928E-02 0. -1.
    10030    2    1    2    0    0  0.00000000000E+00  0.00000000000E+00 -0.98440937032E+02  0.10959878030E+04  0.10915578987E+04 0.  0.
        4    1    3    3  502    0  0.10580349455E+03 -0.22856676997E+03 -0.53537126761E+03  0.59165966136E+03  0.12699999809E+01 0. -1.
       -4    1    3    3    0  502 -0.10580349455E+03  0.22856676997E+03  0.43693033058E+03  0.50432814167E+03  0.12699999809E+01 0.  1.
</event>
<event>
 5   0  0.1468556E-03  0.1104672E+04  0.7818609E-02  0.9200650E-01
       -1   -1    0    0    0  501  0.00000000000E+00  0.00000000000E+00  0.11051864978E+04  0.11051864979E+04  0.50400001928E-02 0. -1.
        1   -1    0    0  501    0  0.00000000000E+00  0.00000000000E+00 -0.27603942414E+03  0.27603942419E+03  0.50400001928E-02 0.  1.
    10030    2    1    2    0    0  0.00000000000E+00  0.00000000000E+00  0.82914707370E+03  0.13812259220E+04  0.11046719775E+04 0.  0.
        5    1    3    3  502    0  0.31466159117E+03  0.90364366410E+01  0.98201644329E+03  0.10312477680E+04  0.46999998093E+01 0. -1.
       -5    1    3    3    0  502 -0.31466159117E+03 -0.90364366410E+01 -0.15286936959E+03  0.34997815403E+03  0.46999998093E+01 0.  1.
</event>
<event>
 5   0  0.1415400E-03  0.1089446E+04  0.7818609E-02  0.9215540E-01
       -1   -1    0    0    0  501  0.00000000000E+00  0.00000000000E+00  0.10738514093E+04  0.10738514093E+04  0.50400001928E-02 0. -1.
        1   -1    0    0  501    0  0.00000000000E+00  0.00000000000E+00 -0.27631687393E+03  0.27631687397E+03  0.50400001928E-02 0.  1.
    10030    2    1    2    0    0  0.00000000000E+00  0.00000000000E+00  0.79753453536E+03  0.13501682833E+04  0.10894462162E+04 0.  0.
        2    1    3    3  502    0  0.28660933824E+03 -0.22488072361E+03 -0.10312824752E+03  0.37861812960E+03  0.25500000920E-02 0.  1.
       -2    1    3    3    0  502 -0.28660933824E+03  0.22488072361E+03  0.90066278288E+03  0.97155015367E+03  0.25500000920E-02 0. -1.
</event>
<event>
 5   0  0.1415400E-03  0.1101677E+04  0.7818609E-02  0.9203559E-01
       -1   -1    0    0    0  501  0.00000000000E+00  0.00000000000E+00  0.68821097455E+03  0.68821097457E+03  0.50400001928E-02 0.  1.
        1   -1    0    0  501    0  0.00000000000E+00  0.00000000000E+00 -0.44088690734E+03  0.44088690737E+03  0.50400001928E-02 0. -1.
    10030    2    1    2    0    0  0.00000000000E+00  0.00000000000E+00  0.24732406720E+03  0.11290978819E+04  0.11016772816E+04 0.  0.
        2    1    3    3  502    0 -0.57297310701E+02  0.53511329094E+03  0.24403312204E+03  0.59091571363E+03  0.25500000920E-02 0.  1.
       -2    1    3    3    0  502  0.57297310701E+02 -0.53511329094E+03  0.32909451627E+01  0.53818216831E+03  0.25500000920E-02 0. -1.
</event>
<event>
 5   0  0.1468556E-03  0.1092532E+04  0.7818609E-02  0.9212502E-01
       -1   -1    0    0    0  501  0.00000000000E+00  0.00000000000E+00  0.15698273865E+04  0.15698273865E+04  0.50400001928E-02 0. -1.
        1   -1    0    0  501    0  0.00000000000E+00  0.00000000000E+00 -0.19008862496E+03  0.19008862503E+03  0.50400001928E-02 0.  1.
    10030    2    1    2    0    0  0.00000000000E+00  0.00000000000E+00  0.13797387615E+04  0.17599160115E+04  0.10925316094E+04 0.  0.
        5    1    3    3  502    0  0.33186819501E+02  0.99653728306E+02 -0.17363600434E+03  0.20298714874E+03  0.46999998093E+01 0.  1.
       -5    1    3    3    0  502 -0.33186819501E+02 -0.99653728306E+02  0.15533747659E+04  0.15569288628E+04  0.46999998093E+01 0. -1.
</event>
<event>
 5   0  0.1468556E-03  0.1075759E+04  0.7818609E-02  0.9229146E-01
       -1   -1    0    0    0  501  0.00000000000E+00  0.00000000000E+00  0.90646783212E+03  0.90646783213E+03  0.50400001928E-02 0.  1.
        1   -1    0    0  501    0  0.00000000000E+00  0.00000000000E+00 -0.31916669476E+03  0.31916669480E+03  0.50400001928E-02 0. -1.
    10030    2    1    2    0    0  0.00000000000E+00  0.00000000000E+00  0.58730113735E+03  0.12256345269E+04  0.10757589729E+04 0.  0.
        5    1    3    3  502    0  0.26222036680E+02 -0.38059218309E+03 -0.13832218161E+03  0.40582400245E+03  0.46999998093E+01 0. -1.
       -5    1    3    3    0  502 -0.26222036680E+02  0.38059218309E+03  0.72562331896E+03  0.81981052449E+03  0.46999998093E+01 0.  1.
</event>
<event>
 5   0  0.1415400E-03  0.1104307E+04  0.7818609E-02  0.9201004E-01
       -1   -1    0    0    0  501  0.00000000000E+00  0.00000000000E+00  0.28538130615E+03  0.28538130620E+03  0.50400001928E-02 0.  1.
        1   -1    0    0  501    0  0.00000000000E+00  0.00000000000E+00 -0.10683022379E+04  0.10683022380E+04  0.50400001928E-02 0. -1.
    10030    2    1    2    0    0  0.00000000000E+00  0.00000000000E+00 -0.78292093179E+03  0.13536835442E+04  0.11043070009E+04 0.  0.
        2    1    3    3  502    0 -0.39550352927E+03 -0.45625234102E+01  0.80806562564E+02  0.40369983756E+03  0.25500000920E-02 0.  1.
       -2    1    3    3    0  502  0.39550352927E+03  0.45625234102E+01 -0.86372749435E+03  0.94998370659E+03  0.25500000920E-02 0. -1.
</event>
<event>
 5   0  0.9631750E-04  0.1087942E+04  0.7818609E-02  0.9217025E-01
        4   -1    0    0  501    0  0.00000000000E+00  0.00000000000E+00  0.13091696976E+04  0.13091703136E+04  0.12699999809E+01 0. -1.
       -4   -1    0    0    0  501  0.00000000000E+00  0.00000000000E+00 -0.22602210609E+03  0.22602567408E+03  0.12699999809E+01 0.  1.
    10030    2    1    2    0    0  0.00000000000E+00  0.00000000000E+00  0.10831475915E+04  0.15351959877E+04  0.10879421012E+04 0.  0.
        5    1    3    3  502    0  0.37663033352E+03 -0.82427352055E+02  0.10830353316E+04  0.11496226755E+04  0.46999998093E+01 0. -1.
       -5    1    3    3    0  502 -0.37663033352E+03  0.82427352055E+02  0.11225992436E+00  0.38557331222E+03  0.46999998093E+01 0.  1.
</event>
<event>
 5   0  0.9631750E-04  0.1104751E+04  0.7818609E-02  0.9200573E-01
       -4   -1    0    0    0  501  0.00000000000E+00  0.00000000000E+00  0.11364367681E+04  0.11364374778E+04  0.12699999809E+01 0.  1.
        4   -1    0    0  501    0  0.00000000000E+00  0.00000000000E+00 -0.26848498179E+03  0.26848798547E+03  0.12699999809E+01 0. -1.
    10030    2    1    2    0    0  0.00000000000E+00  0.00000000000E+00  0.86795178635E+03  0.14049254632E+04  0.11047512181E+04 0.  0.
        2    1    3    3  502    0  0.29128024978E+03 -0.42600706893E+03  0.68445025387E+03  0.85720380115E+03  0.25500000920E-02 0. -1.
       -2    1    3    3    0  502 -0.29128024978E+03  0.42600706893E+03  0.18350153248E+03  0.54772166208E+03  0.25500000920E-02 0.  1.
</event>
<event>
 5   0  0.2467448E-03  0.1097366E+04  0.7818609E-02  0.9207763E-01
       -2   -1    0    0    0  501  0.00000000000E+00  0.00000000000E+00  0.35671902149E+03  0.35671902150E+03  0.25500000920E-02 0. -1.
        2   -1    0    0  501    0  0.00000000000E+00  0.00000000000E+00 -0.84395040304E+03  0.84395040305E+03  0.25500000920E-02 0.  1.
    10030    2    1    2    0    0  0.00000000000E+00  0.00000000000E+00 -0.48723138155E+03  0.12006694245E+04  0.10973662323E+04 0.  0.
        1    1    3    3  502    0  0.21038008736E+03  0.22316452885E+03 -0.74140728992E+03  0.80233843088E+03  0.50400001928E-02 0.  1.
       -1    1    3    3    0  502 -0.21038008736E+03 -0.22316452885E+03  0.25417590837E+03  0.39833099367E+03  0.50400001928E-02 0. -1.
</event>
<event>
 5   0  0.1468556E-03  0.1157738E+04  0.7818609E-02  0.9150675E-01
       -1   -1    0    0    0  501  0.00000000000E+00  0.00000000000E+00  0.28938850187E+03  0.28938850191E+03  0.50400001928E-02 0.  1.
        1   -1    0    0  501    0  0.00000000000E+00  0.00000000000E+00 -0.11579216603E+04  0.11579216603E+04  0.50400001928E-02 0. -1.
    10030    2    1    2    0    0  0.00000000000E+00  0.00000000000E+00 -0.86853315839E+03  0.14473101622E+04  0.11577378193E+04 0.  0.
        5    1    3    3  502    0 -0.35023672789E+03  0.45229408154E+03 -0.54489627738E+03  0.79004414108E+03  0.46999998093E+01 0. -1.
       -5    1    3    3    0  502  0.35023672789E+03 -0.45229408154E+03 -0.32363688101E+03  0.65726602111E+03  0.46999998093E+01 0.  1.
</event>
<event>
 5   0  0.1415400E-03  0.1095713E+04  0.7818609E-02  0.9209380E-01
       -1   -1    0    0    0  501  0.00000000000E+00  0.00000000000E+00  0.29876161518E+03  0.29876161523E+03  0.50400001928E-02 0.  1.
        1   -1    0    0  501    0  0.00000000000E+00  0.00000000000E+00 -0.10046365426E+04  0.10046365426E+04  0.50400001928E-02 0. -1.
    10030    2    1    2    0    0  0.00000000000E+00  0.00000000000E+00 -0.70587492745E+03  0.13033981579E+04  0.10957131672E+04 0.  0.
        2    1    3    3  502    0  0.41979502198E+03 -0.20860166782E+03 -0.15634689139E+02  0.46902767488E+03  0.25500000920E-02 0.  1.
       -2    1    3    3    0  502 -0.41979502198E+03  0.20860166782E+03 -0.69024023831E+03  0.83437048299E+03  0.25500000920E-02 0. -1.
</event>
<event>
 5   0  0.1480937E-03  0.1091025E+04  0.7818609E-02  0.9213984E-01
        1   -1    0    0  501    0  0.00000000000E+00  0.00000000000E+00  0.11876969794E+04  0.11876969794E+04  0.50400001928E-02 0.  1.
       -1   -1    0    0    0  501  0.00000000000E+00  0.00000000000E+00 -0.25055549054E+03  0.25055549059E+03  0.50400001928E-02 0. -1.
    10030    2    1    2    0    0  0.00000000000E+00  0.00000000000E+00  0.93714148887E+03  0.14382524700E+04  0.10910252047E+04 0.  0.
        1    1    3    3  502    0  0.24602846352E+03 -0.30117815420E+03 -0.35730858494E+02  0.39053166286E+03  0.50400001928E-02 0. -1.
       -1    1    3    3    0  502 -0.24602846352E+03  0.30117815420E+03  0.97287234736E+03  0.10477208071E+04  0.50400001928E-02 0.  1.
</event>
<event>
 5   0  0.2392585E-03  0.1104449E+04  0.7818609E-02  0.9200866E-01
       -2   -1    0    0    0  501  0.00000000000E+00  0.00000000000E+00  0.37842287577E+03  0.37842287578E+03  0.25500000920E-02 0. -1.
        2   -1    0    0  501    0  0.00000000000E+00  0.00000000000E+00 -0.80584998260E+03  0.80584998260E+03  0.25500000920E-02 0.  1.
    10030    2    1    2    0    0  0.00000000000E+00  0.00000000000E+00 -0.42742710683E+03  0.11842728584E+04  0.11044493069E+04 0.  0.
        5    1    3    3  502    0  0.48822624990E+03  0.19147209757E+03 -0.28288970906E+02  0.52521309115E+03  0.46999998093E+01 0.  1.
       -5    1    3    3    0  502 -0.48822624990E+03 -0.19147209757E+03 -0.39913813593E+03  0.65905976723E+03  0.46999998093E+01 0. -1.
</event>
<event>
 5   0  0.2392585E-03  0.1095007E+04  0.7818609E-02  0.9210072E-01
       -2   -1    0    0    0  501  0.00000000000E+00  0.00000000000E+00  0.71266386236E+03  0.71266386237E+03  0.25500000920E-02 0.  1.
        2   -1    0    0  501    0  0.00000000000E+00  0.00000000000E+00 -0.42061932319E+03  0.42061932320E+03  0.25500000920E-02 0. -1.
    10030    2    1    2    0    0  0.00000000000E+00  0.00000000000E+00  0.29204453917E+03  0.11332831856E+04  0.10950071990E+04 0.  0.
        5    1    3    3  502    0 -0.25191708318E+03  0.29438103906E+03  0.54634480496E+03  0.66980381371E+03  0.46999998093E+01 0.  1.
       -5    1    3    3    0  502  0.25191708318E+03 -0.29438103906E+03 -0.25430026579E+03  0.46347937185E+03  0.46999998093E+01 0. -1.
</event>
<event>
 5   0  0.2438115E-03  0.1121967E+04  0.7818609E-02  0.9184042E-01
        2   -1    0    0  501    0  0.00000000000E+00  0.00000000000E+00  0.79706946579E+03  0.79706946579E+03  0.25500000920E-02 0.  1.
       -2   -1    0    0    0  501  0.00000000000E+00  0.00000000000E+00 -0.39482411856E+03  0.39482411857E+03  0.25500000920E-02 0. -1.
    10030    2    1    2    0    0  0.00000000000E+00  0.00000000000E+00  0.40224534723E+03  0.11918935844E+04  0.11219665757E+04 0.  0.
        4    1    3    3  502    0  0.41549292989E+03  0.33884366105E+03  0.25754549288E+02  0.53676280714E+03  0.12699999809E+01 0. -1.
       -4    1    3    3    0  502 -0.41549292989E+03 -0.33884366105E+03  0.37649079794E+03  0.65513077722E+03  0.12699999809E+01 0.  1.
</event>
<event>
 5   0  0.1468556E-03  0.1096942E+04  0.7818609E-02  0.9208177E-01
        1   -1    0    0  501    0  0.00000000000E+00  0.00000000000E+00  0.13383031206E+04  0.13383031207E+04  0.50400001928E-02 0. -1.
       -1   -1    0    0    0  501  0.00000000000E+00  0.00000000000E+00 -0.22477769582E+03  0.22477769588E+03  0.50400001928E-02 0.  1.
    10030    2    1    2    0    0  0.00000000000E+00  0.00000000000E+00  0.11135254248E+04  0.15630808165E+04  0.10969424631E+04 0.  0.
        5    1    3    3  502    0 -0.34317193210E+03 -0.87099066457E+02 -0.40091896896E+02  0.35634628180E+03  0.46999998093E+01 0.  1.
       -5    1    3    3    0  502  0.34317193210E+03  0.87099066457E+02  0.11536173217E+04  0.12067345347E+04  0.46999998093E+01 0. -1.
</event>
<event>
 5   0  0.2488472E-03  0.1105656E+04  0.7818609E-02  0.9199697E-01
        2   -1    0    0  501    0  0.00000000000E+00  0.00000000000E+00  0.94859250928E+03  0.94859250928E+03  0.25500000920E-02 0. -1.
       -2   -1    0    0    0  501  0.00000000000E+00  0.00000000000E+00 -0.32218140423E+03  0.32218140424E+03  0.25500000920E-02 0.  1.
    10030    2    1    2    0    0  0.00000000000E+00  0.00000000000E+00  0.62641110505E+03  0.12707739135E+04  0.11056561250E+04 0.  0.
        2    1    3    3  502    0 -0.20249919700E+03  0.42871689277E+03  0.63993898820E+03  0.79644585978E+03  0.25500000920E-02 0. -1.
       -2    1    3    3    0  502  0.20249919700E+03 -0.42871689277E+03 -0.13527883144E+02  0.47432805374E+03  0.25500000920E-02 0.  1.
</event>
<event>
 5   0  0.1415400E-03  0.1090669E+04  0.7818609E-02  0.9214335E-01
       -1   -1    0    0    0  501  0.00000000000E+00  0.00000000000E+00  0.59861792980E+03  0.59861792982E+03  0.50400001928E-02 0. -1.
        1   -1    0    0  501    0  0.00000000000E+00  0.00000000000E+00 -0.49679349334E+03  0.49679349337E+03  0.50400001928E-02 0.  1.
    10030    2    1    2    0    0  0.00000000000E+00  0.00000000000E+00  0.10182443646E+03  0.10954114232E+04  0.10906685886E+04 0.  0.
        2    1    3    3  502    0  0.15333233565E+02  0.51796269199E+03 -0.11973554001E+03  0.53184307638E+03  0.25500000920E-02 0.  1.
       -2    1    3    3    0  502 -0.15333233565E+02 -0.51796269199E+03  0.22155997646E+03  0.56356834680E+03  0.25500000920E-02 0. -1.
</event>
<event>
 5   0  0.2488472E-03  0.1140609E+04  0.7818609E-02  0.9166492E-01
        2   -1    0    0  501    0  0.00000000000E+00  0.00000000000E+00  0.85815188929E+03  0.85815188929E+03  0.25500000920E-02 0. -1.
       -2   -1    0    0    0  501  0.00000000000E+00  0.00000000000E+00 -0.37900862502E+03  0.37900862502E+03  0.25500000920E-02 0.  1.
    10030    2    1    2    0    0  0.00000000000E+00  0.00000000000E+00  0.47914326428E+03  0.12371605143E+04  0.11406085527E+04 0.  0.
        2    1    3    3  502    0 -0.37749587098E+03  0.36599124321E+03 -0.21148308915E-01  0.52578771683E+03  0.25500000920E-02 0.  1.
       -2    1    3    3    0  502  0.37749587098E+03 -0.36599124321E+03  0.47916441258E+03  0.71137279749E+03  0.25500000920E-02 0. -1.
</event>
<event>
 5   0  0.1468556E-03  0.1105082E+04  0.7818609E-02  0.9200252E-01
       -1   -1    0    0    0  501  0.00000000000E+00  0.00000000000E+00  0.60130556901E+03  0.60130556904E+03  0.50400001928E-02 0. -1.
        1   -1    0    0  501    0  0.00000000000E+00  0.00000000000E+00 -0.50773136901E+03  0.50773136904E+03  0.50400001928E-02 0.  1.
    10030    2    1    2    0    0  0.00000000000E+00  0.00000000000E+00  0.93574200003E+02  0.11090369381E+04  0.11050822590E+04 0.  0.
        5    1    3    3  502    0  0.34599467493E+03  0.42740090217E+03  0.10079197323E+03  0.55907509166E+03  0.46999998093E+01 0. -1.
       -5    1    3    3    0  502 -0.34599467493E+03 -0.42740090217E+03 -0.72177732224E+01  0.54996184641E+03  0.46999998093E+01 0.  1.
</event>
<event>
 5   0  0.2438115E-03  0.1097560E+04  0.7818609E-02  0.9207573E-01
        2   -1    0    0  501    0  0.00000000000E+00  0.00000000000E+00  0.17712248277E+04  0.17712248277E+04  0.25500000920E-02 0. -1.
       -2   -1    0    0    0  501  0.00000000000E+00  0.00000000000E+00 -0.17002906066E+03  0.17002906068E+03  0.25500000920E-02 0.  1.
    10030    2    1    2    0    0  0.00000000000E+00  0.00000000000E+00  0.16011957670E+04  0.19412538884E+04  0.10975603741E+04 0.  0.
        4    1    3    3  502    0 -0.53421111438E+03  0.11785164284E+03  0.87744080725E+03  0.10340089495E+04  0.12699999809E+01 0.  1.
       -4    1    3    3    0  502  0.53421111438E+03 -0.11785164284E+03  0.72375495977E+03  0.90724493889E+03  0.12699999809E+01 0. -1.
</event>
<event>
 5   0  0.1480937E-03  0.1096029E+04  0.7818609E-02  0.9209071E-01
        1   -1    0    0  501    0  0.00000000000E+00  0.00000000000E+00  0.11309487106E+04  0.11309487106E+04  0.50400001928E-02 0. -1.
       -1   -1    0    0    0  501  0.00000000000E+00  0.00000000000E+00 -0.26554682265E+03  0.26554682270E+03  0.50400001928E-02 0.  1.
    10030    2    1    2    0    0  0.00000000000E+00  0.00000000000E+00  0.86540188791E+03  0.13964955333E+04  0.10960288987E+04 0.  0.
        1    1    3    3  502    0  0.43001759233E+03  0.33888193464E+03  0.40244870705E+03  0.67950059394E+03  0.50400001928E-02 0. -1.
       -1    1    3    3    0  502 -0.43001759233E+03 -0.33888193464E+03  0.46295318085E+03  0.71699493933E+03  0.50400001928E-02 0.  1.
</event>
<event>
 5   0  0.1468556E-03  0.1108323E+04  0.7818609E-02  0.9197118E-01
        1   -1    0    0  501    0  0.00000000000E+00  0.00000000000E+00  0.72377008534E+03  0.72377008536E+03  0.50400001928E-02 0. -1.
       -1   -1    0    0    0  501  0.00000000000E+00  0.00000000000E+00 -0.42429889266E+03  0.42429889269E+03  0.50400001928E-02 0.  1.
    10030    2    1    2    0    0  0.00000000000E+00  0.00000000000E+00  0.29947119268E+03  0.11480689780E+04  0.11083227793E+04 0.  0.
        5    1    3    3  502    0 -0.76739629580E+02  0.24980556672E+03  0.65591162388E+03  0.70606935938E+03  0.46999998093E+01 0. -1.
       -5    1    3    3    0  502  0.76739629580E+02 -0.24980556672E+03 -0.35644043120E+03  0.44199961867E+03  0.46999998093E+01 0.  1.
</event>
<event>
 5   0  0.1479573E-03  0.1106183E+04  0.7818609E-02  0.9199187E-01
       -1   -1    0    0    0  501  0.00000000000E+00  0.00000000000E+00  0.43762522616E+03  0.43762522619E+03  0.50400001928E-02 0. -1.
        1   -1    0    0  501    0  0.00000000000E+00  0.00000000000E+00 -0.69902293970E+03  0.69902293972E+03  0.50400001928E-02 0.  1.
    10030    2    1    2    0    0  0.00000000000E+00  0.00000000000E+00 -0.26139771353E+03  0.11366481659E+04  0.11061827554E+04 0.  0.
        4    1    3    3  502    0  0.20658599822E+03  0.45459076276E+03  0.11371322583E+03  0.51211604825E+03  0.12699999809E+01 0.  1.
       -4    1    3    3    0  502 -0.20658599822E+03 -0.45459076276E+03 -0.37511093937E+03  0.62453211766E+03  0.12699999809E+01 0. -1.
</event>
<event>
 5   0  0.2488472E-03  0.1106796E+04  0.7818609E-02  0.9198593E-01
       -2   -1    0    0    0  501  0.00000000000E+00  0.00000000000E+00  0.19480571188E+03  0.19480571190E+03  0.25500000920E-02 0. -1.
        2   -1    0    0  501    0  0.00000000000E+00  0.00000000000E+00 -0.15720768180E+04  0.15720768180E+04  0.25500000920E-02 0.  1.
    10030    2    1    2    0    0  0.00000000000E+00  0.00000000000E+00 -0.13772711062E+04  0.17668825299E+04  0.11067963565E+04 0.  0.
        2    1    3    3  502    0  0.17031208625E+03  0.52464896144E+03 -0.75979253054E+03  0.93890757209E+03  0.25500000920E-02 0.  1.
       -2    1    3    3    0  502 -0.17031208625E+03 -0.52464896144E+03 -0.61747857562E+03  0.82797495785E+03  0.25500000920E-02 0. -1.
</event>
<event>
 5   0  0.2483036E-03  0.1103105E+04  0.7818609E-02  0.9202171E-01
       -2   -1    0    0    0  501  0.00000000000E+00  0.00000000000E+00  0.11502619691E+04  0.11502619691E+04  0.25500000920E-02 0.  1.
        2   -1    0    0  501    0  0.00000000000E+00  0.00000000000E+00 -0.26447027404E+03  0.26447027405E+03  0.25500000920E-02 0. -1.
    10030    2    1    2    0    0  0.00000000000E+00  0.00000000000E+00  0.88579169504E+03  0.14147322431E+04  0.11031048875E+04 0.  0.
        3    1    3    3  502    0 -0.15274635754E+03 -0.14043179732E+02  0.11223564518E+04  0.11327897756E+04  0.10100000352E+00 0.  1.
       -3    1    3    3    0  502  0.15274635754E+03  0.14043179732E+02 -0.23656475677E+03  0.28194246751E+03  0.10100000352E+00 0. -1.
</event>
<event>
 5   0  0.1468556E-03  0.1102541E+04  0.7818609E-02  0.9202719E-01
       -1   -1    0    0    0  501  0.00000000000E+00  0.00000000000E+00  0.77095555446E+03  0.77095555448E+03  0.50400001928E-02 0.  1.
        1   -1    0    0  501    0  0.00000000000E+00  0.00000000000E+00 -0.39418479412E+03  0.39418479415E+03  0.50400001928E-02 0. -1.
    10030    2    1    2    0    0  0.00000000000E+00  0.00000000000E+00  0.37677076034E+03  0.11651403486E+04  0.11025406234E+04 0.  0.
        5    1    3    3  502    0  0.29131222123E+03  0.25169275637E+03 -0.22855971441E+03  0.44774288034E+03  0.46999998093E+01 0. -1.
       -5    1    3    3    0  502 -0.29131222123E+03 -0.25169275637E+03  0.60533047475E+03  0.71739746829E+03  0.46999998093E+01 0.  1.
</event>
<event>
 5   0  0.2392585E-03  0.1103478E+04  0.7818609E-02  0.9201809E-01
        2   -1    0    0  501    0  0.00000000000E+00  0.00000000000E+00  0.11222810982E+04  0.11222810982E+04  0.25500000920E-02 0. -1.
       -2   -1    0    0    0  501  0.00000000000E+00  0.00000000000E+00 -0.27124728475E+03  0.27124728476E+03  0.25500000920E-02 0.  1.
    10030    2    1    2    0    0  0.00000000000E+00  0.00000000000E+00  0.85103381348E+03  0.13935283830E+04  0.11034775949E+04 0.  0.
        5    1    3    3  502    0  0.51000090370E+03  0.17398041258E+03  0.27596891535E+03  0.60543458604E+03  0.46999998093E+01 0.  1.
       -5    1    3    3    0  502 -0.51000090370E+03 -0.17398041258E+03  0.57506489813E+03  0.78809379695E+03  0.46999998093E+01 0. -1.
</event>
<event>
 5   0  0.2392585E-03  0.1111427E+04  0.7818609E-02  0.9194126E-01
       -2   -1    0    0    0  501  0.00000000000E+00  0.00000000000E+00  0.61588113955E+03  0.61588113955E+03  0.25500000920E-02 0.  1.
        2   -1    0    0  501    0  0.00000000000E+00  0.00000000000E+00 -0.50142354875E+03  0.50142354876E+03  0.25500000920E-02 0. -1.
    10030    2    1    2    0    0  0.00000000000E+00  0.00000000000E+00  0.11445759080E+03  0.11173046883E+04  0.11114266626E+04 0.  0.
        5    1    3    3  502    0  0.11974550755E+03 -0.36147568402E+03 -0.34962331164E+03  0.51697408712E+03  0.46999998093E+01 0. -1.
       -5    1    3    3    0  502 -0.11974550755E+03  0.36147568402E+03  0.46408090244E+03  0.60033060119E+03  0.46999998093E+01 0.  1.
</event>
<event>
 5   0  0.2392585E-03  0.1097007E+04  0.7818609E-02  0.9208114E-01
        2   -1    0    0  501    0  0.00000000000E+00  0.00000000000E+00  0.10479211005E+04  0.10479211005E+04  0.25500000920E-02 0.  1.
       -2   -1    0    0    0  501  0.00000000000E+00  0.00000000000E+00 -0.28709787085E+03  0.28709787086E+03  0.25500000920E-02 0. -1.
    10030    2    1    2    0    0  0.00000000000E+00  0.00000000000E+00  0.76082322967E+03  0.13350189714E+04  0.10970066851E+04 0.  0.
        5    1    3    3  502    0 -0.17537551718E+03 -0.27322492677E+02 -0.25115784664E+03  0.30757998076E+03  0.46999998093E+01 0. -1.
       -5    1    3    3    0  502  0.17537551718E+03  0.27322492677E+02  0.10119810763E+04  0.10274389906E+04  0.46999998093E+01 0.  1.
</event>
<event>
 5   0  0.1479573E-03  0.1101060E+04  0.7818609E-02  0.9204160E-01
        1   -1    0    0  501    0  0.00000000000E+00  0.00000000000E+00  0.10854609781E+04  0.10854609781E+04  0.50400001928E-02 0. -1.
       -1   -1    0    0    0  501  0.00000000000E+00  0.00000000000E+00 -0.27922069714E+03  0.27922069719E+03  0.50400001928E-02 0.  1.
    10030    2    1    2    0    0  0.00000000000E+00  0.00000000000E+00  0.80624028096E+03  0.13646816753E+04  0.11010598005E+04 0.  0.
        4    1    3    3  502    0  0.31399209045E+03 -0.42527074972E+03  0.59366671594E+03  0.79491384813E+03  0.12699999809E+01 0. -1.
       -4    1    3    3    0  502 -0.31399209045E+03  0.42527074972E+03  0.21257356502E+03  0.56976782717E+03  0.12699999809E+01 0.  1.
</event>
<event>
 5   0  0.2438115E-03  0.1110564E+04  0.7818609E-02  0.9194956E-01
        2   -1    0    0  501    0  0.00000000000E+00  0.00000000000E+00  0.11540904225E+04  0.11540904225E+04  0.25500000920E-02 0. -1.
       -2   -1    0    0    0  501  0.00000000000E+00  0.00000000000E+00 -0.26716969168E+03  0.26716969170E+03  0.25500000920E-02 0.  1.
    10030    2    1    2    0    0  0.00000000000E+00  0.00000000000E+00  0.88692073081E+03  0.14212601142E+04  0.11105637890E+04 0.  0.
        4    1    3    3  502    0  0.35133930977E+03  0.25276746819E+03 -0.17168334578E+01  0.43282243933E+03  0.12699999809E+01 0.  1.
       -4    1    3    3    0  502 -0.35133930977E+03 -0.25276746819E+03  0.88863756427E+03  0.98843767487E+03  0.12699999809E+01 0. -1.
</event>
<event>
 5   0  0.1480937E-03  0.1057342E+04  0.7818609E-02  0.9247797E-01
        1   -1    0    0  501    0  0.00000000000E+00  0.00000000000E+00  0.73206520031E+03  0.73206520033E+03  0.50400001928E-02 0. -1.
       -1   -1    0    0    0  501  0.00000000000E+00  0.00000000000E+00 -0.38178703537E+03  0.38178703540E+03  0.50400001928E-02 0.  1.
    10030    2    1    2    0    0  0.00000000000E+00  0.00000000000E+00  0.35027816495E+03  0.11138522357E+04  0.10573419552E+04 0.  0.
        1    1    3    3  502    0 -0.40263568541E+03  0.14970864221E+02  0.53570903123E+03  0.67031618518E+03  0.50400001928E-02 0. -1.
       -1    1    3    3    0  502  0.40263568541E+03 -0.14970864221E+02 -0.18543086628E+03  0.44353605055E+03  0.50400001928E-02 0.  1.
</event>
<event>
 5   0  0.9631750E-04  0.1107015E+04  0.7818609E-02  0.9198382E-01
        3   -1    0    0  501    0  0.00000000000E+00  0.00000000000E+00  0.61509933831E+03  0.61509934660E+03  0.10100000352E+00 0.  1.
       -3   -1    0    0    0  501  0.00000000000E+00  0.00000000000E+00 -0.49808287911E+03  0.49808288935E+03  0.10100000352E+00 0. -1.
    10030    2    1    2    0    0  0.00000000000E+00  0.00000000000E+00  0.11701645920E+03  0.11131822360E+04  0.11070148322E+04 0.  0.
        5    1    3    3  502    0  0.13491172549E+03  0.53224779528E+03  0.12860657163E+03  0.56395977651E+03  0.46999998093E+01 0.  1.
       -5    1    3    3    0  502 -0.13491172549E+03 -0.53224779528E+03 -0.11590112430E+02  0.54922245945E+03  0.46999998093E+01 0. -1.
</event>
<event>
 5   0  0.1480937E-03  0.1097109E+04  0.7818609E-02  0.9208014E-01
        1   -1    0    0  501    0  0.00000000000E+00  0.00000000000E+00  0.30400121387E+03  0.30400121392E+03  0.50400001928E-02 0.  1.
       -1   -1    0    0    0  501  0.00000000000E+00  0.00000000000E+00 -0.98983828300E+03  0.98983828302E+03  0.50400001928E-02 0. -1.
    10030    2    1    2    0    0  0.00000000000E+00  0.00000000000E+00 -0.68583706913E+03  0.12938394969E+04  0.10971090002E+04 0.  0.
        1    1    3    3  502    0 -0.23515933531E+03 -0.45607242384E+03 -0.57162724354E+03  0.76815341850E+03  0.50400001928E-02 0. -1.
       -1    1    3    3    0  502  0.23515933531E+03  0.45607242384E+03 -0.11420982559E+03  0.52568607843E+03  0.50400001928E-02 0.  1.
</event>
<event>
 5   0  0.1415400E-03  0.1068325E+04  0.7818609E-02  0.9236627E-01
        1   -1    0    0  501    0  0.00000000000E+00  0.00000000000E+00  0.10454890463E+04  0.10454890463E+04  0.50400001928E-02 0. -1.
       -1   -1    0    0    0  501  0.00000000000E+00  0.00000000000E+00 -0.27291471716E+03  0.27291471721E+03  0.50400001928E-02 0.  1.
    10030    2    1    2    0    0  0.00000000000E+00  0.00000000000E+00  0.77257432909E+03  0.13184037635E+04  0.10683245713E+04 0.  0.
        2    1    3    3  502    0  0.26331937581E+03  0.44458267625E+03  0.21916767737E+03  0.56127116486E+03  0.25500000920E-02 0.  1.
       -2    1    3    3    0  502 -0.26331937581E+03 -0.44458267625E+03  0.55340665173E+03  0.75713259861E+03  0.25500000920E-02 0. -1.
</event>
<event>
 5   0  0.2438115E-03  0.1097330E+04  0.7818609E-02  0.9207798E-01
        2   -1    0    0  501    0  0.00000000000E+00  0.00000000000E+00  0.38923925701E+03  0.38923925702E+03  0.25500000920E-02 0. -1.
       -2   -1    0    0    0  501  0.00000000000E+00  0.00000000000E+00 -0.77338902256E+03  0.77338902256E+03  0.25500000920E-02 0.  1.
    10030    2    1    2    0    0  0.00000000000E+00  0.00000000000E+00 -0.38414976555E+03  0.11626282796E+04  0.10973301573E+04 0.  0.
        4    1    3    3  502    0 -0.27405242275E+03 -0.32986359502E+03 -0.55466302741E+03  0.70111868368E+03  0.12699999809E+01 0.  1.
       -4    1    3    3    0  502  0.27405242275E+03  0.32986359502E+03  0.17051326186E+03  0.46150959590E+03  0.12699999809E+01 0. -1.
</event>
<event>
 5   0  0.1479573E-03  0.1099958E+04  0.7818609E-02  0.9205233E-01
       -1   -1    0    0    0  501  0.00000000000E+00  0.00000000000E+00  0.59370379533E+03  0.59370379536E+03  0.50400001928E-02 0. -1.
        1   -1    0    0  501    0  0.00000000000E+00  0.00000000000E+00 -0.50947418503E+03  0.50947418506E+03  0.50400001928E-02 0.  1.
    10030    2    1    2    0    0  0.00000000000E+00  0.00000000000E+00  0.84229610300E+02  0.11031779804E+04  0.10999577397E+04 0.  0.
        4    1    3    3  502    0  0.77603831263E+02 -0.33229085507E+03 -0.39046634203E+03  0.51856064655E+03  0.12699999809E+01 0.  1.
       -4    1    3    3    0  502 -0.77603831263E+02  0.33229085507E+03  0.47469595233E+03  0.58461733386E+03  0.12699999809E+01 0. -1.
</event>
<event>
 5   0  0.1480937E-03  0.1122419E+04  0.7818609E-02  0.9183612E-01
        1   -1    0    0  501    0  0.00000000000E+00  0.00000000000E+00  0.96019900266E+03  0.96019900267E+03  0.50400001928E-02 0. -1.
       -1   -1    0    0    0  501  0.00000000000E+00  0.00000000000E+00 -0.32801137806E+03  0.32801137810E+03  0.50400001928E-02 0.  1.
    10030    2    1    2    0    0  0.00000000000E+00  0.00000000000E+00  0.63218762460E+03  0.12882103808E+04  0.11224191697E+04 0.  0.
        1    1    3    3  502    0 -0.40389796793E+03 -0.31110445785E+03  0.46842580697E+02  0.51197048702E+03  0.50400001928E-02 0. -1.
       -1    1    3    3    0  502  0.40389796793E+03  0.31110445785E+03  0.58534504390E+03  0.77623989374E+03  0.50400001928E-02 0.  1.
</event>
<event>
 5   0  0.2467448E-03  0.1108940E+04  0.7818609E-02  0.9196522E-01
        2   -1    0    0  501    0  0.00000000000E+00  0.00000000000E+00  0.96405428432E+03  0.96405428432E+03  0.25500000920E-02 0. -1.
       -2   -1    0    0    0  501  0.00000000000E+00  0.00000000000E+00 -0.31890014160E+03  0.31890014161E+03  0.25500000920E-02 0.  1.
    10030    2    1    2    0    0  0.00000000000E+00  0.00000000000E+00  0.64515414272E+03  0.12829544259E+04  0.11089401206E+04 0.  0.
        1    1    3    3  502    0 -0.50441495654E+03 -0.22093797223E+03  0.24769826285E+03  0.60382320707E+03  0.50400001928E-02 0. -1.
       -1    1    3    3    0  502  0.50441495654E+03  0.22093797223E+03  0.39745587988E+03  0.67913121886E+03  0.50400001928E-02 0.  1.
</event>
<event>
 5   0  0.2392585E-03  0.1086204E+04  0.7818609E-02  0.9218743E-01
       -2   -1    0    0    0  501  0.00000000000E+00  0.00000000000E+00  0.14353563292E+03  0.14353563295E+03  0.25500000920E-02 0. -1.
        2   -1    0    0  501    0  0.00000000000E+00  0.00000000000E+00 -0.20549597515E+04  0.20549597515E+04  0.25500000920E-02 0.  1.
    10030    2    1    2    0    0  0.00000000000E+00  0.00000000000E+00 -0.19114241185E+04  0.21984953844E+04  0.10862043060E+04 0.  0.
        5    1    3    3  502    0  0.43972014344E+03 -0.31845574722E+03 -0.98210131513E+03  0.11221911382E+04  0.46999998093E+01 0.  1.
       -5    1    3    3    0  502 -0.43972014344E+03  0.31845574722E+03 -0.92932280341E+03  0.10763042462E+04  0.46999998093E+01 0. -1.
</event>
<event>
 5   0  0.1479573E-03  0.1093060E+04  0.7818609E-02  0.9211983E-01
       -1   -1    0    0    0  501  0.00000000000E+00  0.00000000000E+00  0.46691288288E+03  0.46691288291E+03  0.50400001928E-02 0.  1.
        1   -1    0    0  501    0  0.00000000000E+00  0.00000000000E+00 -0.63972286479E+03  0.63972286481E+03  0.50400001928E-02 0. -1.
    10030    2    1    2    0    0  0.00000000000E+00  0.00000000000E+00 -0.17280998191E+03  0.11066357477E+04  0.10930596453E+04 0.  0.
        4    1    3    3  502    0 -0.18637524708E+03  0.50366329060E+03 -0.18905857164E+03  0.56934804771E+03  0.12699999809E+01 0.  1.
       -4    1    3    3    0  502  0.18637524708E+03 -0.50366329060E+03  0.16248589736E+02  0.53728770001E+03  0.12699999809E+01 0. -1.
</event>
<event>
 5   0  0.2438115E-03  0.1106831E+04  0.7818609E-02  0.9198560E-01
       -2   -1    0    0    0  501  0.00000000000E+00  0.00000000000E+00  0.21053539862E+03  0.21053539863E+03  0.25500000920E-02 0. -1.
        2   -1    0    0  501    0  0.00000000000E+00  0.00000000000E+00 -0.14547132063E+04  0.14547132063E+04  0.25500000920E-02 0.  1.
    10030    2    1    2    0    0  0.00000000000E+00  0.00000000000E+00 -0.12441778077E+04  0.16652486049E+04  0.11068308358E+04 0.  0.
        4    1    3    3  502    0 -0.53885239666E+03  0.14832703887E+02 -0.81051516832E+03  0.97340555036E+03  0.12699999809E+01 0. -1.
       -4    1    3    3    0  502  0.53885239666E+03 -0.14832703887E+02 -0.43366263937E+03  0.69184305458E+03  0.12699999809E+01 0.  1.
</event>
<event>
 5   0  0.2488472E-03  0.1208520E+04  0.7818609E-02  0.9105431E-01
       -2   -1    0    0    0  501  0.00000000000E+00  0.00000000000E+00  0.28839639928E+03  0.28839639930E+03  0.25500000920E-02 0. -1.
        2   -1    0    0  501    0  0.00000000000E+00  0.00000000000E+00 -0.12660711700E+04  0.12660711700E+04  0.25500000920E-02 0.  1.
    10030    2    1    2    0    0  0.00000000000E+00  0.00000000000E+00 -0.97767477072E+03  0.15544675693E+04  0.12085203626E+04 0.  0.
        2    1    3    3  502    0  0.63221352660E+02 -0.57654088009E+03 -0.70687230081E+03  0.91436577774E+03  0.25500000920E-02 0.  1.
       -2    1    3    3    0  502 -0.63221352660E+02  0.57654088009E+03 -0.27080246991E+03  0.64010179156E+03  0.25500000920E-02 0. -1.
</event>
<event>
 5   0  0.1480937E-03  0.1101806E+04  0.7818609E-02  0.9203434E-01
       -1   -1    0    0    0  501  0.00000000000E+00  0.00000000000E+00  0.18808721701E+03  0.18808721708E+03  0.50400001928E-02 0.  1.
        1   -1    0    0  501    0  0.00000000000E+00  0.00000000000E+00 -0.16135806843E+04  0.16135806843E+04  0.50400001928E-02 0. -1.
    10030    2    1    2    0    0  0.00000000000E+00  0.00000000000E+00 -0.14254934673E+04  0.18016679014E+04  0.11018056097E+04 0.  0.
        1    1    3    3  502    0 -0.17886507602E+03  0.76449610195E+00  0.13928380133E+03  0.22670085402E+03  0.50400001928E-02 0.  1.
       -1    1    3    3    0  502  0.17886507602E+03 -0.76449610195E+00 -0.15647772687E+04  0.15749670474E+04  0.50400001928E-02 0. -1.
</event>
<event>
 5   0  0.2488472E-03  0.1112669E+04  0.7818609E-02  0.9192931E-01
        2   -1    0    0  501    0  0.00000000000E+00  0.00000000000E+00  0.57901992508E+03  0.57901992509E+03  0.25500000920E-02 0.  1.
       -2   -1    0    0    0  501  0.00000000000E+00  0.00000000000E+00 -0.53453803095E+03  0.53453803095E+03  0.25500000920E-02 0. -1.
    10030    2    1    2    0    0  0.00000000000E+00  0.00000000000E+00  0.44481894135E+02  0.11135579560E+04  0.11126691703E+04 0.  0.
        2    1    3    3  502    0  0.20231536479E+02 -0.22143028161E+03  0.53261642549E+03  0.57716630306E+03  0.25500000920E-02 0.  1.
       -2    1    3    3    0  502 -0.20231536479E+02  0.22143028161E+03 -0.48813453135E+03  0.53639165298E+03  0.25500000920E-02 0. -1.
</event>
<event>
 5   0  0.1415400E-03  0.1102349E+04  0.7818609E-02  0.9202905E-01
        1   -1    0    0  501    0  0.00000000000E+00  0.00000000000E+00  0.17181511970E+04  0.17181511970E+04  0.50400001928E-02 0.  1.
       -1   -1    0    0    0  501  0.00000000000E+00  0.00000000000E+00 -0.17681416885E+03  0.17681416892E+03  0.50400001928E-02 0. -1.
    10030    2    1    2    0    0  0.00000000000E+00  0.00000000000E+00  0.15413370281E+04  0.18949653659E+04  0.11023492658E+04 0.  0.
        2    1    3    3  502    0  0.25101171130E+03 -0.43615343695E+03  0.38414871427E+03  0.63309314832E+03  0.25500000920E-02 0. -1.
       -2    1    3    3    0  502 -0.25101171130E+03  0.43615343695E+03  0.11571883139E+04  0.12618722176E+04  0.25500000920E-02 0.  1.
</event>
<event>
 5   0  0.1479573E-03  0.1137866E+04  0.7818609E-02  0.9169052E-01
       -1   -1    0    0    0  501  0.00000000000E+00  0.00000000000E+00  0.23128545023E+03  0.23128545029E+03  0.50400001928E-02 0. -1.
        1   -1    0    0  501    0  0.00000000000E+00  0.00000000000E+00 -0.13995021770E+04  0.13995021770E+04  0.50400001928E-02 0.  1.
    10030    2    1    2    0    0  0.00000000000E+00  0.00000000000E+00 -0.11682167268E+04  0.16307876273E+04  0.11378655301E+04 0.  0.
        4    1    3    3  502    0  0.39845335067E+02  0.23009788184E+03  0.15943074054E+03  0.28275866014E+03  0.12699999809E+01 0. -1.
       -4    1    3    3    0  502 -0.39845335067E+02 -0.23009788184E+03 -0.13276474673E+04  0.13480289672E+04  0.12699999809E+01 0.  1.
</event>
<event>
 5   0  0.2467448E-03  0.1093548E+04  0.7818609E-02  0.9211503E-01
       -2   -1    0    0    0  501  0.00000000000E+00  0.00000000000E+00  0.14195215628E+04  0.14195215628E+04  0.25500000920E-02 0.  1.
        2   -1    0    0  501    0  0.00000000000E+00  0.00000000000E+00 -0.21060737264E+03  0.21060737266E+03  0.25500000920E-02 0. -1.
    10030    2    1    2    0    0  0.00000000000E+00  0.00000000000E+00  0.12089141902E+04  0.16301289355E+04  0.10935478166E+04 0.  0.
        1    1    3    3  502    0  0.37850764742E+03  0.35923217287E+03  0.84778924091E+03  0.99552116513E+03  0.50400001928E-02 0. -1.
       -1    1    3    3    0  502 -0.37850764742E+03 -0.35923217287E+03  0.36112494925E+03  0.63460777035E+03  0.50400001928E-02 0.  1.
</event>
<event>
 5   0  0.2488472E-03  0.1095261E+04  0.7818609E-02  0.9209823E-01
       -2   -1    0    0    0  501  0.00000000000E+00  0.00000000000E+00  0.37689100715E+03  0.37689100716E+03  0.25500000920E-02 0.  1.
        2   -1    0    0  501    0  0.00000000000E+00  0.00000000000E+00 -0.79571896405E+03  0.79571896405E+03  0.25500000920E-02 0. -1.
    10030    2    1    2    0    0  0.00000000000E+00  0.00000000000E+00 -0.41882795690E+03  0.11726099712E+04  0.10952612871E+04 0.  0.
        2    1    3    3  502    0  0.13007400891E+03  0.29313265820E+03 -0.68467010284E+03  0.75605499325E+03  0.25500000920E-02 0. -1.
       -2    1    3    3    0  502 -0.13007400891E+03 -0.29313265820E+03  0.26584214593E+03  0.41655497796E+03  0.25500000920E-02 0.  1.
</event>
<event>
 5   0  0.1480937E-03  0.1101344E+04  0.7818609E-02  0.9203883E-01
        1   -1    0    0  501    0  0.00000000000E+00  0.00000000000E+00  0.15612999138E+03  0.15612999146E+03  0.50400001928E-02 0.  1.
       -1   -1    0    0    0  501  0.00000000000E+00  0.00000000000E+00 -0.19422258613E+04  0.19422258613E+04  0.50400001928E-02 0. -1.
    10030    2    1    2    0    0  0.00000000000E+00  0.00000000000E+00 -0.17860958699E+04  0.20983558527E+04  0.11013441008E+04 0.  0.
        1    1    3    3  502    0 -0.22892244438E+03  0.32500804959E+03 -0.16703328430E+03  0.43120277820E+03  0.50400001928E-02 0.  1.
       -1    1    3    3    0  502  0.22892244438E+03 -0.32500804959E+03 -0.16190625856E+04  0.16671530745E+04  0.50400001928E-02 0. -1.
</event>
<event>
 5   0  0.1415400E-03  0.1092838E+04  0.7818609E-02  0.9212201E-01
        1   -1    0    0  501    0  0.00000000000E+00  0.00000000000E+00  0.26782700536E+03  0.26782700541E+03  0.50400001928E-02 0. -1.
       -1   -1    0    0    0  501  0.00000000000E+00  0.00000000000E+00 -0.11148001812E+04  0.11148001812E+04  0.50400001928E-02 0.  1.
    10030    2    1    2    0    0  0.00000000000E+00  0.00000000000E+00 -0.84697317587E+03  0.13826271867E+04  0.10928377632E+04 0.  0.
        2    1    3    3  502    0 -0.36925863059E+03  0.36736346743E+03 -0.63239602002E+03  0.81928784906E+03  0.25500000920E-02 0.  1.
       -2    1    3    3    0  502  0.36925863059E+03 -0.36736346743E+03 -0.21457715585E+03  0.56333933760E+03  0.25500000920E-02 0. -1.
</event>
<event>
 5   0  0.2467448E-03  0.1106903E+04  0.7818609E-02  0.9198490E-01
        2   -1    0    0  501    0  0.00000000000E+00  0.00000000000E+00  0.59209013883E+03  0.59209013884E+03  0.25500000920E-02 0. -1.
       -2   -1    0    0    0  501  0.00000000000E+00  0.00000000000E+00 -0.51733391404E+03  0.51733391405E+03  0.25500000920E-02 0.  1.
    10030    2    1    2    0    0  0.00000000000E+00  0.00000000000E+00  0.74756224788E+02  0.11094240529E+04  0.11069025413E+04 0.  0.
        1    1    3    3  502    0  0.13491202618E+03  0.23779139546E+02  0.57482869795E+03  0.59092701266E+03  0.50400001928E-02 0. -1.
       -1    1    3    3    0  502 -0.13491202618E+03 -0.23779139546E+02 -0.50007247316E+03  0.51849704022E+03  0.50400001928E-02 0.  1.
</event>
<event>
 5   0  0.1415400E-03  0.1089326E+04  0.7818609E-02  0.9215658E-01
        1   -1    0    0  501    0  0.00000000000E+00  0.00000000000E+00  0.82495525703E+03  0.82495525705E+03  0.50400001928E-02 0.  1.
       -1   -1    0    0    0  501  0.00000000000E+00  0.00000000000E+00 -0.35960469034E+03  0.35960469037E+03  0.50400001928E-02 0. -1.
    10030    2    1    2    0    0  0.00000000000E+00  0.00000000000E+00  0.46535056670E+03  0.11845599474E+04  0.10893259930E+04 0.  0.
        2    1    3    3  502    0 -0.41260297718E+03  0.24460324473E+03 -0.47926249716E+02  0.48204656365E+03  0.25500000920E-02 0. -1.
       -2    1    3    3    0  502  0.41260297718E+03 -0.24460324473E+03  0.51327681641E+03  0.70251338377E+03  0.25500000920E-02 0.  1.
</event>
<event>
 5   0  0.1509004E-03  0.1102682E+04  0.7818609E-02  0.9202582E-01
        1   -1    0    0  501    0  0.00000000000E+00  0.00000000000E+00  0.27310961420E+04  0.27310961420E+04  0.50400001928E-02 0.  1.
       -1   -1    0    0    0  501  0.00000000000E+00  0.00000000000E+00 -0.11130215277E+03  0.11130215289E+03  0.50400001928E-02 0. -1.
    10030    2    1    2    0    0  0.00000000000E+00  0.00000000000E+00  0.26197939892E+04  0.28423982949E+04  0.11026819672E+04 0.  0.
        3    1    3    3  502    0 -0.46709244641E+03 -0.24539851683E+03  0.89761521953E+03  0.10412054927E+04  0.10100000352E+00 0. -1.
       -3    1    3    3    0  502  0.46709244641E+03  0.24539851683E+03  0.17221787697E+04  0.18011928022E+04  0.10100000352E+00 0.  1.
</event>
<event>
 5   0  0.2438115E-03  0.1097106E+04  0.7818609E-02  0.9208017E-01
        2   -1    0    0  501    0  0.00000000000E+00  0.00000000000E+00  0.51252575431E+03  0.51252575432E+03  0.25500000920E-02 0.  1.
       -2   -1    0    0    0  501  0.00000000000E+00  0.00000000000E+00 -0.58711279301E+03  0.58711279302E+03  0.25500000920E-02 0. -1.
    10030    2    1    2    0    0  0.00000000000E+00  0.00000000000E+00 -0.74587038700E+02  0.10996385473E+04  0.10971060607E+04 0.  0.
        4    1    3    3  502    0 -0.38801225540E+03  0.31577223559E+03 -0.26285342655E+03  0.56511870598E+03  0.12699999809E+01 0. -1.
       -4    1    3    3    0  502  0.38801225540E+03 -0.31577223559E+03  0.18826638785E+03  0.53451984135E+03  0.12699999809E+01 0.  1.
</event>
<event>
 5   0  0.2438115E-03  0.1091934E+04  0.7818609E-02  0.9213089E-01
       -2   -1    0    0    0  501  0.00000000000E+00  0.00000000000E+00  0.42723526840E+03  0.42723526841E+03  0.25500000920E-02 0.  1.
        2   -1    0    0  501    0  0.00000000000E+00  0.00000000000E+00 -0.69769513740E+03  0.69769513740E+03  0.25500000920E-02 0. -1.
    10030    2    1    2    0    0  0.00000000000E+00  0.00000000000E+00 -0.27045986899E+03  0.11249304058E+04  0.10919340077E+04 0.  0.
        4    1    3    3  502    0  0.12232725076E+02 -0.17462082754E+03  0.39753965526E+03  0.43437479597E+03  0.12699999809E+01 0.  1.
       -4    1    3    3    0  502 -0.12232725076E+02  0.17462082754E+03 -0.66799952426E+03  0.69055560984E+03  0.12699999809E+01 0. -1.
</event>
<event>
 5   0  0.2438115E-03  0.1103375E+04  0.7818609E-02  0.9201908E-01
       -2   -1    0    0    0  501  0.00000000000E+00  0.00000000000E+00  0.50588160262E+03  0.50588160262E+03  0.25500000920E-02 0.  1.
        2   -1    0    0  501    0  0.00000000000E+00  0.00000000000E+00 -0.60164140378E+03  0.60164140379E+03  0.25500000920E-02 0. -1.
    10030    2    1    2    0    0  0.00000000000E+00  0.00000000000E+00 -0.95759801167E+02  0.11075230064E+04  0.11033753986E+04 0.  0.
        4    1    3    3  502    0 -0.20707296034E+03 -0.46805922678E+03  0.15880442560E+03  0.53589094895E+03  0.12699999809E+01 0.  1.
       -4    1    3    3    0  502  0.20707296034E+03  0.46805922678E+03 -0.25456422676E+03  0.57163205746E+03  0.12699999809E+01 0. -1.
</event>
<event>
 5   0  0.2483036E-03  0.1100674E+04  0.7818609E-02  0.9204535E-01
       -2   -1    0    0    0  501  0.00000000000E+00  0.00000000000E+00  0.14942838787E+03  0.14942838789E+03  0.25500000920E-02 0.  1.
        2   -1    0    0  501    0  0.00000000000E+00  0.00000000000E+00 -0.20268637130E+04  0.20268637130E+04  0.25500000920E-02 0. -1.
    10030    2    1    2    0    0  0.00000000000E+00  0.00000000000E+00 -0.18774353251E+04  0.21762921009E+04  0.11006742971E+04 0.  0.
        3    1    3    3  502    0  0.25605400670E+03 -0.22189633972E+03 -0.81250798957E+02  0.34842982430E+03  0.10100000352E+00 0.  1.
       -3    1    3    3    0  502 -0.25605400670E+03  0.22189633972E+03 -0.17961845261E+04  0.18278622766E+04  0.10100000352E+00 0. -1.
</event>
<event>
 5   0  0.1480937E-03  0.1101130E+04  0.7818609E-02  0.9204092E-01
        1   -1    0    0  501    0  0.00000000000E+00  0.00000000000E+00  0.45865506021E+03  0.45865506023E+03  0.50400001928E-02 0.  1.
       -1   -1    0    0    0  501  0.00000000000E+00  0.00000000000E+00 -0.66089238636E+03  0.66089238638E+03  0.50400001928E-02 0. -1.
    10030    2    1    2    0    0  0.00000000000E+00  0.00000000000E+00 -0.20223732615E+03  0.11195474466E+04  0.11011296695E+04 0.  0.
        1    1    3    3  502    0 -0.18276131217E+02  0.17448374844E+03  0.42947514920E+03  0.46392617866E+03  0.50400001928E-02 0.  1.
       -1    1    3    3    0  502  0.18276131217E+02 -0.17448374844E+03 -0.63171247536E+03  0.65562126795E+03  0.50400001928E-02 0. -1.
</event>
<event>
 5   0  0.2488472E-03  0.1078634E+04  0.7818609E-02  0.9226271E-01
        2   -1    0    0  501    0  0.00000000000E+00  0.00000000000E+00  0.99794677153E+03  0.99794677153E+03  0.25500000920E-02 0.  1.
       -2   -1    0    0    0  501  0.00000000000E+00  0.00000000000E+00 -0.29146110805E+03  0.29146110806E+03  0.25500000920E-02 0. -1.
    10030    2    1    2    0    0  0.00000000000E+00  0.00000000000E+00  0.70648566348E+03  0.12894078796E+04  0.10786337132E+04 0.  0.
        2    1    3    3  502    0  0.27461698212E+02 -0.35013454766E+03  0.84250575529E+03  0.91277833784E+03  0.25500000920E-02 0.  1.
       -2    1    3    3    0  502 -0.27461698212E+02  0.35013454766E+03 -0.13602009181E+03  0.37662954174E+03  0.25500000920E-02 0. -1.
</event>
<event>
 5   0  0.2467448E-03  0.1060779E+04  0.7818609E-02  0.9244286E-01
        2   -1    0    0  501    0  0.00000000000E+00  0.00000000000E+00  0.18168464605E+04  0.18168464605E+04  0.25500000920E-02 0.  1.
       -2   -1    0    0    0  501  0.00000000000E+00  0.00000000000E+00 -0.15483584567E+03  0.15483584569E+03  0.25500000920E-02 0. -1.
    10030    2    1    2    0    0  0.00000000000E+00  0.00000000000E+00  0.16620106149E+04  0.19716823062E+04  0.10607788802E+04 0.  0.
        1    1    3    3  502    0 -0.26299538081E+03  0.26117350084E+03  0.12583346212E+03  0.39142333615E+03  0.50400001928E-02 0.  1.
       -1    1    3    3    0  502  0.26299538081E+03 -0.26117350084E+03  0.15361771527E+04  0.15802589701E+04  0.50400001928E-02 0. -1.
</event>
<event>
 5   0  0.1415400E-03  0.1098837E+04  0.7818609E-02  0.9206326E-01
       -1   -1    0    0    0  501  0.00000000000E+00  0.00000000000E+00  0.43422249583E+03  0.43422249586E+03  0.50400001928E-02 0. -1.
        1   -1    0    0  501    0  0.00000000000E+00  0.00000000000E+00 -0.69517483638E+03  0.69517483640E+03  0.50400001928E-02 0.  1.
    10030    2    1    2    0    0  0.00000000000E+00  0.00000000000E+00 -0.26095234056E+03  0.11293973323E+04  0.10988367532E+04 0.  0.
        2    1    3    3  502    0  0.32889664287E+03 -0.75314428610E+02  0.31519050644E+03  0.46172537314E+03  0.25500000920E-02 0. -1.
       -2    1    3    3    0  502 -0.32889664287E+03  0.75314428610E+02 -0.57614284699E+03  0.66767195912E+03  0.25500000920E-02 0.  1.
</event>
<event>
 5   0  0.1415400E-03  0.1085838E+04  0.7818609E-02  0.9219106E-01
        1   -1    0    0  501    0  0.00000000000E+00  0.00000000000E+00  0.11258586956E+04  0.11258586956E+04  0.50400001928E-02 0. -1.
       -1   -1    0    0    0  501  0.00000000000E+00  0.00000000000E+00 -0.26180986013E+03  0.26180986018E+03  0.50400001928E-02 0.  1.
    10030    2    1    2    0    0  0.00000000000E+00  0.00000000000E+00  0.86404883543E+03  0.13876685558E+04  0.10858377552E+04 0.  0.
        2    1    3    3  502    0 -0.51877741120E+03  0.15998059464E+03  0.42423879598E+03  0.68898646508E+03  0.25500000920E-02 0. -1.
       -2    1    3    3    0  502  0.51877741120E+03 -0.15998059464E+03  0.43981003945E+03  0.69868209069E+03  0.25500000920E-02 0.  1.
</event>
<event>
 5   0  0.2438115E-03  0.1100972E+04  0.7818609E-02  0.9204245E-01
       -2   -1    0    0    0  501  0.00000000000E+00  0.00000000000E+00  0.27022886728E+03  0.27022886729E+03  0.25500000920E-02 0.  1.
        2   -1    0    0  501    0  0.00000000000E+00  0.00000000000E+00 -0.11214009484E+04  0.11214009484E+04  0.25500000920E-02 0. -1.
    10030    2    1    2    0    0  0.00000000000E+00  0.00000000000E+00 -0.85117208116E+03  0.13916298157E+04  0.11009721306E+04 0.  0.
        4    1    3    3  502    0 -0.28109997033E+03  0.16081082788E+03  0.13708037057E+03  0.35166739481E+03  0.12699999809E+01 0.  1.
       -4    1    3    3    0  502  0.28109997033E+03 -0.16081082788E+03 -0.98825245173E+03  0.10399624209E+04  0.12699999809E+01 0. -1.
</event>
<event>
 5   0  0.2438115E-03  0.1097759E+04  0.7818609E-02  0.9207379E-01
        2   -1    0    0  501    0  0.00000000000E+00  0.00000000000E+00  0.11538391946E+04  0.11538391946E+04  0.25500000920E-02 0.  1.
       -2   -1    0    0    0  501  0.00000000000E+00  0.00000000000E+00 -0.26110109882E+03  0.26110109883E+03  0.25500000920E-02 0. -1.
    10030    2    1    2    0    0  0.00000000000E+00  0.00000000000E+00  0.89273809579E+03  0.14149402934E+04  0.10977589564E+04 0.  0.
        4    1    3    3  502    0  0.14818480385E+03 -0.48136780222E+03  0.16517614122E+03  0.53005515527E+03  0.12699999809E+01 0. -1.
       -4    1    3    3    0  502 -0.14818480385E+03  0.48136780222E+03  0.72756195457E+03  0.88488513816E+03  0.12699999809E+01 0.  1.
</event>
<event>
 5   0  0.2438115E-03  0.1107077E+04  0.7818609E-02  0.9198322E-01
        2   -1    0    0  501    0  0.00000000000E+00  0.00000000000E+00  0.13471160089E+04  0.13471160089E+04  0.25500000920E-02 0. -1.
       -2   -1    0    0    0  501  0.00000000000E+00  0.00000000000E+00 -0.22745236776E+03  0.22745236778E+03  0.25500000920E-02 0.  1.
    10030    2    1    2    0    0  0.00000000000E+00  0.00000000000E+00  0.11196636412E+04  0.15745683767E+04  0.11070767379E+04 0.  0.
        4    1    3    3  502    0 -0.15377590159E+03 -0.39706286621E+03  0.56786012915E+02  0.42957212642E+03  0.12699999809E+01 0.  1.
       -4    1    3    3    0  502  0.15377590159E+03  0.39706286621E+03  0.10628776283E+04  0.11449962503E+04  0.12699999809E+01 0. -1.
</event>
<event>
 5   0  0.1509004E-03  0.1098455E+04  0.7818609E-02  0.9206699E-01
        1   -1    0    0  501    0  0.00000000000E+00  0.00000000000E+00  0.35268517875E+03  0.35268517878E+03  0.50400001928E-02 0. -1.
       -1   -1    0    0    0  501  0.00000000000E+00  0.00000000000E+00 -0.85529715995E+03  0.85529715997E+03  0.50400001928E-02 0.  1.
    10030    2    1    2    0    0  0.00000000000E+00  0.00000000000E+00 -0.50261198120E+03  0.12079823388E+04  0.10984546086E+04 0.  0.
        3    1    3    3  502    0 -0.53419206672E+03  0.12340309075E+03 -0.21548284560E+03  0.58908603268E+03  0.10100000352E+00 0. -1.
       -3    1    3    3    0  502  0.53419206672E+03 -0.12340309075E+03 -0.28712913560E+03  0.61889630607E+03  0.10100000352E+00 0.  1.
</event>
<event>
 5   0  0.9631750E-04  0.1064369E+04  0.7818609E-02  0.9240633E-01
       -3   -1    0    0    0  501  0.00000000000E+00  0.00000000000E+00  0.39247550841E+03  0.39247552141E+03  0.10100000352E+00 0.  1.
        3   -1    0    0  501    0  0.00000000000E+00  0.00000000000E+00 -0.72162614989E+03  0.72162615696E+03  0.10100000352E+00 0. -1.
    10030    2    1    2    0    0  0.00000000000E+00  0.00000000000E+00 -0.32915064148E+03  0.11141016784E+04  0.10643694870E+04 0.  0.
        3    1    3    3  502    0 -0.48107050293E+03  0.20985533492E+03 -0.25673762372E+03  0.58427930651E+03  0.10100000352E+00 0.  1.
       -3    1    3    3    0  502  0.48107050293E+03 -0.20985533492E+03 -0.72413017758E+02  0.52982237186E+03  0.10100000352E+00 0. -1.
</event>
<event>
 5   0  0.1509004E-03  0.1106536E+04  0.7818609E-02  0.9198844E-01
       -1   -1    0    0    0  501  0.00000000000E+00  0.00000000000E+00  0.71591725359E+03  0.71591725361E+03  0.50400001928E-02 0. -1.
        1   -1    0    0  501    0  0.00000000000E+00  0.00000000000E+00 -0.42757129737E+03  0.42757129740E+03  0.50400001928E-02 0.  1.
    10030    2    1    2    0    0  0.00000000000E+00  0.00000000000E+00  0.28834595622E+03  0.11434885510E+04  0.11065363418E+04 0.  0.
        3    1    3    3  502    0  0.32772991505E+03  0.10555644766E+03  0.59171344633E+03  0.68459759978E+03  0.10100000352E+00 0.  1.
       -3    1    3    3    0  502 -0.32772991505E+03 -0.10555644766E+03 -0.30336749011E+03  0.45889095122E+03  0.10100000352E+00 0. -1.
</event>
<event>
 5   0  0.2488472E-03  0.1099848E+04  0.7818609E-02  0.9205340E-01
        2   -1    0    0  501    0  0.00000000000E+00  0.00000000000E+00  0.21918807598E+04  0.21918807598E+04  0.25500000920E-02 0.  1.
       -2   -1    0    0    0  501  0.00000000000E+00  0.00000000000E+00 -0.13797125096E+03  0.13797125098E+03  0.25500000920E-02 0. -1.
    10030    2    1    2    0    0  0.00000000000E+00  0.00000000000E+00  0.20539095088E+04  0.23298520108E+04  0.10998482266E+04 0.  0.
        2    1    3    3  502    0 -0.33231374725E+03  0.18668026899E+03  0.18666688880E+04  0.19051862604E+04  0.25500000920E-02 0.  1.
       -2    1    3    3    0  502  0.33231374725E+03 -0.18668026899E+03  0.18724062085E+03  0.42466575038E+03  0.25500000920E-02 0. -1.
</event>
<event>
 5   0  0.1415400E-03  0.1089420E+04  0.7818609E-02  0.9215565E-01
       -1   -1    0    0    0  501  0.00000000000E+00  0.00000000000E+00  0.36035403743E+03  0.36035403747E+03  0.50400001928E-02 0. -1.
        1   -1    0    0  501    0  0.00000000000E+00  0.00000000000E+00 -0.82338208773E+03  0.82338208775E+03  0.50400001928E-02 0.  1.
    10030    2    1    2    0    0  0.00000000000E+00  0.00000000000E+00 -0.46302805030E+03  0.11837361252E+04  0.10894201388E+04 0.  0.
        2    1    3    3  502    0 -0.10983987984E+02 -0.49240593031E+03  0.21274700583E+02  0.49298768858E+03  0.25500000920E-02 0. -1.
       -2    1    3    3    0  502  0.10983987984E+02  0.49240593031E+03 -0.48430275089E+03  0.69074843664E+03  0.25500000920E-02 0.  1.
</event>
<event>
 5   0  0.1415400E-03  0.1103132E+04  0.7818609E-02  0.9202145E-01
        1   -1    0    0  501    0  0.00000000000E+00  0.00000000000E+00  0.14012309480E+04  0.14012309480E+04  0.50400001928E-02 0.  1.
       -1   -1    0    0    0  501  0.00000000000E+00  0.00000000000E+00 -0.21711254702E+03  0.21711254708E+03  0.50400001928E-02 0. -1.
    10030    2    1    2    0    0  0.00000000000E+00  0.00000000000E+00  0.11841184010E+04  0.16183434951E+04  0.11031315790E+04 0.  0.
        2    1    3    3  502    0  0.30561097700E+03  0.16345661701E+03 -0.37418757971E+02  0.34859187937E+03  0.25500000920E-02 0. -1.
       -2    1    3    3    0  502 -0.30561097700E+03 -0.16345661701E+03  0.12215371589E+04  0.12697516157E+04  0.25500000920E-02 0.  1.
</event>
<event>
 5   0  0.1480937E-03  0.1112408E+04  0.7818609E-02  0.9193182E-01
        1   -1    0    0  501    0  0.00000000000E+00  0.00000000000E+00  0.94346790235E+03  0.94346790236E+03  0.50400001928E-02 0. -1.
       -1   -1    0    0    0  501  0.00000000000E+00  0.00000000000E+00 -0.32789973140E+03  0.32789973144E+03  0.50400001928E-02 0.  1.
    10030    2    1    2    0    0  0.00000000000E+00  0.00000000000E+00  0.61556817095E+03  0.12713676338E+04  0.11124079680E+04 0.  0.
        1    1    3    3  502    0  0.79502844761E+02 -0.26908975188E+03 -0.24108360492E+03  0.36993418533E+03  0.50400001928E-02 0.  1.
       -1    1    3    3    0  502 -0.79502844761E+02  0.26908975188E+03  0.85665177587E+03  0.90143344847E+03  0.50400001928E-02 0. -1.
</event>
<event>
 5   0  0.2488472E-03  0.1112828E+04  0.7818609E-02  0.9192778E-01
       -2   -1    0    0    0  501  0.00000000000E+00  0.00000000000E+00  0.28188034174E+04  0.28188034174E+04  0.25500000920E-02 0.  1.
        2   -1    0    0  501    0  0.00000000000E+00  0.00000000000E+00 -0.10983261368E+03  0.10983261371E+03  0.25500000920E-02 0. -1.
    10030    2    1    2    0    0  0.00000000000E+00  0.00000000000E+00  0.27089708037E+04  0.29286360311E+04  0.11128280134E+04 0.  0.
        2    1    3    3  502    0 -0.37971503764E+03  0.18598237052E+03  0.40260937109E+03  0.58383838316E+03  0.25500000920E-02 0. -1.
       -2    1    3    3    0  502  0.37971503764E+03 -0.18598237052E+03  0.23063614326E+04  0.23447976480E+04  0.25500000920E-02 0.  1.
</event>
<event>
 5   0  0.2438115E-03  0.1102361E+04  0.7818609E-02  0.9202894E-01
        2   -1    0    0  501    0  0.00000000000E+00  0.00000000000E+00  0.32755302557E+03  0.32755302558E+03  0.25500000920E-02 0. -1.
       -2   -1    0    0    0  501  0.00000000000E+00  0.00000000000E+00 -0.92748240751E+03  0.92748240752E+03  0.25500000920E-02 0.  1.
    10030    2    1    2    0    0  0.00000000000E+00  0.00000000000E+00 -0.59992938194E+03  0.12550354331E+04  0.11023605014E+04 0.  0.
        4    1    3    3  502    0  0.35911372726E+03  0.39669569871E+03 -0.14949369045E+03  0.55558988730E+03  0.12699999809E+01 0. -1.
       -4    1    3    3    0  502 -0.35911372726E+03 -0.39669569871E+03 -0.45043569149E+03  0.69944554580E+03  0.12699999809E+01 0.  1.
</event>
<event>
 5   0  0.1480937E-03  0.1106554E+04  0.7818609E-02  0.9198827E-01
       -1   -1    0    0    0  501  0.00000000000E+00  0.00000000000E+00  0.40723592272E+03  0.40723592275E+03  0.50400001928E-02 0.  1.
        1   -1    0    0  501    0  0.00000000000E+00  0.00000000000E+00 -0.75169080125E+03  0.75169080127E+03  0.50400001928E-02 0. -1.
    10030    2    1    2    0    0  0.00000000000E+00  0.00000000000E+00 -0.34445487853E+03  0.11589267240E+04  0.11065541055E+04 0.  0.
        1    1    3    3  502    0 -0.19423996608E+03  0.18499851856E+03  0.33457818115E+03  0.42883117380E+03  0.50400001928E-02 0.  1.
       -1    1    3    3    0  502  0.19423996608E+03 -0.18499851856E+03 -0.67903305968E+03  0.73009555022E+03  0.50400001928E-02 0. -1.
</event>
<event>
 5   0  0.2467448E-03  0.1096138E+04  0.7818609E-02  0.9208965E-01
       -2   -1    0    0    0  501  0.00000000000E+00  0.00000000000E+00  0.26927275590E+03  0.26927275592E+03  0.25500000920E-02 0.  1.
        2   -1    0    0  501    0  0.00000000000E+00  0.00000000000E+00 -0.11155208869E+04  0.11155208869E+04  0.25500000920E-02 0. -1.
    10030    2    1    2    0    0  0.00000000000E+00  0.00000000000E+00 -0.84624813096E+03  0.13847936428E+04  0.10961375525E+04 0.  0.
        1    1    3    3  502    0 -0.24268834033E+02 -0.32314331153E+03  0.13527877317E+03  0.35115654997E+03  0.50400001928E-02 0.  1.
       -1    1    3    3    0  502  0.24268834033E+02  0.32314331153E+03 -0.98152690413E+03  0.10336370928E+04  0.50400001928E-02 0. -1.
</event>
<event>
 5   0  0.1415400E-03  0.1097000E+04  0.7818609E-02  0.9208121E-01
        1   -1    0    0  501    0  0.00000000000E+00  0.00000000000E+00  0.44080900399E+03  0.44080900402E+03  0.50400001928E-02 0. -1.
       -1   -1    0    0    0  501  0.00000000000E+00  0.00000000000E+00 -0.68249989241E+03  0.68249989243E+03  0.50400001928E-02 0.  1.
    10030    2    1    2    0    0  0.00000000000E+00  0.00000000000E+00 -0.24169088843E+03  0.11233088964E+04  0.10969997226E+04 0.  0.
        2    1    3    3  502    0 -0.79010150152E+02  0.17614958735E+02 -0.67634949066E+03  0.68117657338E+03  0.25500000920E-02 0.  1.
       -2    1    3    3    0  502  0.79010150152E+02 -0.17614958735E+02  0.43465860223E+03  0.44213232307E+03  0.25500000920E-02 0. -1.
</event>
<event>
 5   0  0.1479573E-03  0.1100472E+04  0.7818609E-02  0.9204732E-01
        1   -1    0    0  501    0  0.00000000000E+00  0.00000000000E+00  0.57568904473E+03  0.57568904476E+03  0.50400001928E-02 0.  1.
       -1   -1    0    0    0  501  0.00000000000E+00  0.00000000000E+00 -0.52590786773E+03  0.52590786775E+03  0.50400001928E-02 0. -1.
    10030    2    1    2    0    0  0.00000000000E+00  0.00000000000E+00  0.49781177003E+02  0.11015969125E+04  0.11004715317E+04 0.  0.
        4    1    3    3  502    0  0.52777463487E+03 -0.34922250298E+02 -0.12689612224E+03  0.54393921307E+03  0.12699999809E+01 0. -1.
       -4    1    3    3    0  502 -0.52777463487E+03  0.34922250298E+02  0.17667729924E+03  0.55765769944E+03  0.12699999809E+01 0.  1.
</event>
<event>
 5   0  0.1480937E-03  0.1144669E+04  0.7818609E-02  0.9162716E-01
        1   -1    0    0  501    0  0.00000000000E+00  0.00000000000E+00  0.12082868526E+04  0.12082868526E+04  0.50400001928E-02 0.  1.
       -1   -1    0    0    0  501  0.00000000000E+00  0.00000000000E+00 -0.27110028025E+03  0.27110028029E+03  0.50400001928E-02 0. -1.
    10030    2    1    2    0    0  0.00000000000E+00  0.00000000000E+00  0.93718657231E+03  0.14793871329E+04  0.11446692175E+04 0.  0.
        1    1    3    3  502    0 -0.28442809899E+02 -0.26540208573E+03  0.11229171784E+04  0.11542054627E+04  0.50400001928E-02 0.  1.
       -1    1    3    3    0  502  0.28442809899E+02  0.26540208573E+03 -0.18573060609E+03  0.32518167016E+03  0.50400001928E-02 0. -1.
</event>
<event>
 5   0  0.1480937E-03  0.1098047E+04  0.7818609E-02  0.9207097E-01
        1   -1    0    0  501    0  0.00000000000E+00  0.00000000000E+00  0.54515883898E+03  0.54515883901E+03  0.50400001928E-02 0. -1.
       -1   -1    0    0    0  501  0.00000000000E+00  0.00000000000E+00 -0.55291567318E+03  0.55291567320E+03  0.50400001928E-02 0.  1.
    10030    2    1    2    0    0  0.00000000000E+00  0.00000000000E+00 -0.77568341951E+01  0.10980745122E+04  0.10980471146E+04 0.  0.
        1    1    3    3  502    0  0.10701629760E+03  0.24443358145E+03 -0.48370973305E+03  0.55242680018E+03  0.50400001928E-02 0.  1.
       -1    1    3    3    0  502 -0.10701629760E+03 -0.24443358145E+03  0.47595289885E+03  0.54564771203E+03  0.50400001928E-02 0. -1.
</event>
<event>
 5   0  0.1480937E-03  0.1090326E+04  0.7818609E-02  0.9214672E-01
        1   -1    0    0  501    0  0.00000000000E+00  0.00000000000E+00  0.41638056103E+03  0.41638056106E+03  0.50400001928E-02 0.  1.
       -1   -1    0    0    0  501  0.00000000000E+00  0.00000000000E+00 -0.71377708940E+03  0.71377708941E+03  0.50400001928E-02 0. -1.
    10030    2    1    2    0    0  0.00000000000E+00  0.00000000000E+00 -0.29739652837E+03  0.11301576505E+04  0.10903263823E+04 0.  0.
        1    1    3    3  502    0  0.16041305663E+02 -0.53110963035E+03 -0.27508772428E+03  0.59833771318E+03  0.50400001928E-02 0. -1.
       -1    1    3    3    0  502 -0.16041305663E+02  0.53110963035E+03 -0.22308804088E+02  0.53181993729E+03  0.50400001928E-02 0.  1.
</event>
<event>
 5   0  0.1415400E-03  0.1096544E+04  0.7818609E-02  0.9208566E-01
       -1   -1    0    0    0  501  0.00000000000E+00  0.00000000000E+00  0.63007786944E+03  0.63007786946E+03  0.50400001928E-02 0.  1.
        1   -1    0    0  501    0  0.00000000000E+00  0.00000000000E+00 -0.47708777623E+03  0.47708777625E+03  0.50400001928E-02 0. -1.
    10030    2    1    2    0    0  0.00000000000E+00  0.00000000000E+00  0.15299009322E+03  0.11071656457E+04  0.10965444808E+04 0.  0.
        2    1    3    3  502    0  0.19904466655E+03  0.57332992762E+02 -0.43606020907E+03  0.48275703753E+03  0.25500000920E-02 0. -1.
       -2    1    3    3    0  502 -0.19904466655E+03 -0.57332992762E+02  0.58905030229E+03  0.62440860819E+03  0.25500000920E-02 0.  1.
</event>
<event>
 5   0  0.1479573E-03  0.1101621E+04  0.7818609E-02  0.9203613E-01
       -1   -1    0    0    0  501  0.00000000000E+00  0.00000000000E+00  0.75203212869E+03  0.75203212870E+03  0.50400001928E-02 0. -1.
        1   -1    0    0  501    0  0.00000000000E+00  0.00000000000E+00 -0.40343006153E+03  0.40343006156E+03  0.50400001928E-02 0.  1.
    10030    2    1    2    0    0  0.00000000000E+00  0.00000000000E+00  0.34860206716E+03  0.11554621903E+04  0.11016212924E+04 0.  0.
        4    1    3    3  502    0  0.39328390506E+02 -0.19771331276E+03  0.71194856316E+03  0.73993894736E+03  0.12699999809E+01 0. -1.
       -4    1    3    3    0  502 -0.39328390506E+02  0.19771331276E+03 -0.36334649600E+03  0.41552324290E+03  0.12699999809E+01 0.  1.
</event>
<event>
 5   0  0.2488472E-03  0.1091318E+04  0.7818609E-02  0.9213695E-01
       -2   -1    0    0    0  501  0.00000000000E+00  0.00000000000E+00  0.13053128399E+03  0.13053128401E+03  0.25500000920E-02 0. -1.
        2   -1    0    0  501    0  0.00000000000E+00  0.00000000000E+00 -0.22810161788E+04  0.22810161788E+04  0.25500000920E-02 0.  1.
    10030    2    1    2    0    0  0.00000000000E+00  0.00000000000E+00 -0.21504848948E+04  0.24115474628E+04  0.10913184149E+04 0.  0.
        2    1    3    3  502    0  0.55942536062E+02  0.19059243434E+03 -0.21982876182E+04  0.22072434156E+04  0.25500000920E-02 0.  1.
       -2    1    3    3    0  502 -0.55942536062E+02 -0.19059243434E+03  0.47802723325E+02  0.20430404727E+03  0.25500000920E-02 0. -1.
</event>
<event>
 5   0  0.1415400E-03  0.1097737E+04  0.7818609E-02  0.9207401E-01
        1   -1    0    0  501    0  0.00000000000E+00  0.00000000000E+00  0.59362769593E+03  0.59362769596E+03  0.50400001928E-02 0.  1.
       -1   -1    0    0    0  501  0.00000000000E+00  0.00000000000E+00 -0.50748375361E+03  0.50748375364E+03  0.50400001928E-02 0. -1.
    10030    2    1    2    0    0  0.00000000000E+00  0.00000000000E+00  0.86143942323E+02  0.11011114496E+04  0.10977366012E+04 0.  0.
        2    1    3    3  502    0 -0.43451078175E+03 -0.30962771633E+02 -0.29186791205E+03  0.52435216294E+03  0.25500000920E-02 0. -1.
       -2    1    3    3    0  502  0.43451078175E+03  0.30962771633E+02  0.37801185437E+03  0.57675928665E+03  0.25500000920E-02 0.  1.
</event>
<event>
 5   0  0.1468556E-03  0.1122650E+04  0.7818609E-02  0.9183393E-01
        1   -1    0    0  501    0  0.00000000000E+00  0.00000000000E+00  0.96921868176E+03  0.96921868177E+03  0.50400001928E-02 0.  1.
       -1   -1    0    0    0  501  0.00000000000E+00  0.00000000000E+00 -0.32509224999E+03  0.32509225003E+03  0.50400001928E-02 0. -1.
    10030    2    1    2    0    0  0.00000000000E+00  0.00000000000E+00  0.64412643177E+03  0.12943109318E+04  0.11226495126E+04 0.  0.
        5    1    3    3  502    0 -0.23507307489E+03 -0.21948928092E+03 -0.20830989875E+03  0.38321012368E+03  0.46999998093E+01 0. -1.
       -5    1    3    3    0  502  0.23507307489E+03  0.21948928092E+03  0.85243633052E+03  0.91110080812E+03  0.46999998093E+01 0.  1.
</event>
<event>
 5   0  0.2467448E-03  0.1092854E+04  0.7818609E-02  0.9212185E-01
       -2   -1    0    0    0  501  0.00000000000E+00  0.00000000000E+00  0.12043569574E+04  0.12043569574E+04  0.25500000920E-02 0. -1.
        2   -1    0    0  501    0  0.00000000000E+00  0.00000000000E+00 -0.24791878475E+03  0.24791878476E+03  0.25500000920E-02 0.  1.
    10030    2    1    2    0    0  0.00000000000E+00  0.00000000000E+00  0.95643817265E+03  0.14522757422E+04  0.10928544520E+04 0.  0.
        1    1    3    3  502    0 -0.64609999737E+02  0.25381332837E+03  0.11155110676E+04  0.11458449283E+04  0.50400001928E-02 0. -1.
       -1    1    3    3    0  502  0.64609999737E+02 -0.25381332837E+03 -0.15907289498E+03  0.30643081384E+03  0.50400001928E-02 0.  1.
</event>
<event>
 5   0  0.2467448E-03  0.1097102E+04  0.7818609E-02  0.9208021E-01
        2   -1    0    0  501    0  0.00000000000E+00  0.00000000000E+00  0.14302493114E+04  0.14302493114E+04  0.25500000920E-02 0. -1.
       -2   -1    0    0    0  501  0.00000000000E+00  0.00000000000E+00 -0.21038878411E+03  0.21038878413E+03  0.25500000920E-02 0.  1.
    10030    2    1    2    0    0  0.00000000000E+00  0.00000000000E+00  0.12198605272E+04  0.16406380955E+04  0.10971023901E+04 0.  0.
        1    1    3    3  502    0  0.15078969389E+03  0.65150463237E+02  0.13926071259E+04  0.14022612887E+04  0.50400001928E-02 0. -1.
       -1    1    3    3    0  502 -0.15078969389E+03 -0.65150463237E+02 -0.17274659866E+03  0.23837680679E+03  0.50400001928E-02 0.  1.
</event>
<event>
 5   0  0.2488472E-03  0.1095408E+04  0.7818609E-02  0.9209679E-01
       -2   -1    0    0    0  501  0.00000000000E+00  0.00000000000E+00  0.54367676905E+03  0.54367676905E+03  0.25500000920E-02 0. -1.
        2   -1    0    0  501    0  0.00000000000E+00  0.00000000000E+00 -0.55176093949E+03  0.55176093950E+03  0.25500000920E-02 0.  1.
    10030    2    1    2    0    0  0.00000000000E+00  0.00000000000E+00 -0.80841704447E+01  0.10954377086E+04  0.10954078781E+04 0.  0.
        2    1    3    3  502    0 -0.49245585181E+03  0.18019378027E+03 -0.16215091455E+03  0.54888567437E+03  0.25500000920E-02 0.  1.
       -2    1    3    3    0  502  0.49245585181E+03 -0.18019378027E+03  0.15406674411E+03  0.54655203419E+03  0.25500000920E-02 0. -1.
</event>
<event>
 5   0  0.2392585E-03  0.1097996E+04  0.7818609E-02  0.9207148E-01
        2   -1    0    0  501    0  0.00000000000E+00  0.00000000000E+00  0.40551681334E+03  0.40551681335E+03  0.25500000920E-02 0. -1.
       -2   -1    0    0    0  501  0.00000000000E+00  0.00000000000E+00 -0.74324556483E+03  0.74324556483E+03  0.25500000920E-02 0.  1.
    10030    2    1    2    0    0  0.00000000000E+00  0.00000000000E+00 -0.33772875148E+03  0.11487623782E+04  0.10979955792E+04 0.  0.
        5    1    3    3  502    0  0.26801768443E+03 -0.18109015417E+03 -0.63293734887E+03  0.71081565873E+03  0.46999998093E+01 0.  1.
       -5    1    3    3    0  502 -0.26801768443E+03  0.18109015417E+03  0.29520859739E+03  0.43794671945E+03  0.46999998093E+01 0. -1.
</event>
<event>
 5   0  0.1415400E-03  0.1099342E+04  0.7818609E-02  0.9205833E-01
        1   -1    0    0  501    0  0.00000000000E+00  0.00000000000E+00  0.49158573360E+03  0.49158573363E+03  0.50400001928E-02 0.  1.
       -1   -1    0    0    0  501  0.00000000000E+00  0.00000000000E+00 -0.61461957550E+03  0.61461957553E+03  0.50400001928E-02 0. -1.
    10030    2    1    2    0    0  0.00000000000E+00  0.00000000000E+00 -0.12303384190E+03  0.11062053092E+04  0.10993420122E+04 0.  0.
        2    1    3    3  502    0  0.39746530804E+03  0.29788026980E+03  0.17538204428E+03  0.52675439029E+03  0.25500000920E-02 0.  1.
       -2    1    3    3    0  502 -0.39746530804E+03 -0.29788026980E+03 -0.29841588618E+03  0.57945091886E+03  0.25500000920E-02 0. -1.
</event>
<event>
 5   0  0.2467448E-03  0.1115157E+04  0.7818609E-02  0.9190544E-01
       -2   -1    0    0    0  501  0.00000000000E+00  0.00000000000E+00  0.68913593771E+03  0.68913593772E+03  0.25500000920E-02 0.  1.
        2   -1    0    0  501    0  0.00000000000E+00  0.00000000000E+00 -0.45113541944E+03  0.45113541945E+03  0.25500000920E-02 0. -1.
    10030    2    1    2    0    0  0.00000000000E+00  0.00000000000E+00  0.23800051827E+03  0.11402713572E+04  0.11151567250E+04 0.  0.
        1    1    3    3  502    0 -0.90031439137E+02 -0.34336562121E+03  0.55867011779E+03  0.66190475931E+03  0.50400001928E-02 0.  1.
       -1    1    3    3    0  502  0.90031439137E+02  0.34336562121E+03 -0.32066959952E+03  0.47836659785E+03  0.50400001928E-02 0. -1.
</event>
<event>
 5   0  0.1480937E-03  0.1107660E+04  0.7818609E-02  0.9197758E-01
        1   -1    0    0  501    0  0.00000000000E+00  0.00000000000E+00  0.62177864560E+03  0.62177864562E+03  0.50400001928E-02 0.  1.
       -1   -1    0    0    0  501  0.00000000000E+00  0.00000000000E+00 -0.49330662353E+03  0.49330662355E+03  0.50400001928E-02 0. -1.
    10030    2    1    2    0    0  0.00000000000E+00  0.00000000000E+00  0.12847202207E+03  0.11150852692E+04  0.11076597388E+04 0.  0.
        1    1    3    3  502    0  0.33234328741E+02 -0.28721845014E+03  0.53976751586E+03  0.61232991917E+03  0.50400001928E-02 0.  1.
       -1    1    3    3    0  502 -0.33234328741E+02  0.28721845014E+03 -0.41129549380E+03  0.50275535000E+03  0.50400001928E-02 0. -1.
</event>
<event>
 5   0  0.9631750E-04  0.1096083E+04  0.7818609E-02  0.9209018E-01
       -4   -1    0    0    0  501  0.00000000000E+00  0.00000000000E+00  0.61221953850E+03  0.61222085575E+03  0.12699999809E+01 0. -1.
        4   -1    0    0  501    0  0.00000000000E+00  0.00000000000E+00 -0.49058863493E+03  0.49059027877E+03  0.12699999809E+01 0.  1.
    10030    2    1    2    0    0  0.00000000000E+00  0.00000000000E+00  0.12163090357E+03  0.11028111345E+04  0.10960831728E+04 0.  0.
        1    1    3    3  502    0  0.39816594035E+03  0.37619786223E+03  0.77908931227E+02  0.55329083599E+03  0.50400001928E-02 0. -1.
       -1    1    3    3    0  502 -0.39816594035E+03 -0.37619786223E+03  0.43721972340E+02  0.54952029853E+03  0.50400001928E-02 0.  1.
</event>
<event>
 5   0  0.1480937E-03  0.1096030E+04  0.7818609E-02  0.9209070E-01
        1   -1    0    0  501    0  0.00000000000E+00  0.00000000000E+00  0.23921195553E+03  0.23921195559E+03  0.50400001928E-02 0.  1.
       -1   -1    0    0    0  501  0.00000000000E+00  0.00000000000E+00 -0.12554570365E+04  0.12554570365E+04  0.50400001928E-02 0. -1.
    10030    2    1    2    0    0  0.00000000000E+00  0.00000000000E+00 -0.10162450810E+04  0.14946689921E+04  0.10960298040E+04 0.  0.
        1    1    3    3  502    0 -0.12828494835E+03 -0.42851630427E+02  0.21609332977E+03  0.25493061291E+03  0.50400001928E-02 0.  1.
       -1    1    3    3    0  502  0.12828494835E+03  0.42851630427E+02 -0.12323384107E+04  0.12397383792E+04  0.50400001928E-02 0. -1.
</event>
<event>
 5   0  0.1468556E-03  0.1115696E+04  0.7818609E-02  0.9190027E-01
        1   -1    0    0  501    0  0.00000000000E+00  0.00000000000E+00  0.11506369620E+04  0.11506369620E+04  0.50400001928E-02 0.  1.
       -1   -1    0    0    0  501  0.00000000000E+00  0.00000000000E+00 -0.27045421320E+03  0.27045421325E+03  0.50400001928E-02 0. -1.
    10030    2    1    2    0    0  0.00000000000E+00  0.00000000000E+00  0.88018274883E+03  0.14210911753E+04  0.11156964001E+04 0.  0.
        5    1    3    3  502    0  0.33182068638E+03  0.36576150389E+02 -0.12915107779E+03  0.35797328613E+03  0.46999998093E+01 0. -1.
       -5    1    3    3    0  502 -0.33182068638E+03 -0.36576150389E+02  0.10093338266E+04  0.10631178892E+04  0.46999998093E+01 0.  1.
</event>
<event>
 5   0  0.9631750E-04  0.1093277E+04  0.7818609E-02  0.9211769E-01
        4   -1    0    0  501    0  0.00000000000E+00  0.00000000000E+00  0.13218253613E+04  0.13218259714E+04  0.12699999809E+01 0. -1.
       -4   -1    0    0    0  501  0.00000000000E+00  0.00000000000E+00 -0.22605911789E+03  0.22606268529E+03  0.12699999809E+01 0.  1.
    10030    2    1    2    0    0  0.00000000000E+00  0.00000000000E+00  0.10957662434E+04  0.15478886567E+04  0.10932774732E+04 0.  0.
        3    1    3    3  502    0 -0.68293648292E+02  0.18397181274E+03 -0.17447065154E+03  0.26258268932E+03  0.10100000352E+00 0.  1.
       -3    1    3    3    0  502  0.68293648292E+02 -0.18397181274E+03  0.12702368949E+04  0.12853059674E+04  0.10100000352E+00 0. -1.
</event>
<event>
 5   0  0.2467448E-03  0.1104095E+04  0.7818609E-02  0.9201210E-01
       -2   -1    0    0    0  501  0.00000000000E+00  0.00000000000E+00  0.50181630772E+03  0.50181630773E+03  0.25500000920E-02 0.  1.
        2   -1    0    0  501    0  0.00000000000E+00  0.00000000000E+00 -0.60730649605E+03  0.60730649605E+03  0.25500000920E-02 0. -1.
    10030    2    1    2    0    0  0.00000000000E+00  0.00000000000E+00 -0.10549018832E+03  0.11091228038E+04  0.11040947487E+04 0.  0.
        1    1    3    3  502    0 -0.19480994169E+03  0.25951063652E+03  0.39589778965E+03  0.51189036299E+03  0.50400001928E-02 0.  1.
       -1    1    3    3    0  502  0.19480994169E+03 -0.25951063652E+03 -0.50138797798E+03  0.59723244079E+03  0.50400001928E-02 0. -1.
</event>
<event>
 5   0  0.2483036E-03  0.1090038E+04  0.7818609E-02  0.9214956E-01
       -2   -1    0    0    0  501  0.00000000000E+00  0.00000000000E+00  0.30151735299E+03  0.30151735300E+03  0.25500000920E-02 0. -1.
        2   -1    0    0  501    0  0.00000000000E+00  0.00000000000E+00 -0.98516977465E+03  0.98516977466E+03  0.25500000920E-02 0.  1.
    10030    2    1    2    0    0  0.00000000000E+00  0.00000000000E+00 -0.68365242167E+03  0.12866871277E+04  0.10900381327E+04 0.  0.
        3    1    3    3  502    0 -0.62242307085E+02  0.28187242470E+03 -0.88752557203E+03  0.93328871193E+03  0.10100000352E+00 0.  1.
       -3    1    3    3    0  502  0.62242307085E+02 -0.28187242470E+03  0.20387315037E+03  0.35339841573E+03  0.10100000352E+00 0. -1.
</event>
<event>
 5   0  0.1480937E-03  0.1106606E+04  0.7818609E-02  0.9198777E-01
        1   -1    0    0  501    0  0.00000000000E+00  0.00000000000E+00  0.90017718128E+03  0.90017718130E+03  0.50400001928E-02 0.  1.
       -1   -1    0    0    0  501  0.00000000000E+00  0.00000000000E+00 -0.34009358022E+03  0.34009358026E+03  0.50400001928E-02 0. -1.
    10030    2    1    2    0    0  0.00000000000E+00  0.00000000000E+00  0.56008360106E+03  0.12402707616E+04  0.11066064891E+04 0.  0.
        1    1    3    3  502    0 -0.65057241165E+02  0.47215012742E+03 -0.34949934735E+02  0.47789087187E+03  0.50400001928E-02 0. -1.
       -1    1    3    3    0  502  0.65057241165E+02 -0.47215012742E+03  0.59503353580E+03  0.76237988969E+03  0.50400001928E-02 0.  1.
</event>
<event>
 5   0  0.1415400E-03  0.1100114E+04  0.7818609E-02  0.9205081E-01
       -1   -1    0    0    0  501  0.00000000000E+00  0.00000000000E+00  0.23507018126E+03  0.23507018132E+03  0.50400001928E-02 0.  1.
        1   -1    0    0  501    0  0.00000000000E+00  0.00000000000E+00 -0.12871167566E+04  0.12871167566E+04  0.50400001928E-02 0. -1.
    10030    2    1    2    0    0  0.00000000000E+00  0.00000000000E+00 -0.10520465754E+04  0.15221869380E+04  0.11001141202E+04 0.  0.
        2    1    3    3  502    0 -0.25173335506E+02 -0.45800226768E+03 -0.10596598199E+03  0.47077442938E+03  0.25500000920E-02 0.  1.
       -2    1    3    3    0  502  0.25173335506E+02  0.45800226768E+03 -0.94608059338E+03  0.10514125086E+04  0.25500000920E-02 0. -1.
</event>
<event>
 5   0  0.9631750E-04  0.1117644E+04  0.7818609E-02  0.9188163E-01
       -3   -1    0    0    0  501  0.00000000000E+00  0.00000000000E+00  0.43350993818E+03  0.43350994994E+03  0.10100000352E+00 0. -1.
        3   -1    0    0  501    0  0.00000000000E+00  0.00000000000E+00 -0.72035741572E+03  0.72035742280E+03  0.10100000352E+00 0.  1.
    10030    2    1    2    0    0  0.00000000000E+00  0.00000000000E+00 -0.28684747755E+03  0.11538673727E+04  0.11176441466E+04 0.  0.
        1    1    3    3  502    0 -0.12845265251E+03 -0.37372515622E+03  0.26449141549E+03  0.47552737589E+03  0.50400001928E-02 0. -1.
       -1    1    3    3    0  502  0.12845265251E+03  0.37372515622E+03 -0.55133889303E+03  0.67833999685E+03  0.50400001928E-02 0.  1.
</event>
<event>
 5   0  0.1479573E-03  0.1102847E+04  0.7818609E-02  0.9202422E-01
       -1   -1    0    0    0  501  0.00000000000E+00  0.00000000000E+00  0.74516931680E+03  0.74516931682E+03  0.50400001928E-02 0. -1.
        1   -1    0    0  501    0  0.00000000000E+00  0.00000000000E+00 -0.40805173622E+03  0.40805173625E+03  0.50400001928E-02 0.  1.
    10030    2    1    2    0    0  0.00000000000E+00  0.00000000000E+00  0.33711758058E+03  0.11532210531E+04  0.11028465596E+04 0.  0.
        4    1    3    3  502    0 -0.36414175427E+03 -0.17718242462E+02 -0.26404424185E+03  0.45014900630E+03  0.12699999809E+01 0.  1.
       -4    1    3    3    0  502  0.36414175427E+03  0.17718242462E+02  0.60116182243E+03  0.70307204678E+03  0.12699999809E+01 0. -1.
</event>
<event>
 5   0  0.1415400E-03  0.1094966E+04  0.7818609E-02  0.9210113E-01
        1   -1    0    0  501    0  0.00000000000E+00  0.00000000000E+00  0.11462933836E+04  0.11462933836E+04  0.50400001928E-02 0. -1.
       -1   -1    0    0    0  501  0.00000000000E+00  0.00000000000E+00 -0.26148408667E+03  0.26148408672E+03  0.50400001928E-02 0.  1.
    10030    2    1    2    0    0  0.00000000000E+00  0.00000000000E+00  0.88480929691E+03  0.14077774703E+04  0.10949657136E+04 0.  0.
        2    1    3    3  502    0 -0.40394705472E+03  0.10672708174E+03  0.89727731047E+03  0.98978303930E+03  0.25500000920E-02 0. -1.
       -2    1    3    3    0  502  0.40394705472E+03 -0.10672708174E+03 -0.12468013556E+02  0.41799443102E+03  0.25500000920E-02 0.  1.
</event>
<event>
 5   0  0.1509004E-03  0.1099697E+04  0.7818609E-02  0.9205487E-01
       -1   -1    0    0    0  501  0.00000000000E+00  0.00000000000E+00  0.33409548745E+03  0.33409548748E+03  0.50400001928E-02 0. -1.
        1   -1    0    0  501    0  0.00000000000E+00  0.00000000000E+00 -0.90493101613E+03  0.90493101614E+03  0.50400001928E-02 0.  1.
    10030    2    1    2    0    0  0.00000000000E+00  0.00000000000E+00 -0.57083552868E+03  0.12390265036E+04  0.10996969928E+04 0.  0.
        3    1    3    3  502    0 -0.41227171873E+03 -0.29284020201E+03 -0.42170966023E+02  0.50744630707E+03  0.10100000352E+00 0.  1.
       -3    1    3    3    0  502  0.41227171873E+03  0.29284020201E+03 -0.52866456266E+03  0.73158019656E+03  0.10100000352E+00 0. -1.
</event>
<event>
 5   0  0.2467448E-03  0.1099467E+04  0.7818609E-02  0.9205711E-01
       -2   -1    0    0    0  501  0.00000000000E+00  0.00000000000E+00  0.11520977434E+03  0.11520977437E+03  0.25500000920E-02 0.  1.
        2   -1    0    0  501    0  0.00000000000E+00  0.00000000000E+00 -0.26231023194E+04  0.26231023194E+04  0.25500000920E-02 0. -1.
    10030    2    1    2    0    0  0.00000000000E+00  0.00000000000E+00 -0.25078925451E+04  0.27383120938E+04  0.10994671916E+04 0.  0.
        1    1    3    3  502    0 -0.20667459550E+03 -0.43192474327E+03 -0.19265583424E+04  0.19851701234E+04  0.50400001928E-02 0. -1.
       -1    1    3    3    0  502  0.20667459550E+03  0.43192474327E+03 -0.58133420268E+03  0.75314197035E+03  0.50400001928E-02 0.  1.
</event>
<event>
 5   0  0.1468556E-03  0.1108044E+04  0.7818609E-02  0.9197387E-01
        1   -1    0    0  501    0  0.00000000000E+00  0.00000000000E+00  0.78930479494E+03  0.78930479495E+03  0.50400001928E-02 0. -1.
       -1   -1    0    0    0  501  0.00000000000E+00  0.00000000000E+00 -0.38887418491E+03  0.38887418494E+03  0.50400001928E-02 0.  1.
    10030    2    1    2    0    0  0.00000000000E+00  0.00000000000E+00  0.40043061003E+03  0.11781789799E+04  0.11080437876E+04 0.  0.
        5    1    3    3  502    0 -0.16417526900E+03  0.29193378436E+03  0.66944033037E+03  0.74856616230E+03  0.46999998093E+01 0. -1.
       -5    1    3    3    0  502  0.16417526900E+03 -0.29193378436E+03 -0.26900972034E+03  0.42961281760E+03  0.46999998093E+01 0.  1.
</event>
<event>
 5   0  0.2488472E-03  0.1114033E+04  0.7818609E-02  0.9191621E-01
        2   -1    0    0  501    0  0.00000000000E+00  0.00000000000E+00  0.43482727049E+03  0.43482727050E+03  0.25500000920E-02 0.  1.
       -2   -1    0    0    0  501  0.00000000000E+00  0.00000000000E+00 -0.71354214143E+03  0.71354214144E+03  0.25500000920E-02 0. -1.
    10030    2    1    2    0    0  0.00000000000E+00  0.00000000000E+00 -0.27871487094E+03  0.11483694119E+04  0.11140333599E+04 0.  0.
        2    1    3    3  502    0 -0.34785638559E+03  0.43194934292E+03 -0.19275440009E+03  0.58714441035E+03  0.25500000920E-02 0.  1.
       -2    1    3    3    0  502  0.34785638559E+03 -0.43194934292E+03 -0.85960470853E+02  0.56122500158E+03  0.25500000920E-02 0. -1.
</event>
<event>
 5   0  0.1415400E-03  0.1096231E+04  0.7818609E-02  0.9208873E-01
       -1   -1    0    0    0  501  0.00000000000E+00  0.00000000000E+00  0.99593239171E+03  0.99593239172E+03  0.50400001928E-02 0. -1.
        1   -1    0    0  501    0  0.00000000000E+00  0.00000000000E+00 -0.30165780071E+03  0.30165780075E+03  0.50400001928E-02 0.  1.
    10030    2    1    2    0    0  0.00000000000E+00  0.00000000000E+00  0.69427459100E+03  0.12975901925E+04  0.10962313168E+04 0.  0.
        2    1    3    3  502    0  0.20155457290E+03  0.41659424765E+03 -0.50243741004E+00  0.46279073617E+03  0.25500000920E-02 0.  1.
       -2    1    3    3    0  502 -0.20155457290E+03 -0.41659424765E+03  0.69477702841E+03  0.83479945631E+03  0.25500000920E-02 0. -1.
</event>
<event>
 5   0  0.2483036E-03  0.1111008E+04  0.7818609E-02  0.9194528E-01
       -2   -1    0    0    0  501  0.00000000000E+00  0.00000000000E+00  0.11508042736E+04  0.11508042736E+04  0.25500000920E-02 0.  1.
        2   -1    0    0  501    0  0.00000000000E+00  0.00000000000E+00 -0.26814719955E+03  0.26814719956E+03  0.25500000920E-02 0. -1.
    10030    2    1    2    0    0  0.00000000000E+00  0.00000000000E+00  0.88265707400E+03  0.14189514731E+04  0.11110084486E+04 0.  0.
        3    1    3    3  502    0  0.10297549461E+03  0.27944360399E+03 -0.15757261153E+03  0.33692999036E+03  0.10100000352E+00 0. -1.
       -3    1    3    3    0  502 -0.10297549461E+03 -0.27944360399E+03  0.10402296855E+04  0.10820214828E+04  0.10100000352E+00 0.  1.
</event>
<event>
 5   0  0.1480937E-03  0.1102758E+04  0.7818609E-02  0.9202507E-01
        1   -1    0    0  501    0  0.00000000000E+00  0.00000000000E+00  0.13148010246E+04  0.13148010246E+04  0.50400001928E-02 0.  1.
       -1   -1    0    0    0  501  0.00000000000E+00  0.00000000000E+00 -0.23122819871E+03  0.23122819876E+03  0.50400001928E-02 0. -1.
    10030    2    1    2    0    0  0.00000000000E+00  0.00000000000E+00  0.10835728258E+04  0.15460292233E+04  0.11027584914E+04 0.  0.
        1    1    3    3  502    0  0.10397658645E+03 -0.18633359940E+01 -0.21735482142E+03  0.24095169842E+03  0.50400001928E-02 0. -1.
       -1    1    3    3    0  502 -0.10397658645E+03  0.18633359940E+01  0.13009276473E+04  0.13050775249E+04  0.50400001928E-02 0.  1.
</event>
<event>
 5   0  0.2483036E-03  0.1090719E+04  0.7818609E-02  0.9214285E-01
       -2   -1    0    0    0  501  0.00000000000E+00  0.00000000000E+00  0.31397594627E+03  0.31397594628E+03  0.25500000920E-02 0.  1.
        2   -1    0    0  501    0  0.00000000000E+00  0.00000000000E+00 -0.94726085791E+03  0.94726085791E+03  0.25500000920E-02 0. -1.
    10030    2    1    2    0    0  0.00000000000E+00  0.00000000000E+00 -0.63328491164E+03  0.12612368042E+04  0.10907192567E+04 0.  0.
        3    1    3    3  502    0 -0.29007536517E+03 -0.12530264215E+03  0.19733853955E+03  0.37254124469E+03  0.10100000352E+00 0.  1.
       -3    1    3    3    0  502  0.29007536517E+03  0.12530264215E+03 -0.83062345118E+03  0.88869555949E+03  0.10100000352E+00 0. -1.
</event>
<event>
 5   0  0.1509004E-03  0.1092202E+04  0.7818609E-02  0.9212826E-01
        1   -1    0    0  501    0  0.00000000000E+00  0.00000000000E+00  0.39486303588E+03  0.39486303591E+03  0.50400001928E-02 0. -1.
       -1   -1    0    0    0  501  0.00000000000E+00  0.00000000000E+00 -0.75526467461E+03  0.75526467462E+03  0.50400001928E-02 0.  1.
    10030    2    1    2    0    0  0.00000000000E+00  0.00000000000E+00 -0.36040163873E+03  0.11501277105E+04  0.10922016340E+04 0.  0.
        3    1    3    3  502    0 -0.47156704815E+03 -0.14029375423E+03 -0.42976875328E+03  0.65326794646E+03  0.10100000352E+00 0.  1.
       -3    1    3    3    0  502  0.47156704815E+03  0.14029375423E+03  0.69367114550E+02  0.49685976407E+03  0.10100000352E+00 0. -1.
</event>
<event>
 5   0  0.1468556E-03  0.1104234E+04  0.7818609E-02  0.9201075E-01
        1   -1    0    0  501    0  0.00000000000E+00  0.00000000000E+00  0.21825815822E+04  0.21825815822E+04  0.50400001928E-02 0.  1.
       -1   -1    0    0    0  501  0.00000000000E+00  0.00000000000E+00 -0.13966628852E+03  0.13966628861E+03  0.50400001928E-02 0. -1.
    10030    2    1    2    0    0  0.00000000000E+00  0.00000000000E+00  0.20429152937E+04  0.23222478708E+04  0.11042337960E+04 0.  0.
        5    1    3    3  502    0 -0.46474264152E+03  0.21335236114E+03  0.58381291429E+03  0.77612148646E+03  0.46999998093E+01 0.  1.
       -5    1    3    3    0  502  0.46474264152E+03 -0.21335236114E+03  0.14591023794E+04  0.15461263843E+04  0.46999998093E+01 0. -1.
</event>
<event>
 5   0  0.1509004E-03  0.1098397E+04  0.7818609E-02  0.9206755E-01
        1   -1    0    0  501    0  0.00000000000E+00  0.00000000000E+00  0.47407068800E+03  0.47407068803E+03  0.50400001928E-02 0.  1.
       -1   -1    0    0    0  501  0.00000000000E+00  0.00000000000E+00 -0.63623254478E+03  0.63623254480E+03  0.50400001928E-02 0. -1.
    10030    2    1    2    0    0  0.00000000000E+00  0.00000000000E+00 -0.16216185677E+03  0.11103032328E+04  0.10983973785E+04 0.  0.
        3    1    3    3  502    0  0.28019559433E+03  0.34630897084E+03 -0.40577867904E+03  0.60257432814E+03  0.10100000352E+00 0. -1.
       -3    1    3    3    0  502 -0.28019559433E+03 -0.34630897084E+03  0.24361682227E+03  0.50772890469E+03  0.10100000352E+00 0.  1.
</event>
<event>
 5   0  0.2392585E-03  0.1093528E+04  0.7818609E-02  0.9211523E-01
       -2   -1    0    0    0  501  0.00000000000E+00  0.00000000000E+00  0.63260346721E+03  0.63260346722E+03  0.25500000920E-02 0. -1.
        2   -1    0    0  501    0  0.00000000000E+00  0.00000000000E+00 -0.47257190537E+03  0.47257190538E+03  0.25500000920E-02 0.  1.
    10030    2    1    2    0    0  0.00000000000E+00  0.00000000000E+00  0.16003156184E+03  0.11051753726E+04  0.10935275504E+04 0.  0.
        5    1    3    3  502    0 -0.45310802930E+03 -0.30102237499E+03  0.13543764611E+03  0.56061288109E+03  0.46999998093E+01 0.  1.
       -5    1    3    3    0  502  0.45310802930E+03  0.30102237499E+03  0.24593915737E+02  0.54456249150E+03  0.46999998093E+01 0. -1.
</event>
<event>
 5   0  0.2467448E-03  0.1101850E+04  0.7818609E-02  0.9203391E-01
        2   -1    0    0  501    0  0.00000000000E+00  0.00000000000E+00  0.47802220266E+03  0.47802220267E+03  0.25500000920E-02 0. -1.
       -2   -1    0    0    0  501  0.00000000000E+00  0.00000000000E+00 -0.63494604789E+03  0.63494604790E+03  0.25500000920E-02 0.  1.
    10030    2    1    2    0    0  0.00000000000E+00  0.00000000000E+00 -0.15692384523E+03  0.11129682506E+04  0.11018499143E+04 0.  0.
        1    1    3    3  502    0 -0.23307891837E+03 -0.49518201244E+03 -0.14224417169E+03  0.56547715431E+03  0.50400001928E-02 0.  1.
       -1    1    3    3    0  502  0.23307891837E+03  0.49518201244E+03 -0.14679673538E+02  0.54749109626E+03  0.50400001928E-02 0. -1.
</event>
<event>
 5   0  0.2467448E-03  0.1097897E+04  0.7818609E-02  0.9207244E-01
        2   -1    0    0  501    0  0.00000000000E+00  0.00000000000E+00  0.63922788187E+03  0.63922788187E+03  0.25500000920E-02 0.  1.
       -2   -1    0    0    0  501  0.00000000000E+00  0.00000000000E+00 -0.47141951832E+03  0.47141951832E+03  0.25500000920E-02 0. -1.
    10030    2    1    2    0    0  0.00000000000E+00  0.00000000000E+00  0.16780836355E+03  0.11106474002E+04  0.10978970811E+04 0.  0.
        1    1    3    3  502    0 -0.16091584937E+03 -0.13468883191E+03  0.59705200527E+03  0.63285550408E+03  0.50400001928E-02 0.  1.
       -1    1    3    3    0  502  0.16091584937E+03  0.13468883191E+03 -0.42924364172E+03  0.47779189612E+03  0.50400001928E-02 0. -1.
</event>
<event>
 5   0  0.1415400E-03  0.1066311E+04  0.7818609E-02  0.9238665E-01
        1   -1    0    0  501    0  0.00000000000E+00  0.00000000000E+00  0.43542144852E+03  0.43542144854E+03  0.50400001928E-02 0.  1.
       -1   -1    0    0    0  501  0.00000000000E+00  0.00000000000E+00 -0.65282627450E+03  0.65282627452E+03  0.50400001928E-02 0. -1.
    10030    2    1    2    0    0  0.00000000000E+00  0.00000000000E+00 -0.21740482598E+03  0.10882477231E+04  0.10663105778E+04 0.  0.
        2    1    3    3  502    0 -0.39722641068E+03 -0.34900700928E+03 -0.39034959648E+02  0.53020603726E+03  0.25500000920E-02 0. -1.
       -2    1    3    3    0  502  0.39722641068E+03  0.34900700928E+03 -0.17836986634E+03  0.55804168580E+03  0.25500000920E-02 0.  1.
</event>
<event>
 5   0  0.2392585E-03  0.1081484E+04  0.7818609E-02  0.9223429E-01
       -2   -1    0    0    0  501  0.00000000000E+00  0.00000000000E+00  0.33075378096E+03  0.33075378097E+03  0.25500000920E-02 0.  1.
        2   -1    0    0  501    0  0.00000000000E+00  0.00000000000E+00 -0.88404691593E+03  0.88404691594E+03  0.25500000920E-02 0. -1.
    10030    2    1    2    0    0  0.00000000000E+00  0.00000000000E+00 -0.55329313497E+03  0.12148006969E+04  0.10814839065E+04 0.  0.
        5    1    3    3  502    0 -0.24989794595E+03 -0.93341900308E+02 -0.80496440865E+03  0.84802799655E+03  0.46999998093E+01 0. -1.
       -5    1    3    3    0  502  0.24989794595E+03  0.93341900308E+02  0.25167127367E+03  0.36677270036E+03  0.46999998093E+01 0.  1.
</event>
<event>
 5   0  0.2488472E-03  0.1129392E+04  0.7818609E-02  0.9177009E-01
        2   -1    0    0  501    0  0.00000000000E+00  0.00000000000E+00  0.85854727321E+03  0.85854727322E+03  0.25500000920E-02 0.  1.
       -2   -1    0    0    0  501  0.00000000000E+00  0.00000000000E+00 -0.37141967041E+03  0.37141967042E+03  0.25500000920E-02 0. -1.
    10030    2    1    2    0    0  0.00000000000E+00  0.00000000000E+00  0.48712760281E+03  0.12299669436E+04  0.11293915977E+04 0.  0.
        2    1    3    3  502    0  0.14101565361E+03 -0.24119583983E+03 -0.29087208412E+03  0.40332048924E+03  0.25500000920E-02 0. -1.
       -2    1    3    3    0  502 -0.14101565361E+03  0.24119583983E+03  0.77799968692E+03  0.82664645440E+03  0.25500000920E-02 0.  1.
</event>
<event>
 5   0  0.1468556E-03  0.1100741E+04  0.7818609E-02  0.9204470E-01
        1   -1    0    0  501    0  0.00000000000E+00  0.00000000000E+00  0.16367773180E+04  0.16367773180E+04  0.50400001928E-02 0.  1.
       -1   -1    0    0    0  501  0.00000000000E+00  0.00000000000E+00 -0.18506354410E+03  0.18506354417E+03  0.50400001928E-02 0. -1.
    10030    2    1    2    0    0  0.00000000000E+00  0.00000000000E+00  0.14517137739E+04  0.18218408621E+04  0.11007412256E+04 0.  0.
        5    1    3    3  502    0  0.26072799532E+03  0.48053032553E+03  0.62121505677E+03  0.82753774418E+03  0.46999998093E+01 0.  1.
       -5    1    3    3    0  502 -0.26072799532E+03 -0.48053032553E+03  0.83049871709E+03  0.99430311796E+03  0.46999998093E+01 0. -1.
</event>
<event>
 5   0  0.1479573E-03  0.1098810E+04  0.7818609E-02  0.9206352E-01
       -1   -1    0    0    0  501  0.00000000000E+00  0.00000000000E+00  0.84714216671E+03  0.84714216672E+03  0.50400001928E-02 0.  1.
        1   -1    0    0  501    0  0.00000000000E+00  0.00000000000E+00 -0.35631103716E+03  0.35631103719E+03  0.50400001928E-02 0. -1.
    10030    2    1    2    0    0  0.00000000000E+00  0.00000000000E+00  0.49083112955E+03  0.12034532039E+04  0.10988104551E+04 0.  0.
        4    1    3    3  502    0  0.26961849577E+03  0.24764408899E+03  0.69409055086E+03  0.78471971669E+03  0.12699999809E+01 0.  1.
       -4    1    3    3    0  502 -0.26961849577E+03 -0.24764408899E+03 -0.20325942131E+03  0.41873348723E+03  0.12699999809E+01 0. -1.
</event>
<event>
 5   0  0.1509004E-03  0.1100098E+04  0.7818609E-02  0.9205096E-01
        1   -1    0    0  501    0  0.00000000000E+00  0.00000000000E+00  0.28213202170E+03  0.28213202175E+03  0.50400001928E-02 0.  1.
       -1   -1    0    0    0  501  0.00000000000E+00  0.00000000000E+00 -0.10723849135E+04  0.10723849135E+04  0.50400001928E-02 0. -1.
    10030    2    1    2    0    0  0.00000000000E+00  0.00000000000E+00 -0.79025289176E+03  0.13545169352E+04  0.11000984024E+04 0.  0.
        3    1    3    3  502    0  0.14048168368E+03  0.24189309472E+03  0.18801521285E+03  0.33704169354E+03  0.10100000352E+00 0. -1.
       -3    1    3    3    0  502 -0.14048168368E+03 -0.24189309472E+03 -0.97826810461E+03  0.10174752417E+04  0.10100000352E+00 0.  1.
</event>
<event>
 5   0  0.1509004E-03  0.1095011E+04  0.7818609E-02  0.9210068E-01
       -1   -1    0    0    0  501  0.00000000000E+00  0.00000000000E+00  0.67130281877E+03  0.67130281879E+03  0.50400001928E-02 0. -1.
        1   -1    0    0  501    0  0.00000000000E+00  0.00000000000E+00 -0.44653846646E+03  0.44653846649E+03  0.50400001928E-02 0.  1.
    10030    2    1    2    0    0  0.00000000000E+00  0.00000000000E+00  0.22476435232E+03  0.11178412853E+04  0.10950114725E+04 0.  0.
        3    1    3    3  502    0 -0.38415658348E+03  0.30364895693E+03 -0.13763944309E+03  0.50864879452E+03  0.10100000352E+00 0.  1.
       -3    1    3    3    0  502  0.38415658348E+03 -0.30364895693E+03  0.36240379540E+03  0.60919249076E+03  0.10100000352E+00 0. -1.
</event>
<event>
 5   0  0.2488472E-03  0.1123176E+04  0.7818609E-02  0.9182893E-01
       -2   -1    0    0    0  501  0.00000000000E+00  0.00000000000E+00  0.77603315209E+03  0.77603315209E+03  0.25500000920E-02 0. -1.
        2   -1    0    0  501    0  0.00000000000E+00  0.00000000000E+00 -0.40640149909E+03  0.40640149910E+03  0.25500000920E-02 0.  1.
    10030    2    1    2    0    0  0.00000000000E+00  0.00000000000E+00  0.36963165300E+03  0.11824346512E+04  0.11231759192E+04 0.  0.
        2    1    3    3  502    0  0.42926852288E+03  0.11400409876E+03 -0.17699165882E+03  0.47811551592E+03  0.25500000920E-02 0.  1.
       -2    1    3    3    0  502 -0.42926852288E+03 -0.11400409876E+03  0.54662331182E+03  0.70431913526E+03  0.25500000920E-02 0. -1.
</event>
<event>
 5   0  0.2488472E-03  0.1103479E+04  0.7818609E-02  0.9201807E-01
        2   -1    0    0  501    0  0.00000000000E+00  0.00000000000E+00  0.19766729385E+04  0.19766729385E+04  0.25500000920E-02 0. -1.
       -2   -1    0    0    0  501  0.00000000000E+00  0.00000000000E+00 -0.15400460643E+03  0.15400460645E+03  0.25500000920E-02 0.  1.
    10030    2    1    2    0    0  0.00000000000E+00  0.00000000000E+00  0.18226683320E+04  0.21306775449E+04  0.11034794750E+04 0.  0.
        2    1    3    3  502    0  0.27438020472E+03  0.41372880580E+03  0.44647613121E+03  0.66768028070E+03  0.25500000920E-02 0.  1.
       -2    1    3    3    0  502 -0.27438020472E+03 -0.41372880580E+03  0.13761922008E+04  0.14629972642E+04  0.25500000920E-02 0. -1.
</event>
<event>
 5   0  0.1479573E-03  0.1098933E+04  0.7818609E-02  0.9206232E-01
        1   -1    0    0  501    0  0.00000000000E+00  0.00000000000E+00  0.96547409623E+03  0.96547409624E+03  0.50400001928E-02 0.  1.
       -1   -1    0    0    0  501  0.00000000000E+00  0.00000000000E+00 -0.31271004639E+03  0.31271004643E+03  0.50400001928E-02 0. -1.
    10030    2    1    2    0    0  0.00000000000E+00  0.00000000000E+00  0.65276404984E+03  0.12781841427E+04  0.10989330270E+04 0.  0.
        4    1    3    3  502    0  0.10689091651E+03 -0.52039166098E+03  0.16321955671E+03  0.55576558498E+03  0.12699999809E+01 0.  1.
       -4    1    3    3    0  502 -0.10689091651E+03  0.52039166098E+03  0.48954449313E+03  0.72241855770E+03  0.12699999809E+01 0. -1.
</event>
<event>
 5   0  0.1480937E-03  0.1131443E+04  0.7818609E-02  0.9175076E-01
        1   -1    0    0  501    0  0.00000000000E+00  0.00000000000E+00  0.11276887237E+04  0.11276887237E+04  0.50400001928E-02 0.  1.
       -1   -1    0    0    0  501  0.00000000000E+00  0.00000000000E+00 -0.28380231163E+03  0.28380231167E+03  0.50400001928E-02 0. -1.
    10030    2    1    2    0    0  0.00000000000E+00  0.00000000000E+00  0.84388641206E+03  0.14114910354E+04  0.11314427367E+04 0.  0.
        1    1    3    3  502    0 -0.18141658013E+02  0.53560355569E+03  0.19586972644E+03  0.57058324405E+03  0.50400001928E-02 0. -1.
       -1    1    3    3    0  502  0.18141658013E+02 -0.53560355569E+03  0.64801668562E+03  0.84090779132E+03  0.50400001928E-02 0.  1.
</event>
<event>
 5   0  0.1480937E-03  0.1099474E+04  0.7818609E-02  0.9205705E-01
        1   -1    0    0  501    0  0.00000000000E+00  0.00000000000E+00  0.28807421763E+03  0.28807421767E+03  0.50400001928E-02 0. -1.
       -1   -1    0    0    0  501  0.00000000000E+00  0.00000000000E+00 -0.10490717086E+04  0.10490717086E+04  0.50400001928E-02 0.  1.
    10030    2    1    2    0    0  0.00000000000E+00  0.00000000000E+00 -0.76099749100E+03  0.13371459263E+04  0.10994735317E+04 0.  0.
        1    1    3    3  502    0 -0.32113385481E+03 -0.38821772142E+03 -0.64797459991E+03  0.82079902173E+03  0.50400001928E-02 0.  1.
       -1    1    3    3    0  502  0.32113385481E+03  0.38821772142E+03 -0.11302289109E+03  0.51634690457E+03  0.50400001928E-02 0. -1.
</event>
<event>
 5   0  0.9631750E-04  0.1117138E+04  0.7818609E-02  0.9188647E-01
       -3   -1    0    0    0  501  0.00000000000E+00  0.00000000000E+00  0.21081516099E+03  0.21081518519E+03  0.10100000352E+00 0.  1.
        3   -1    0    0  501    0  0.00000000000E+00  0.00000000000E+00 -0.14799652749E+04  0.14799652784E+04  0.10100000352E+00 0. -1.
    10030    2    1    2    0    0  0.00000000000E+00  0.00000000000E+00 -0.12691501139E+04  0.16907804636E+04  0.11171376658E+04 0.  0.
        1    1    3    3  502    0  0.40175357774E+03  0.37963012830E+03 -0.75635410054E+03  0.93680120461E+03  0.50400001928E-02 0. -1.
       -1    1    3    3    0  502 -0.40175357774E+03 -0.37963012830E+03 -0.51279601340E+03  0.75397925895E+03  0.50400001928E-02 0.  1.
</event>
<event>
 5   0  0.1468556E-03  0.1109133E+04  0.7818609E-02  0.9196335E-01
       -1   -1    0    0    0  501  0.00000000000E+00  0.00000000000E+00  0.30200293634E+03  0.30200293638E+03  0.50400001928E-02 0. -1.
        1   -1    0    0  501    0  0.00000000000E+00  0.00000000000E+00 -0.10183481164E+04  0.10183481164E+04  0.50400001928E-02 0.  1.
    10030    2    1    2    0    0  0.00000000000E+00  0.00000000000E+00 -0.71634518009E+03  0.13203510528E+04  0.11091332137E+04 0.  0.
        5    1    3    3  502    0  0.16128315488E+03 -0.44735594670E+03 -0.18569965277E+02  0.47592702456E+03  0.46999998093E+01 0.  1.
       -5    1    3    3    0  502 -0.16128315488E+03  0.44735594670E+03 -0.69777521481E+03  0.84442402826E+03  0.46999998093E+01 0. -1.
</event>
<event>
 5   0  0.2438115E-03  0.1120252E+04  0.7818609E-02  0.9185674E-01
       -2   -1    0    0    0  501  0.00000000000E+00  0.00000000000E+00  0.34409938468E+03  0.34409938469E+03  0.25500000920E-02 0.  1.
        2   -1    0    0  501    0  0.00000000000E+00  0.00000000000E+00 -0.91177511944E+03  0.91177511944E+03  0.25500000920E-02 0. -1.
    10030    2    1    2    0    0  0.00000000000E+00  0.00000000000E+00 -0.56767573476E+03  0.12558745041E+04  0.11202522173E+04 0.  0.
        4    1    3    3  502    0 -0.26799902826E+03  0.26049536806E+03 -0.75154913892E+03  0.83935036608E+03  0.12699999809E+01 0. -1.
       -4    1    3    3    0  502  0.26799902826E+03 -0.26049536806E+03  0.18387340416E+03  0.41652413806E+03  0.12699999809E+01 0.  1.
</event>
<event>
 5   0  0.2483036E-03  0.1102453E+04  0.7818609E-02  0.9202804E-01
       -2   -1    0    0    0  501  0.00000000000E+00  0.00000000000E+00  0.42516583733E+03  0.42516583734E+03  0.25500000920E-02 0.  1.
        2   -1    0    0  501    0  0.00000000000E+00  0.00000000000E+00 -0.71466448638E+03  0.71466448638E+03  0.25500000920E-02 0. -1.
    10030    2    1    2    0    0  0.00000000000E+00  0.00000000000E+00 -0.28949864904E+03  0.11398303237E+04  0.11024534907E+04 0.  0.
        3    1    3    3  502    0  0.34007617407E+03  0.76924783184E+02  0.29667011067E+03  0.45780169419E+03  0.10100000352E+00 0.  1.
       -3    1    3    3    0  502 -0.34007617407E+03 -0.76924783184E+02 -0.58616875971E+03  0.68202862953E+03  0.10100000352E+00 0. -1.
</event>
<event>
 5   0  0.2467448E-03  0.1091626E+04  0.7818609E-02  0.9213392E-01
       -2   -1    0    0    0  501  0.00000000000E+00  0.00000000000E+00  0.44941062846E+03  0.44941062847E+03  0.25500000920E-02 0. -1.
        2   -1    0    0  501    0  0.00000000000E+00  0.00000000000E+00 -0.66289445343E+03  0.66289445343E+03  0.25500000920E-02 0.  1.
    10030    2    1    2    0    0  0.00000000000E+00  0.00000000000E+00 -0.21348382497E+03  0.11123050819E+04  0.10916259669E+04 0.  0.
        1    1    3    3  502    0 -0.60193038176E+02  0.53089651136E+03 -0.22037811251E+03  0.57796264596E+03  0.50400001928E-02 0.  1.
       -1    1    3    3    0  502  0.60193038176E+02 -0.53089651136E+03  0.68942875408E+01  0.53434243594E+03  0.50400001928E-02 0. -1.
</event>
<event>
 5   0  0.2483036E-03  0.1098905E+04  0.7818609E-02  0.9206260E-01
       -2   -1    0    0    0  501  0.00000000000E+00  0.00000000000E+00  0.28124915596E+03  0.28124915597E+03  0.25500000920E-02 0.  1.
        2   -1    0    0  501    0  0.00000000000E+00  0.00000000000E+00 -0.10734180764E+04  0.10734180764E+04  0.25500000920E-02 0. -1.
    10030    2    1    2    0    0  0.00000000000E+00  0.00000000000E+00 -0.79216892043E+03  0.13546672324E+04  0.10989047784E+04 0.  0.
        3    1    3    3  502    0  0.44532920762E+03  0.30955633020E+03 -0.28752820071E+03  0.61385315925E+03  0.10100000352E+00 0.  1.
       -3    1    3    3    0  502 -0.44532920762E+03 -0.30955633020E+03 -0.50464071972E+03  0.74081407311E+03  0.10100000352E+00 0. -1.
</event>
<event>
 5   0  0.2392585E-03  0.1099268E+04  0.7818609E-02  0.9205905E-01
       -2   -1    0    0    0  501  0.00000000000E+00  0.00000000000E+00  0.75415374071E+03  0.75415374072E+03  0.25500000920E-02 0.  1.
        2   -1    0    0  501    0  0.00000000000E+00  0.00000000000E+00 -0.40057837051E+03  0.40057837052E+03  0.25500000920E-02 0. -1.
    10030    2    1    2    0    0  0.00000000000E+00  0.00000000000E+00  0.35357537020E+03  0.11547321112E+04  0.10992682595E+04 0.  0.
        5    1    3    3  502    0 -0.67534597079E+02 -0.53065823873E+03  0.30931375537E+03  0.61794512491E+03  0.46999998093E+01 0. -1.
       -5    1    3    3    0  502  0.67534597079E+02  0.53065823873E+03  0.44261614829E+02  0.53678698632E+03  0.46999998093E+01 0.  1.
</event>
<event>
 5   0  0.2392585E-03  0.1003022E+04  0.7818609E-02  0.9305237E-01
       -2   -1    0    0    0  501  0.00000000000E+00  0.00000000000E+00  0.18422506680E+03  0.18422506682E+03  0.25500000920E-02 0. -1.
        2   -1    0    0  501    0  0.00000000000E+00  0.00000000000E+00 -0.13652490880E+04  0.13652490880E+04  0.25500000920E-02 0.  1.
    10030    2    1    2    0    0  0.00000000000E+00  0.00000000000E+00 -0.11810240212E+04  0.15494741549E+04  0.10030216437E+04 0.  0.
        5    1    3    3  502    0  0.19981661295E+03 -0.19756579829E+03 -0.12321779324E+04  0.12638209804E+04  0.46999998093E+01 0.  1.
       -5    1    3    3    0  502 -0.19981661295E+03  0.19756579829E+03  0.51153911120E+02  0.28565317448E+03  0.46999998093E+01 0. -1.
</event>
<event>
 5   0  0.1480937E-03  0.1095701E+04  0.7818609E-02  0.9209392E-01
       -1   -1    0    0    0  501  0.00000000000E+00  0.00000000000E+00  0.34504518631E+03  0.34504518635E+03  0.50400001928E-02 0.  1.
        1   -1    0    0  501    0  0.00000000000E+00  0.00000000000E+00 -0.86985828962E+03  0.86985828963E+03  0.50400001928E-02 0. -1.
    10030    2    1    2    0    0  0.00000000000E+00  0.00000000000E+00 -0.52481310331E+03  0.12149034760E+04  0.10957014477E+04 0.  0.
        1    1    3    3  502    0 -0.15630557731E+03  0.34861521653E+03 -0.69777655954E+03  0.79552255139E+03  0.50400001928E-02 0. -1.
       -1    1    3    3    0  502  0.15630557731E+03 -0.34861521653E+03  0.17296345624E+03  0.41938092459E+03  0.50400001928E-02 0.  1.
</event>
<event>
 5   0  0.2467448E-03  0.1102883E+04  0.7818609E-02  0.9202386E-01
        2   -1    0    0  501    0  0.00000000000E+00  0.00000000000E+00  0.19640474982E+04  0.19640474982E+04  0.25500000920E-02 0.  1.
       -2   -1    0    0    0  501  0.00000000000E+00  0.00000000000E+00 -0.15482707156E+03  0.15482707158E+03  0.25500000920E-02 0. -1.
    10030    2    1    2    0    0  0.00000000000E+00  0.00000000000E+00  0.18092204267E+04  0.21188745698E+04  0.11028829903E+04 0.  0.
        1    1    3    3  502    0  0.52563548779E+02  0.70541716712E+02 -0.14125879862E+03  0.16641246549E+03  0.50400001928E-02 0. -1.
       -1    1    3    3    0  502 -0.52563548779E+02 -0.70541716712E+02  0.19504792253E+04  0.19524621043E+04  0.50400001928E-02 0.  1.
</event>
<event>
 5   0  0.1509004E-03  0.1097300E+04  0.7818609E-02  0.9207827E-01
       -1   -1    0    0    0  501  0.00000000000E+00  0.00000000000E+00  0.19266005239E+03  0.19266005246E+03  0.50400001928E-02 0. -1.
        1   -1    0    0  501    0  0.00000000000E+00  0.00000000000E+00 -0.15624251391E+04  0.15624251391E+04  0.50400001928E-02 0.  1.
    10030    2    1    2    0    0  0.00000000000E+00  0.00000000000E+00 -0.13697650867E+04  0.17550851916E+04  0.10973001581E+04 0.  0.
        3    1    3    3  502    0  0.20626533607E+03 -0.50786547525E+03 -0.64757129831E+03  0.84842284647E+03  0.10100000352E+00 0. -1.
       -3    1    3    3    0  502 -0.20626533607E+03  0.50786547525E+03 -0.72219378840E+03  0.90666234510E+03  0.10100000352E+00 0.  1.
</event>
<event>
 5   0  0.1415400E-03  0.1102105E+04  0.7818609E-02  0.9203143E-01
       -1   -1    0    0    0  501  0.00000000000E+00  0.00000000000E+00  0.10472429449E+04  0.10472429449E+04  0.50400001928E-02 0. -1.
        1   -1    0    0  501    0  0.00000000000E+00  0.00000000000E+00 -0.28996020380E+03  0.28996020385E+03  0.50400001928E-02 0.  1.
    10030    2    1    2    0    0  0.00000000000E+00  0.00000000000E+00  0.75728274109E+03  0.13372031488E+04  0.11021048548E+04 0.  0.
        2    1    3    3  502    0  0.10601695702E+03 -0.21552347116E+03  0.98038915556E+03  0.10093824142E+04  0.25500000920E-02 0. -1.
       -2    1    3    3    0  502 -0.10601695702E+03  0.21552347116E+03 -0.22310641448E+03  0.32782073452E+03  0.25500000920E-02 0.  1.
</event>
<event>
 5   0  0.1479573E-03  0.1098689E+04  0.7818609E-02  0.9206471E-01
        1   -1    0    0  501    0  0.00000000000E+00  0.00000000000E+00  0.12644939378E+04  0.12644939378E+04  0.50400001928E-02 0.  1.
       -1   -1    0    0    0  501  0.00000000000E+00  0.00000000000E+00 -0.23865615179E+03  0.23865615184E+03  0.50400001928E-02 0. -1.
    10030    2    1    2    0    0  0.00000000000E+00  0.00000000000E+00  0.10258377860E+04  0.15031500896E+04  0.10986887770E+04 0.  0.
        4    1    3    3  502    0 -0.51015995108E+03  0.19695150882E+03  0.44150597395E+03  0.70283868025E+03  0.12699999809E+01 0. -1.
       -4    1    3    3    0  502  0.51015995108E+03 -0.19695150882E+03  0.58433181202E+03  0.80031140936E+03  0.12699999809E+01 0.  1.
</event>
<event>
 5   0  0.2438115E-03  0.1107318E+04  0.7818609E-02  0.9198088E-01
       -2   -1    0    0    0  501  0.00000000000E+00  0.00000000000E+00  0.56387743498E+03  0.56387743499E+03  0.25500000920E-02 0.  1.
        2   -1    0    0  501    0  0.00000000000E+00  0.00000000000E+00 -0.54362609276E+03  0.54362609276E+03  0.25500000920E-02 0. -1.
    10030    2    1    2    0    0  0.00000000000E+00  0.00000000000E+00  0.20251342226E+02  0.11075035277E+04  0.11073183585E+04 0.  0.
        4    1    3    3  502    0  0.48062352527E+02  0.29555601774E+03  0.47590036249E+03  0.56226872336E+03  0.12699999809E+01 0.  1.
       -4    1    3    3    0  502 -0.48062352527E+02 -0.29555601774E+03 -0.45564902026E+03  0.54523480439E+03  0.12699999809E+01 0. -1.
</event>
<event>
 5   0  0.1468556E-03  0.1139103E+04  0.7818609E-02  0.9167896E-01
       -1   -1    0    0    0  501  0.00000000000E+00  0.00000000000E+00  0.64286276343E+03  0.64286276345E+03  0.50400001928E-02 0.  1.
        1   -1    0    0  501    0  0.00000000000E+00  0.00000000000E+00 -0.50460074412E+03  0.50460074414E+03  0.50400001928E-02 0. -1.
    10030    2    1    2    0    0  0.00000000000E+00  0.00000000000E+00  0.13826201931E+03  0.11474635076E+04  0.11391032066E+04 0.  0.
        5    1    3    3  502    0 -0.24128639058E+03 -0.17694422873E+03  0.55728912024E+03  0.63255168634E+03  0.46999998093E+01 0.  1.
       -5    1    3    3    0  502  0.24128639058E+03  0.17694422873E+03 -0.41902710092E+03  0.51491182125E+03  0.46999998093E+01 0. -1.
</event>
<event>
 5   0  0.1468556E-03  0.1104078E+04  0.7818609E-02  0.9201226E-01
        1   -1    0    0  501    0  0.00000000000E+00  0.00000000000E+00  0.92837759956E+03  0.92837759958E+03  0.50400001928E-02 0. -1.
       -1   -1    0    0    0  501  0.00000000000E+00  0.00000000000E+00 -0.32825786571E+03  0.32825786575E+03  0.50400001928E-02 0.  1.
    10030    2    1    2    0    0  0.00000000000E+00  0.00000000000E+00  0.60011973385E+03  0.12566354653E+04  0.11040783477E+04 0.  0.
        5    1    3    3  502    0  0.15410403020E+03 -0.18839393819E+03  0.86398538929E+03  0.89762640947E+03  0.46999998093E+01 0. -1.
       -5    1    3    3    0  502 -0.15410403020E+03  0.18839393819E+03 -0.26386565544E+03  0.35900905586E+03  0.46999998093E+01 0.  1.
</event>
<event>
 5   0  0.1468556E-03  0.1096564E+04  0.7818609E-02  0.9208547E-01
       -1   -1    0    0    0  501  0.00000000000E+00  0.00000000000E+00  0.71367389284E+03  0.71367389286E+03  0.50400001928E-02 0.  1.
        1   -1    0    0  501    0  0.00000000000E+00  0.00000000000E+00 -0.42121955908E+03  0.42121955911E+03  0.50400001928E-02 0. -1.
    10030    2    1    2    0    0  0.00000000000E+00  0.00000000000E+00  0.29245433376E+03  0.11348934520E+04  0.10965644577E+04 0.  0.
        5    1    3    3  502    0 -0.10658195184E+03 -0.18396306531E+02 -0.41004786420E+03  0.42409842900E+03  0.46999998093E+01 0. -1.
       -5    1    3    3    0  502  0.10658195184E+03  0.18396306531E+02  0.70250219795E+03  0.71079502297E+03  0.46999998093E+01 0.  1.
</event>
<event>
 5   0  0.2392585E-03  0.1084333E+04  0.7818609E-02  0.9220598E-01
        2   -1    0    0  501    0  0.00000000000E+00  0.00000000000E+00  0.12352410533E+04  0.12352410534E+04  0.25500000920E-02 0. -1.
       -2   -1    0    0    0  501  0.00000000000E+00  0.00000000000E+00 -0.23796510340E+03  0.23796510341E+03  0.25500000920E-02 0.  1.
    10030    2    1    2    0    0  0.00000000000E+00  0.00000000000E+00  0.99727594995E+03  0.14732061568E+04  0.10843325412E+04 0.  0.
        5    1    3    3  502    0 -0.29784711887E+03  0.34365741864E+03  0.97649244259E+02  0.46515673972E+03  0.46999998093E+01 0.  1.
       -5    1    3    3    0  502  0.29784711887E+03 -0.34365741864E+03  0.89962670569E+03  0.10080494170E+04  0.46999998093E+01 0. -1.
</event>
<event>
 5   0  0.2467448E-03  0.1113968E+04  0.7818609E-02  0.9191683E-01
       -2   -1    0    0    0  501  0.00000000000E+00  0.00000000000E+00  0.20599169795E+03  0.20599169797E+03  0.25500000920E-02 0.  1.
        2   -1    0    0  501    0  0.00000000000E+00  0.00000000000E+00 -0.15060378498E+04  0.15060378498E+04  0.25500000920E-02 0. -1.
    10030    2    1    2    0    0  0.00000000000E+00  0.00000000000E+00 -0.13000461519E+04  0.17120295478E+04  0.11139682112E+04 0.  0.
        1    1    3    3  502    0 -0.29343618381E+02  0.31067751183E+03 -0.13590700525E+04  0.13944364352E+04  0.50400001928E-02 0. -1.
       -1    1    3    3    0  502  0.29343618381E+02 -0.31067751183E+03  0.59023900596E+02  0.31759311259E+03  0.50400001928E-02 0.  1.
</event>
<event>
 5   0  0.1415400E-03  0.1101551E+04  0.7818609E-02  0.9203682E-01
       -1   -1    0    0    0  501  0.00000000000E+00  0.00000000000E+00  0.66359640598E+03  0.66359640600E+03  0.50400001928E-02 0.  1.
        1   -1    0    0  501    0  0.00000000000E+00  0.00000000000E+00 -0.45713560215E+03  0.45713560218E+03  0.50400001928E-02 0. -1.
    10030    2    1    2    0    0  0.00000000000E+00  0.00000000000E+00  0.20646080383E+03  0.11207320082E+04  0.11015508026E+04 0.  0.
        2    1    3    3  502    0  0.23336619409E+03 -0.16386721512E+03 -0.37618736315E+03  0.47204785450E+03  0.25500000920E-02 0. -1.
       -2    1    3    3    0  502 -0.23336619409E+03  0.16386721512E+03  0.58264816698E+03  0.64868415367E+03  0.25500000920E-02 0.  1.
</event>
<event>
 5   0  0.2392585E-03  0.1101994E+04  0.7818609E-02  0.9203251E-01
       -2   -1    0    0    0  501  0.00000000000E+00  0.00000000000E+00  0.31115742718E+03  0.31115742719E+03  0.25500000920E-02 0. -1.
        2   -1    0    0  501    0  0.00000000000E+00  0.00000000000E+00 -0.97570406021E+03  0.97570406022E+03  0.25500000920E-02 0.  1.
    10030    2    1    2    0    0  0.00000000000E+00  0.00000000000E+00 -0.66454663304E+03  0.12868614874E+04  0.11019937660E+04 0.  0.
        5    1    3    3  502    0  0.39406448946E+03  0.35914237662E+03 -0.49452609468E+03  0.72721951078E+03  0.46999998093E+01 0.  1.
       -5    1    3    3    0  502 -0.39406448946E+03 -0.35914237662E+03 -0.17002053836E+03  0.55964197663E+03  0.46999998093E+01 0. -1.
</event>
<event>
 5   0  0.2467448E-03  0.1100843E+04  0.7818609E-02  0.9204370E-01
        2   -1    0    0  501    0  0.00000000000E+00  0.00000000000E+00  0.10133147842E+04  0.10133147842E+04  0.25500000920E-02 0.  1.
       -2   -1    0    0    0  501  0.00000000000E+00  0.00000000000E+00 -0.29898316564E+03  0.29898316565E+03  0.25500000920E-02 0. -1.
    10030    2    1    2    0    0  0.00000000000E+00  0.00000000000E+00  0.71433161857E+03  0.13122979499E+04  0.11008434257E+04 0.  0.
        1    1    3    3  502    0  0.54165115883E+03  0.85725226000E+02  0.41345023071E+03  0.68678663756E+03  0.50400001928E-02 0.  1.
       -1    1    3    3    0  502 -0.54165115883E+03 -0.85725226000E+02  0.30088138786E+03  0.62551131231E+03  0.50400001928E-02 0. -1.
</event>
<event>
 5   0  0.9631750E-04  0.1104021E+04  0.7818609E-02  0.9201282E-01
       -3   -1    0    0    0  501  0.00000000000E+00  0.00000000000E+00  0.44488273554E+03  0.44488274701E+03  0.10100000352E+00 0.  1.
        3   -1    0    0  501    0  0.00000000000E+00  0.00000000000E+00 -0.68493419612E+03  0.68493420357E+03  0.10100000352E+00 0. -1.
    10030    2    1    2    0    0  0.00000000000E+00  0.00000000000E+00 -0.24005146058E+03  0.11298169506E+04  0.11040206692E+04 0.  0.
        4    1    3    3  502    0 -0.13946478481E+02  0.16827124857E+03  0.41780538765E+03  0.45063585322E+03  0.12699999809E+01 0.  1.
       -4    1    3    3    0  502  0.13946478481E+02 -0.16827124857E+03 -0.65785684823E+03  0.67918109736E+03  0.12699999809E+01 0. -1.
</event>
<event>
 5   0  0.2467448E-03  0.1096232E+04  0.7818609E-02  0.9208872E-01
       -2   -1    0    0    0  501  0.00000000000E+00  0.00000000000E+00  0.21531968096E+03  0.21531968098E+03  0.25500000920E-02 0. -1.
        2   -1    0    0  501    0  0.00000000000E+00  0.00000000000E+00 -0.13952803008E+04  0.13952803008E+04  0.25500000920E-02 0.  1.
    10030    2    1    2    0    0  0.00000000000E+00  0.00000000000E+00 -0.11799606198E+04  0.16105999817E+04  0.10962322915E+04 0.  0.
        1    1    3    3  502    0 -0.24517844159E+03  0.23971212600E+03 -0.12182423498E+04  0.12655784426E+04  0.50400001928E-02 0.  1.
       -1    1    3    3    0  502  0.24517844159E+03 -0.23971212600E+03  0.38281730001E+02  0.34502153911E+03  0.50400001928E-02 0. -1.
</event>
<event>
 5   0  0.2483036E-03  0.1097831E+04  0.7818609E-02  0.9207308E-01
        2   -1    0    0  501    0  0.00000000000E+00  0.00000000000E+00  0.35409915106E+03  0.35409915107E+03  0.25500000920E-02 0.  1.
       -2   -1    0    0    0  501  0.00000000000E+00  0.00000000000E+00 -0.85091542590E+03  0.85091542591E+03  0.25500000920E-02 0. -1.
    10030    2    1    2    0    0  0.00000000000E+00  0.00000000000E+00 -0.49681627484E+03  0.12050145770E+04  0.10978313713E+04 0.  0.
        3    1    3    3  502    0  0.17157009501E+03 -0.14686219444E+03  0.30074090082E+03  0.37609826015E+03  0.10100000352E+00 0.  1.
       -3    1    3    3    0  502 -0.17157009501E+03  0.14686219444E+03 -0.79755717567E+03  0.82891631683E+03  0.10100000352E+00 0. -1.
</event>
<event>
 5   0  0.1479573E-03  0.1065363E+04  0.7818609E-02  0.9239625E-01
       -1   -1    0    0    0  501  0.00000000000E+00  0.00000000000E+00  0.15560725889E+03  0.15560725897E+03  0.50400001928E-02 0.  1.
        1   -1    0    0  501    0  0.00000000000E+00  0.00000000000E+00 -0.18234988240E+04  0.18234988240E+04  0.50400001928E-02 0. -1.
    10030    2    1    2    0    0  0.00000000000E+00  0.00000000000E+00 -0.16678915651E+04  0.19791060830E+04  0.10653631375E+04 0.  0.
        4    1    3    3  502    0  0.62058772756E+02  0.38459398925E+03 -0.15905670215E+03  0.42079029842E+03  0.12699999809E+01 0.  1.
       -4    1    3    3    0  502 -0.62058772756E+02 -0.38459398925E+03 -0.15088348629E+04  0.15583157845E+04  0.12699999809E+01 0. -1.
</event>
<event>
 5   0  0.1479573E-03  0.1108715E+04  0.7818609E-02  0.9196739E-01
       -1   -1    0    0    0  501  0.00000000000E+00  0.00000000000E+00  0.22390446813E+03  0.22390446819E+03  0.50400001928E-02 0.  1.
        1   -1    0    0  501    0  0.00000000000E+00  0.00000000000E+00 -0.13725148189E+04  0.13725148189E+04  0.50400001928E-02 0. -1.
    10030    2    1    2    0    0  0.00000000000E+00  0.00000000000E+00 -0.11486103508E+04  0.15964192871E+04  0.11087149329E+04 0.  0.
        4    1    3    3  502    0  0.40746513106E+03 -0.37105195641E+03 -0.48787383025E+03  0.73602301223E+03  0.12699999809E+01 0. -1.
       -4    1    3    3    0  502 -0.40746513106E+03  0.37105195641E+03 -0.66073652054E+03  0.86039627490E+03  0.12699999809E+01 0.  1.
</event>
<event>
 5   0  0.1480937E-03  0.1089549E+04  0.7818609E-02  0.9215438E-01
       -1   -1    0    0    0  501  0.00000000000E+00  0.00000000000E+00  0.19915116465E+03  0.19915116471E+03  0.50400001928E-02 0. -1.
        1   -1    0    0  501    0  0.00000000000E+00  0.00000000000E+00 -0.14902223718E+04  0.14902223718E+04  0.50400001928E-02 0.  1.
    10030    2    1    2    0    0  0.00000000000E+00  0.00000000000E+00 -0.12910712072E+04  0.16893735365E+04  0.10895494867E+04 0.  0.
        1    1    3    3  502    0  0.26146078310E+03 -0.23460975319E+03  0.78888599415E-01  0.35128831982E+03  0.50400001928E-02 0. -1.
       -1    1    3    3    0  502 -0.26146078310E+03  0.23460975319E+03 -0.12911500958E+04  0.13380852167E+04  0.50400001928E-02 0.  1.
</event>
<event>
 5   0  0.2392585E-03  0.1096181E+04  0.7818609E-02  0.9208922E-01
       -2   -1    0    0    0  501  0.00000000000E+00  0.00000000000E+00  0.31059732408E+03  0.31059732409E+03  0.25500000920E-02 0.  1.
        2   -1    0    0  501    0  0.00000000000E+00  0.00000000000E+00 -0.96717853184E+03  0.96717853185E+03  0.25500000920E-02 0. -1.
    10030    2    1    2    0    0  0.00000000000E+00  0.00000000000E+00 -0.65658120777E+03  0.12777758559E+04  0.10961807586E+04 0.  0.
        5    1    3    3  502    0 -0.38573000193E+03  0.23175380841E+03  0.36402267494E+02  0.45149161363E+03  0.46999998093E+01 0. -1.
       -5    1    3    3    0  502  0.38573000193E+03 -0.23175380841E+03 -0.69298347526E+03  0.82628424231E+03  0.46999998093E+01 0.  1.
</event>
<event>
 5   0  0.1480937E-03  0.1105995E+04  0.7818609E-02  0.9199369E-01
       -1   -1    0    0    0  501  0.00000000000E+00  0.00000000000E+00  0.31619930537E+03  0.31619930541E+03  0.50400001928E-02 0. -1.
        1   -1    0    0  501    0  0.00000000000E+00  0.00000000000E+00 -0.96713082129E+03  0.96713082131E+03  0.50400001928E-02 0.  1.
    10030    2    1    2    0    0  0.00000000000E+00  0.00000000000E+00 -0.65093151593E+03  0.12833301267E+04  0.11059947449E+04 0.  0.
        1    1    3    3  502    0 -0.26095252702E+03  0.46226481262E+03 -0.50530394361E+03  0.73288270126E+03  0.50400001928E-02 0.  1.
       -1    1    3    3    0  502  0.26095252702E+03 -0.46226481262E+03 -0.14562757232E+03  0.55044742546E+03  0.50400001928E-02 0. -1.
</event>
<event>
 5   0  0.9631750E-04  0.1105548E+04  0.7818609E-02  0.9199801E-01
       -3   -1    0    0    0  501  0.00000000000E+00  0.00000000000E+00  0.36253258545E+03  0.36253259952E+03  0.10100000352E+00 0. -1.
        3   -1    0    0  501    0  0.00000000000E+00  0.00000000000E+00 -0.84284615735E+03  0.84284616341E+03  0.10100000352E+00 0.  1.
    10030    2    1    2    0    0  0.00000000000E+00  0.00000000000E+00 -0.48031357191E+03  0.12053787629E+04  0.11055482055E+04 0.  0.
        1    1    3    3  502    0 -0.22498339385E+01  0.21339789278E+03  0.31580566265E+03  0.38115212052E+03  0.50400001928E-02 0. -1.
       -1    1    3    3    0  502  0.22498339385E+01 -0.21339789278E+03 -0.79611923455E+03  0.82422664240E+03  0.50400001928E-02 0.  1.
</event>
<event>
 5   0  0.2392585E-03  0.1084508E+04  0.7818609E-02  0.9220424E-01
       -2   -1    0    0    0  501  0.00000000000E+00  0.00000000000E+00  0.48113742227E+03  0.48113742228E+03  0.25500000920E-02 0. -1.
        2   -1    0    0  501    0  0.00000000000E+00  0.00000000000E+00 -0.61113382770E+03  0.61113382770E+03  0.25500000920E-02 0.  1.
    10030    2    1    2    0    0  0.00000000000E+00  0.00000000000E+00 -0.12999640543E+03  0.10922712500E+04  0.10845079152E+04 0.  0.
        5    1    3    3  502    0 -0.64667764304E+01 -0.37775029138E+03 -0.45672994850E+03  0.59275748641E+03  0.46999998093E+01 0.  1.
       -5    1    3    3    0  502  0.64667764304E+01  0.37775029138E+03  0.32673354307E+03  0.49951376358E+03  0.46999998093E+01 0. -1.
</event>
<event>
 5   0  0.2467448E-03  0.1102166E+04  0.7818609E-02  0.9203083E-01
        2   -1    0    0  501    0  0.00000000000E+00  0.00000000000E+00  0.19419906280E+03  0.19419906281E+03  0.25500000920E-02 0. -1.
       -2   -1    0    0    0  501  0.00000000000E+00  0.00000000000E+00 -0.15638213317E+04  0.15638213317E+04  0.25500000920E-02 0.  1.
    10030    2    1    2    0    0  0.00000000000E+00  0.00000000000E+00 -0.13696222689E+04  0.17580203945E+04  0.11021662978E+04 0.  0.
        1    1    3    3  502    0  0.57220739942E+02  0.10633614214E+03  0.17283695906E+03  0.21084165302E+03  0.50400001928E-02 0. -1.
       -1    1    3    3    0  502 -0.57220739942E+02 -0.10633614214E+03 -0.15424592279E+04  0.15471787415E+04  0.50400001928E-02 0.  1.
</event>
<event>
 5   0  0.2438115E-03  0.1097500E+04  0.7818609E-02  0.9207632E-01
        2   -1    0    0  501    0  0.00000000000E+00  0.00000000000E+00  0.66194449597E+03  0.66194449598E+03  0.25500000920E-02 0.  1.
       -2   -1    0    0    0  501  0.00000000000E+00  0.00000000000E+00 -0.45491201601E+03  0.45491201602E+03  0.25500000920E-02 0. -1.
    10030    2    1    2    0    0  0.00000000000E+00  0.00000000000E+00  0.20703247996E+03  0.11168565120E+04  0.10974998955E+04 0.  0.
        4    1    3    3  502    0  0.10487492909E+03 -0.56941316651E+02 -0.44154578680E+03  0.45738972336E+03  0.12699999809E+01 0. -1.
       -4    1    3    3    0  502 -0.10487492909E+03  0.56941316651E+02  0.64857826676E+03  0.65946678863E+03  0.12699999809E+01 0.  1.
</event>
<event>
 5   0  0.2392585E-03  0.1095322E+04  0.7818609E-02  0.9209763E-01
        2   -1    0    0  501    0  0.00000000000E+00  0.00000000000E+00  0.67513657924E+03  0.67513657925E+03  0.25500000920E-02 0. -1.
       -2   -1    0    0    0  501  0.00000000000E+00  0.00000000000E+00 -0.44425494198E+03  0.44425494199E+03  0.25500000920E-02 0.  1.
    10030    2    1    2    0    0  0.00000000000E+00  0.00000000000E+00  0.23088163726E+03  0.11193915212E+04  0.10953223486E+04 0.  0.
        5    1    3    3  502    0 -0.27810459035E+03 -0.78737929454E+02  0.59081701304E+03  0.65774513119E+03  0.46999998093E+01 0. -1.
       -5    1    3    3    0  502  0.27810459035E+03  0.78737929454E+02 -0.35993537578E+03  0.46164639005E+03  0.46999998093E+01 0.  1.
</event>
<event>
 5   0  0.1479573E-03  0.1087492E+04  0.7818609E-02  0.9217470E-01
        1   -1    0    0  501    0  0.00000000000E+00  0.00000000000E+00  0.37062582998E+03  0.37062583002E+03  0.50400001928E-02 0.  1.
       -1   -1    0    0    0  501  0.00000000000E+00  0.00000000000E+00 -0.79773072664E+03  0.79773072665E+03  0.50400001928E-02 0. -1.
    10030    2    1    2    0    0  0.00000000000E+00  0.00000000000E+00 -0.42710489666E+03  0.11683565567E+04  0.10874918164E+04 0.  0.
        4    1    3    3  502    0  0.90570052269E+01 -0.17160308306E+03  0.34068386248E+03  0.38157142780E+03  0.12699999809E+01 0.  1.
       -4    1    3    3    0  502 -0.90570052269E+01  0.17160308306E+03 -0.76778875913E+03  0.78678512887E+03  0.12699999809E+01 0. -1.
</event>
<event>
 5   0  0.2467448E-03  0.1098747E+04  0.7818609E-02  0.9206414E-01
       -2   -1    0    0    0  501  0.00000000000E+00  0.00000000000E+00  0.20323017380E+03  0.20323017382E+03  0.25500000920E-02 0. -1.
        2   -1    0    0  501    0  0.00000000000E+00  0.00000000000E+00 -0.14850723330E+04  0.14850723330E+04  0.25500000920E-02 0.  1.
    10030    2    1    2    0    0  0.00000000000E+00  0.00000000000E+00 -0.12818421592E+04  0.16883025068E+04  0.10987474839E+04 0.  0.
        1    1    3    3  502    0  0.14136802295E+03  0.79882369515E+02 -0.14473574972E+04  0.14564373778E+04  0.50400001928E-02 0.  1.
       -1    1    3    3    0  502 -0.14136802295E+03 -0.79882369515E+02  0.16551533803E+03  0.23186512895E+03  0.50400001928E-02 0. -1.
</event>
<event>
 5   0  0.1479573E-03  0.1104522E+04  0.7818609E-02  0.9200795E-01
        1   -1    0    0  501    0  0.00000000000E+00  0.00000000000E+00  0.99566437931E+03  0.99566437932E+03  0.50400001928E-02 0.  1.
       -1   -1    0    0    0  501  0.00000000000E+00  0.00000000000E+00 -0.30632044444E+03  0.30632044449E+03  0.50400001928E-02 0. -1.
    10030    2    1    2    0    0  0.00000000000E+00  0.00000000000E+00  0.68934393486E+03  0.13019848238E+04  0.11045222591E+04 0.  0.
        4    1    3    3  502    0 -0.28537782140E+02 -0.52718366800E+03  0.53566910274E+03  0.75211702902E+03  0.12699999809E+01 0.  1.
       -4    1    3    3    0  502  0.28537782140E+02  0.52718366800E+03  0.15367483212E+03  0.54986779478E+03  0.12699999809E+01 0. -1.
</event>
<event>
 5   0  0.1415400E-03  0.1099775E+04  0.7818609E-02  0.9205411E-01
       -1   -1    0    0    0  501  0.00000000000E+00  0.00000000000E+00  0.63606879033E+03  0.63606879035E+03  0.50400001928E-02 0. -1.
        1   -1    0    0  501    0  0.00000000000E+00  0.00000000000E+00 -0.47538295903E+03  0.47538295906E+03  0.50400001928E-02 0.  1.
    10030    2    1    2    0    0  0.00000000000E+00  0.00000000000E+00  0.16068583130E+03  0.11114517494E+04  0.10997750019E+04 0.  0.
        2    1    3    3  502    0  0.30142472427E+03  0.11335030669E+03 -0.37011489949E+03  0.49060187042E+03  0.25500000920E-02 0.  1.
       -2    1    3    3    0  502 -0.30142472427E+03 -0.11335030669E+03  0.53080073079E+03  0.62084987899E+03  0.25500000920E-02 0. -1.
</event>
<event>
 5   0  0.9631750E-04  0.1096480E+04  0.7818609E-02  0.9208630E-01
        4   -1    0    0  501    0  0.00000000000E+00  0.00000000000E+00  0.69646608220E+03  0.69646724012E+03  0.12699999809E+01 0. -1.
       -4   -1    0    0    0  501  0.00000000000E+00  0.00000000000E+00 -0.43155780057E+03  0.43155966926E+03  0.12699999809E+01 0.  1.
    10030    2    1    2    0    0  0.00000000000E+00  0.00000000000E+00  0.26490828163E+03  0.11280269094E+04  0.10964799636E+04 0.  0.
        4    1    3    3  502    0  0.15408349776E+03 -0.32073396378E+03  0.56153120635E+03  0.66477884173E+03  0.12699999809E+01 0. -1.
       -4    1    3    3    0  502 -0.15408349776E+03  0.32073396378E+03 -0.29662292472E+03  0.46324806764E+03  0.12699999809E+01 0.  1.
</event>
<event>
 5   0  0.1480937E-03  0.1085688E+04  0.7818609E-02  0.9219255E-01
       -1   -1    0    0    0  501  0.00000000000E+00  0.00000000000E+00  0.38570975556E+03  0.38570975559E+03  0.50400001928E-02 0.  1.
        1   -1    0    0  501    0  0.00000000000E+00  0.00000000000E+00 -0.76399302805E+03  0.76399302807E+03  0.50400001928E-02 0. -1.
    10030    2    1    2    0    0  0.00000000000E+00  0.00000000000E+00 -0.37828327249E+03  0.11497027837E+04  0.10856879186E+04 0.  0.
        1    1    3    3  502    0 -0.49047072453E+03 -0.43125321202E+02 -0.43122110846E+03  0.65450207743E+03  0.50400001928E-02 0.  1.
       -1    1    3    3    0  502  0.49047072453E+03  0.43125321202E+02  0.52937835968E+02  0.49520070623E+03  0.50400001928E-02 0. -1.
</event>
<event>
 5   0  0.1479573E-03  0.1101304E+04  0.7818609E-02  0.9203922E-01
       -1   -1    0    0    0  501  0.00000000000E+00  0.00000000000E+00  0.21645578591E+03  0.21645578597E+03  0.50400001928E-02 0.  1.
        1   -1    0    0  501    0  0.00000000000E+00  0.00000000000E+00 -0.14008294788E+04  0.14008294788E+04  0.50400001928E-02 0. -1.
    10030    2    1    2    0    0  0.00000000000E+00  0.00000000000E+00 -0.11843736929E+04  0.16172852648E+04  0.11013040376E+04 0.  0.
        4    1    3    3  502    0 -0.14284519255E+02  0.26685867083E+03 -0.12992116474E+04  0.13264124982E+04  0.12699999809E+01 0. -1.
       -4    1    3    3    0  502  0.14284519255E+02 -0.26685867083E+03  0.11483795447E+03  0.29087276664E+03  0.12699999809E+01 0.  1.
</event>
<event>
 5   0  0.2438115E-03  0.1114813E+04  0.7818609E-02  0.9190873E-01
       -2   -1    0    0    0  501  0.00000000000E+00  0.00000000000E+00  0.37229672908E+03  0.37229672908E+03  0.25500000920E-02 0.  1.
        2   -1    0    0  501    0  0.00000000000E+00  0.00000000000E+00 -0.83455504912E+03  0.83455504912E+03  0.25500000920E-02 0. -1.
    10030    2    1    2    0    0  0.00000000000E+00  0.00000000000E+00 -0.46225832004E+03  0.12068517782E+04  0.11148131952E+04 0.  0.
        4    1    3    3  502    0  0.18680777644E+03  0.44726922440E+03 -0.52908607282E+03  0.71755180286E+03  0.12699999809E+01 0. -1.
       -4    1    3    3    0  502 -0.18680777644E+03 -0.44726922440E+03  0.66827752775E+02  0.48929997535E+03  0.12699999809E+01 0.  1.
</event>
<event>
 5   0  0.2438115E-03  0.1100382E+04  0.7818609E-02  0.9204819E-01
        2   -1    0    0  501    0  0.00000000000E+00  0.00000000000E+00  0.64239239877E+03  0.64239239878E+03  0.25500000920E-02 0.  1.
       -2   -1    0    0    0  501  0.00000000000E+00  0.00000000000E+00 -0.47122346043E+03  0.47122346043E+03  0.25500000920E-02 0. -1.
    10030    2    1    2    0    0  0.00000000000E+00  0.00000000000E+00  0.17116893835E+03  0.11136158592E+04  0.11003824228E+04 0.  0.
        4    1    3    3  502    0  0.36105633555E+03  0.85250434654E+02  0.49677041196E+03  0.62000949117E+03  0.12699999809E+01 0.  1.
       -4    1    3    3    0  502 -0.36105633555E+03 -0.85250434654E+02 -0.32560147361E+03  0.49360636804E+03  0.12699999809E+01 0. -1.
</event>
<event>
 5   0  0.1509004E-03  0.1124429E+04  0.7818609E-02  0.9181703E-01
       -1   -1    0    0    0  501  0.00000000000E+00  0.00000000000E+00  0.40392256590E+03  0.40392256594E+03  0.50400001928E-02 0. -1.
        1   -1    0    0  501    0  0.00000000000E+00  0.00000000000E+00 -0.78253929664E+03  0.78253929666E+03  0.50400001928E-02 0.  1.
    10030    2    1    2    0    0  0.00000000000E+00  0.00000000000E+00 -0.37861673074E+03  0.11864618626E+04  0.11244292430E+04 0.  0.
        3    1    3    3  502    0  0.21333386035E+03 -0.51345949679E+03 -0.10144840371E+03  0.56519357713E+03  0.10100000352E+00 0. -1.
       -3    1    3    3    0  502 -0.21333386035E+03  0.51345949679E+03 -0.27716832702E+03  0.62126828546E+03  0.10100000352E+00 0.  1.
</event>
<event>
 5   0  0.2488472E-03  0.1098023E+04  0.7818609E-02  0.9207121E-01
       -2   -1    0    0    0  501  0.00000000000E+00  0.00000000000E+00  0.19013146902E+03  0.19013146904E+03  0.25500000920E-02 0. -1.
        2   -1    0    0  501    0  0.00000000000E+00  0.00000000000E+00 -0.15852897971E+04  0.15852897971E+04  0.25500000920E-02 0.  1.
    10030    2    1    2    0    0  0.00000000000E+00  0.00000000000E+00 -0.13951583281E+04  0.17754212661E+04  0.10980227283E+04 0.  0.
        2    1    3    3  502    0  0.10822265287E+03  0.11293395500E+03  0.15334062150E+03  0.21904238629E+03  0.25500000920E-02 0. -1.
       -2    1    3    3    0  502 -0.10822265287E+03 -0.11293395500E+03 -0.15484989496E+04  0.15563788799E+04  0.25500000920E-02 0.  1.
</event>
<event>
 5   0  0.1468556E-03  0.1085740E+04  0.7818609E-02  0.9219203E-01
       -1   -1    0    0    0  501  0.00000000000E+00  0.00000000000E+00  0.25055779351E+03  0.25055779356E+03  0.50400001928E-02 0.  1.
        1   -1    0    0  501    0  0.00000000000E+00  0.00000000000E+00 -0.11762064173E+04  0.11762064173E+04  0.50400001928E-02 0. -1.
    10030    2    1    2    0    0  0.00000000000E+00  0.00000000000E+00 -0.92564862381E+03  0.14267642109E+04  0.10857397196E+04 0.  0.
        5    1    3    3  502    0  0.13133335535E+03  0.36030290745E+03 -0.96771522065E+03  0.10409425890E+04  0.46999998093E+01 0. -1.
       -5    1    3    3    0  502 -0.13133335535E+03 -0.36030290745E+03  0.42066596836E+02  0.38582162189E+03  0.46999998093E+01 0.  1.
</event>
<event>
 5   0  0.2467448E-03  0.1105789E+04  0.7818609E-02  0.9199568E-01
        2   -1    0    0  501    0  0.00000000000E+00  0.00000000000E+00  0.53106466733E+03  0.53106466733E+03  0.25500000920E-02 0.  1.
       -2   -1    0    0    0  501  0.00000000000E+00  0.00000000000E+00 -0.57562186200E+03  0.57562186200E+03  0.25500000920E-02 0. -1.
    10030    2    1    2    0    0  0.00000000000E+00  0.00000000000E+00 -0.44557194671E+02  0.11066865293E+04  0.11057891891E+04 0.  0.
        1    1    3    3  502    0  0.39321141972E+03  0.28038902233E+03 -0.29167951827E+03  0.56418983139E+03  0.50400001928E-02 0. -1.
       -1    1    3    3    0  502 -0.39321141972E+03 -0.28038902233E+03  0.24712232360E+03  0.54249669795E+03  0.50400001928E-02 0.  1.
</event>
<event>
 5   0  0.2438115E-03  0.1099954E+04  0.7818609E-02  0.9205237E-01
       -2   -1    0    0    0  501  0.00000000000E+00  0.00000000000E+00  0.20596703556E+03  0.20596703558E+03  0.25500000920E-02 0. -1.
        2   -1    0    0  501    0  0.00000000000E+00  0.00000000000E+00 -0.14685590140E+04  0.14685590140E+04  0.25500000920E-02 0.  1.
    10030    2    1    2    0    0  0.00000000000E+00  0.00000000000E+00 -0.12625919785E+04  0.16745260496E+04  0.10999540839E+04 0.  0.
        4    1    3    3  502    0  0.13757658273E+03  0.16816658300E+03  0.13785868426E+03  0.25732070550E+03  0.12699999809E+01 0. -1.
       -4    1    3    3    0  502 -0.13757658273E+03 -0.16816658300E+03 -0.14004506627E+04  0.14172053441E+04  0.12699999809E+01 0.  1.
</event>
<event>
 5   0  0.1509004E-03  0.1102140E+04  0.7818609E-02  0.9203109E-01
        1   -1    0    0  501    0  0.00000000000E+00  0.00000000000E+00  0.20068829479E+04  0.20068829479E+04  0.50400001928E-02 0.  1.
       -1   -1    0    0    0  501  0.00000000000E+00  0.00000000000E+00 -0.15131821944E+03  0.15131821952E+03  0.50400001928E-02 0. -1.
    10030    2    1    2    0    0  0.00000000000E+00  0.00000000000E+00  0.18555647285E+04  0.21582011674E+04  0.11021396543E+04 0.  0.
        3    1    3    3  502    0  0.11400390787E+03 -0.29281708987E+03  0.41304657331E+02  0.31693031418E+03  0.10100000352E+00 0. -1.
       -3    1    3    3    0  502 -0.11400390787E+03  0.29281708987E+03  0.18142600711E+04  0.18412708532E+04  0.10100000352E+00 0.  1.
</event>
<event>
 5   0  0.2438115E-03  0.1086458E+04  0.7818609E-02  0.9218492E-01
        2   -1    0    0  501    0  0.00000000000E+00  0.00000000000E+00  0.13730409971E+04  0.13730409971E+04  0.25500000920E-02 0.  1.
       -2   -1    0    0    0  501  0.00000000000E+00  0.00000000000E+00 -0.21492293588E+03  0.21492293589E+03  0.25500000920E-02 0. -1.
    10030    2    1    2    0    0  0.00000000000E+00  0.00000000000E+00  0.11581180613E+04  0.15879639330E+04  0.10864584708E+04 0.  0.
        4    1    3    3  502    0  0.50785473944E+03  0.28200032184E+02  0.30026275401E+03  0.59065303905E+03  0.12699999809E+01 0.  1.
       -4    1    3    3    0  502 -0.50785473944E+03 -0.28200032184E+02  0.85785530726E+03  0.99731089399E+03  0.12699999809E+01 0. -1.
</event>
<event>
 5   0  0.2392585E-03  0.1094115E+04  0.7818609E-02  0.9210946E-01
       -2   -1    0    0    0  501  0.00000000000E+00  0.00000000000E+00  0.57123232194E+03  0.57123232194E+03  0.25500000920E-02 0.  1.
        2   -1    0    0  501    0  0.00000000000E+00  0.00000000000E+00 -0.52390621789E+03  0.52390621789E+03  0.25500000920E-02 0. -1.
    10030    2    1    2    0    0  0.00000000000E+00  0.00000000000E+00  0.47326104051E+02  0.10951385398E+04  0.10941154698E+04 0.  0.
        5    1    3    3  502    0  0.25392877783E+03 -0.24141630976E+03 -0.39683501859E+03  0.52939756404E+03  0.46999998093E+01 0. -1.
       -5    1    3    3    0  502 -0.25392877783E+03  0.24141630976E+03  0.44416112264E+03  0.56574097580E+03  0.46999998093E+01 0.  1.
</event>
<event>
 5   0  0.2467448E-03  0.1036791E+04  0.7818609E-02  0.9269088E-01
        2   -1    0    0  501    0  0.00000000000E+00  0.00000000000E+00  0.45408897279E+03  0.45408897280E+03  0.25500000920E-02 0. -1.
       -2   -1    0    0    0  501  0.00000000000E+00  0.00000000000E+00 -0.59180942491E+03  0.59180942492E+03  0.25500000920E-02 0.  1.
    10030    2    1    2    0    0  0.00000000000E+00  0.00000000000E+00 -0.13772045212E+03  0.10458983977E+04  0.10367914619E+04 0.  0.
        1    1    3    3  502    0  0.32199505555E+03  0.31511568035E+03 -0.32754084033E+03  0.55701140913E+03  0.50400001928E-02 0. -1.
       -1    1    3    3    0  502 -0.32199505555E+03 -0.31511568035E+03  0.18982038821E+03  0.48888698858E+03  0.50400001928E-02 0.  1.
</event>
<event>
 5   0  0.1479573E-03  0.1098570E+04  0.7818609E-02  0.9206587E-01
       -1   -1    0    0    0  501  0.00000000000E+00  0.00000000000E+00  0.48211105448E+03  0.48211105451E+03  0.50400001928E-02 0.  1.
        1   -1    0    0  501    0  0.00000000000E+00  0.00000000000E+00 -0.62581858194E+03  0.62581858196E+03  0.50400001928E-02 0. -1.
    10030    2    1    2    0    0  0.00000000000E+00  0.00000000000E+00 -0.14370752746E+03  0.11079296365E+04  0.10985700824E+04 0.  0.
        4    1    3    3  502    0  0.54055907575E+03 -0.41966974408E+02 -0.16062127755E+03  0.56547869015E+03  0.12699999809E+01 0. -1.
       -4    1    3    3    0  502 -0.54055907575E+03  0.41966974408E+02  0.16913750090E+02  0.54245094632E+03  0.12699999809E+01 0.  1.
</event>
<event>
 5   0  0.2467448E-03  0.1099885E+04  0.7818609E-02  0.9205304E-01
        2   -1    0    0  501    0  0.00000000000E+00  0.00000000000E+00  0.14374157067E+04  0.14374157067E+04  0.25500000920E-02 0. -1.
       -2   -1    0    0    0  501  0.00000000000E+00  0.00000000000E+00 -0.21040319600E+03  0.21040319602E+03  0.25500000920E-02 0.  1.
    10030    2    1    2    0    0  0.00000000000E+00  0.00000000000E+00  0.12270125107E+04  0.16478189027E+04  0.10998851916E+04 0.  0.
        1    1    3    3  502    0 -0.53623920120E+03 -0.75536126319E+02  0.46997316477E+03  0.71703065688E+03  0.50400001928E-02 0. -1.
       -1    1    3    3    0  502  0.53623920120E+03  0.75536126319E+02  0.75703934594E+03  0.93078824585E+03  0.50400001928E-02 0.  1.
</event>
<event>
 5   0  0.1415400E-03  0.1101833E+04  0.7818609E-02  0.9203407E-01
        1   -1    0    0  501    0  0.00000000000E+00  0.00000000000E+00  0.24215817978E+03  0.24215817983E+03  0.50400001928E-02 0.  1.
       -1   -1    0    0    0  501  0.00000000000E+00  0.00000000000E+00 -0.12533508812E+04  0.12533508812E+04  0.50400001928E-02 0. -1.
    10030    2    1    2    0    0  0.00000000000E+00  0.00000000000E+00 -0.10111927014E+04  0.14955090610E+04  0.11018333233E+04 0.  0.
        2    1    3    3  502    0 -0.48961826227E+03  0.12173584598E+03 -0.20525895299E+03  0.54468054558E+03  0.25500000920E-02 0.  1.
       -2    1    3    3    0  502  0.48961826227E+03 -0.12173584598E+03 -0.80593374842E+03  0.95082851545E+03  0.25500000920E-02 0. -1.
</event>
<event>
 5   0  0.2483036E-03  0.1099073E+04  0.7818609E-02  0.9206096E-01
        2   -1    0    0  501    0  0.00000000000E+00  0.00000000000E+00  0.10393366324E+04  0.10393366324E+04  0.25500000920E-02 0.  1.
       -2   -1    0    0    0  501  0.00000000000E+00  0.00000000000E+00 -0.29056058689E+03  0.29056058690E+03  0.25500000920E-02 0. -1.
    10030    2    1    2    0    0  0.00000000000E+00  0.00000000000E+00  0.74877604555E+03  0.13298972193E+04  0.10990728127E+04 0.  0.
        3    1    3    3  502    0 -0.53706923056E+03 -0.11547669502E+03  0.39200723078E+03  0.67486880554E+03  0.10100000352E+00 0. -1.
       -3    1    3    3    0  502  0.53706923056E+03  0.11547669502E+03  0.35676881477E+03  0.65502841381E+03  0.10100000352E+00 0.  1.
</event>
<event>
 5   0  0.1479573E-03  0.1111381E+04  0.7818609E-02  0.9194170E-01
        1   -1    0    0  501    0  0.00000000000E+00  0.00000000000E+00  0.17172672058E+03  0.17172672065E+03  0.50400001928E-02 0.  1.
       -1   -1    0    0    0  501  0.00000000000E+00  0.00000000000E+00 -0.17981593476E+04  0.17981593476E+04  0.50400001928E-02 0. -1.
    10030    2    1    2    0    0  0.00000000000E+00  0.00000000000E+00 -0.16264326271E+04  0.19698860683E+04  0.11113811370E+04 0.  0.
        4    1    3    3  502    0 -0.15963142778E+02  0.54806730300E+03 -0.65312611861E+03  0.85276487396E+03  0.12699999809E+01 0.  1.
       -4    1    3    3    0  502  0.15963142778E+02 -0.54806730300E+03 -0.97330650845E+03  0.11171211943E+04  0.12699999809E+01 0. -1.
</event>
<event>
 5   0  0.1479573E-03  0.1100481E+04  0.7818609E-02  0.9204724E-01
       -1   -1    0    0    0  501  0.00000000000E+00  0.00000000000E+00  0.75926070940E+03  0.75926070941E+03  0.50400001928E-02 0. -1.
        1   -1    0    0  501    0  0.00000000000E+00  0.00000000000E+00 -0.39876212258E+03  0.39876212261E+03  0.50400001928E-02 0.  1.
    10030    2    1    2    0    0  0.00000000000E+00  0.00000000000E+00  0.36049858682E+03  0.11580228320E+04  0.11004806443E+04 0.  0.
        4    1    3    3  502    0  0.35434969520E+03 -0.32702981280E+03 -0.98657899666E+02  0.49218614264E+03  0.12699999809E+01 0. -1.
       -4    1    3    3    0  502 -0.35434969520E+03  0.32702981280E+03  0.45915648648E+03  0.66583668938E+03  0.12699999809E+01 0.  1.
</event>
<event>
 5   0  0.2467448E-03  0.1094799E+04  0.7818609E-02  0.9210276E-01
        2   -1    0    0  501    0  0.00000000000E+00  0.00000000000E+00  0.19544226476E+04  0.19544226476E+04  0.25500000920E-02 0.  1.
       -2   -1    0    0    0  501  0.00000000000E+00  0.00000000000E+00 -0.15331709538E+03  0.15331709540E+03  0.25500000920E-02 0. -1.
    10030    2    1    2    0    0  0.00000000000E+00  0.00000000000E+00  0.18011055522E+04  0.21077397430E+04  0.10947993487E+04 0.  0.
        1    1    3    3  502    0  0.31091524046E+03 -0.44179922191E+03  0.10704924505E+04  0.11990867049E+04  0.50400001928E-02 0.  1.
       -1    1    3    3    0  502 -0.31091524046E+03  0.44179922191E+03  0.73061310166E+03  0.90865303805E+03  0.50400001928E-02 0. -1.
</event>
<event>
 5   0  0.2438115E-03  0.1103271E+04  0.7818609E-02  0.9202009E-01
       -2   -1    0    0    0  501  0.00000000000E+00  0.00000000000E+00  0.44395071696E+03  0.44395071697E+03  0.25500000920E-02 0.  1.
        2   -1    0    0  501    0  0.00000000000E+00  0.00000000000E+00 -0.68544049505E+03  0.68544049506E+03  0.25500000920E-02 0. -1.
    10030    2    1    2    0    0  0.00000000000E+00  0.00000000000E+00 -0.24148977809E+03  0.11293912120E+04  0.11032711348E+04 0.  0.
        4    1    3    3  502    0 -0.23380449869E+02  0.46077394531E+03 -0.43029604012E+03  0.63088475109E+03  0.12699999809E+01 0. -1.
       -4    1    3    3    0  502  0.23380449869E+02 -0.46077394531E+03  0.18880626203E+03  0.49850646094E+03  0.12699999809E+01 0.  1.
</event>
<event>
 5   0  0.1468556E-03  0.1102995E+04  0.7818609E-02  0.9202277E-01
        1   -1    0    0  501    0  0.00000000000E+00  0.00000000000E+00  0.54144721166E+03  0.54144721168E+03  0.50400001928E-02 0. -1.
       -1   -1    0    0    0  501  0.00000000000E+00  0.00000000000E+00 -0.56173478552E+03  0.56173478554E+03  0.50400001928E-02 0.  1.
    10030    2    1    2    0    0  0.00000000000E+00  0.00000000000E+00 -0.20287573860E+02  0.11031819972E+04  0.11029954367E+04 0.  0.
        5    1    3    3  502    0 -0.13116701470E+03  0.52930450112E+03 -0.92374496022E+02  0.55310322560E+03  0.46999998093E+01 0.  1.
       -5    1    3    3    0  502  0.13116701470E+03 -0.52930450112E+03  0.72086922162E+02  0.55007877163E+03  0.46999998093E+01 0. -1.
</event>
<event>
 5   0  0.2467448E-03  0.1077497E+04  0.7818609E-02  0.9227407E-01
        2   -1    0    0  501    0  0.00000000000E+00  0.00000000000E+00  0.45834374059E+03  0.45834374060E+03  0.25500000920E-02 0.  1.
       -2   -1    0    0    0  501  0.00000000000E+00  0.00000000000E+00 -0.63325767634E+03  0.63325767634E+03  0.25500000920E-02 0. -1.
    10030    2    1    2    0    0  0.00000000000E+00  0.00000000000E+00 -0.17491393575E+03  0.10916014169E+04  0.10774965283E+04 0.  0.
        1    1    3    3  502    0  0.62631894099E+02  0.36349875771E+03  0.31036081190E+03  0.48205594551E+03  0.50400001928E-02 0.  1.
       -1    1    3    3    0  502 -0.62631894099E+02 -0.36349875771E+03 -0.48527474765E+03  0.60954547143E+03  0.50400001928E-02 0. -1.
</event>
<event>
 5   0  0.2483036E-03  0.1126323E+04  0.7818609E-02  0.9179909E-01
        2   -1    0    0  501    0  0.00000000000E+00  0.00000000000E+00  0.15221137423E+04  0.15221137423E+04  0.25500000920E-02 0. -1.
       -2   -1    0    0    0  501  0.00000000000E+00  0.00000000000E+00 -0.20836213458E+03  0.20836213459E+03  0.25500000920E-02 0.  1.
    10030    2    1    2    0    0  0.00000000000E+00  0.00000000000E+00  0.13137516077E+04  0.17304758769E+04  0.11263229882E+04 0.  0.
        3    1    3    3  502    0  0.41446695337E+03  0.26781766256E+03  0.10738071149E+04  0.11817660031E+04  0.10100000352E+00 0. -1.
       -3    1    3    3    0  502 -0.41446695337E+03 -0.26781766256E+03  0.23994449286E+03  0.54870987386E+03  0.10100000352E+00 0.  1.
</event>
<event>
 5   0  0.1480937E-03  0.1099769E+04  0.7818609E-02  0.9205417E-01
       -1   -1    0    0    0  501  0.00000000000E+00  0.00000000000E+00  0.24543913661E+03  0.24543913667E+03  0.50400001928E-02 0. -1.
        1   -1    0    0  501    0  0.00000000000E+00  0.00000000000E+00 -0.12319679094E+04  0.12319679094E+04  0.50400001928E-02 0.  1.
    10030    2    1    2    0    0  0.00000000000E+00  0.00000000000E+00 -0.98652877280E+03  0.14774070461E+04  0.10997693214E+04 0.  0.
        1    1    3    3  502    0 -0.25508904256E+03  0.39785312677E+03 -0.11564436397E+03  0.48655025337E+03  0.50400001928E-02 0. -1.
       -1    1    3    3    0  502  0.25508904256E+03 -0.39785312677E+03 -0.87088440883E+03  0.99085679272E+03  0.50400001928E-02 0.  1.
</event>
<event>
 5   0  0.1479573E-03  0.1095114E+04  0.7818609E-02  0.9209967E-01
       -1   -1    0    0    0  501  0.00000000000E+00  0.00000000000E+00  0.37904218759E+03  0.37904218762E+03  0.50400001928E-02 0.  1.
        1   -1    0    0  501    0  0.00000000000E+00  0.00000000000E+00 -0.79099030539E+03  0.79099030541E+03  0.50400001928E-02 0. -1.
    10030    2    1    2    0    0  0.00000000000E+00  0.00000000000E+00 -0.41194811781E+03  0.11700324930E+04  0.10951140502E+04 0.  0.
        4    1    3    3  502    0  0.51977535480E+03 -0.77186906180E+02 -0.41519022780E+02  0.52711448481E+03  0.12699999809E+01 0. -1.
       -4    1    3    3    0  502 -0.51977535480E+03  0.77186906180E+02 -0.37042909503E+03  0.64291800821E+03  0.12699999809E+01 0.  1.
</event>
<event>
 5   0  0.1509004E-03  0.1093058E+04  0.7818609E-02  0.9211985E-01
        1   -1    0    0  501    0  0.00000000000E+00  0.00000000000E+00  0.47049614342E+03  0.47049614344E+03  0.50400001928E-02 0.  1.
       -1   -1    0    0    0  501  0.00000000000E+00  0.00000000000E+00 -0.63484863896E+03  0.63484863898E+03  0.50400001928E-02 0. -1.
    10030    2    1    2    0    0  0.00000000000E+00  0.00000000000E+00 -0.16435249555E+03  0.11053447824E+04  0.10930577959E+04 0.  0.
        3    1    3    3  502    0 -0.15314258119E+03 -0.44079147127E+03 -0.36988105433E+03  0.59545090131E+03  0.10100000352E+00 0. -1.
       -3    1    3    3    0  502  0.15314258119E+03  0.44079147127E+03  0.20552855879E+03  0.50989388111E+03  0.10100000352E+00 0.  1.
</event>
<event>
 5   0  0.1468556E-03  0.1095382E+04  0.7818609E-02  0.9209704E-01
        1   -1    0    0  501    0  0.00000000000E+00  0.00000000000E+00  0.23135241093E+03  0.23135241098E+03  0.50400001928E-02 0.  1.
       -1   -1    0    0    0  501  0.00000000000E+00  0.00000000000E+00 -0.12965740454E+04  0.12965740455E+04  0.50400001928E-02 0. -1.
    10030    2    1    2    0    0  0.00000000000E+00  0.00000000000E+00 -0.10652216345E+04  0.15279264564E+04  0.10953821825E+04 0.  0.
        5    1    3    3  502    0  0.11422432500E+03  0.35234679456E+03  0.30112075767E+02  0.37165075967E+03  0.46999998093E+01 0.  1.
       -5    1    3    3    0  502 -0.11422432500E+03 -0.35234679456E+03 -0.10953337103E+04  0.11562756968E+04  0.46999998093E+01 0. -1.
</event>
<event>
 5   0  0.9631750E-04  0.1095555E+04  0.7818609E-02  0.9209535E-01
        3   -1    0    0  501    0  0.00000000000E+00  0.00000000000E+00  0.29493587050E+03  0.29493588779E+03  0.10100000352E+00 0. -1.
       -3   -1    0    0    0  501  0.00000000000E+00  0.00000000000E+00 -0.10173738568E+04  0.10173738619E+04  0.10100000352E+00 0.  1.
    10030    2    1    2    0    0  0.00000000000E+00  0.00000000000E+00 -0.72243798634E+03  0.13123097496E+04  0.10955547613E+04 0.  0.
        3    1    3    3  502    0 -0.45407695939E+03 -0.14738788945E+03 -0.68297255437E+03  0.83328302228E+03  0.10100000352E+00 0.  1.
       -3    1    3    3    0  502  0.45407695939E+03  0.14738788945E+03 -0.39465431973E+02  0.47902672736E+03  0.10100000352E+00 0. -1.
</event>
<event>
 5   0  0.1509004E-03  0.1100528E+04  0.7818609E-02  0.9204677E-01
        1   -1    0    0  501    0  0.00000000000E+00  0.00000000000E+00  0.57065850612E+03  0.57065850615E+03  0.50400001928E-02 0. -1.
       -1   -1    0    0    0  501  0.00000000000E+00  0.00000000000E+00 -0.53059862421E+03  0.53059862423E+03  0.50400001928E-02 0.  1.
    10030    2    1    2    0    0  0.00000000000E+00  0.00000000000E+00  0.40059881916E+02  0.11012571304E+04  0.11005282700E+04 0.  0.
        3    1    3    3  502    0 -0.10559450878E+03  0.17327962657E+03  0.53185141271E+03  0.56924683985E+03  0.10100000352E+00 0. -1.
       -3    1    3    3    0  502  0.10559450878E+03 -0.17327962657E+03 -0.49179153080E+03  0.53201029053E+03  0.10100000352E+00 0.  1.
</event>
<event>
 5   0  0.2438115E-03  0.1098631E+04  0.7818609E-02  0.9206528E-01
        2   -1    0    0  501    0  0.00000000000E+00  0.00000000000E+00  0.16898006634E+04  0.16898006634E+04  0.25500000920E-02 0.  1.
       -2   -1    0    0    0  501  0.00000000000E+00  0.00000000000E+00 -0.17856973913E+03  0.17856973915E+03  0.25500000920E-02 0. -1.
    10030    2    1    2    0    0  0.00000000000E+00  0.00000000000E+00  0.15112309243E+04  0.18683704025E+04  0.10986305360E+04 0.  0.
        4    1    3    3  502    0  0.22296526378E+03  0.36740350425E+03  0.17379217678E+03  0.46357758509E+03  0.12699999809E+01 0. -1.
       -4    1    3    3    0  502 -0.22296526378E+03 -0.36740350425E+03  0.13374387475E+04  0.14047928175E+04  0.12699999809E+01 0.  1.
</event>
<event>
 5   0  0.2467448E-03  0.1115798E+04  0.7818609E-02  0.9189929E-01
       -2   -1    0    0    0  501  0.00000000000E+00  0.00000000000E+00  0.34776343348E+03  0.34776343349E+03  0.25500000920E-02 0. -1.
        2   -1    0    0  501    0  0.00000000000E+00  0.00000000000E+00 -0.89500914064E+03  0.89500914065E+03  0.25500000920E-02 0.  1.
    10030    2    1    2    0    0  0.00000000000E+00  0.00000000000E+00 -0.54724570716E+03  0.12427725741E+04  0.11157982824E+04 0.  0.
        1    1    3    3  502    0 -0.50180154631E+03 -0.51984358926E+02 -0.83046543765E+01  0.50455538126E+03  0.50400001928E-02 0.  1.
       -1    1    3    3    0  502  0.50180154631E+03  0.51984358926E+02 -0.53894105279E+03  0.73821719287E+03  0.50400001928E-02 0. -1.
</event>
<event>
 5   0  0.1415400E-03  0.1101543E+04  0.7818609E-02  0.9203689E-01
        1   -1    0    0  501    0  0.00000000000E+00  0.00000000000E+00  0.44166984644E+03  0.44166984647E+03  0.50400001928E-02 0.  1.
       -1   -1    0    0    0  501  0.00000000000E+00  0.00000000000E+00 -0.68682396148E+03  0.68682396149E+03  0.50400001928E-02 0. -1.
    10030    2    1    2    0    0  0.00000000000E+00  0.00000000000E+00 -0.24515411503E+03  0.11284938080E+04  0.11015433421E+04 0.  0.
        2    1    3    3  502    0 -0.33079343233E+03 -0.93427900531E+01  0.32846483809E+03  0.46626251454E+03  0.25500000920E-02 0.  1.
       -2    1    3    3    0  502  0.33079343233E+03  0.93427900531E+01 -0.57361895312E+03  0.66223129342E+03  0.25500000920E-02 0. -1.
</event>
<event>
 5   0  0.2392585E-03  0.1100270E+04  0.7818609E-02  0.9204928E-01
        2   -1    0    0  501    0  0.00000000000E+00  0.00000000000E+00  0.50508319059E+03  0.50508319060E+03  0.25500000920E-02 0.  1.
       -2   -1    0    0    0  501  0.00000000000E+00  0.00000000000E+00 -0.59920563737E+03  0.59920563738E+03  0.25500000920E-02 0. -1.
    10030    2    1    2    0    0  0.00000000000E+00  0.00000000000E+00 -0.94122446775E+02  0.11042888280E+04  0.11002703216E+04 0.  0.
        5    1    3    3  502    0 -0.10727685509E+03  0.39721309782E+03  0.31942998806E+03  0.52090707040E+03  0.46999998093E+01 0.  1.
       -5    1    3    3    0  502  0.10727685509E+03 -0.39721309782E+03 -0.41355243484E+03  0.58338175758E+03  0.46999998093E+01 0. -1.
</event>
<event>
 5   0  0.1415400E-03  0.1093101E+04  0.7818609E-02  0.9211943E-01
        1   -1    0    0  501    0  0.00000000000E+00  0.00000000000E+00  0.84627016495E+03  0.84627016497E+03  0.50400001928E-02 0. -1.
       -1   -1    0    0    0  501  0.00000000000E+00  0.00000000000E+00 -0.35298104867E+03  0.35298104871E+03  0.50400001928E-02 0.  1.
    10030    2    1    2    0    0  0.00000000000E+00  0.00000000000E+00  0.49328911628E+03  0.11992512137E+04  0.10931007828E+04 0.  0.
        2    1    3    3  502    0  0.47032415968E+03  0.26220081086E+03  0.14394169285E+03  0.55738074181E+03  0.25500000920E-02 0. -1.
       -2    1    3    3    0  502 -0.47032415968E+03 -0.26220081086E+03  0.34934742343E+03  0.64187047187E+03  0.25500000920E-02 0.  1.
</event>
<event>
 5   0  0.2488472E-03  0.1090067E+04  0.7818609E-02  0.9214927E-01
        2   -1    0    0  501    0  0.00000000000E+00  0.00000000000E+00  0.12187175463E+04  0.12187175463E+04  0.25500000920E-02 0. -1.
       -2   -1    0    0    0  501  0.00000000000E+00  0.00000000000E+00 -0.24374942874E+03  0.24374942875E+03  0.25500000920E-02 0.  1.
    10030    2    1    2    0    0  0.00000000000E+00  0.00000000000E+00  0.97496811756E+03  0.14624669750E+04  0.10900673478E+04 0.  0.
        2    1    3    3  502    0 -0.47107287127E+03  0.26748831522E+03  0.40696327014E+03  0.67755350496E+03  0.25500000920E-02 0.  1.
       -2    1    3    3    0  502  0.47107287127E+03 -0.26748831522E+03  0.56800484742E+03  0.78491347009E+03  0.25500000920E-02 0. -1.
</event>
<event>
 5   0  0.2483036E-03  0.1079831E+04  0.7818609E-02  0.9225076E-01
       -2   -1    0    0    0  501  0.00000000000E+00  0.00000000000E+00  0.65610915867E+03  0.65610915867E+03  0.25500000920E-02 0. -1.
        2   -1    0    0  501    0  0.00000000000E+00  0.00000000000E+00 -0.44429938484E+03  0.44429938485E+03  0.25500000920E-02 0.  1.
    10030    2    1    2    0    0  0.00000000000E+00  0.00000000000E+00  0.21180977383E+03  0.11004085435E+04  0.10798312750E+04 0.  0.
        3    1    3    3  502    0 -0.11019463472E+03  0.26755866816E+03 -0.35860850270E+03  0.46079341015E+03  0.10100000352E+00 0.  1.
       -3    1    3    3    0  502  0.11019463472E+03 -0.26755866816E+03  0.57041827653E+03  0.63961513337E+03  0.10100000352E+00 0. -1.
</event>
<event>
 5   0  0.9631750E-04  0.1093588E+04  0.7818609E-02  0.9211464E-01
        3   -1    0    0  501    0  0.00000000000E+00  0.00000000000E+00  0.50925616960E+03  0.50925617961E+03  0.10100000352E+00 0.  1.
       -3   -1    0    0    0  501  0.00000000000E+00  0.00000000000E+00 -0.58709881542E+03  0.58709882411E+03  0.10100000352E+00 0. -1.
    10030    2    1    2    0    0  0.00000000000E+00  0.00000000000E+00 -0.77842645824E+02  0.10963550037E+04  0.10935880471E+04 0.  0.
        4    1    3    3  502    0  0.15940327307E+03 -0.22732977591E+03  0.43332663826E+03  0.51464727611E+03  0.12699999809E+01 0.  1.
       -4    1    3    3    0  502 -0.15940327307E+03  0.22732977591E+03 -0.51116928409E+03  0.58170772762E+03  0.12699999809E+01 0. -1.
</event>
<event>
 5   0  0.2467448E-03  0.1082267E+04  0.7818609E-02  0.9222650E-01
       -2   -1    0    0    0  501  0.00000000000E+00  0.00000000000E+00  0.18697313409E+03  0.18697313411E+03  0.25500000920E-02 0. -1.
        2   -1    0    0  501    0  0.00000000000E+00  0.00000000000E+00 -0.15661372136E+04  0.15661372136E+04  0.25500000920E-02 0.  1.
    10030    2    1    2    0    0  0.00000000000E+00  0.00000000000E+00 -0.13791640796E+04  0.17531103478E+04  0.10822672189E+04 0.  0.
        1    1    3    3  502    0 -0.18973565882E+03  0.54970196159E+02 -0.15056459764E+04  0.15185490275E+04  0.50400001928E-02 0.  1.
       -1    1    3    3    0  502  0.18973565882E+03 -0.54970196159E+02  0.12648189685E+03  0.23456132023E+03  0.50400001928E-02 0. -1.
</event>
<event>
 5   0  0.2438115E-03  0.1153613E+04  0.7818609E-02  0.9154457E-01
        2   -1    0    0  501    0  0.00000000000E+00  0.00000000000E+00  0.11556792816E+04  0.11556792816E+04  0.25500000920E-02 0.  1.
       -2   -1    0    0    0  501  0.00000000000E+00  0.00000000000E+00 -0.28788745902E+03  0.28788745903E+03  0.25500000920E-02 0. -1.
    10030    2    1    2    0    0  0.00000000000E+00  0.00000000000E+00  0.86779182257E+03  0.14435667406E+04  0.11536127111E+04 0.  0.
        4    1    3    3  502    0 -0.95591036297E+02 -0.39694896213E+03  0.94372903216E+03  0.10282666112E+04  0.12699999809E+01 0.  1.
       -4    1    3    3    0  502  0.95591036297E+02  0.39694896213E+03 -0.75937209594E+02  0.41530012938E+03  0.12699999809E+01 0. -1.
</event>
<event>
 5   0  0.1468556E-03  0.1102951E+04  0.7818609E-02  0.9202320E-01
        1   -1    0    0  501    0  0.00000000000E+00  0.00000000000E+00  0.41804658605E+03  0.41804658608E+03  0.50400001928E-02 0.  1.
       -1   -1    0    0    0  501  0.00000000000E+00  0.00000000000E+00 -0.72749136283E+03  0.72749136284E+03  0.50400001928E-02 0. -1.
    10030    2    1    2    0    0  0.00000000000E+00  0.00000000000E+00 -0.30944477678E+03  0.11455379489E+04  0.11029510971E+04 0.  0.
        5    1    3    3  502    0 -0.11282925521E+03  0.48310452516E+03  0.95371278522E+02  0.50521103890E+03  0.46999998093E+01 0.  1.
       -5    1    3    3    0  502  0.11282925521E+03 -0.48310452516E+03 -0.40481605530E+03  0.64032691002E+03  0.46999998093E+01 0. -1.
</event>
<event>
 5   0  0.1415400E-03  0.1103182E+04  0.7818609E-02  0.9202096E-01
        1   -1    0    0  501    0  0.00000000000E+00  0.00000000000E+00  0.10250473112E+04  0.10250473112E+04  0.50400001928E-02 0.  1.
       -1   -1    0    0    0  501  0.00000000000E+00  0.00000000000E+00 -0.29681816200E+03  0.29681816204E+03  0.50400001928E-02 0. -1.
    10030    2    1    2    0    0  0.00000000000E+00  0.00000000000E+00  0.72822914919E+03  0.13218654732E+04  0.11031820501E+04 0.  0.
        2    1    3    3  502    0 -0.28413789148E+03  0.36280922203E+03  0.89523382414E+00  0.46083150328E+03  0.25500000920E-02 0. -1.
       -2    1    3    3    0  502  0.28413789148E+03 -0.36280922203E+03  0.72733391537E+03  0.86103396996E+03  0.25500000920E-02 0.  1.
</event>
<event>
 5   0  0.1468556E-03  0.1101050E+04  0.7818609E-02  0.9204169E-01
       -1   -1    0    0    0  501  0.00000000000E+00  0.00000000000E+00  0.73495911124E+03  0.73495911126E+03  0.50400001928E-02 0.  1.
        1   -1    0    0  501    0  0.00000000000E+00  0.00000000000E+00 -0.41237349500E+03  0.41237349503E+03  0.50400001928E-02 0. -1.
    10030    2    1    2    0    0  0.00000000000E+00  0.00000000000E+00  0.32258561624E+03  0.11473326063E+04  0.11010497853E+04 0.  0.
        5    1    3    3  502    0 -0.21541089677E+03  0.42188061501E+03 -0.13097987286E+03  0.49149051350E+03  0.46999998093E+01 0.  1.
       -5    1    3    3    0  502  0.21541089677E+03 -0.42188061501E+03  0.45356548911E+03  0.65584209279E+03  0.46999998093E+01 0. -1.
</event>
<event>
 5   0  0.2483036E-03  0.1057287E+04  0.7818609E-02  0.9247853E-01
       -2   -1    0    0    0  501  0.00000000000E+00  0.00000000000E+00  0.28899952226E+03  0.28899952227E+03  0.25500000920E-02 0. -1.
        2   -1    0    0  501    0  0.00000000000E+00  0.00000000000E+00 -0.96700424946E+03  0.96700424946E+03  0.25500000920E-02 0.  1.
    10030    2    1    2    0    0  0.00000000000E+00  0.00000000000E+00 -0.67800472720E+03  0.12560037717E+04  0.10572866520E+04 0.  0.
        3    1    3    3  502    0 -0.16403794211E+03 -0.35279820844E+03 -0.76416359879E+03  0.85750862284E+03  0.10100000352E+00 0.  1.
       -3    1    3    3    0  502  0.16403794211E+03  0.35279820844E+03  0.86158871594E+02  0.39849514889E+03  0.10100000352E+00 0. -1.
</event>
<event>
 5   0  0.2488472E-03  0.1101433E+04  0.7818609E-02  0.9203796E-01
        2   -1    0    0  501    0  0.00000000000E+00  0.00000000000E+00  0.16669794653E+04  0.16669794653E+04  0.25500000920E-02 0.  1.
       -2   -1    0    0    0  501  0.00000000000E+00  0.00000000000E+00 -0.18193918902E+03  0.18193918904E+03  0.25500000920E-02 0. -1.
    10030    2    1    2    0    0  0.00000000000E+00  0.00000000000E+00  0.14850402763E+04  0.18489186543E+04  0.11014334152E+04 0.  0.
        2    1    3    3  502    0 -0.19331817815E+03  0.44999379112E+03  0.31977224965E+03  0.58491078097E+03  0.25500000920E-02 0. -1.
       -2    1    3    3    0  502  0.19331817815E+03 -0.44999379112E+03  0.11652680266E+04  0.12640078734E+04  0.25500000920E-02 0.  1.
</event>
<event>
 5   0  0.2392585E-03  0.1105355E+04  0.7818609E-02  0.9199988E-01
        2   -1    0    0  501    0  0.00000000000E+00  0.00000000000E+00  0.10345331026E+04  0.10345331026E+04  0.25500000920E-02 0. -1.
       -2   -1    0    0    0  501  0.00000000000E+00  0.00000000000E+00 -0.29525621374E+03  0.29525621375E+03  0.25500000920E-02 0.  1.
    10030    2    1    2    0    0  0.00000000000E+00  0.00000000000E+00  0.73927688888E+03  0.13297893164E+04  0.11053548333E+04 0.  0.
        5    1    3    3  502    0  0.11156629199E+03  0.51785703473E+03  0.55912168132E+03  0.77023508778E+03  0.46999998093E+01 0. -1.
       -5    1    3    3    0  502 -0.11156629199E+03 -0.51785703473E+03  0.18015520756E+03  0.55955422860E+03  0.46999998093E+01 0.  1.
</event>
<event>
 5   0  0.1479573E-03  0.1098439E+04  0.7818609E-02  0.9206715E-01
       -1   -1    0    0    0  501  0.00000000000E+00  0.00000000000E+00  0.20443922238E+03  0.20443922244E+03  0.50400001928E-02 0.  1.
        1   -1    0    0  501    0  0.00000000000E+00  0.00000000000E+00 -0.14754596660E+04  0.14754596660E+04  0.50400001928E-02 0. -1.
    10030    2    1    2    0    0  0.00000000000E+00  0.00000000000E+00 -0.12710204436E+04  0.16798988884E+04  0.10984385769E+04 0.  0.
        4    1    3    3  502    0  0.19683865186E+03  0.37597495423E+03 -0.10234393390E+03  0.43655299195E+03  0.12699999809E+01 0.  1.
       -4    1    3    3    0  502 -0.19683865186E+03 -0.37597495423E+03 -0.11686765097E+04  0.12433458965E+04  0.12699999809E+01 0. -1.
</event>
<event>
 5   0  0.1480937E-03  0.1102997E+04  0.7818609E-02  0.9202276E-01
       -1   -1    0    0    0  501  0.00000000000E+00  0.00000000000E+00  0.40609655120E+03  0.40609655123E+03  0.50400001928E-02 0.  1.
        1   -1    0    0  501    0  0.00000000000E+00  0.00000000000E+00 -0.74896085953E+03  0.74896085954E+03  0.50400001928E-02 0. -1.
    10030    2    1    2    0    0  0.00000000000E+00  0.00000000000E+00 -0.34286430832E+03  0.11550574108E+04  0.11029966855E+04 0.  0.
        1    1    3    3  502    0  0.10636555500E+03  0.15946690906E+02  0.39500734758E+03  0.40938824227E+03  0.50400001928E-02 0.  1.
       -1    1    3    3    0  502 -0.10636555500E+03 -0.15946690906E+02 -0.73787165591E+03  0.74566916850E+03  0.50400001928E-02 0. -1.
</event>
<event>
 5   0  0.2488472E-03  0.1105930E+04  0.7818609E-02  0.9199431E-01
       -2   -1    0    0    0  501  0.00000000000E+00  0.00000000000E+00  0.16604642516E+03  0.16604642518E+03  0.25500000920E-02 0. -1.
        2   -1    0    0  501    0  0.00000000000E+00  0.00000000000E+00 -0.18414760424E+04  0.18414760424E+04  0.25500000920E-02 0.  1.
    10030    2    1    2    0    0  0.00000000000E+00  0.00000000000E+00 -0.16754296172E+04  0.20075224675E+04  0.11059304026E+04 0.  0.
        2    1    3    3  502    0  0.44295448948E+03  0.10027722689E+03 -0.14103234953E+04  0.14816465717E+04  0.25500000920E-02 0.  1.
       -2    1    3    3    0  502 -0.44295448948E+03 -0.10027722689E+03 -0.26510612194E+03  0.52587589589E+03  0.25500000920E-02 0. -1.
</event>
<event>
 5   0  0.9631750E-04  0.1095221E+04  0.7818609E-02  0.9209862E-01
       -3   -1    0    0    0  501  0.00000000000E+00  0.00000000000E+00  0.10407667733E+04  0.10407667782E+04  0.10100000352E+00 0.  1.
        3   -1    0    0  501    0  0.00000000000E+00  0.00000000000E+00 -0.28813125006E+03  0.28813126776E+03  0.10100000352E+00 0. -1.
    10030    2    1    2    0    0  0.00000000000E+00  0.00000000000E+00  0.75263552324E+03  0.13288980460E+04  0.10952213410E+04 0.  0.
        4    1    3    3  502    0 -0.45975500689E+03 -0.12287647898E+02  0.15661491730E+02  0.46018751382E+03  0.12699999809E+01 0. -1.
       -4    1    3    3    0  502  0.45975500689E+03  0.12287647898E+02  0.73697403151E+03  0.86871053215E+03  0.12699999809E+01 0.  1.
</event>
<event>
 5   0  0.1479573E-03  0.1098434E+04  0.7818609E-02  0.9206720E-01
       -1   -1    0    0    0  501  0.00000000000E+00  0.00000000000E+00  0.14976111131E+03  0.14976111140E+03  0.50400001928E-02 0. -1.
        1   -1    0    0  501    0  0.00000000000E+00  0.00000000000E+00 -0.20141352710E+04  0.20141352710E+04  0.50400001928E-02 0.  1.
    10030    2    1    2    0    0  0.00000000000E+00  0.00000000000E+00 -0.18643741597E+04  0.21638963824E+04  0.10984336787E+04 0.  0.
        4    1    3    3  502    0  0.29394033490E+02 -0.12911940297E+03  0.11783766205E+03  0.17726578047E+03  0.12699999809E+01 0. -1.
       -4    1    3    3    0  502 -0.29394033490E+02  0.12911940297E+03 -0.19822118217E+04  0.19866306019E+04  0.12699999809E+01 0.  1.
</event>
<event>
 5   0  0.2438115E-03  0.1100944E+04  0.7818609E-02  0.9204272E-01
       -2   -1    0    0    0  501  0.00000000000E+00  0.00000000000E+00  0.28097768085E+03  0.28097768087E+03  0.25500000920E-02 0.  1.
        2   -1    0    0  501    0  0.00000000000E+00  0.00000000000E+00 -0.10784467069E+04  0.10784467069E+04  0.25500000920E-02 0. -1.
    10030    2    1    2    0    0  0.00000000000E+00  0.00000000000E+00 -0.79746902603E+03  0.13594243877E+04  0.11009440579E+04 0.  0.
        4    1    3    3  502    0  0.46820656834E+03  0.26730310182E+03 -0.26151542064E+03  0.59921637746E+03  0.12699999809E+01 0.  1.
       -4    1    3    3    0  502 -0.46820656834E+03 -0.26730310182E+03 -0.53595360539E+03  0.76020801029E+03  0.12699999809E+01 0. -1.
</event>
<event>
 5   0  0.1468556E-03  0.1098218E+04  0.7818609E-02  0.9206930E-01
       -1   -1    0    0    0  501  0.00000000000E+00  0.00000000000E+00  0.69157928075E+03  0.69157928077E+03  0.50400001928E-02 0.  1.
        1   -1    0    0  501    0  0.00000000000E+00  0.00000000000E+00 -0.43598868716E+03  0.43598868719E+03  0.50400001928E-02 0. -1.
    10030    2    1    2    0    0  0.00000000000E+00  0.00000000000E+00  0.25559059359E+03  0.11275679680E+04  0.10982180889E+04 0.  0.
        5    1    3    3  502    0  0.16811022843E+03 -0.67283464663E+02 -0.40443119425E+03  0.44314195739E+03  0.46999998093E+01 0. -1.
       -5    1    3    3    0  502 -0.16811022843E+03  0.67283464663E+02  0.66002178784E+03  0.68442601057E+03  0.46999998093E+01 0.  1.
</event>
<event>
 5   0  0.2483036E-03  0.1103094E+04  0.7818609E-02  0.9202181E-01
        2   -1    0    0  501    0  0.00000000000E+00  0.00000000000E+00  0.10122076757E+04  0.10122076757E+04  0.25500000920E-02 0.  1.
       -2   -1    0    0    0  501  0.00000000000E+00  0.00000000000E+00 -0.30053537220E+03  0.30053537221E+03  0.25500000920E-02 0. -1.
    10030    2    1    2    0    0  0.00000000000E+00  0.00000000000E+00  0.71167230350E+03  0.13127430479E+04  0.11030942128E+04 0.  0.
        3    1    3    3  502    0  0.50336390462E+03  0.15615798489E+03  0.54935707759E+03  0.76128427385E+03  0.10100000352E+00 0.  1.
       -3    1    3    3    0  502 -0.50336390462E+03 -0.15615798489E+03  0.16231522591E+03  0.55145877406E+03  0.10100000352E+00 0. -1.
</event>
<event>
 5   0  0.2467448E-03  0.1072389E+04  0.7818609E-02  0.9232529E-01
        2   -1    0    0  501    0  0.00000000000E+00  0.00000000000E+00  0.12352330983E+04  0.12352330983E+04  0.25500000920E-02 0.  1.
       -2   -1    0    0    0  501  0.00000000000E+00  0.00000000000E+00 -0.23275338000E+03  0.23275338001E+03  0.25500000920E-02 0. -1.
    10030    2    1    2    0    0  0.00000000000E+00  0.00000000000E+00  0.10024797183E+04  0.14679864783E+04  0.10723892553E+04 0.  0.
        1    1    3    3  502    0 -0.49958378326E+03 -0.12137318529E+03  0.70969526378E+03  0.87634626380E+03  0.50400001928E-02 0.  1.
       -1    1    3    3    0  502  0.49958378326E+03  0.12137318529E+03  0.29278445454E+03  0.59164021453E+03  0.50400001928E-02 0. -1.
</event>
<event>
 5   0  0.1480937E-03  0.1105616E+04  0.7818609E-02  0.9199735E-01
        1   -1    0    0  501    0  0.00000000000E+00  0.00000000000E+00  0.50559272714E+03  0.50559272716E+03  0.50400001928E-02 0.  1.
       -1   -1    0    0    0  501  0.00000000000E+00  0.00000000000E+00 -0.60443270598E+03  0.60443270600E+03  0.50400001928E-02 0. -1.
    10030    2    1    2    0    0  0.00000000000E+00  0.00000000000E+00 -0.98839978847E+02  0.11100254332E+04  0.11056161725E+04 0.  0.
        1    1    3    3  502    0  0.20425247133E+03  0.35800727522E+03 -0.41927548008E+03  0.58794575377E+03  0.50400001928E-02 0. -1.
       -1    1    3    3    0  502 -0.20425247133E+03 -0.35800727522E+03  0.32043550123E+03  0.52207967939E+03  0.50400001928E-02 0.  1.
</event>
<event>
 5   0  0.9631750E-04  0.1097947E+04  0.7818609E-02  0.9207195E-01
        3   -1    0    0  501    0  0.00000000000E+00  0.00000000000E+00  0.56132495243E+03  0.56132496152E+03  0.10100000352E+00 0. -1.
       -3   -1    0    0    0  501  0.00000000000E+00  0.00000000000E+00 -0.53689403069E+03  0.53689404019E+03  0.10100000352E+00 0.  1.
    10030    2    1    2    0    0  0.00000000000E+00  0.00000000000E+00  0.24430921746E+02  0.10982190017E+04  0.10979472236E+04 0.  0.
        5    1    3    3  502    0  0.52013315267E+03  0.10996349855E+03  0.14906843836E+03  0.55215392494E+03  0.46999998093E+01 0. -1.
       -5    1    3    3    0  502 -0.52013315267E+03 -0.10996349855E+03 -0.12463751662E+03  0.54606507676E+03  0.46999998093E+01 0.  1.
</event>
<event>
 5   0  0.1415400E-03  0.1091416E+04  0.7818609E-02  0.9213599E-01
       -1   -1    0    0    0  501  0.00000000000E+00  0.00000000000E+00  0.15981672788E+03  0.15981672795E+03  0.50400001928E-02 0. -1.
        1   -1    0    0  501    0  0.00000000000E+00  0.00000000000E+00 -0.18633658470E+04  0.18633658470E+04  0.50400001928E-02 0.  1.
    10030    2    1    2    0    0  0.00000000000E+00  0.00000000000E+00 -0.17035491191E+04  0.20231825749E+04  0.10914156543E+04 0.  0.
        2    1    3    3  502    0  0.49076671761E+03 -0.23768978752E+03 -0.81251121431E+03  0.97853098040E+03  0.25500000920E-02 0.  1.
       -2    1    3    3    0  502 -0.49076671761E+03  0.23768978752E+03 -0.89103790479E+03  0.10446515945E+04  0.25500000920E-02 0. -1.
</event>
<event>
 5   0  0.1479573E-03  0.1093340E+04  0.7818609E-02  0.9211707E-01
        1   -1    0    0  501    0  0.00000000000E+00  0.00000000000E+00  0.86437663785E+03  0.86437663787E+03  0.50400001928E-02 0.  1.
       -1   -1    0    0    0  501  0.00000000000E+00  0.00000000000E+00 -0.34573856139E+03  0.34573856143E+03  0.50400001928E-02 0. -1.
    10030    2    1    2    0    0  0.00000000000E+00  0.00000000000E+00  0.51863807646E+03  0.12101151993E+04  0.10933404507E+04 0.  0.
        4    1    3    3  502    0  0.53815613864E+03  0.53150491730E+01  0.15312081854E+03  0.55954256074E+03  0.12699999809E+01 0.  1.
       -4    1    3    3    0  502 -0.53815613864E+03 -0.53150491730E+01  0.36551725792E+03  0.65057263856E+03  0.12699999809E+01 0. -1.
</event>
<event>
 5   0  0.1479573E-03  0.1096540E+04  0.7818609E-02  0.9208571E-01
       -1   -1    0    0    0  501  0.00000000000E+00  0.00000000000E+00  0.41441376553E+03  0.41441376556E+03  0.50400001928E-02 0.  1.
        1   -1    0    0  501    0  0.00000000000E+00  0.00000000000E+00 -0.72536175878E+03  0.72536175880E+03  0.50400001928E-02 0. -1.
    10030    2    1    2    0    0  0.00000000000E+00  0.00000000000E+00 -0.31094799325E+03  0.11397755244E+04  0.10965398266E+04 0.  0.
        4    1    3    3  502    0  0.24055433274E+03 -0.49136526194E+03 -0.11811121793E+03  0.55969463133E+03  0.12699999809E+01 0.  1.
       -4    1    3    3    0  502 -0.24055433274E+03  0.49136526194E+03 -0.19283677533E+03  0.58008089303E+03  0.12699999809E+01 0. -1.
</event>
<event>
 5   0  0.1480937E-03  0.1098432E+04  0.7818609E-02  0.9206721E-01
       -1   -1    0    0    0  501  0.00000000000E+00  0.00000000000E+00  0.31340174065E+03  0.31340174069E+03  0.50400001928E-02 0.  1.
        1   -1    0    0  501    0  0.00000000000E+00  0.00000000000E+00 -0.96246584746E+03  0.96246584747E+03  0.50400001928E-02 0. -1.
    10030    2    1    2    0    0  0.00000000000E+00  0.00000000000E+00 -0.64906410681E+03  0.12758675882E+04  0.10984324685E+04 0.  0.
        1    1    3    3  502    0  0.10785445619E+03 -0.37000346000E+03 -0.77902229030E+03  0.86914375850E+03  0.50400001928E-02 0. -1.
       -1    1    3    3    0  502 -0.10785445619E+03  0.37000346000E+03  0.12995818349E+03  0.40672382966E+03  0.50400001928E-02 0.  1.
</event>
<event>
 5   0  0.2392585E-03  0.1108372E+04  0.7818609E-02  0.9197070E-01
       -2   -1    0    0    0  501  0.00000000000E+00  0.00000000000E+00  0.33321991175E+03  0.33321991176E+03  0.25500000920E-02 0. -1.
        2   -1    0    0  501    0  0.00000000000E+00  0.00000000000E+00 -0.92168064571E+03  0.92168064572E+03  0.25500000920E-02 0.  1.
    10030    2    1    2    0    0  0.00000000000E+00  0.00000000000E+00 -0.58846073396E+03  0.12549005575E+04  0.11083723985E+04 0.  0.
        5    1    3    3  502    0  0.18323209184E+02 -0.54734119173E+03 -0.39018155143E+03  0.67244468414E+03  0.46999998093E+01 0.  1.
       -5    1    3    3    0  502 -0.18323209184E+02  0.54734119173E+03 -0.19827918254E+03  0.58245587333E+03  0.46999998093E+01 0. -1.
</event>
<event>
 5   0  0.2488472E-03  0.1105540E+04  0.7818609E-02  0.9199809E-01
       -2   -1    0    0    0  501  0.00000000000E+00  0.00000000000E+00  0.16380496439E+03  0.16380496441E+03  0.25500000920E-02 0. -1.
        2   -1    0    0  501    0  0.00000000000E+00  0.00000000000E+00 -0.18653578069E+04  0.18653578069E+04  0.25500000920E-02 0.  1.
    10030    2    1    2    0    0  0.00000000000E+00  0.00000000000E+00 -0.17015528425E+04  0.20291627713E+04  0.11055403550E+04 0.  0.
        2    1    3    3  502    0 -0.12379718200E+03 -0.50011347138E+03 -0.12183964482E+04  0.13228488695E+04  0.25500000920E-02 0.  1.
       -2    1    3    3    0  502  0.12379718200E+03  0.50011347138E+03 -0.48315639428E+03  0.70631390179E+03  0.25500000920E-02 0. -1.
</event>
<event>
 5   0  0.1415400E-03  0.1093772E+04  0.7818609E-02  0.9211284E-01
        1   -1    0    0  501    0  0.00000000000E+00  0.00000000000E+00  0.12359293134E+04  0.12359293134E+04  0.50400001928E-02 0.  1.
       -1   -1    0    0    0  501  0.00000000000E+00  0.00000000000E+00 -0.24199130053E+03  0.24199130058E+03  0.50400001928E-02 0. -1.
    10030    2    1    2    0    0  0.00000000000E+00  0.00000000000E+00  0.99393801291E+03  0.14779206140E+04  0.10937717165E+04 0.  0.
        2    1    3    3  502    0  0.36292079995E+03 -0.18306639779E+03  0.26028413905E+01  0.40648688518E+03  0.25500000920E-02 0. -1.
       -2    1    3    3    0  502 -0.36292079995E+03  0.18306639779E+03  0.99133517152E+03  0.10714337289E+04  0.25500000920E-02 0.  1.
</event>
<event>
 5   0  0.1479573E-03  0.1096395E+04  0.7818609E-02  0.9208712E-01
        1   -1    0    0  501    0  0.00000000000E+00  0.00000000000E+00  0.14861825282E+04  0.14861825282E+04  0.50400001928E-02 0.  1.
       -1   -1    0    0    0  501  0.00000000000E+00  0.00000000000E+00 -0.20220983192E+03  0.20220983198E+03  0.50400001928E-02 0. -1.
    10030    2    1    2    0    0  0.00000000000E+00  0.00000000000E+00  0.12839726962E+04  0.16883923602E+04  0.10963954018E+04 0.  0.
        4    1    3    3  502    0 -0.27823327512E+03  0.22351621504E+03  0.12015213233E+01  0.35689817921E+03  0.12699999809E+01 0. -1.
       -4    1    3    3    0  502  0.27823327512E+03 -0.22351621504E+03  0.12827711749E+04  0.13314941809E+04  0.12699999809E+01 0.  1.
</event>
<event>
 5   0  0.1509004E-03  0.1099255E+04  0.7818609E-02  0.9205918E-01
       -1   -1    0    0    0  501  0.00000000000E+00  0.00000000000E+00  0.44028520676E+03  0.44028520678E+03  0.50400001928E-02 0.  1.
        1   -1    0    0  501    0  0.00000000000E+00  0.00000000000E+00 -0.68612476438E+03  0.68612476440E+03  0.50400001928E-02 0. -1.
    10030    2    1    2    0    0  0.00000000000E+00  0.00000000000E+00 -0.24583955763E+03  0.11264099712E+04  0.10992553548E+04 0.  0.
        3    1    3    3  502    0  0.53427797555E+03 -0.11792705212E+03 -0.69371547269E+02  0.55151805642E+03  0.10100000352E+00 0.  1.
       -3    1    3    3    0  502 -0.53427797555E+03  0.11792705212E+03 -0.17646801036E+03  0.57489191477E+03  0.10100000352E+00 0. -1.
</event>
<event>
 5   0  0.1480937E-03  0.1094934E+04  0.7818609E-02  0.9210143E-01
        1   -1    0    0  501    0  0.00000000000E+00  0.00000000000E+00  0.40322911915E+03  0.40322911918E+03  0.50400001928E-02 0.  1.
       -1   -1    0    0    0  501  0.00000000000E+00  0.00000000000E+00 -0.74330010184E+03  0.74330010185E+03  0.50400001928E-02 0. -1.
    10030    2    1    2    0    0  0.00000000000E+00  0.00000000000E+00 -0.34007098269E+03  0.11465292210E+04  0.10949342361E+04 0.  0.
        1    1    3    3  502    0 -0.60850229053E+02  0.27851015607E+03 -0.65944534308E+03  0.71842801862E+03  0.50400001928E-02 0. -1.
       -1    1    3    3    0  502  0.60850229053E+02 -0.27851015607E+03  0.31937436038E+03  0.42810120241E+03  0.50400001928E-02 0.  1.
</event>
<event>
 5   0  0.1415400E-03  0.1054002E+04  0.7818609E-02  0.9251222E-01
       -1   -1    0    0    0  501  0.00000000000E+00  0.00000000000E+00  0.54793543305E+03  0.54793543307E+03  0.50400001928E-02 0.  1.
        1   -1    0    0  501    0  0.00000000000E+00  0.00000000000E+00 -0.50686597400E+03  0.50686597402E+03  0.50400001928E-02 0. -1.
    10030    2    1    2    0    0  0.00000000000E+00  0.00000000000E+00  0.41069459051E+02  0.10548014071E+04  0.10540015692E+04 0.  0.
        2    1    3    3  502    0  0.12052295548E+03 -0.47876635761E+01 -0.49286638889E+03  0.50741105804E+03  0.25500000920E-02 0. -1.
       -2    1    3    3    0  502 -0.12052295548E+03  0.47876635761E+01  0.53393584794E+03  0.54739034905E+03  0.25500000920E-02 0.  1.
</event>
<event>
 5   0  0.1479573E-03  0.1103798E+04  0.7818609E-02  0.9201498E-01
       -1   -1    0    0    0  501  0.00000000000E+00  0.00000000000E+00  0.28324298377E+03  0.28324298382E+03  0.50400001928E-02 0. -1.
        1   -1    0    0  501    0  0.00000000000E+00  0.00000000000E+00 -0.10753757572E+04  0.10753757572E+04  0.50400001928E-02 0.  1.
    10030    2    1    2    0    0  0.00000000000E+00  0.00000000000E+00 -0.79213277346E+03  0.13586187411E+04  0.11037982392E+04 0.  0.
        4    1    3    3  502    0  0.61696055286E+02  0.54633489851E+03 -0.45513218572E+03  0.71374725495E+03  0.12699999809E+01 0. -1.
       -4    1    3    3    0  502 -0.61696055286E+02 -0.54633489851E+03 -0.33700058774E+03  0.64487148612E+03  0.12699999809E+01 0.  1.
</event>
<event>
 5   0  0.1509004E-03  0.1110384E+04  0.7818609E-02  0.9195130E-01
       -1   -1    0    0    0  501  0.00000000000E+00  0.00000000000E+00  0.36505761444E+03  0.36505761447E+03  0.50400001928E-02 0. -1.
        1   -1    0    0  501    0  0.00000000000E+00  0.00000000000E+00 -0.84435430196E+03  0.84435430198E+03  0.50400001928E-02 0.  1.
    10030    2    1    2    0    0  0.00000000000E+00  0.00000000000E+00 -0.47929668752E+03  0.12094119164E+04  0.11103836585E+04 0.  0.
        3    1    3    3  502    0 -0.13277750354E+03  0.31940870725E+03 -0.71264285520E+03  0.79215632105E+03  0.10100000352E+00 0.  1.
       -3    1    3    3    0  502  0.13277750354E+03 -0.31940870725E+03  0.23334616768E+03  0.41725559539E+03  0.10100000352E+00 0. -1.
</event>
<event>
 5   0  0.2488472E-03  0.1130557E+04  0.7818609E-02  0.9175910E-01
       -2   -1    0    0    0  501  0.00000000000E+00  0.00000000000E+00  0.38010854687E+03  0.38010854688E+03  0.25500000920E-02 0.  1.
        2   -1    0    0  501    0  0.00000000000E+00  0.00000000000E+00 -0.84065429477E+03  0.84065429478E+03  0.25500000920E-02 0. -1.
    10030    2    1    2    0    0  0.00000000000E+00  0.00000000000E+00 -0.46054574790E+03  0.12207628417E+04  0.11305571766E+04 0.  0.
        2    1    3    3  502    0 -0.14811215780E+03  0.37136001444E+03 -0.66177568419E+03  0.77317043904E+03  0.25500000920E-02 0. -1.
       -2    1    3    3    0  502  0.14811215780E+03 -0.37136001444E+03  0.20122993628E+03  0.44759240262E+03  0.25500000920E-02 0.  1.
</event>
<event>
 5   0  0.1468556E-03  0.1098026E+04  0.7818609E-02  0.9207118E-01
       -1   -1    0    0    0  501  0.00000000000E+00  0.00000000000E+00  0.40764127224E+03  0.40764127227E+03  0.50400001928E-02 0.  1.
        1   -1    0    0  501    0  0.00000000000E+00  0.00000000000E+00 -0.73941368838E+03  0.73941368839E+03  0.50400001928E-02 0. -1.
    10030    2    1    2    0    0  0.00000000000E+00  0.00000000000E+00 -0.33177241613E+03  0.11470549607E+04  0.10980264781E+04 0.  0.
        5    1    3    3  502    0  0.29421585704E+03 -0.43437394154E+03  0.30431870778E+01  0.52466660138E+03  0.46999998093E+01 0.  1.
       -5    1    3    3    0  502 -0.29421585704E+03  0.43437394154E+03 -0.33481560321E+03  0.62238835928E+03  0.46999998093E+01 0. -1.
</event>
<event>
 5   0  0.2467448E-03  0.1079036E+04  0.7818609E-02  0.9225870E-01
       -2   -1    0    0    0  501  0.00000000000E+00  0.00000000000E+00  0.82475714797E+03  0.82475714797E+03  0.25500000920E-02 0.  1.
        2   -1    0    0  501    0  0.00000000000E+00  0.00000000000E+00 -0.35292748201E+03  0.35292748202E+03  0.25500000920E-02 0. -1.
    10030    2    1    2    0    0  0.00000000000E+00  0.00000000000E+00  0.47182966595E+03  0.11776846300E+04  0.10790356130E+04 0.  0.
        1    1    3    3  502    0 -0.15100677884E+03 -0.51085299846E+03  0.14262763019E+03  0.55146756406E+03  0.50400001928E-02 0.  1.
       -1    1    3    3    0  502  0.15100677884E+03  0.51085299846E+03  0.32920203576E+03  0.62621706593E+03  0.50400001928E-02 0. -1.
</event>
<event>
 5   0  0.1509004E-03  0.1157760E+04  0.7818609E-02  0.9150654E-01
        1   -1    0    0  501    0  0.00000000000E+00  0.00000000000E+00  0.38375444471E+03  0.38375444474E+03  0.50400001928E-02 0.  1.
       -1   -1    0    0    0  501  0.00000000000E+00  0.00000000000E+00 -0.87322002334E+03  0.87322002336E+03  0.50400001928E-02 0. -1.
    10030    2    1    2    0    0  0.00000000000E+00  0.00000000000E+00 -0.48946557864E+03  0.12569744681E+04  0.11577600187E+04 0.  0.
        3    1    3    3  502    0 -0.39017289961E+02  0.18992471391E+03 -0.83691786534E+03  0.85908397110E+03  0.10100000352E+00 0. -1.
       -3    1    3    3    0  502  0.39017289961E+02 -0.18992471391E+03  0.34745228670E+03  0.39789049701E+03  0.10100000352E+00 0.  1.
</event>
<event>
 5   0  0.2467448E-03  0.1118011E+04  0.7818609E-02  0.9187813E-01
        2   -1    0    0  501    0  0.00000000000E+00  0.00000000000E+00  0.68688416164E+03  0.68688416164E+03  0.25500000920E-02 0. -1.
       -2   -1    0    0    0  501  0.00000000000E+00  0.00000000000E+00 -0.45493415262E+03  0.45493415262E+03  0.25500000920E-02 0.  1.
    10030    2    1    2    0    0  0.00000000000E+00  0.00000000000E+00  0.23195000902E+03  0.11418183143E+04  0.11180108479E+04 0.  0.
        1    1    3    3  502    0 -0.29412934226E+03 -0.33578866358E+03 -0.22767346802E+03  0.50110009442E+03  0.50400001928E-02 0.  1.
       -1    1    3    3    0  502  0.29412934226E+03  0.33578866358E+03  0.45962347704E+03  0.64071821984E+03  0.50400001928E-02 0. -1.
</event>
<event>
 5   0  0.1480937E-03  0.1102214E+04  0.7818609E-02  0.9203036E-01
        1   -1    0    0  501    0  0.00000000000E+00  0.00000000000E+00  0.64832484225E+03  0.64832484227E+03  0.50400001928E-02 0.  1.
       -1   -1    0    0    0  501  0.00000000000E+00  0.00000000000E+00 -0.46846758863E+03  0.46846758866E+03  0.50400001928E-02 0. -1.
    10030    2    1    2    0    0  0.00000000000E+00  0.00000000000E+00  0.17985725362E+03  0.11167924309E+04  0.11022144538E+04 0.  0.
        1    1    3    3  502    0 -0.54694545821E+03  0.16398934731E+02  0.15637738197E+03  0.56909765852E+03  0.50400001928E-02 0. -1.
       -1    1    3    3    0  502  0.54694545821E+03 -0.16398934731E+02  0.23479871651E+02  0.54769477240E+03  0.50400001928E-02 0.  1.
</event>
<event>
 5   0  0.2392585E-03  0.1101352E+04  0.7818609E-02  0.9203875E-01
       -2   -1    0    0    0  501  0.00000000000E+00  0.00000000000E+00  0.77278635547E+03  0.77278635547E+03  0.25500000920E-02 0. -1.
        2   -1    0    0  501    0  0.00000000000E+00  0.00000000000E+00 -0.39240354593E+03  0.39240354593E+03  0.25500000920E-02 0.  1.
    10030    2    1    2    0    0  0.00000000000E+00  0.00000000000E+00  0.38038280954E+03  0.11651899014E+04  0.11013520893E+04 0.  0.
        5    1    3    3  502    0 -0.54806823422E+03  0.14344705165E+02  0.13585847041E+03  0.56485765810E+03  0.46999998093E+01 0. -1.
       -5    1    3    3    0  502  0.54806823422E+03 -0.14344705165E+02  0.24452433913E+03  0.60033224331E+03  0.46999998093E+01 0.  1.
</event>
<event>
 5   0  0.1415400E-03  0.1108353E+04  0.7818609E-02  0.9197089E-01
        1   -1    0    0  501    0  0.00000000000E+00  0.00000000000E+00  0.35342639626E+03  0.35342639630E+03  0.50400001928E-02 0.  1.
       -1   -1    0    0    0  501  0.00000000000E+00  0.00000000000E+00 -0.86895442335E+03  0.86895442337E+03  0.50400001928E-02 0. -1.
    10030    2    1    2    0    0  0.00000000000E+00  0.00000000000E+00 -0.51552802709E+03  0.12223808197E+04  0.11083527063E+04 0.  0.
        2    1    3    3  502    0  0.37067374118E+03  0.27568008390E+03 -0.59538406208E+03  0.75357860402E+03  0.25500000920E-02 0. -1.
       -2    1    3    3    0  502 -0.37067374118E+03 -0.27568008390E+03  0.79856034986E+02  0.46880221564E+03  0.25500000920E-02 0.  1.
</event>
<event>
 5   0  0.2483036E-03  0.1097359E+04  0.7818609E-02  0.9207770E-01
       -2   -1    0    0    0  501  0.00000000000E+00  0.00000000000E+00  0.39220916673E+03  0.39220916674E+03  0.25500000920E-02 0. -1.
        2   -1    0    0  501    0  0.00000000000E+00  0.00000000000E+00 -0.76757272893E+03  0.76757272893E+03  0.25500000920E-02 0.  1.
    10030    2    1    2    0    0  0.00000000000E+00  0.00000000000E+00 -0.37536356220E+03  0.11597818957E+04  0.10973587571E+04 0.  0.
        3    1    3    3  502    0 -0.10788205987E+03  0.51477096472E+03 -0.35284474240E+03  0.63334596186E+03  0.10100000352E+00 0.  1.
       -3    1    3    3    0  502  0.10788205987E+03 -0.51477096472E+03 -0.22518819795E+02  0.52643593381E+03  0.10100000352E+00 0. -1.
</event>
<event>
 5   0  0.2488472E-03  0.1092292E+04  0.7818609E-02  0.9212737E-01
        2   -1    0    0  501    0  0.00000000000E+00  0.00000000000E+00  0.34422384774E+03  0.34422384775E+03  0.25500000920E-02 0.  1.
       -2   -1    0    0    0  501  0.00000000000E+00  0.00000000000E+00 -0.86651645261E+03  0.86651645261E+03  0.25500000920E-02 0. -1.
    10030    2    1    2    0    0  0.00000000000E+00  0.00000000000E+00 -0.52229260487E+03  0.12107403004E+04  0.10922923189E+04 0.  0.
        2    1    3    3  502    0  0.34154220266E+03  0.18162577912E+03 -0.68848777320E+03  0.78971793300E+03  0.25500000920E-02 0. -1.
       -2    1    3    3    0  502 -0.34154220266E+03 -0.18162577912E+03  0.16619516834E+03  0.42102236737E+03  0.25500000920E-02 0.  1.
</event>
<event>
 5   0  0.9631750E-04  0.1077361E+04  0.7818609E-02  0.9227543E-01
       -4   -1    0    0    0  501  0.00000000000E+00  0.00000000000E+00  0.33879239127E+03  0.33879477163E+03  0.12699999809E+01 0. -1.
        4   -1    0    0  501    0  0.00000000000E+00  0.00000000000E+00 -0.85649722899E+03  0.85649817056E+03  0.12699999809E+01 0.  1.
    10030    2    1    2    0    0  0.00000000000E+00  0.00000000000E+00 -0.51770483771E+03  0.11952929422E+04  0.10773610902E+04 0.  0.
        4    1    3    3  502    0  0.44872651149E+03 -0.25713138964E+03 -0.91683517588E+02  0.52524233831E+03  0.12699999809E+01 0. -1.
       -4    1    3    3    0  502 -0.44872651149E+03  0.25713138964E+03 -0.42602132013E+03  0.67005060388E+03  0.12699999809E+01 0.  1.
</event>
<event>
 5   0  0.2392585E-03  0.1099294E+04  0.7818609E-02  0.9205880E-01
        2   -1    0    0  501    0  0.00000000000E+00  0.00000000000E+00  0.23129584207E+04  0.23129584207E+04  0.25500000920E-02 0.  1.
       -2   -1    0    0    0  501  0.00000000000E+00  0.00000000000E+00 -0.13061709400E+03  0.13061709402E+03  0.25500000920E-02 0. -1.
    10030    2    1    2    0    0  0.00000000000E+00  0.00000000000E+00  0.21823413267E+04  0.24435755147E+04  0.10992941508E+04 0.  0.
        5    1    3    3  502    0  0.46716485504E+03 -0.17709337025E+03  0.16004176059E+04  0.16765928745E+04  0.46999998093E+01 0.  1.
       -5    1    3    3    0  502 -0.46716485504E+03  0.17709337025E+03  0.58192372083E+03  0.76698264025E+03  0.46999998093E+01 0. -1.
</event>
<event>
 5   0  0.2392585E-03  0.1096375E+04  0.7818609E-02  0.9208733E-01
       -2   -1    0    0    0  501  0.00000000000E+00  0.00000000000E+00  0.17051141671E+03  0.17051141673E+03  0.25500000920E-02 0. -1.
        2   -1    0    0  501    0  0.00000000000E+00  0.00000000000E+00 -0.17624003980E+04  0.17624003980E+04  0.25500000920E-02 0.  1.
    10030    2    1    2    0    0  0.00000000000E+00  0.00000000000E+00 -0.15918889813E+04  0.19329118147E+04  0.10963747328E+04 0.  0.
        5    1    3    3  502    0  0.19090023128E+03 -0.26588209872E+03 -0.20722011868E+02  0.32800561046E+03  0.46999998093E+01 0. -1.
       -5    1    3    3    0  502 -0.19090023128E+03  0.26588209872E+03 -0.15711669694E+04  0.16049062043E+04  0.46999998093E+01 0.  1.
</event>
<event>
 5   0  0.2483036E-03  0.1103528E+04  0.7818609E-02  0.9201760E-01
        2   -1    0    0  501    0  0.00000000000E+00  0.00000000000E+00  0.94586348370E+03  0.94586348370E+03  0.25500000920E-02 0. -1.
       -2   -1    0    0    0  501  0.00000000000E+00  0.00000000000E+00 -0.32186823942E+03  0.32186823943E+03  0.25500000920E-02 0.  1.
    10030    2    1    2    0    0  0.00000000000E+00  0.00000000000E+00  0.62399524428E+03  0.12677317231E+04  0.11035278234E+04 0.  0.
        3    1    3    3  502    0 -0.27122770840E+03 -0.35372694719E+03 -0.61593846735E+02  0.44997892743E+03  0.10100000352E+00 0.  1.
       -3    1    3    3    0  502  0.27122770840E+03  0.35372694719E+03  0.68558909101E+03  0.81775279571E+03  0.10100000352E+00 0. -1.
</event>
<event>
 5   0  0.2467448E-03  0.1101059E+04  0.7818609E-02  0.9204161E-01
        2   -1    0    0  501    0  0.00000000000E+00  0.00000000000E+00  0.35403354551E+03  0.35403354552E+03  0.25500000920E-02 0.  1.
       -2   -1    0    0    0  501  0.00000000000E+00  0.00000000000E+00 -0.85608431526E+03  0.85608431526E+03  0.25500000920E-02 0. -1.
    10030    2    1    2    0    0  0.00000000000E+00  0.00000000000E+00 -0.50205076975E+03  0.12101178608E+04  0.11010587003E+04 0.  0.
        1    1    3    3  502    0  0.40191122374E+03  0.24813124543E+03 -0.56184621824E+03  0.73401152559E+03  0.50400001928E-02 0. -1.
       -1    1    3    3    0  502 -0.40191122374E+03 -0.24813124543E+03  0.59795448489E+02  0.47610633519E+03  0.50400001928E-02 0.  1.
</event>
<event>
 5   0  0.1468556E-03  0.9800050E+03  0.7818609E-02  0.9330751E-01
       -1   -1    0    0    0  501  0.00000000000E+00  0.00000000000E+00  0.87694232183E+03  0.87694232184E+03  0.50400001928E-02 0. -1.
        1   -1    0    0  501    0  0.00000000000E+00  0.00000000000E+00 -0.27379503137E+03  0.27379503141E+03  0.50400001928E-02 0.  1.
    10030    2    1    2    0    0  0.00000000000E+00  0.00000000000E+00  0.60314729046E+03  0.11507373533E+04  0.98000500110E+03 0.  0.
        5    1    3    3  502    0 -0.42103729271E+03 -0.24763800240E+03  0.34679815876E+03  0.59907264584E+03  0.46999998093E+01 0.  1.
       -5    1    3    3    0  502  0.42103729271E+03  0.24763800240E+03  0.25634913170E+03  0.55166470741E+03  0.46999998093E+01 0. -1.
</event>
<event>
 5   0  0.1480937E-03  0.1098503E+04  0.7818609E-02  0.9206652E-01
       -1   -1    0    0    0  501  0.00000000000E+00  0.00000000000E+00  0.44273264806E+03  0.44273264809E+03  0.50400001928E-02 0. -1.
        1   -1    0    0  501    0  0.00000000000E+00  0.00000000000E+00 -0.68139776047E+03  0.68139776048E+03  0.50400001928E-02 0.  1.
    10030    2    1    2    0    0  0.00000000000E+00  0.00000000000E+00 -0.23866511240E+03  0.11241304086E+04  0.10985026807E+04 0.  0.
        1    1    3    3  502    0  0.49227620881E+03 -0.82635382233E+02 -0.35383489663E+03  0.61185260174E+03  0.50400001928E-02 0.  1.
       -1    1    3    3    0  502 -0.49227620881E+03  0.82635382233E+02  0.11516978423E+03  0.51227780684E+03  0.50400001928E-02 0. -1.
</event>
<event>
 5   0  0.9631750E-04  0.1095769E+04  0.7818609E-02  0.9209325E-01
        3   -1    0    0  501    0  0.00000000000E+00  0.00000000000E+00  0.22870314342E+03  0.22870316573E+03  0.10100000352E+00 0. -1.
       -3   -1    0    0    0  501  0.00000000000E+00  0.00000000000E+00 -0.13125198367E+04  0.13125198405E+04  0.10100000352E+00 0.  1.
    10030    2    1    2    0    0  0.00000000000E+00  0.00000000000E+00 -0.10838166932E+04  0.15412230063E+04  0.10957690133E+04 0.  0.
        3    1    3    3  502    0  0.39654165255E+03  0.11737786264E+03 -0.10473853123E+04  0.11260723101E+04  0.10100000352E+00 0.  1.
       -3    1    3    3    0  502 -0.39654165255E+03 -0.11737786264E+03 -0.36431380920E+02  0.41515069620E+03  0.10100000352E+00 0. -1.
</event>
<event>
 5   0  0.2488472E-03  0.1096672E+04  0.7818609E-02  0.9208442E-01
       -2   -1    0    0    0  501  0.00000000000E+00  0.00000000000E+00  0.98919411557E+03  0.98919411557E+03  0.25500000920E-02 0.  1.
        2   -1    0    0  501    0  0.00000000000E+00  0.00000000000E+00 -0.30395670675E+03  0.30395670676E+03  0.25500000920E-02 0. -1.
    10030    2    1    2    0    0  0.00000000000E+00  0.00000000000E+00  0.68523740882E+03  0.12931508223E+04  0.10966716659E+04 0.  0.
        2    1    3    3  502    0 -0.36981908468E+02  0.67817780416E+02 -0.29750883313E+03  0.30737341898E+03  0.25500000920E-02 0. -1.
       -2    1    3    3    0  502  0.36981908468E+02 -0.67817780416E+02  0.98274624195E+03  0.98577740336E+03  0.25500000920E-02 0.  1.
</event>
<event>
 5   0  0.1415400E-03  0.1107230E+04  0.7818609E-02  0.9198173E-01
        1   -1    0    0  501    0  0.00000000000E+00  0.00000000000E+00  0.16007572085E+04  0.16007572085E+04  0.50400001928E-02 0. -1.
       -1   -1    0    0    0  501  0.00000000000E+00  0.00000000000E+00 -0.19146550683E+03  0.19146550690E+03  0.50400001928E-02 0.  1.
    10030    2    1    2    0    0  0.00000000000E+00  0.00000000000E+00  0.14092917017E+04  0.17922227154E+04  0.11072304012E+04 0.  0.
        2    1    3    3  502    0 -0.78259047467E+02  0.48545822144E+03  0.29293582874E+03  0.57236838054E+03  0.25500000920E-02 0.  1.
       -2    1    3    3    0  502  0.78259047467E+02 -0.48545822144E+03  0.11163558729E+04  0.12198543349E+04  0.25500000920E-02 0. -1.
</event>
<event>
 5   0  0.2467448E-03  0.1088648E+04  0.7818609E-02  0.9216327E-01
       -2   -1    0    0    0  501  0.00000000000E+00  0.00000000000E+00  0.37556912192E+03  0.37556912193E+03  0.25500000920E-02 0. -1.
        2   -1    0    0  501    0  0.00000000000E+00  0.00000000000E+00 -0.78890565333E+03  0.78890565334E+03  0.25500000920E-02 0.  1.
    10030    2    1    2    0    0  0.00000000000E+00  0.00000000000E+00 -0.41333653142E+03  0.11644747753E+04  0.10886479753E+04 0.  0.
        1    1    3    3  502    0 -0.24618495369E+03 -0.66170568159E+02  0.30777001156E+03  0.39963477771E+03  0.50400001928E-02 0. -1.
       -1    1    3    3    0  502  0.24618495369E+03  0.66170568159E+02 -0.72110654298E+03  0.76483999756E+03  0.50400001928E-02 0.  1.
</event>
<event>
 5   0  0.2392585E-03  0.1107795E+04  0.7818609E-02  0.9197627E-01
        2   -1    0    0  501    0  0.00000000000E+00  0.00000000000E+00  0.15730866065E+04  0.15730866065E+04  0.25500000920E-02 0.  1.
       -2   -1    0    0    0  501  0.00000000000E+00  0.00000000000E+00 -0.19503221154E+03  0.19503221155E+03  0.25500000920E-02 0. -1.
    10030    2    1    2    0    0  0.00000000000E+00  0.00000000000E+00  0.13780543950E+04  0.17681188181E+04  0.11077952154E+04 0.  0.
        5    1    3    3  502    0  0.18661281117E+03 -0.47045104543E+03  0.10481675921E+04  0.11639698959E+04  0.46999998093E+01 0.  1.
       -5    1    3    3    0  502 -0.18661281117E+03  0.47045104543E+03  0.32988680287E+03  0.60414892216E+03  0.46999998093E+01 0. -1.
</event>
<event>
 5   0  0.9631750E-04  0.1110882E+04  0.7818609E-02  0.9194650E-01
        3   -1    0    0  501    0  0.00000000000E+00  0.00000000000E+00  0.21283471555E+03  0.21283473951E+03  0.10100000352E+00 0. -1.
       -3   -1    0    0    0  501  0.00000000000E+00  0.00000000000E+00 -0.14495510440E+04  0.14495510475E+04  0.10100000352E+00 0.  1.
    10030    2    1    2    0    0  0.00000000000E+00  0.00000000000E+00 -0.12367163284E+04  0.16623857870E+04  0.11108821845E+04 0.  0.
        3    1    3    3  502    0 -0.52196674823E+03  0.18826821782E+03 -0.65563729101E+03  0.85892635055E+03  0.10100000352E+00 0.  1.
       -3    1    3    3    0  502  0.52196674823E+03 -0.18826821782E+03 -0.58107903742E+03  0.80345943646E+03  0.10100000352E+00 0. -1.
</event>
<event>
 5   0  0.1509004E-03  0.1098715E+04  0.7818609E-02  0.9206446E-01
       -1   -1    0    0    0  501  0.00000000000E+00  0.00000000000E+00  0.84007208973E+03  0.84007208974E+03  0.50400001928E-02 0. -1.
        1   -1    0    0  501    0  0.00000000000E+00  0.00000000000E+00 -0.35924705824E+03  0.35924705828E+03  0.50400001928E-02 0.  1.
    10030    2    1    2    0    0  0.00000000000E+00  0.00000000000E+00  0.48082503149E+03  0.11993191480E+04  0.10987145707E+04 0.  0.
        3    1    3    3  502    0 -0.40960068287E+03 -0.36324371460E+03  0.19069291185E+03  0.57972623921E+03  0.10100000352E+00 0. -1.
       -3    1    3    3    0  502  0.40960068287E+03  0.36324371460E+03  0.29013211964E+03  0.61959290881E+03  0.10100000352E+00 0.  1.
</event>
<event>
 5   0  0.1468556E-03  0.1093552E+04  0.7818609E-02  0.9211500E-01
        1   -1    0    0  501    0  0.00000000000E+00  0.00000000000E+00  0.73163782412E+03  0.73163782413E+03  0.50400001928E-02 0. -1.
       -1   -1    0    0    0  501  0.00000000000E+00  0.00000000000E+00 -0.40862280384E+03  0.40862280387E+03  0.50400001928E-02 0.  1.
    10030    2    1    2    0    0  0.00000000000E+00  0.00000000000E+00  0.32301502027E+03  0.11402606280E+04  0.10935518261E+04 0.  0.
        5    1    3    3  502    0  0.34342387580E+03  0.24684682070E+03  0.52281694062E+03  0.67248267990E+03  0.46999998093E+01 0. -1.
       -5    1    3    3    0  502 -0.34342387580E+03 -0.24684682070E+03 -0.19980192035E+03  0.46777794811E+03  0.46999998093E+01 0.  1.
</event>
<event>
 5   0  0.2467448E-03  0.1096285E+04  0.7818609E-02  0.9208820E-01
       -2   -1    0    0    0  501  0.00000000000E+00  0.00000000000E+00  0.44929535940E+03  0.44929535941E+03  0.25500000920E-02 0. -1.
        2   -1    0    0  501    0  0.00000000000E+00  0.00000000000E+00 -0.66873656359E+03  0.66873656359E+03  0.25500000920E-02 0.  1.
    10030    2    1    2    0    0  0.00000000000E+00  0.00000000000E+00 -0.21944120419E+03  0.11180319230E+04  0.10962850627E+04 0.  0.
        1    1    3    3  502    0  0.10476083953E+03 -0.31692066542E+03  0.33369936935E+03  0.47198390947E+03  0.50400001928E-02 0. -1.
       -1    1    3    3    0  502 -0.10476083953E+03  0.31692066542E+03 -0.55314057353E+03  0.64604801353E+03  0.50400001928E-02 0.  1.
</event>
<event>
 5   0  0.2438115E-03  0.1099421E+04  0.7818609E-02  0.9205756E-01
       -2   -1    0    0    0  501  0.00000000000E+00  0.00000000000E+00  0.22755364821E+03  0.22755364823E+03  0.25500000920E-02 0. -1.
        2   -1    0    0  501    0  0.00000000000E+00  0.00000000000E+00 -0.13279581066E+04  0.13279581066E+04  0.25500000920E-02 0.  1.
    10030    2    1    2    0    0  0.00000000000E+00  0.00000000000E+00 -0.11004044584E+04  0.15555117549E+04  0.10994211420E+04 0.  0.
        4    1    3    3  502    0  0.17063524479E+03  0.30106602798E+03  0.54092715465E+02  0.35026386444E+03  0.12699999809E+01 0. -1.
       -4    1    3    3    0  502 -0.17063524479E+03 -0.30106602798E+03 -0.11544971739E+04  0.12052478904E+04  0.12699999809E+01 0.  1.
</event>
<event>
 5   0  0.9631750E-04  0.1102239E+04  0.7818609E-02  0.9203013E-01
        4   -1    0    0  501    0  0.00000000000E+00  0.00000000000E+00  0.70012609757E+03  0.70012724943E+03  0.12699999809E+01 0.  1.
       -4   -1    0    0    0  501  0.00000000000E+00  0.00000000000E+00 -0.43382288441E+03  0.43382474335E+03  0.12699999809E+01 0. -1.
    10030    2    1    2    0    0  0.00000000000E+00  0.00000000000E+00  0.26630321316E+03  0.11339519928E+04  0.11022385044E+04 0.  0.
        2    1    3    3  502    0  0.75088630178E+02 -0.43027230148E+03 -0.21261352156E+03  0.48577470638E+03  0.25500000920E-02 0. -1.
       -2    1    3    3    0  502 -0.75088630178E+02  0.43027230148E+03  0.47891673471E+03  0.64817728640E+03  0.25500000920E-02 0.  1.
</event>
<event>
 5   0  0.1415400E-03  0.1099696E+04  0.7818609E-02  0.9205488E-01
        1   -1    0    0  501    0  0.00000000000E+00  0.00000000000E+00  0.57779576542E+03  0.57779576544E+03  0.50400001928E-02 0. -1.
       -1   -1    0    0    0  501  0.00000000000E+00  0.00000000000E+00 -0.52325231533E+03  0.52325231536E+03  0.50400001928E-02 0.  1.
    10030    2    1    2    0    0  0.00000000000E+00  0.00000000000E+00  0.54543450090E+02  0.11010480808E+04  0.10996962709E+04 0.  0.
        2    1    3    3  502    0 -0.28265661540E+03  0.26201806256E+03  0.41990776415E+03  0.56997434832E+03  0.25500000920E-02 0. -1.
       -2    1    3    3    0  502  0.28265661540E+03 -0.26201806256E+03 -0.36536431406E+03  0.53107373248E+03  0.25500000920E-02 0.  1.
</event>
<event>
 5   0  0.2483036E-03  0.1095009E+04  0.7818609E-02  0.9210070E-01
       -2   -1    0    0    0  501  0.00000000000E+00  0.00000000000E+00  0.10325534746E+04  0.10325534746E+04  0.25500000920E-02 0. -1.
        2   -1    0    0  501    0  0.00000000000E+00  0.00000000000E+00 -0.29031041003E+03  0.29031041004E+03  0.25500000920E-02 0.  1.
    10030    2    1    2    0    0  0.00000000000E+00  0.00000000000E+00  0.74224306454E+03  0.13228638846E+04  0.10950087170E+04 0.  0.
        3    1    3    3  502    0 -0.35765684876E+03 -0.18763083413E+03  0.81768393652E+03  0.91199275306E+03  0.10100000352E+00 0. -1.
       -3    1    3    3    0  502  0.35765684876E+03  0.18763083413E+03 -0.75440871981E+02  0.41087113156E+03  0.10100000352E+00 0.  1.
</event>
<event>
 5   0  0.1479573E-03  0.1098753E+04  0.7818609E-02  0.9206408E-01
       -1   -1    0    0    0  501  0.00000000000E+00  0.00000000000E+00  0.28974460269E+03  0.28974460273E+03  0.50400001928E-02 0. -1.
        1   -1    0    0  501    0  0.00000000000E+00  0.00000000000E+00 -0.10416571238E+04  0.10416571238E+04  0.50400001928E-02 0.  1.
    10030    2    1    2    0    0  0.00000000000E+00  0.00000000000E+00 -0.75191252113E+03  0.13314017266E+04  0.10987529832E+04 0.  0.
        4    1    3    3  502    0 -0.47100073335E+03  0.19502115116E+03 -0.62410540607E+03  0.80584372617E+03  0.12699999809E+01 0.  1.
       -4    1    3    3    0  502  0.47100073335E+03 -0.19502115116E+03 -0.12780711506E+03  0.52555800040E+03  0.12699999809E+01 0. -1.
</event>
<event>
 5   0  0.2483036E-03  0.1090167E+04  0.7818609E-02  0.9214829E-01
        2   -1    0    0  501    0  0.00000000000E+00  0.00000000000E+00  0.10933379406E+04  0.10933379406E+04  0.25500000920E-02 0. -1.
       -2   -1    0    0    0  501  0.00000000000E+00  0.00000000000E+00 -0.27175129227E+03  0.27175129228E+03  0.25500000920E-02 0.  1.
    10030    2    1    2    0    0  0.00000000000E+00  0.00000000000E+00  0.82158664835E+03  0.13650892329E+04  0.10901669565E+04 0.  0.
        3    1    3    3  502    0 -0.20556068862E+03 -0.32179593574E+03  0.89787210708E+03  0.97569572707E+03  0.10100000352E+00 0. -1.
       -3    1    3    3    0  502  0.20556068862E+03  0.32179593574E+03 -0.76285458724E+02  0.38939350583E+03  0.10100000352E+00 0.  1.
</event>
<event>
 5   0  0.1415400E-03  0.1104373E+04  0.7818609E-02  0.9200940E-01
       -1   -1    0    0    0  501  0.00000000000E+00  0.00000000000E+00  0.88652226223E+03  0.88652226225E+03  0.50400001928E-02 0. -1.
        1   -1    0    0  501    0  0.00000000000E+00  0.00000000000E+00 -0.34393941823E+03  0.34393941827E+03  0.50400001928E-02 0.  1.
    10030    2    1    2    0    0  0.00000000000E+00  0.00000000000E+00  0.54258284400E+03  0.12304616805E+04  0.11043730369E+04 0.  0.
        2    1    3    3  502    0 -0.20392684755E+03 -0.44289013766E+03 -0.17475084911E+02  0.48789672246E+03  0.25500000920E-02 0.  1.
       -2    1    3    3    0  502  0.20392684755E+03  0.44289013766E+03  0.56005792891E+03  0.74256495805E+03  0.25500000920E-02 0. -1.
</event>
<event>
 5   0  0.2467448E-03  0.1102713E+04  0.7818609E-02  0.9202552E-01
        2   -1    0    0  501    0  0.00000000000E+00  0.00000000000E+00  0.56818821891E+03  0.56818821891E+03  0.25500000920E-02 0.  1.
       -2   -1    0    0    0  501  0.00000000000E+00  0.00000000000E+00 -0.53502296688E+03  0.53502296688E+03  0.25500000920E-02 0. -1.
    10030    2    1    2    0    0  0.00000000000E+00  0.00000000000E+00  0.33165252029E+02  0.11032111858E+04  0.11027125584E+04 0.  0.
        1    1    3    3  502    0 -0.91464972093E+02  0.90705693861E+02 -0.51975715082E+03  0.53548189500E+03  0.50400001928E-02 0. -1.
       -1    1    3    3    0  502  0.91464972093E+02 -0.90705693861E+02  0.55292240285E+03  0.56772929079E+03  0.50400001928E-02 0.  1.
</event>
<event>
 5   0  0.2488472E-03  0.1099143E+04  0.7818609E-02  0.9206027E-01
       -2   -1    0    0    0  501  0.00000000000E+00  0.00000000000E+00  0.21608067668E+03  0.21608067669E+03  0.25500000920E-02 0. -1.
        2   -1    0    0  501    0  0.00000000000E+00  0.00000000000E+00 -0.13977608302E+04  0.13977608302E+04  0.25500000920E-02 0.  1.
    10030    2    1    2    0    0  0.00000000000E+00  0.00000000000E+00 -0.11816801535E+04  0.16138415069E+04  0.10991434957E+04 0.  0.
        2    1    3    3  502    0  0.53577321438E+03  0.11628424519E+03 -0.64683002436E+03  0.84791747437E+03  0.25500000920E-02 0.  1.
       -2    1    3    3    0  502 -0.53577321438E+03 -0.11628424519E+03 -0.53485012914E+03  0.76592403250E+03  0.25500000920E-02 0. -1.
</event>
<event>
 5   0  0.9631750E-04  0.1099390E+04  0.7818609E-02  0.9205787E-01
       -3   -1    0    0    0  501  0.00000000000E+00  0.00000000000E+00  0.15435179083E+04  0.15435179116E+04  0.10100000352E+00 0. -1.
        3   -1    0    0  501    0  0.00000000000E+00  0.00000000000E+00 -0.19576347253E+03  0.19576349859E+03  0.10100000352E+00 0.  1.
    10030    2    1    2    0    0  0.00000000000E+00  0.00000000000E+00  0.13477544358E+04  0.17392814102E+04  0.10993897420E+04 0.  0.
        2    1    3    3  502    0 -0.21163857752E+03  0.43471829093E+03  0.26013883240E+03  0.54903833390E+03  0.25500000920E-02 0.  1.
       -2    1    3    3    0  502  0.21163857752E+03 -0.43471829093E+03  0.10876156034E+04  0.11902430763E+04  0.25500000920E-02 0. -1.
</event>
<event>
 5   0  0.1479573E-03  0.1097425E+04  0.7818609E-02  0.9207705E-01
       -1   -1    0    0    0  501  0.00000000000E+00  0.00000000000E+00  0.13772542000E+03  0.13772542009E+03  0.50400001928E-02 0.  1.
        1   -1    0    0  501    0  0.00000000000E+00  0.00000000000E+00 -0.21861274004E+04  0.21861274004E+04  0.50400001928E-02 0. -1.
    10030    2    1    2    0    0  0.00000000000E+00  0.00000000000E+00 -0.20484019804E+04  0.23238528205E+04  0.10974248302E+04 0.  0.
        4    1    3    3  502    0 -0.46239148502E+03  0.29479937210E+03 -0.10649959457E+04  0.11978858595E+04  0.12699999809E+01 0. -1.
       -4    1    3    3    0  502  0.46239148502E+03 -0.29479937210E+03 -0.98340603479E+03  0.11259669610E+04  0.12699999809E+01 0.  1.
</event>
<event>
 5   0  0.9631750E-04  0.1090042E+04  0.7818609E-02  0.9214953E-01
       -3   -1    0    0    0  501  0.00000000000E+00  0.00000000000E+00  0.82790407810E+03  0.82790408426E+03  0.10100000352E+00 0. -1.
        3   -1    0    0  501    0  0.00000000000E+00  0.00000000000E+00 -0.35879473000E+03  0.35879474422E+03  0.10100000352E+00 0.  1.
    10030    2    1    2    0    0  0.00000000000E+00  0.00000000000E+00  0.46910934809E+03  0.11866988285E+04  0.10900415263E+04 0.  0.
        1    1    3    3  502    0 -0.18459666866E+03  0.51131820218E+03  0.19203508131E+03  0.57654115763E+03  0.50400001928E-02 0.  1.
       -1    1    3    3    0  502  0.18459666866E+03 -0.51131820218E+03  0.27707426678E+03  0.61015767085E+03  0.50400001928E-02 0. -1.
</event>
<event>
 5   0  0.2438115E-03  0.1113775E+04  0.7818609E-02  0.9191869E-01
        2   -1    0    0  501    0  0.00000000000E+00  0.00000000000E+00  0.79666924197E+03  0.79666924197E+03  0.25500000920E-02 0.  1.
       -2   -1    0    0    0  501  0.00000000000E+00  0.00000000000E+00 -0.38927507769E+03  0.38927507770E+03  0.25500000920E-02 0. -1.
    10030    2    1    2    0    0  0.00000000000E+00  0.00000000000E+00  0.40739416427E+03  0.11859443197E+04  0.11137746290E+04 0.  0.
        4    1    3    3  502    0 -0.23840446980E+03 -0.47643691580E+03  0.37635535721E+03  0.65228352253E+03  0.12699999809E+01 0. -1.
       -4    1    3    3    0  502  0.23840446980E+03  0.47643691580E+03  0.31038807061E+02  0.53366079714E+03  0.12699999809E+01 0.  1.
</event>
<event>
 5   0  0.2392585E-03  0.1074800E+04  0.7818609E-02  0.9230107E-01
       -2   -1    0    0    0  501  0.00000000000E+00  0.00000000000E+00  0.22747456843E+03  0.22747456845E+03  0.25500000920E-02 0. -1.
        2   -1    0    0  501    0  0.00000000000E+00  0.00000000000E+00 -0.12695874788E+04  0.12695874788E+04  0.25500000920E-02 0.  1.
    10030    2    1    2    0    0  0.00000000000E+00  0.00000000000E+00 -0.10421129104E+04  0.14970620473E+04  0.10748001932E+04 0.  0.
        5    1    3    3  502    0 -0.10437848945E+03  0.31319809599E+03 -0.11116564665E+04  0.11596508551E+04  0.46999998093E+01 0.  1.
       -5    1    3    3    0  502  0.10437848945E+03 -0.31319809599E+03  0.69543556068E+02  0.33741119214E+03  0.46999998093E+01 0. -1.
</event>
<event>
 5   0  0.1479573E-03  0.1120003E+04  0.7818609E-02  0.9185912E-01
        1   -1    0    0  501    0  0.00000000000E+00  0.00000000000E+00  0.20720617615E+04  0.20720617615E+04  0.50400001928E-02 0. -1.
       -1   -1    0    0    0  501  0.00000000000E+00  0.00000000000E+00 -0.15134758604E+03  0.15134758612E+03  0.50400001928E-02 0.  1.
    10030    2    1    2    0    0  0.00000000000E+00  0.00000000000E+00  0.19207141755E+04  0.22234093477E+04  0.11200027604E+04 0.  0.
        4    1    3    3  502    0 -0.27183751713E+02  0.33619755121E+03  0.18477849309E+04  0.18783180012E+04  0.12699999809E+01 0. -1.
       -4    1    3    3    0  502  0.27183751713E+02 -0.33619755121E+03  0.72929244596E+02  0.34509134648E+03  0.12699999809E+01 0.  1.
</event>
<event>
 5   0  0.2438115E-03  0.1100725E+04  0.7818609E-02  0.9204486E-01
        2   -1    0    0  501    0  0.00000000000E+00  0.00000000000E+00  0.49747379693E+03  0.49747379694E+03  0.25500000920E-02 0.  1.
       -2   -1    0    0    0  501  0.00000000000E+00  0.00000000000E+00 -0.60887366059E+03  0.60887366059E+03  0.25500000920E-02 0. -1.
    10030    2    1    2    0    0  0.00000000000E+00  0.00000000000E+00 -0.11139986366E+03  0.11063474575E+04  0.11007246555E+04 0.  0.
        4    1    3    3  502    0 -0.52914379928E+03  0.60566449313E+02  0.83701098914E+02  0.53913721997E+03  0.12699999809E+01 0.  1.
       -4    1    3    3    0  502  0.52914379928E+03 -0.60566449313E+02 -0.19510096257E+03  0.56721023756E+03  0.12699999809E+01 0. -1.
</event>
<event>
 5   0  0.9631750E-04  0.1095101E+04  0.7818609E-02  0.9209980E-01
        3   -1    0    0  501    0  0.00000000000E+00  0.00000000000E+00  0.54266090041E+03  0.54266090981E+03  0.10100000352E+00 0.  1.
       -3   -1    0    0    0  501  0.00000000000E+00  0.00000000000E+00 -0.55248422271E+03  0.55248423194E+03  0.10100000352E+00 0. -1.
    10030    2    1    2    0    0  0.00000000000E+00  0.00000000000E+00 -0.98233223038E+01  0.10951451418E+04  0.10951010838E+04 0.  0.
        4    1    3    3  502    0  0.37585776658E+03 -0.38606881170E+03 -0.10234142435E+03  0.54844650432E+03  0.12699999809E+01 0. -1.
       -4    1    3    3    0  502 -0.37585776658E+03  0.38606881170E+03  0.92518102050E+02  0.54669863743E+03  0.12699999809E+01 0.  1.
</event>
<event>
 5   0  0.1509004E-03  0.1096651E+04  0.7818609E-02  0.9208462E-01
       -1   -1    0    0    0  501  0.00000000000E+00  0.00000000000E+00  0.62732678290E+03  0.62732678292E+03  0.50400001928E-02 0. -1.
        1   -1    0    0  501    0  0.00000000000E+00  0.00000000000E+00 -0.47927347013E+03  0.47927347016E+03  0.50400001928E-02 0.  1.
    10030    2    1    2    0    0  0.00000000000E+00  0.00000000000E+00  0.14805331277E+03  0.11066002531E+04  0.10966514199E+04 0.  0.
        3    1    3    3  502    0  0.31063918270E+03 -0.34198997266E+03 -0.22396109143E+03  0.51343200514E+03  0.10100000352E+00 0.  1.
       -3    1    3    3    0  502 -0.31063918270E+03  0.34198997266E+03  0.37201440419E+03  0.59316824793E+03  0.10100000352E+00 0. -1.
</event>
<event>
 5   0  0.1415400E-03  0.1119580E+04  0.7818609E-02  0.9186315E-01
        1   -1    0    0  501    0  0.00000000000E+00  0.00000000000E+00  0.10814732666E+04  0.10814732666E+04  0.50400001928E-02 0.  1.
       -1   -1    0    0    0  501  0.00000000000E+00  0.00000000000E+00 -0.28975729109E+03  0.28975729114E+03  0.50400001928E-02 0. -1.
    10030    2    1    2    0    0  0.00000000000E+00  0.00000000000E+00  0.79171597549E+03  0.13712305577E+04  0.11195798572E+04 0.  0.
        2    1    3    3  502    0 -0.25661015136E+03  0.69290094837E+02 -0.20753964934E+03  0.33722780591E+03  0.25500000920E-02 0. -1.
       -2    1    3    3    0  502  0.25661015136E+03 -0.69290094837E+02  0.99925562482E+03  0.10340027518E+04  0.25500000920E-02 0.  1.
</event>
<event>
 5   0  0.1415400E-03  0.1101637E+04  0.7818609E-02  0.9203598E-01
       -1   -1    0    0    0  501  0.00000000000E+00  0.00000000000E+00  0.23635261025E+03  0.23635261030E+03  0.50400001928E-02 0.  1.
        1   -1    0    0  501    0  0.00000000000E+00  0.00000000000E+00 -0.12836790462E+04  0.12836790462E+04  0.50400001928E-02 0. -1.
    10030    2    1    2    0    0  0.00000000000E+00  0.00000000000E+00 -0.10473264359E+04  0.15200316565E+04  0.11016367702E+04 0.  0.
        2    1    3    3  502    0  0.46804432158E+03 -0.16494795353E+03 -0.19387349395E+03  0.53278536579E+03  0.25500000920E-02 0.  1.
       -2    1    3    3    0  502 -0.46804432158E+03  0.16494795353E+03 -0.85345294200E+03  0.98724629072E+03  0.25500000920E-02 0. -1.
</event>
<event>
 5   0  0.1480937E-03  0.1095955E+04  0.7818609E-02  0.9209143E-01
        1   -1    0    0  501    0  0.00000000000E+00  0.00000000000E+00  0.80678113437E+03  0.80678113438E+03  0.50400001928E-02 0. -1.
       -1   -1    0    0    0  501  0.00000000000E+00  0.00000000000E+00 -0.37219461202E+03  0.37219461205E+03  0.50400001928E-02 0.  1.
    10030    2    1    2    0    0  0.00000000000E+00  0.00000000000E+00  0.43458652235E+03  0.11789757464E+04  0.10959554577E+04 0.  0.
        1    1    3    3  502    0  0.41171526908E+03 -0.21233025225E+03  0.53218907191E+03  0.70556275916E+03  0.50400001928E-02 0. -1.
       -1    1    3    3    0  502 -0.41171526908E+03  0.21233025225E+03 -0.97602549565E+02  0.47341298728E+03  0.50400001928E-02 0.  1.
</event>
<event>
 5   0  0.1468556E-03  0.1100679E+04  0.7818609E-02  0.9204530E-01
        1   -1    0    0  501    0  0.00000000000E+00  0.00000000000E+00  0.63301056638E+03  0.63301056640E+03  0.50400001928E-02 0.  1.
       -1   -1    0    0    0  501  0.00000000000E+00  0.00000000000E+00 -0.47846525448E+03  0.47846525451E+03  0.50400001928E-02 0. -1.
    10030    2    1    2    0    0  0.00000000000E+00  0.00000000000E+00  0.15454531190E+03  0.11114758209E+04  0.11006789936E+04 0.  0.
        5    1    3    3  502    0  0.54723511125E+03 -0.57326878292E+02  0.87311693554E+02  0.55713378985E+03  0.46999998093E+01 0.  1.
       -5    1    3    3    0  502 -0.54723511125E+03  0.57326878292E+02  0.67233618342E+02  0.55434203106E+03  0.46999998093E+01 0. -1.
</event>
<event>
 5   0  0.1415400E-03  0.1100397E+04  0.7818609E-02  0.9204805E-01
        1   -1    0    0  501    0  0.00000000000E+00  0.00000000000E+00  0.80920186385E+03  0.80920186386E+03  0.50400001928E-02 0.  1.
       -1   -1    0    0    0  501  0.00000000000E+00  0.00000000000E+00 -0.37409496950E+03  0.37409496953E+03  0.50400001928E-02 0. -1.
    10030    2    1    2    0    0  0.00000000000E+00  0.00000000000E+00  0.43510689435E+03  0.11832968334E+04  0.11003969222E+04 0.  0.
        2    1    3    3  502    0 -0.39253658130E+03  0.17854670221E+02  0.63168304690E+03  0.74392689739E+03  0.25500000920E-02 0.  1.
       -2    1    3    3    0  502  0.39253658130E+03 -0.17854670221E+02 -0.19657615255E+03  0.43936993600E+03  0.25500000920E-02 0. -1.
</event>
<event>
 5   0  0.2438115E-03  0.1099337E+04  0.7818609E-02  0.9205838E-01
       -2   -1    0    0    0  501  0.00000000000E+00  0.00000000000E+00  0.13906415452E+03  0.13906415454E+03  0.25500000920E-02 0.  1.
        2   -1    0    0  501    0  0.00000000000E+00  0.00000000000E+00 -0.21726338092E+04  0.21726338092E+04  0.25500000920E-02 0. -1.
    10030    2    1    2    0    0  0.00000000000E+00  0.00000000000E+00 -0.20335696547E+04  0.23116979637E+04  0.10993370435E+04 0.  0.
        4    1    3    3  502    0  0.32957645412E+03  0.43962769777E+03 -0.10494102028E+04  0.11845490866E+04  0.12699999809E+01 0. -1.
       -4    1    3    3    0  502 -0.32957645412E+03 -0.43962769777E+03 -0.98415945186E+03  0.11271488772E+04  0.12699999809E+01 0.  1.
</event>
<event>
 5   0  0.2438115E-03  0.1095038E+04  0.7818609E-02  0.9210042E-01
       -2   -1    0    0    0  501  0.00000000000E+00  0.00000000000E+00  0.15604665697E+03  0.15604665699E+03  0.25500000920E-02 0. -1.
        2   -1    0    0  501    0  0.00000000000E+00  0.00000000000E+00 -0.19210736568E+04  0.19210736568E+04  0.25500000920E-02 0.  1.
    10030    2    1    2    0    0  0.00000000000E+00  0.00000000000E+00 -0.17650269999E+04  0.20771203138E+04  0.10950381216E+04 0.  0.
        4    1    3    3  502    0  0.42229335755E+03  0.16784210448E+03 -0.30320479455E+03  0.54629425423E+03  0.12699999809E+01 0. -1.
       -4    1    3    3    0  502 -0.42229335755E+03 -0.16784210448E+03 -0.14618222053E+04  0.15308260596E+04  0.12699999809E+01 0.  1.
</event>
<event>
 5   0  0.2467448E-03  0.1100070E+04  0.7818609E-02  0.9205124E-01
       -2   -1    0    0    0  501  0.00000000000E+00  0.00000000000E+00  0.24900801548E+03  0.24900801550E+03  0.25500000920E-02 0.  1.
        2   -1    0    0  501    0  0.00000000000E+00  0.00000000000E+00 -0.12149744522E+04  0.12149744522E+04  0.25500000920E-02 0. -1.
    10030    2    1    2    0    0  0.00000000000E+00  0.00000000000E+00 -0.96596643675E+03  0.14639824677E+04  0.11000697746E+04 0.  0.
        1    1    3    3  502    0  0.19610849485E+03  0.22568869858E+03 -0.10973852663E+04  0.11373866331E+04  0.50400001928E-02 0. -1.
       -1    1    3    3    0  502 -0.19610849485E+03 -0.22568869858E+03  0.13141882955E+03  0.32659583464E+03  0.50400001928E-02 0.  1.
</event>
<event>
 5   0  0.1479573E-03  0.1085184E+04  0.7818609E-02  0.9219754E-01
       -1   -1    0    0    0  501  0.00000000000E+00  0.00000000000E+00  0.40191389239E+03  0.40191389242E+03  0.50400001928E-02 0.  1.
        1   -1    0    0  501    0  0.00000000000E+00  0.00000000000E+00 -0.73251047321E+03  0.73251047323E+03  0.50400001928E-02 0. -1.
    10030    2    1    2    0    0  0.00000000000E+00  0.00000000000E+00 -0.33059658083E+03  0.11344243656E+04  0.10851841052E+04 0.  0.
        4    1    3    3  502    0 -0.11295411898E+03 -0.22399927641E+03  0.33764576383E+03  0.42064305956E+03  0.12699999809E+01 0.  1.
       -4    1    3    3    0  502  0.11295411898E+03  0.22399927641E+03 -0.66824234465E+03  0.71378130608E+03  0.12699999809E+01 0. -1.
</event>
<event>
 5   0  0.1479573E-03  0.1096069E+04  0.7818609E-02  0.9209031E-01
        1   -1    0    0  501    0  0.00000000000E+00  0.00000000000E+00  0.47286541843E+03  0.47286541846E+03  0.50400001928E-02 0. -1.
       -1   -1    0    0    0  501  0.00000000000E+00  0.00000000000E+00 -0.63515330071E+03  0.63515330073E+03  0.50400001928E-02 0.  1.
    10030    2    1    2    0    0  0.00000000000E+00  0.00000000000E+00 -0.16228788228E+03  0.11080187192E+04  0.10960693980E+04 0.  0.
        4    1    3    3  502    0  0.34118747189E+03 -0.27636178257E+02  0.35150293569E+03  0.49064098486E+03  0.12699999809E+01 0. -1.
       -4    1    3    3    0  502 -0.34118747189E+03  0.27636178257E+02 -0.51379081796E+03  0.61737773433E+03  0.12699999809E+01 0.  1.
</event>
<event>
 5   0  0.2392585E-03  0.1097160E+04  0.7818609E-02  0.9207965E-01
        2   -1    0    0  501    0  0.00000000000E+00  0.00000000000E+00  0.14668165044E+04  0.14668165044E+04  0.25500000920E-02 0. -1.
       -2   -1    0    0    0  501  0.00000000000E+00  0.00000000000E+00 -0.20516530478E+03  0.20516530479E+03  0.25500000920E-02 0.  1.
    10030    2    1    2    0    0  0.00000000000E+00  0.00000000000E+00  0.12616511996E+04  0.16719818092E+04  0.10971597061E+04 0.  0.
        5    1    3    3  502    0 -0.27075400495E+03 -0.15500171630E+03  0.13184227302E+04  0.13548408943E+04  0.46999998093E+01 0. -1.
       -5    1    3    3    0  502  0.27075400495E+03  0.15500171630E+03 -0.56771530561E+02  0.31714091495E+03  0.46999998093E+01 0.  1.
</event>
<event>
 5   0  0.1468556E-03  0.1090660E+04  0.7818609E-02  0.9214344E-01
        1   -1    0    0  501    0  0.00000000000E+00  0.00000000000E+00  0.76697309075E+03  0.76697309077E+03  0.50400001928E-02 0.  1.
       -1   -1    0    0    0  501  0.00000000000E+00  0.00000000000E+00 -0.38773809078E+03  0.38773809081E+03  0.50400001928E-02 0. -1.
    10030    2    1    2    0    0  0.00000000000E+00  0.00000000000E+00  0.37923499997E+03  0.11547111816E+04  0.10906597671E+04 0.  0.
        5    1    3    3  502    0  0.30086790775E+03 -0.14513256759E+03 -0.26671435830E+03  0.42748520326E+03  0.46999998093E+01 0. -1.
       -5    1    3    3    0  502 -0.30086790775E+03  0.14513256759E+03  0.64594935827E+03  0.72722597831E+03  0.46999998093E+01 0.  1.
</event>
<event>
 5   0  0.1468556E-03  0.1068125E+04  0.7818609E-02  0.9236829E-01
       -1   -1    0    0    0  501  0.00000000000E+00  0.00000000000E+00  0.89801352236E+03  0.89801352238E+03  0.50400001928E-02 0. -1.
        1   -1    0    0  501    0  0.00000000000E+00  0.00000000000E+00 -0.31761502011E+03  0.31761502015E+03  0.50400001928E-02 0.  1.
    10030    2    1    2    0    0  0.00000000000E+00  0.00000000000E+00  0.58039850225E+03  0.12156285425E+04  0.10681246800E+04 0.  0.
        5    1    3    3  502    0  0.10815531675E+03  0.15137564490E+00  0.88539511494E+03  0.89198889848E+03  0.46999998093E+01 0. -1.
       -5    1    3    3    0  502 -0.10815531675E+03 -0.15137564490E+00 -0.30499661268E+03  0.32363964405E+03  0.46999998093E+01 0.  1.
</event>
<event>
 5   0  0.2488472E-03  0.1093776E+04  0.7818609E-02  0.9211279E-01
        2   -1    0    0  501    0  0.00000000000E+00  0.00000000000E+00  0.12272437932E+04  0.12272437932E+04  0.25500000920E-02 0. -1.
       -2   -1    0    0    0  501  0.00000000000E+00  0.00000000000E+00 -0.24370597772E+03  0.24370597773E+03  0.25500000920E-02 0.  1.
    10030    2    1    2    0    0  0.00000000000E+00  0.00000000000E+00  0.98353781546E+03  0.14709497709E+04  0.10937762998E+04 0.  0.
        2    1    3    3  502    0 -0.40601403890E+03  0.35922792176E+03  0.39484224577E+03  0.67066571300E+03  0.25500000920E-02 0.  1.
       -2    1    3    3    0  502  0.40601403890E+03 -0.35922792176E+03  0.58869556969E+03  0.80028405790E+03  0.25500000920E-02 0. -1.
</event>
<event>
 5   0  0.1509004E-03  0.1088454E+04  0.7818609E-02  0.9216519E-01
        1   -1    0    0  501    0  0.00000000000E+00  0.00000000000E+00  0.70764359570E+03  0.70764359572E+03  0.50400001928E-02 0. -1.
       -1   -1    0    0    0  501  0.00000000000E+00  0.00000000000E+00 -0.41854829053E+03  0.41854829056E+03  0.50400001928E-02 0.  1.
    10030    2    1    2    0    0  0.00000000000E+00  0.00000000000E+00  0.28909530517E+03  0.11261918863E+04  0.10884539812E+04 0.  0.
        3    1    3    3  502    0  0.30797072424E+02  0.34534967628E+03 -0.28948195301E+03  0.45167983118E+03  0.10100000352E+00 0.  1.
       -3    1    3    3    0  502 -0.30797072424E+02 -0.34534967628E+03  0.57857725819E+03  0.67451205509E+03  0.10100000352E+00 0. -1.
</event>
<event>
 5   0  0.2483036E-03  0.1102754E+04  0.7818609E-02  0.9202512E-01
        2   -1    0    0  501    0  0.00000000000E+00  0.00000000000E+00  0.16040694216E+04  0.16040694216E+04  0.25500000920E-02 0. -1.
       -2   -1    0    0    0  501  0.00000000000E+00  0.00000000000E+00 -0.18952820633E+03  0.18952820635E+03  0.25500000920E-02 0.  1.
    10030    2    1    2    0    0  0.00000000000E+00  0.00000000000E+00  0.14145412153E+04  0.17935976280E+04  0.11027536449E+04 0.  0.
        3    1    3    3  502    0  0.32168377542E+02 -0.30187039479E+03 -0.41358570159E+02  0.30638387896E+03  0.10100000352E+00 0.  1.
       -3    1    3    3    0  502 -0.32168377542E+02  0.30187039479E+03  0.14558997855E+04  0.14872137490E+04  0.10100000352E+00 0. -1.
</event>
<event>
 5   0  0.9631750E-04  0.1095638E+04  0.7818609E-02  0.9209454E-01
        3   -1    0    0  501    0  0.00000000000E+00  0.00000000000E+00  0.49417911186E+03  0.49417912219E+03  0.10100000352E+00 0. -1.
       -3   -1    0    0    0  501  0.00000000000E+00  0.00000000000E+00 -0.60728146252E+03  0.60728147092E+03  0.10100000352E+00 0.  1.
    10030    2    1    2    0    0  0.00000000000E+00  0.00000000000E+00 -0.11310235066E+03  0.11014605931E+04  0.10956383055E+04 0.  0.
        1    1    3    3  502    0 -0.39320083159E+03 -0.12769019507E+03 -0.41789710847E+03  0.58783473288E+03  0.50400001928E-02 0.  1.
       -1    1    3    3    0  502  0.39320083159E+03  0.12769019507E+03  0.30479475782E+03  0.51362586023E+03  0.50400001928E-02 0. -1.
</event>
<event>
 5   0  0.2438115E-03  0.1104324E+04  0.7818609E-02  0.9200988E-01
       -2   -1    0    0    0  501  0.00000000000E+00  0.00000000000E+00  0.13070174479E+04  0.13070174479E+04  0.25500000920E-02 0. -1.
        2   -1    0    0  501    0  0.00000000000E+00  0.00000000000E+00 -0.23326615646E+03  0.23326615647E+03  0.25500000920E-02 0.  1.
    10030    2    1    2    0    0  0.00000000000E+00  0.00000000000E+00  0.10737512914E+04  0.15402836043E+04  0.11043241128E+04 0.  0.
        4    1    3    3  502    0  0.42886648501E+03  0.23346942196E+03  0.89641088963E+03  0.10207783936E+04  0.12699999809E+01 0. -1.
       -4    1    3    3    0  502 -0.42886648501E+03 -0.23346942196E+03  0.17734040178E+03  0.51950521071E+03  0.12699999809E+01 0.  1.
</event>
<event>
 5   0  0.2438115E-03  0.1104140E+04  0.7818609E-02  0.9201166E-01
        2   -1    0    0  501    0  0.00000000000E+00  0.00000000000E+00  0.60878472860E+03  0.60878472860E+03  0.25500000920E-02 0.  1.
       -2   -1    0    0    0  501  0.00000000000E+00  0.00000000000E+00 -0.50063896353E+03  0.50063896354E+03  0.25500000920E-02 0. -1.
    10030    2    1    2    0    0  0.00000000000E+00  0.00000000000E+00  0.10814576506E+03  0.11094236921E+04  0.11041401280E+04 0.  0.
        4    1    3    3  502    0  0.39181553835E+03 -0.38494582374E+03  0.10980939189E+03  0.56014499797E+03  0.12699999809E+01 0. -1.
       -4    1    3    3    0  502 -0.39181553835E+03  0.38494582374E+03 -0.16636268242E+01  0.54927869416E+03  0.12699999809E+01 0.  1.
</event>
<event>
 5   0  0.1415400E-03  0.1083883E+04  0.7818609E-02  0.9221044E-01
       -1   -1    0    0    0  501  0.00000000000E+00  0.00000000000E+00  0.34720582579E+03  0.34720582583E+03  0.50400001928E-02 0. -1.
        1   -1    0    0  501    0  0.00000000000E+00  0.00000000000E+00 -0.84589767435E+03  0.84589767436E+03  0.50400001928E-02 0.  1.
    10030    2    1    2    0    0  0.00000000000E+00  0.00000000000E+00 -0.49869184855E+03  0.11931035002E+04  0.10838830206E+04 0.  0.
        2    1    3    3  502    0 -0.49683503831E+03  0.76970606490E+00 -0.48761817070E+03  0.69614447362E+03  0.25500000920E-02 0.  1.
       -2    1    3    3    0  502  0.49683503831E+03 -0.76970606490E+00 -0.11073677849E+02  0.49695902657E+03  0.25500000920E-02 0. -1.
</event>
<event>
 5   0  0.2467448E-03  0.1099757E+04  0.7818609E-02  0.9205429E-01
       -2   -1    0    0    0  501  0.00000000000E+00  0.00000000000E+00  0.28457610269E+03  0.28457610270E+03  0.25500000920E-02 0.  1.
        2   -1    0    0  501    0  0.00000000000E+00  0.00000000000E+00 -0.10625152258E+04  0.10625152258E+04  0.25500000920E-02 0. -1.
    10030    2    1    2    0    0  0.00000000000E+00  0.00000000000E+00 -0.77793912306E+03  0.13470913285E+04  0.10997571405E+04 0.  0.
        1    1    3    3  502    0  0.42521776548E+03 -0.25382954106E+03 -0.68173541328E+03  0.84261661373E+03  0.50400001928E-02 0. -1.
       -1    1    3    3    0  502 -0.42521776548E+03  0.25382954106E+03 -0.96203709787E+02  0.50447471473E+03  0.50400001928E-02 0.  1.
</event>
<event>
 5   0  0.1480937E-03  0.1097449E+04  0.7818609E-02  0.9207682E-01
        1   -1    0    0  501    0  0.00000000000E+00  0.00000000000E+00  0.68902622291E+03  0.68902622292E+03  0.50400001928E-02 0.  1.
       -1   -1    0    0    0  501  0.00000000000E+00  0.00000000000E+00 -0.43699107289E+03  0.43699107292E+03  0.50400001928E-02 0. -1.
    10030    2    1    2    0    0  0.00000000000E+00  0.00000000000E+00  0.25203515002E+03  0.11260172958E+04  0.10974485107E+04 0.  0.
        1    1    3    3  502    0  0.10169956442E+03  0.31551199204E+03 -0.32263853357E+03  0.46258646964E+03  0.50400001928E-02 0. -1.
       -1    1    3    3    0  502 -0.10169956442E+03 -0.31551199204E+03  0.57467368359E+03  0.66343082620E+03  0.50400001928E-02 0.  1.
</event>
<event>
 5   0  0.1468556E-03  0.1097267E+04  0.7818609E-02  0.9207860E-01
       -1   -1    0    0    0  501  0.00000000000E+00  0.00000000000E+00  0.30194834889E+03  0.30194834893E+03  0.50400001928E-02 0. -1.
        1   -1    0    0  501    0  0.00000000000E+00  0.00000000000E+00 -0.99685513434E+03  0.99685513435E+03  0.50400001928E-02 0.  1.
    10030    2    1    2    0    0  0.00000000000E+00  0.00000000000E+00 -0.69490678545E+03  0.12988034833E+04  0.10972670813E+04 0.  0.
        5    1    3    3  502    0  0.30133836910E+01  0.50139503494E+03 -0.61099138179E+03  0.79040408663E+03  0.46999998093E+01 0.  1.
       -5    1    3    3    0  502 -0.30133836910E+01 -0.50139503494E+03 -0.83915403655E+02  0.50839939665E+03  0.46999998093E+01 0. -1.
</event>
<event>
 5   0  0.2467448E-03  0.1102789E+04  0.7818609E-02  0.9202478E-01
       -2   -1    0    0    0  501  0.00000000000E+00  0.00000000000E+00  0.29350282413E+03  0.29350282414E+03  0.25500000920E-02 0. -1.
        2   -1    0    0  501    0  0.00000000000E+00  0.00000000000E+00 -0.10358876957E+04  0.10358876957E+04  0.25500000920E-02 0.  1.
    10030    2    1    2    0    0  0.00000000000E+00  0.00000000000E+00 -0.74238487154E+03  0.13293905198E+04  0.11027891261E+04 0.  0.
        1    1    3    3  502    0 -0.25176207994E+03  0.15291809042E+01 -0.96255328217E+03  0.99493482416E+03  0.50400001928E-02 0.  1.
       -1    1    3    3    0  502  0.25176207994E+03 -0.15291809042E+01  0.22016841063E+03  0.33445569565E+03  0.50400001928E-02 0. -1.
</event>
<event>
 5   0  0.1468556E-03  0.1100915E+04  0.7818609E-02  0.9204300E-01
        1   -1    0    0  501    0  0.00000000000E+00  0.00000000000E+00  0.34424235581E+03  0.34424235584E+03  0.50400001928E-02 0. -1.
       -1   -1    0    0    0  501  0.00000000000E+00  0.00000000000E+00 -0.88020456709E+03  0.88020456711E+03  0.50400001928E-02 0.  1.
    10030    2    1    2    0    0  0.00000000000E+00  0.00000000000E+00 -0.53596221129E+03  0.12244469230E+04  0.11009154260E+04 0.  0.
        5    1    3    3  502    0 -0.88557859330E+02 -0.39074801639E+03 -0.68776425702E+03  0.79597001827E+03  0.46999998093E+01 0.  1.
       -5    1    3    3    0  502  0.88557859330E+02  0.39074801639E+03  0.15180204573E+03  0.42847690468E+03  0.46999998093E+01 0. -1.
</event>
<event>
 5   0  0.1509004E-03  0.1106442E+04  0.7818609E-02  0.9198935E-01
       -1   -1    0    0    0  501  0.00000000000E+00  0.00000000000E+00  0.61175013311E+03  0.61175013314E+03  0.50400001928E-02 0.  1.
        1   -1    0    0  501    0  0.00000000000E+00  0.00000000000E+00 -0.50029197281E+03  0.50029197284E+03  0.50400001928E-02 0. -1.
    10030    2    1    2    0    0  0.00000000000E+00  0.00000000000E+00  0.11145816030E+03  0.11120421060E+04  0.11064423726E+04 0.  0.
        3    1    3    3  502    0  0.18355045703E+02  0.27119377850E+03 -0.42855047565E+03  0.50748250568E+03  0.10100000352E+00 0. -1.
       -3    1    3    3    0  502 -0.18355045703E+02 -0.27119377850E+03  0.54000863595E+03  0.60455960029E+03  0.10100000352E+00 0.  1.
</event>
<event>
 5   0  0.1479573E-03  0.1102482E+04  0.7818609E-02  0.9202776E-01
        1   -1    0    0  501    0  0.00000000000E+00  0.00000000000E+00  0.55033554000E+03  0.55033554003E+03  0.50400001928E-02 0. -1.
       -1   -1    0    0    0  501  0.00000000000E+00  0.00000000000E+00 -0.55214760809E+03  0.55214760811E+03  0.50400001928E-02 0.  1.
    10030    2    1    2    0    0  0.00000000000E+00  0.00000000000E+00 -0.18120680890E+01  0.11024831481E+04  0.11024816590E+04 0.  0.
        4    1    3    3  502    0 -0.42142019973E+03 -0.32821166832E+03  0.13528135645E+03  0.55101773317E+03  0.12699999809E+01 0.  1.
       -4    1    3    3    0  502  0.42142019973E+03  0.32821166832E+03 -0.13709342454E+03  0.55146541497E+03  0.12699999809E+01 0. -1.
</event>
<event>
 5   0  0.2392585E-03  0.1104911E+04  0.7818609E-02  0.9200418E-01
       -2   -1    0    0    0  501  0.00000000000E+00  0.00000000000E+00  0.13532682767E+03  0.13532682769E+03  0.25500000920E-02 0.  1.
        2   -1    0    0  501    0  0.00000000000E+00  0.00000000000E+00 -0.22553351782E+04  0.22553351782E+04  0.25500000920E-02 0. -1.
    10030    2    1    2    0    0  0.00000000000E+00  0.00000000000E+00 -0.21200083505E+04  0.23906620059E+04  0.11049114988E+04 0.  0.
        5    1    3    3  502    0 -0.12555220676E+03 -0.29901425881E+03 -0.92352335663E+02  0.33722978441E+03  0.46999998093E+01 0.  1.
       -5    1    3    3    0  502  0.12555220676E+03  0.29901425881E+03 -0.20276560149E+04  0.20534322215E+04  0.46999998093E+01 0. -1.
</event>
<event>
 5   0  0.2467448E-03  0.1000514E+04  0.7818609E-02  0.9307981E-01
        2   -1    0    0  501    0  0.00000000000E+00  0.00000000000E+00  0.48003385223E+03  0.48003385224E+03  0.25500000920E-02 0. -1.
       -2   -1    0    0    0  501  0.00000000000E+00  0.00000000000E+00 -0.52133205362E+03  0.52133205362E+03  0.25500000920E-02 0.  1.
    10030    2    1    2    0    0  0.00000000000E+00  0.00000000000E+00 -0.41298201387E+02  0.10013659059E+04  0.10005139359E+04 0.  0.
        1    1    3    3  502    0 -0.22283443752E+03  0.39988047340E+03  0.18125878504E+03  0.49235589438E+03  0.50400001928E-02 0. -1.
       -1    1    3    3    0  502  0.22283443752E+03 -0.39988047340E+03 -0.22255698643E+03  0.50901001148E+03  0.50400001928E-02 0.  1.
</event>
<event>
 5   0  0.1415400E-03  0.1101268E+04  0.7818609E-02  0.9203957E-01
        1   -1    0    0  501    0  0.00000000000E+00  0.00000000000E+00  0.81828626747E+03  0.81828626749E+03  0.50400001928E-02 0.  1.
       -1   -1    0    0    0  501  0.00000000000E+00  0.00000000000E+00 -0.37052775702E+03  0.37052775705E+03  0.50400001928E-02 0. -1.
    10030    2    1    2    0    0  0.00000000000E+00  0.00000000000E+00  0.44775851046E+03  0.11888140245E+04  0.11012679516E+04 0.  0.
        2    1    3    3  502    0 -0.45909529994E+03 -0.28110099061E+03  0.34889359221E+03  0.64149279033E+03  0.25500000920E-02 0. -1.
       -2    1    3    3    0  502  0.45909529994E+03  0.28110099061E+03  0.98864918242E+02  0.54732123421E+03  0.25500000920E-02 0.  1.
</event>
<event>
 5   0  0.1468556E-03  0.1098730E+04  0.7818609E-02  0.9206431E-01
        1   -1    0    0  501    0  0.00000000000E+00  0.00000000000E+00  0.88209741551E+03  0.88209741553E+03  0.50400001928E-02 0. -1.
       -1   -1    0    0    0  501  0.00000000000E+00  0.00000000000E+00 -0.34214108928E+03  0.34214108932E+03  0.50400001928E-02 0.  1.
    10030    2    1    2    0    0  0.00000000000E+00  0.00000000000E+00  0.53995632623E+03  0.12242385048E+04  0.10987297586E+04 0.  0.
        5    1    3    3  502    0 -0.43236636939E+03  0.26019679849E+03  0.28067835762E+02  0.50542353005E+03  0.46999998093E+01 0.  1.
       -5    1    3    3    0  502  0.43236636939E+03 -0.26019679849E+03  0.51188849047E+03  0.71881497480E+03  0.46999998093E+01 0. -1.
</event>
<event>
 5   0  0.2483036E-03  0.1101021E+04  0.7818609E-02  0.9204197E-01
       -2   -1    0    0    0  501  0.00000000000E+00  0.00000000000E+00  0.30293554129E+03  0.30293554130E+03  0.25500000920E-02 0. -1.
        2   -1    0    0  501    0  0.00000000000E+00  0.00000000000E+00 -0.10004166586E+04  0.10004166586E+04  0.25500000920E-02 0.  1.
    10030    2    1    2    0    0  0.00000000000E+00  0.00000000000E+00 -0.69748111730E+03  0.13033521999E+04  0.11010209117E+04 0.  0.
        3    1    3    3  502    0  0.48490569446E+03  0.12025038663E+03 -0.75016197735E+02  0.50519414895E+03  0.10100000352E+00 0. -1.
       -3    1    3    3    0  502 -0.48490569446E+03 -0.12025038663E+03 -0.62246491957E+03  0.79815805095E+03  0.10100000352E+00 0.  1.
</event>
<event>
 5   0  0.2467448E-03  0.1099585E+04  0.7818609E-02  0.9205596E-01
       -2   -1    0    0    0  501  0.00000000000E+00  0.00000000000E+00  0.35441114532E+03  0.35441114533E+03  0.25500000920E-02 0.  1.
        2   -1    0    0  501    0  0.00000000000E+00  0.00000000000E+00 -0.85288461144E+03  0.85288461144E+03  0.25500000920E-02 0. -1.
    10030    2    1    2    0    0  0.00000000000E+00  0.00000000000E+00 -0.49847346612E+03  0.12072957568E+04  0.10995850344E+04 0.  0.
        1    1    3    3  502    0  0.19686921436E+03 -0.51191240614E+03 -0.20728371693E+03  0.58632613660E+03  0.50400001928E-02 0.  1.
       -1    1    3    3    0  502 -0.19686921436E+03  0.51191240614E+03 -0.29118974919E+03  0.62096962018E+03  0.50400001928E-02 0. -1.
</event>
<event>
 5   0  0.9631750E-04  0.1098808E+04  0.7818609E-02  0.9206354E-01
       -3   -1    0    0    0  501  0.00000000000E+00  0.00000000000E+00  0.14069327665E+03  0.14069331290E+03  0.10100000352E+00 0.  1.
        3   -1    0    0  501    0  0.00000000000E+00  0.00000000000E+00 -0.21454096817E+04  0.21454096841E+04  0.10100000352E+00 0. -1.
    10030    2    1    2    0    0  0.00000000000E+00  0.00000000000E+00 -0.20047164051E+04  0.22861029970E+04  0.10988080124E+04 0.  0.
        5    1    3    3  502    0  0.12642590436E+03  0.82595552626E+01  0.10984210025E+03  0.16774715060E+03  0.46999998093E+01 0.  1.
       -5    1    3    3    0  502 -0.12642590436E+03 -0.82595552626E+01 -0.21145585053E+04  0.21183558464E+04  0.46999998093E+01 0. -1.
</event>
<event>
 5   0  0.1468556E-03  0.1095953E+04  0.7818609E-02  0.9209146E-01
        1   -1    0    0  501    0  0.00000000000E+00  0.00000000000E+00  0.48631186471E+03  0.48631186473E+03  0.50400001928E-02 0.  1.
       -1   -1    0    0    0  501  0.00000000000E+00  0.00000000000E+00 -0.61745981910E+03  0.61745981912E+03  0.50400001928E-02 0. -1.
    10030    2    1    2    0    0  0.00000000000E+00  0.00000000000E+00 -0.13114795439E+03  0.11037716838E+04  0.10959526195E+04 0.  0.
        5    1    3    3  502    0 -0.19145538366E+03  0.25852466342E+03 -0.51232160567E+03  0.60496750588E+03  0.46999998093E+01 0. -1.
       -5    1    3    3    0  502  0.19145538366E+03 -0.25852466342E+03  0.38117365128E+03  0.49880417797E+03  0.46999998093E+01 0.  1.
</event>
<event>
 5   0  0.1415400E-03  0.1101331E+04  0.7818609E-02  0.9203896E-01
        1   -1    0    0  501    0  0.00000000000E+00  0.00000000000E+00  0.48793490822E+03  0.48793490825E+03  0.50400001928E-02 0. -1.
       -1   -1    0    0    0  501  0.00000000000E+00  0.00000000000E+00 -0.62146058531E+03  0.62146058533E+03  0.50400001928E-02 0.  1.
    10030    2    1    2    0    0  0.00000000000E+00  0.00000000000E+00 -0.13352567709E+03  0.11093954936E+04  0.11013306746E+04 0.  0.
        2    1    3    3  502    0  0.22953088974E+03  0.69923739762E+02  0.43250616968E+03  0.49460625304E+03  0.25500000920E-02 0. -1.
       -2    1    3    3    0  502 -0.22953088974E+03 -0.69923739762E+02 -0.56603184677E+03  0.61478924055E+03  0.25500000920E-02 0.  1.
</event>
<event>
 5   0  0.1468556E-03  0.1105264E+04  0.7818609E-02  0.9200077E-01
       -1   -1    0    0    0  501  0.00000000000E+00  0.00000000000E+00  0.64651835445E+03  0.64651835447E+03  0.50400001928E-02 0.  1.
        1   -1    0    0  501    0  0.00000000000E+00  0.00000000000E+00 -0.47237927234E+03  0.47237927236E+03  0.50400001928E-02 0. -1.
    10030    2    1    2    0    0  0.00000000000E+00  0.00000000000E+00  0.17413908211E+03  0.11188976268E+04  0.11052635339E+04 0.  0.
        5    1    3    3  502    0  0.42136186014E+02  0.54598048412E+03  0.16221207441E+03  0.57114358466E+03  0.46999998093E+01 0.  1.
       -5    1    3    3    0  502 -0.42136186014E+02 -0.54598048412E+03  0.11927007702E+02  0.54775404218E+03  0.46999998093E+01 0. -1.
</event>
<event>
 5   0  0.1415400E-03  0.1107080E+04  0.7818609E-02  0.9198319E-01
        1   -1    0    0  501    0  0.00000000000E+00  0.00000000000E+00  0.62349028663E+03  0.62349028666E+03  0.50400001928E-02 0. -1.
       -1   -1    0    0    0  501  0.00000000000E+00  0.00000000000E+00 -0.49143745497E+03  0.49143745499E+03  0.50400001928E-02 0.  1.
    10030    2    1    2    0    0  0.00000000000E+00  0.00000000000E+00  0.13205283167E+03  0.11149277416E+04  0.11070799062E+04 0.  0.
        2    1    3    3  502    0  0.56137546252E+02  0.55032570928E+03  0.45968673732E+02  0.55508821764E+03  0.25500000920E-02 0.  1.
       -2    1    3    3    0  502 -0.56137546252E+02 -0.55032570928E+03  0.86084157936E+02  0.55983952401E+03  0.25500000920E-02 0. -1.
</event>
<event>
 5   0  0.1468556E-03  0.1101997E+04  0.7818609E-02  0.9203247E-01
        1   -1    0    0  501    0  0.00000000000E+00  0.00000000000E+00  0.60324848943E+03  0.60324848945E+03  0.50400001928E-02 0.  1.
       -1   -1    0    0    0  501  0.00000000000E+00  0.00000000000E+00 -0.50327453867E+03  0.50327453870E+03  0.50400001928E-02 0. -1.
    10030    2    1    2    0    0  0.00000000000E+00  0.00000000000E+00  0.99973950754E+02  0.11065230281E+04  0.11019974687E+04 0.  0.
        5    1    3    3  502    0 -0.10361888778E+03  0.36260515439E+03  0.45333069933E+03  0.58970347196E+03  0.46999998093E+01 0.  1.
       -5    1    3    3    0  502  0.10361888778E+03 -0.36260515439E+03 -0.35335674857E+03  0.51681955618E+03  0.46999998093E+01 0. -1.
</event>
<event>
 5   0  0.9631750E-04  0.1081186E+04  0.7818609E-02  0.9223725E-01
        4   -1    0    0  501    0  0.00000000000E+00  0.00000000000E+00  0.70104005414E+03  0.70104120450E+03  0.12699999809E+01 0.  1.
       -4   -1    0    0    0  501  0.00000000000E+00  0.00000000000E+00 -0.41686538217E+03  0.41686731672E+03  0.12699999809E+01 0. -1.
    10030    2    1    2    0    0  0.00000000000E+00  0.00000000000E+00  0.28417467197E+03  0.11179085212E+04  0.10811864861E+04 0.  0.
        1    1    3    3  502    0 -0.22640929513E+03  0.48541036835E+03  0.66412290798E+02  0.53971750668E+03  0.50400001928E-02 0. -1.
       -1    1    3    3    0  502  0.22640929513E+03 -0.48541036835E+03  0.21776238117E+03  0.57819101454E+03  0.50400001928E-02 0.  1.
</event>
<event>
 5   0  0.2483036E-03  0.1113388E+04  0.7818609E-02  0.9192240E-01
       -2   -1    0    0    0  501  0.00000000000E+00  0.00000000000E+00  0.50058527038E+03  0.50058527039E+03  0.25500000920E-02 0.  1.
        2   -1    0    0  501    0  0.00000000000E+00  0.00000000000E+00 -0.61909167973E+03  0.61909167973E+03  0.25500000920E-02 0. -1.
    10030    2    1    2    0    0  0.00000000000E+00  0.00000000000E+00 -0.11850640934E+03  0.11196769501E+04  0.11133879394E+04 0.  0.
        3    1    3    3  502    0  0.22961190877E+03  0.40611723285E+03  0.24619808218E+03  0.52750956516E+03  0.10100000352E+00 0.  1.
       -3    1    3    3    0  502 -0.22961190877E+03 -0.40611723285E+03 -0.36470449153E+03  0.59216738496E+03  0.10100000352E+00 0. -1.
</event>
<event>
 5   0  0.2488472E-03  0.1108300E+04  0.7818609E-02  0.9197139E-01
        2   -1    0    0  501    0  0.00000000000E+00  0.00000000000E+00  0.12022801466E+04  0.12022801466E+04  0.25500000920E-02 0.  1.
       -2   -1    0    0    0  501  0.00000000000E+00  0.00000000000E+00 -0.25541674274E+03  0.25541674276E+03  0.25500000920E-02 0. -1.
    10030    2    1    2    0    0  0.00000000000E+00  0.00000000000E+00  0.94686340381E+03  0.14576968893E+04  0.11083004627E+04 0.  0.
        2    1    3    3  502    0 -0.89410533355E+02 -0.52792902424E+03  0.66119170058E+03  0.85081006284E+03  0.25500000920E-02 0.  1.
       -2    1    3    3    0  502  0.89410533355E+02  0.52792902424E+03  0.28567170322E+03  0.60688682647E+03  0.25500000920E-02 0. -1.
</event>
<event>
 5   0  0.2467448E-03  0.1098871E+04  0.7818609E-02  0.9206293E-01
       -2   -1    0    0    0  501  0.00000000000E+00  0.00000000000E+00  0.16721933934E+03  0.16721933936E+03  0.25500000920E-02 0.  1.
        2   -1    0    0  501    0  0.00000000000E+00  0.00000000000E+00 -0.18052909791E+04  0.18052909791E+04  0.25500000920E-02 0. -1.
    10030    2    1    2    0    0  0.00000000000E+00  0.00000000000E+00 -0.16380716398E+04  0.19725103185E+04  0.10988713571E+04 0.  0.
        1    1    3    3  502    0 -0.40557532084E+03  0.32530570745E+03 -0.11379481727E+04  0.12510959947E+04  0.50400001928E-02 0.  1.
       -1    1    3    3    0  502  0.40557532084E+03 -0.32530570745E+03 -0.50012346701E+03  0.72141432371E+03  0.50400001928E-02 0. -1.
</event>
<event>
 5   0  0.1415400E-03  0.1097599E+04  0.7818609E-02  0.9207535E-01
       -1   -1    0    0    0  501  0.00000000000E+00  0.00000000000E+00  0.38731071508E+03  0.38731071512E+03  0.50400001928E-02 0. -1.
        1   -1    0    0  501    0  0.00000000000E+00  0.00000000000E+00 -0.77762151754E+03  0.77762151755E+03  0.50400001928E-02 0.  1.
    10030    2    1    2    0    0  0.00000000000E+00  0.00000000000E+00 -0.39031080245E+03  0.11649322327E+04  0.10975994644E+04 0.  0.
        2    1    3    3  502    0  0.84214128396E+02 -0.10077926478E+03 -0.76069687078E+03  0.77195091091E+03  0.25500000920E-02 0.  1.
       -2    1    3    3    0  502 -0.84214128396E+02  0.10077926478E+03  0.37038606833E+03  0.39298132176E+03  0.25500000920E-02 0. -1.
</event>
<event>
 5   0  0.2438115E-03  0.1104967E+04  0.7818609E-02  0.9200364E-01
       -2   -1    0    0    0  501  0.00000000000E+00  0.00000000000E+00  0.78891216426E+03  0.78891216427E+03  0.25500000920E-02 0. -1.
        2   -1    0    0  501    0  0.00000000000E+00  0.00000000000E+00 -0.38691008284E+03  0.38691008285E+03  0.25500000920E-02 0.  1.
    10030    2    1    2    0    0  0.00000000000E+00  0.00000000000E+00  0.40200208142E+03  0.11758222471E+04  0.11049670960E+04 0.  0.
        4    1    3    3  502    0 -0.82193881941E+02  0.46144163878E+03  0.51225007601E+03  0.69432411271E+03  0.12699999809E+01 0. -1.
       -4    1    3    3    0  502  0.82193881941E+02 -0.46144163878E+03 -0.11024799459E+03  0.48149813441E+03  0.12699999809E+01 0.  1.
</event>
<event>
 5   0  0.1479573E-03  0.1097458E+04  0.7818609E-02  0.9207673E-01
        1   -1    0    0  501    0  0.00000000000E+00  0.00000000000E+00  0.17263196593E+04  0.17263196593E+04  0.50400001928E-02 0.  1.
       -1   -1    0    0    0  501  0.00000000000E+00  0.00000000000E+00 -0.17441934859E+03  0.17441934866E+03  0.50400001928E-02 0. -1.
    10030    2    1    2    0    0  0.00000000000E+00  0.00000000000E+00  0.15519003107E+04  0.19007390079E+04  0.10974580639E+04 0.  0.
        4    1    3    3  502    0  0.23344070424E+03 -0.44634612989E+03  0.39894822506E+03  0.64255795789E+03  0.12699999809E+01 0. -1.
       -4    1    3    3    0  502 -0.23344070424E+03  0.44634612989E+03  0.11529520856E+04  0.12581810500E+04  0.12699999809E+01 0.  1.
</event>
<event>
 5   0  0.1415400E-03  0.1108910E+04  0.7818609E-02  0.9196551E-01
        1   -1    0    0  501    0  0.00000000000E+00  0.00000000000E+00  0.79747583875E+03  0.79747583877E+03  0.50400001928E-02 0.  1.
       -1   -1    0    0    0  501  0.00000000000E+00  0.00000000000E+00 -0.38549149864E+03  0.38549149868E+03  0.50400001928E-02 0. -1.
    10030    2    1    2    0    0  0.00000000000E+00  0.00000000000E+00  0.41198434011E+03  0.11829673374E+04  0.11089096559E+04 0.  0.
        2    1    3    3  502    0  0.32274782568E+03 -0.34465323637E+03 -0.10405163920E+03  0.48350672793E+03  0.25500000920E-02 0. -1.
       -2    1    3    3    0  502 -0.32274782568E+03  0.34465323637E+03  0.51603597931E+03  0.69946060952E+03  0.25500000920E-02 0.  1.
</event>
<event>
 5   0  0.2483036E-03  0.1099143E+04  0.7818609E-02  0.9206027E-01
       -2   -1    0    0    0  501  0.00000000000E+00  0.00000000000E+00  0.29262733230E+03  0.29262733231E+03  0.25500000920E-02 0.  1.
        2   -1    0    0  501    0  0.00000000000E+00  0.00000000000E+00 -0.10321287541E+04  0.10321287541E+04  0.25500000920E-02 0. -1.
    10030    2    1    2    0    0  0.00000000000E+00  0.00000000000E+00 -0.73950142182E+03  0.13247560864E+04  0.10991434554E+04 0.  0.
        3    1    3    3  502    0 -0.73390385224E+02 -0.65826940438E+02 -0.10213838879E+04  0.10261307867E+04  0.10100000352E+00 0. -1.
       -3    1    3    3    0  502  0.73390385224E+02  0.65826940438E+02  0.28188246610E+03  0.29862529971E+03  0.10100000352E+00 0.  1.
</event>
<event>
 5   0  0.1468556E-03  0.1091681E+04  0.7818609E-02  0.9213338E-01
        1   -1    0    0  501    0  0.00000000000E+00  0.00000000000E+00  0.58453977884E+03  0.58453977886E+03  0.50400001928E-02 0. -1.
       -1   -1    0    0    0  501  0.00000000000E+00  0.00000000000E+00 -0.50970334943E+03  0.50970334945E+03  0.50400001928E-02 0.  1.
    10030    2    1    2    0    0  0.00000000000E+00  0.00000000000E+00  0.74836429416E+02  0.10942431283E+04  0.10916810581E+04 0.  0.
        5    1    3    3  502    0  0.42415410559E+03  0.24468158942E+03 -0.20427838168E+03  0.53059168171E+03  0.46999998093E+01 0.  1.
       -5    1    3    3    0  502 -0.42415410559E+03 -0.24468158942E+03  0.27911481109E+03  0.56365144660E+03  0.46999998093E+01 0. -1.
</event>
<event>
 5   0  0.2483036E-03  0.1109606E+04  0.7818609E-02  0.9195879E-01
       -2   -1    0    0    0  501  0.00000000000E+00  0.00000000000E+00  0.28309890385E+03  0.28309890386E+03  0.25500000920E-02 0. -1.
        2   -1    0    0  501    0  0.00000000000E+00  0.00000000000E+00 -0.10872759529E+04  0.10872759529E+04  0.25500000920E-02 0.  1.
    10030    2    1    2    0    0  0.00000000000E+00  0.00000000000E+00 -0.80417704906E+03  0.13703748568E+04  0.11096064716E+04 0.  0.
        3    1    3    3  502    0 -0.24395310090E+03 -0.10958656975E+03 -0.10024154508E+04  0.10374772662E+04  0.10100000352E+00 0.  1.
       -3    1    3    3    0  502  0.24395310090E+03  0.10958656975E+03  0.19823840170E+03  0.33289759059E+03  0.10100000352E+00 0. -1.
</event>
<event>
 5   0  0.1479573E-03  0.1107069E+04  0.7818609E-02  0.9198329E-01
        1   -1    0    0  501    0  0.00000000000E+00  0.00000000000E+00  0.11091972108E+04  0.11091972108E+04  0.50400001928E-02 0. -1.
       -1   -1    0    0    0  501  0.00000000000E+00  0.00000000000E+00 -0.27623613773E+03  0.27623613778E+03  0.50400001928E-02 0.  1.
    10030    2    1    2    0    0  0.00000000000E+00  0.00000000000E+00  0.83296107306E+03  0.13854333486E+04  0.11070688389E+04 0.  0.
        4    1    3    3  502    0 -0.23658252984E+03 -0.43213656389E+03  0.10066675463E+03  0.50284064242E+03  0.12699999809E+01 0. -1.
       -4    1    3    3    0  502  0.23658252984E+03  0.43213656389E+03  0.73229431843E+03  0.88259270617E+03  0.12699999809E+01 0.  1.
</event>
<event>
 5   0  0.1468556E-03  0.1051417E+04  0.7818609E-02  0.9253882E-01
       -1   -1    0    0    0  501  0.00000000000E+00  0.00000000000E+00  0.23630921950E+03  0.23630921955E+03  0.50400001928E-02 0.  1.
        1   -1    0    0  501    0  0.00000000000E+00  0.00000000000E+00 -0.11695247017E+04  0.11695247017E+04  0.50400001928E-02 0. -1.
    10030    2    1    2    0    0  0.00000000000E+00  0.00000000000E+00 -0.93321548220E+03  0.14058339213E+04  0.10514170809E+04 0.  0.
        5    1    3    3  502    0  0.94540027303E+02 -0.13200906227E+03 -0.11351276968E+04  0.11466914089E+04  0.46999998093E+01 0. -1.
       -5    1    3    3    0  502 -0.94540027303E+02  0.13200906227E+03  0.20191221461E+03  0.25914251232E+03  0.46999998093E+01 0.  1.
</event>
<event>
 5   0  0.2392585E-03  0.1098020E+04  0.7818609E-02  0.9207124E-01
        2   -1    0    0  501    0  0.00000000000E+00  0.00000000000E+00  0.21171803063E+04  0.21171803063E+04  0.25500000920E-02 0.  1.
       -2   -1    0    0    0  501  0.00000000000E+00  0.00000000000E+00 -0.14236481288E+03  0.14236481290E+03  0.25500000920E-02 0. -1.
    10030    2    1    2    0    0  0.00000000000E+00  0.00000000000E+00  0.19748154934E+04  0.22595451192E+04  0.10980199965E+04 0.  0.
        5    1    3    3  502    0 -0.22463437483E+03 -0.25269879001E+03  0.97354746995E+02  0.35187685003E+03  0.46999998093E+01 0. -1.
       -5    1    3    3    0  502  0.22463437483E+03  0.25269879001E+03  0.18774607464E+04  0.19076682691E+04  0.46999998093E+01 0.  1.
</event>
<event>
 5   0  0.1480937E-03  0.1095482E+04  0.7818609E-02  0.9209607E-01
       -1   -1    0    0    0  501  0.00000000000E+00  0.00000000000E+00  0.36143346067E+03  0.36143346071E+03  0.50400001928E-02 0.  1.
        1   -1    0    0  501    0  0.00000000000E+00  0.00000000000E+00 -0.83008383641E+03  0.83008383642E+03  0.50400001928E-02 0. -1.
    10030    2    1    2    0    0  0.00000000000E+00  0.00000000000E+00 -0.46865037573E+03  0.11915172971E+04  0.10954817637E+04 0.  0.
        1    1    3    3  502    0 -0.24302764580E+03  0.47380265674E+03 -0.37390563580E+03  0.65065875747E+03  0.50400001928E-02 0. -1.
       -1    1    3    3    0  502  0.24302764580E+03 -0.47380265674E+03 -0.94744739929E+02  0.54085853966E+03  0.50400001928E-02 0.  1.
</event>
<event>
 5   0  0.2392585E-03  0.1103731E+04  0.7818609E-02  0.9201563E-01
       -2   -1    0    0    0  501  0.00000000000E+00  0.00000000000E+00  0.81331270311E+03  0.81331270311E+03  0.25500000920E-02 0.  1.
        2   -1    0    0  501    0  0.00000000000E+00  0.00000000000E+00 -0.37446315936E+03  0.37446315937E+03  0.25500000920E-02 0. -1.
    10030    2    1    2    0    0  0.00000000000E+00  0.00000000000E+00  0.43884954375E+03  0.11877758625E+04  0.11037312071E+04 0.  0.
        5    1    3    3  502    0  0.17909983381E+03 -0.48847906988E+03  0.41740346203E+03  0.66703545056E+03  0.46999998093E+01 0.  1.
       -5    1    3    3    0  502 -0.17909983381E+03  0.48847906988E+03  0.21446081716E+02  0.52074041192E+03  0.46999998093E+01 0. -1.
</event>
<event>
 5   0  0.1415400E-03  0.1093151E+04  0.7818609E-02  0.9211893E-01
        1   -1    0    0  501    0  0.00000000000E+00  0.00000000000E+00  0.51553305576E+03  0.51553305578E+03  0.50400001928E-02 0.  1.
       -1   -1    0    0    0  501  0.00000000000E+00  0.00000000000E+00 -0.57948687955E+03  0.57948687957E+03  0.50400001928E-02 0. -1.
    10030    2    1    2    0    0  0.00000000000E+00  0.00000000000E+00 -0.63953823795E+02  0.10950199354E+04  0.10931507523E+04 0.  0.
        2    1    3    3  502    0  0.39336973770E+03 -0.35536998929E+03  0.10135614004E+03  0.53972275008E+03  0.25500000920E-02 0.  1.
       -2    1    3    3    0  502 -0.39336973770E+03  0.35536998929E+03 -0.16530996383E+03  0.55529718528E+03  0.25500000920E-02 0. -1.
</event>
<event>
 5   0  0.1509004E-03  0.1096225E+04  0.7818609E-02  0.9208879E-01
        1   -1    0    0  501    0  0.00000000000E+00  0.00000000000E+00  0.74022464069E+03  0.74022464070E+03  0.50400001928E-02 0. -1.
       -1   -1    0    0    0  501  0.00000000000E+00  0.00000000000E+00 -0.40585998521E+03  0.40585998524E+03  0.50400001928E-02 0.  1.
    10030    2    1    2    0    0  0.00000000000E+00  0.00000000000E+00  0.33436465548E+03  0.11460846259E+04  0.10962254545E+04 0.  0.
        3    1    3    3  502    0 -0.54278614067E+03 -0.75851295737E+02  0.17509891464E+03  0.57535193897E+03  0.10100000352E+00 0.  1.
       -3    1    3    3    0  502  0.54278614067E+03  0.75851295737E+02  0.15926574084E+03  0.57073268697E+03  0.10100000352E+00 0. -1.
</event>
<event>
 5   0  0.9631750E-04  0.1072271E+04  0.7818609E-02  0.9232648E-01
       -3   -1    0    0    0  501  0.00000000000E+00  0.00000000000E+00  0.90811094026E+03  0.90811094587E+03  0.10100000352E+00 0.  1.
        3   -1    0    0  501    0  0.00000000000E+00  0.00000000000E+00 -0.31652639045E+03  0.31652640656E+03  0.10100000352E+00 0. -1.
    10030    2    1    2    0    0  0.00000000000E+00  0.00000000000E+00  0.59158454981E+03  0.12246373524E+04  0.10722706587E+04 0.  0.
        5    1    3    3  502    0 -0.32222424621E+03  0.42795899541E+03  0.27179097840E+03  0.60072438983E+03  0.46999998093E+01 0.  1.
       -5    1    3    3    0  502  0.32222424621E+03 -0.42795899541E+03  0.31979357141E+03  0.62391296261E+03  0.46999998093E+01 0. -1.
</event>
<event>
 5   0  0.1468556E-03  0.1020479E+04  0.7818609E-02  0.9286365E-01
        1   -1    0    0  501    0  0.00000000000E+00  0.00000000000E+00  0.55593879439E+03  0.55593879441E+03  0.50400001928E-02 0. -1.
       -1   -1    0    0    0  501  0.00000000000E+00  0.00000000000E+00 -0.46829653546E+03  0.46829653548E+03  0.50400001928E-02 0.  1.
    10030    2    1    2    0    0  0.00000000000E+00  0.00000000000E+00  0.87642258934E+02  0.10242353299E+04  0.10204787335E+04 0.  0.
        5    1    3    3  502    0  0.51398956341E+02 -0.43946437100E+02 -0.46375682160E+03  0.46868499189E+03  0.46999998093E+01 0.  1.
       -5    1    3    3    0  502 -0.51398956341E+02  0.43946437100E+02  0.55139908053E+03  0.55555033801E+03  0.46999998093E+01 0. -1.
</event>
<event>
 5   0  0.2488472E-03  0.1102592E+04  0.7818609E-02  0.9202669E-01
       -2   -1    0    0    0  501  0.00000000000E+00  0.00000000000E+00  0.71747162079E+03  0.71747162079E+03  0.25500000920E-02 0.  1.
        2   -1    0    0  501    0  0.00000000000E+00  0.00000000000E+00 -0.42360876069E+03  0.42360876069E+03  0.25500000920E-02 0. -1.
    10030    2    1    2    0    0  0.00000000000E+00  0.00000000000E+00  0.29386286010E+03  0.11410803815E+04  0.11025919719E+04 0.  0.
        2    1    3    3  502    0 -0.40497255237E+03 -0.14275034364E+02 -0.23990896584E+03  0.47091703800E+03  0.25500000920E-02 0. -1.
       -2    1    3    3    0  502  0.40497255237E+03  0.14275034364E+02  0.53377182594E+03  0.67016334349E+03  0.25500000920E-02 0.  1.
</event>
<event>
 5   0  0.2467448E-03  0.1101617E+04  0.7818609E-02  0.9203618E-01
        2   -1    0    0  501    0  0.00000000000E+00  0.00000000000E+00  0.13197576814E+04  0.13197576814E+04  0.25500000920E-02 0.  1.
       -2   -1    0    0    0  501  0.00000000000E+00  0.00000000000E+00 -0.22988293687E+03  0.22988293689E+03  0.25500000920E-02 0. -1.
    10030    2    1    2    0    0  0.00000000000E+00  0.00000000000E+00  0.10898747446E+04  0.15496406183E+04  0.11016165790E+04 0.  0.
        1    1    3    3  502    0 -0.41379524637E+03  0.29168598606E+03  0.23970504886E+03  0.56014795443E+03  0.50400001928E-02 0. -1.
       -1    1    3    3    0  502  0.41379524637E+03 -0.29168598606E+03  0.85016969570E+03  0.98949266389E+03  0.50400001928E-02 0.  1.
</event>
<event>
 5   0  0.1479573E-03  0.1099217E+04  0.7818609E-02  0.9205955E-01
        1   -1    0    0  501    0  0.00000000000E+00  0.00000000000E+00  0.14514972646E+04  0.14514972646E+04  0.50400001928E-02 0. -1.
       -1   -1    0    0    0  501  0.00000000000E+00  0.00000000000E+00 -0.20810886631E+03  0.20810886637E+03  0.50400001928E-02 0.  1.
    10030    2    1    2    0    0  0.00000000000E+00  0.00000000000E+00  0.12433883983E+04  0.16596061309E+04  0.10992169035E+04 0.  0.
        4    1    3    3  502    0 -0.88051539792E+02 -0.13309534490E+03  0.14157445255E+04  0.14247110650E+04  0.12699999809E+01 0. -1.
       -4    1    3    3    0  502  0.88051539792E+02  0.13309534490E+03 -0.17235612723E+03  0.23489506591E+03  0.12699999809E+01 0.  1.
</event>
<event>
 5   0  0.1509004E-03  0.1093449E+04  0.7818609E-02  0.9211600E-01
       -1   -1    0    0    0  501  0.00000000000E+00  0.00000000000E+00  0.45653904737E+03  0.45653904740E+03  0.50400001928E-02 0.  1.
        1   -1    0    0  501    0  0.00000000000E+00  0.00000000000E+00 -0.65472555039E+03  0.65472555041E+03  0.50400001928E-02 0. -1.
    10030    2    1    2    0    0  0.00000000000E+00  0.00000000000E+00 -0.19818650302E+03  0.11112645978E+04  0.10934491833E+04 0.  0.
        3    1    3    3  502    0 -0.38218325125E+03  0.38495765519E+03 -0.29781370128E+02  0.54327099502E+03  0.10100000352E+00 0.  1.
       -3    1    3    3    0  502  0.38218325125E+03 -0.38495765519E+03 -0.16840513289E+03  0.56799360279E+03  0.10100000352E+00 0. -1.
</event>
<event>
 5   0  0.1509004E-03  0.1103024E+04  0.7818609E-02  0.9202249E-01
        1   -1    0    0  501    0  0.00000000000E+00  0.00000000000E+00  0.55281096111E+03  0.55281096113E+03  0.50400001928E-02 0. -1.
       -1   -1    0    0    0  501  0.00000000000E+00  0.00000000000E+00 -0.55021612035E+03  0.55021612037E+03  0.50400001928E-02 0.  1.
    10030    2    1    2    0    0  0.00000000000E+00  0.00000000000E+00  0.25948407585E+01  0.11030270815E+04  0.11030240293E+04 0.  0.
        3    1    3    3  502    0  0.52593614492E+03  0.10570730307E+03 -0.12669758084E+03  0.55121243604E+03  0.10100000352E+00 0.  1.
       -3    1    3    3    0  502 -0.52593614492E+03 -0.10570730307E+03  0.12929242160E+03  0.55181464546E+03  0.10100000352E+00 0. -1.
</event>
<event>
 5   0  0.1415400E-03  0.1099267E+04  0.7818609E-02  0.9205907E-01
       -1   -1    0    0    0  501  0.00000000000E+00  0.00000000000E+00  0.54185801530E+03  0.54185801532E+03  0.50400001928E-02 0.  1.
        1   -1    0    0  501    0  0.00000000000E+00  0.00000000000E+00 -0.55752022164E+03  0.55752022167E+03  0.50400001928E-02 0. -1.
    10030    2    1    2    0    0  0.00000000000E+00  0.00000000000E+00 -0.15662206345E+02  0.10993782370E+04  0.10992666661E+04 0.  0.
        2    1    3    3  502    0 -0.13018656650E+03 -0.34820566622E+03  0.39705696151E+03  0.54392091224E+03  0.25500000920E-02 0.  1.
       -2    1    3    3    0  502  0.13018656650E+03  0.34820566622E+03 -0.41271916786E+03  0.55545732474E+03  0.25500000920E-02 0. -1.
</event>
<event>
 5   0  0.2467448E-03  0.1101084E+04  0.7818609E-02  0.9204136E-01
       -2   -1    0    0    0  501  0.00000000000E+00  0.00000000000E+00  0.35278424852E+03  0.35278424853E+03  0.25500000920E-02 0. -1.
        2   -1    0    0  501    0  0.00000000000E+00  0.00000000000E+00 -0.85915491437E+03  0.85915491438E+03  0.25500000920E-02 0.  1.
    10030    2    1    2    0    0  0.00000000000E+00  0.00000000000E+00 -0.50637066586E+03  0.12119391629E+04  0.11010836859E+04 0.  0.
        1    1    3    3  502    0 -0.73830411890E+02 -0.13558314948E+03 -0.83484222799E+03  0.84899662296E+03  0.50400001928E-02 0.  1.
       -1    1    3    3    0  502  0.73830411890E+02  0.13558314948E+03  0.32847156213E+03  0.36294253994E+03  0.50400001928E-02 0. -1.
</event>
<event>
 5   0  0.2483036E-03  0.1095777E+04  0.7818609E-02  0.9209318E-01
        2   -1    0    0  501    0  0.00000000000E+00  0.00000000000E+00  0.60439562287E+03  0.60439562288E+03  0.25500000920E-02 0.  1.
       -2   -1    0    0    0  501  0.00000000000E+00  0.00000000000E+00 -0.49666413019E+03  0.49666413020E+03  0.25500000920E-02 0. -1.
    10030    2    1    2    0    0  0.00000000000E+00  0.00000000000E+00  0.10773149268E+03  0.11010597531E+04  0.10957766676E+04 0.  0.
        3    1    3    3  502    0  0.35430235856E+03  0.89883757224E+02 -0.35623476939E+03  0.51040422433E+03  0.10100000352E+00 0. -1.
       -3    1    3    3    0  502 -0.35430235856E+03 -0.89883757224E+02  0.46396626207E+03  0.59065552874E+03  0.10100000352E+00 0.  1.
</event>
<event>
 5   0  0.1509004E-03  0.1099209E+04  0.7818609E-02  0.9205963E-01
       -1   -1    0    0    0  501  0.00000000000E+00  0.00000000000E+00  0.71857558177E+03  0.71857558179E+03  0.50400001928E-02 0. -1.
        1   -1    0    0  501    0  0.00000000000E+00  0.00000000000E+00 -0.42036684978E+03  0.42036684981E+03  0.50400001928E-02 0.  1.
    10030    2    1    2    0    0  0.00000000000E+00  0.00000000000E+00  0.29820873199E+03  0.11389424316E+04  0.10992094499E+04 0.  0.
        3    1    3    3  502    0  0.48912093129E+02  0.33843746524E+03  0.59492819489E+03  0.68620104780E+03  0.10100000352E+00 0. -1.
       -3    1    3    3    0  502 -0.48912093129E+02 -0.33843746524E+03 -0.29671946290E+03  0.45274138379E+03  0.10100000352E+00 0.  1.
</event>
<event>
 5   0  0.2438115E-03  0.1097799E+04  0.7818609E-02  0.9207339E-01
       -2   -1    0    0    0  501  0.00000000000E+00  0.00000000000E+00  0.68418644408E+03  0.68418644408E+03  0.25500000920E-02 0. -1.
        2   -1    0    0  501    0  0.00000000000E+00  0.00000000000E+00 -0.44036361553E+03  0.44036361554E+03  0.25500000920E-02 0.  1.
    10030    2    1    2    0    0  0.00000000000E+00  0.00000000000E+00  0.24382282855E+03  0.11245500596E+04  0.10977992826E+04 0.  0.
        4    1    3    3  502    0  0.20852428450E+02  0.30947145929E+03  0.58580610894E+03  0.66285580488E+03  0.12699999809E+01 0. -1.
       -4    1    3    3    0  502 -0.20852428450E+02 -0.30947145929E+03 -0.34198328040E+03  0.46169425474E+03  0.12699999809E+01 0.  1.
</event>
<event>
 5   0  0.1509004E-03  0.1103129E+04  0.7818609E-02  0.9202147E-01
        1   -1    0    0  501    0  0.00000000000E+00  0.00000000000E+00  0.93530859079E+03  0.93530859080E+03  0.50400001928E-02 0. -1.
       -1   -1    0    0    0  501  0.00000000000E+00  0.00000000000E+00 -0.32526554929E+03  0.32526554933E+03  0.50400001928E-02 0.  1.
    10030    2    1    2    0    0  0.00000000000E+00  0.00000000000E+00  0.61004304150E+03  0.12605741401E+04  0.11031294803E+04 0.  0.
        3    1    3    3  502    0 -0.36436799642E+03  0.52506009643E+02 -0.16433511658E+03  0.40314632406E+03  0.10100000352E+00 0.  1.
       -3    1    3    3    0  502  0.36436799642E+03 -0.52506009643E+02  0.77437815808E+03  0.85742781607E+03  0.10100000352E+00 0. -1.
</event>
<event>
 5   0  0.1509004E-03  0.1106387E+04  0.7818609E-02  0.9198989E-01
       -1   -1    0    0    0  501  0.00000000000E+00  0.00000000000E+00  0.16834914273E+04  0.16834914273E+04  0.50400001928E-02 0. -1.
        1   -1    0    0  501    0  0.00000000000E+00  0.00000000000E+00 -0.18177883521E+03  0.18177883528E+03  0.50400001928E-02 0.  1.
    10030    2    1    2    0    0  0.00000000000E+00  0.00000000000E+00  0.15017125921E+04  0.18652702626E+04  0.11063871127E+04 0.  0.
        3    1    3    3  502    0 -0.45607856375E+03 -0.25529142053E+03  0.10563819649E+04  0.11786111452E+04  0.10100000352E+00 0.  1.
       -3    1    3    3    0  502  0.45607856375E+03  0.25529142053E+03  0.44533062718E+03  0.68665911733E+03  0.10100000352E+00 0. -1.
</event>
<event>
 5   0  0.2483036E-03  0.1102099E+04  0.7818609E-02  0.9203148E-01
       -2   -1    0    0    0  501  0.00000000000E+00  0.00000000000E+00  0.26658777056E+03  0.26658777057E+03  0.25500000920E-02 0. -1.
        2   -1    0    0  501    0  0.00000000000E+00  0.00000000000E+00 -0.11390459987E+04  0.11390459988E+04  0.25500000920E-02 0.  1.
    10030    2    1    2    0    0  0.00000000000E+00  0.00000000000E+00 -0.87245822819E+03  0.14056337693E+04  0.11020993301E+04 0.  0.
        3    1    3    3  502    0 -0.39243294939E+03 -0.31315850497E+03 -0.14655590019E+03  0.52302056468E+03  0.10100000352E+00 0. -1.
       -3    1    3    3    0  502  0.39243294939E+03  0.31315850497E+03 -0.72590232800E+03  0.88261320464E+03  0.10100000352E+00 0.  1.
</event>
<event>
 5   0  0.1479573E-03  0.1099026E+04  0.7818609E-02  0.9206142E-01
        1   -1    0    0  501    0  0.00000000000E+00  0.00000000000E+00  0.87941565089E+03  0.87941565090E+03  0.50400001928E-02 0. -1.
       -1   -1    0    0    0  501  0.00000000000E+00  0.00000000000E+00 -0.34336958626E+03  0.34336958629E+03  0.50400001928E-02 0.  1.
    10030    2    1    2    0    0  0.00000000000E+00  0.00000000000E+00  0.53604606463E+03  0.12227852372E+04  0.10990260929E+04 0.  0.
        4    1    3    3  502    0  0.15220441441E+03  0.33134774249E+03 -0.18937317335E+03  0.41087871921E+03  0.12699999809E+01 0.  1.
       -4    1    3    3    0  502 -0.15220441441E+03 -0.33134774249E+03  0.72541923797E+03  0.81190651798E+03  0.12699999809E+01 0. -1.
</event>
<event>
 5   0  0.1509004E-03  0.1070018E+04  0.7818609E-02  0.9234917E-01
       -1   -1    0    0    0  501  0.00000000000E+00  0.00000000000E+00  0.73640395295E+03  0.73640395297E+03  0.50400001928E-02 0.  1.
        1   -1    0    0  501    0  0.00000000000E+00  0.00000000000E+00 -0.38869247574E+03  0.38869247577E+03  0.50400001928E-02 0. -1.
    10030    2    1    2    0    0  0.00000000000E+00  0.00000000000E+00  0.34771147721E+03  0.11250964287E+04  0.10700180852E+04 0.  0.
        3    1    3    3  502    0  0.16232676424E+02  0.21331391473E+02  0.73569742362E+03  0.73618559981E+03  0.10100000352E+00 0.  1.
       -3    1    3    3    0  502 -0.16232676424E+02 -0.21331391473E+02 -0.38798594641E+03  0.38891082893E+03  0.10100000352E+00 0. -1.
</event>
<event>
 5   0  0.2488472E-03  0.1100080E+04  0.7818609E-02  0.9205114E-01
       -2   -1    0    0    0  501  0.00000000000E+00  0.00000000000E+00  0.40129995170E+03  0.40129995171E+03  0.25500000920E-02 0. -1.
        2   -1    0    0  501    0  0.00000000000E+00  0.00000000000E+00 -0.75391030087E+03  0.75391030087E+03  0.25500000920E-02 0.  1.
    10030    2    1    2    0    0  0.00000000000E+00  0.00000000000E+00 -0.35261034917E+03  0.11552102526E+04  0.11000803013E+04 0.  0.
        2    1    3    3  502    0 -0.10203832618E+03  0.38639104007E+03 -0.57317942231E+03  0.69874495063E+03  0.25500000920E-02 0.  1.
       -2    1    3    3    0  502  0.10203832618E+03 -0.38639104007E+03  0.22056907315E+03  0.45646530196E+03  0.25500000920E-02 0. -1.
</event>
<event>
 5   0  0.1479573E-03  0.1096905E+04  0.7818609E-02  0.9208213E-01
        1   -1    0    0  501    0  0.00000000000E+00  0.00000000000E+00  0.56523047603E+03  0.56523047605E+03  0.50400001928E-02 0. -1.
       -1   -1    0    0    0  501  0.00000000000E+00  0.00000000000E+00 -0.53217300433E+03  0.53217300436E+03  0.50400001928E-02 0.  1.
    10030    2    1    2    0    0  0.00000000000E+00  0.00000000000E+00  0.33057471698E+02  0.10974034804E+04  0.10969054665E+04 0.  0.
        4    1    3    3  502    0  0.30379249203E+03  0.45368415833E+03 -0.35259560888E+02  0.54714170310E+03  0.12699999809E+01 0.  1.
       -4    1    3    3    0  502 -0.30379249203E+03 -0.45368415833E+03  0.68317032585E+02  0.55026177731E+03  0.12699999809E+01 0. -1.
</event>
<event>
 5   0  0.2467448E-03  0.1099841E+04  0.7818609E-02  0.9205347E-01
        2   -1    0    0  501    0  0.00000000000E+00  0.00000000000E+00  0.11328063858E+04  0.11328063858E+04  0.25500000920E-02 0. -1.
       -2   -1    0    0    0  501  0.00000000000E+00  0.00000000000E+00 -0.26695855964E+03  0.26695855965E+03  0.25500000920E-02 0.  1.
    10030    2    1    2    0    0  0.00000000000E+00  0.00000000000E+00  0.86584782614E+03  0.13997649454E+04  0.10998406450E+04 0.  0.
        1    1    3    3  502    0 -0.16347064819E+03  0.51301863020E+03  0.29062288696E+03  0.61185981255E+03  0.50400001928E-02 0.  1.
       -1    1    3    3    0  502  0.16347064819E+03 -0.51301863020E+03  0.57522493917E+03  0.78790513289E+03  0.50400001928E-02 0. -1.
</event>
<event>
 5   0  0.9631750E-04  0.1095697E+04  0.7818609E-02  0.9209396E-01
       -4   -1    0    0    0  501  0.00000000000E+00  0.00000000000E+00  0.60926938522E+03  0.60927070885E+03  0.12699999809E+01 0. -1.
        4   -1    0    0  501    0  0.00000000000E+00  0.00000000000E+00 -0.49261705729E+03  0.49261869436E+03  0.12699999809E+01 0.  1.
    10030    2    1    2    0    0  0.00000000000E+00  0.00000000000E+00  0.11665232792E+03  0.11018894032E+04  0.10956972626E+04 0.  0.
        1    1    3    3  502    0  0.26971213405E+03 -0.31569859242E+03 -0.30108394860E+03  0.51289548706E+03  0.50400001928E-02 0.  1.
       -1    1    3    3    0  502 -0.26971213405E+03  0.31569859242E+03  0.41773627652E+03  0.58899391615E+03  0.50400001928E-02 0. -1.
</event>
<event>
 5   0  0.1479573E-03  0.1014347E+04  0.7818609E-02  0.9292948E-01
       -1   -1    0    0    0  501  0.00000000000E+00  0.00000000000E+00  0.12001670070E+04  0.12001670070E+04  0.50400001928E-02 0. -1.
        1   -1    0    0  501    0  0.00000000000E+00  0.00000000000E+00 -0.21432429211E+03  0.21432429217E+03  0.50400001928E-02 0.  1.
    10030    2    1    2    0    0  0.00000000000E+00  0.00000000000E+00  0.98584271486E+03  0.14144912992E+04  0.10143469707E+04 0.  0.
        4    1    3    3  502    0 -0.47088538314E+02 -0.47087466812E+03  0.23851656498E+03  0.52993589064E+03  0.12699999809E+01 0.  1.
       -4    1    3    3    0  502  0.47088538314E+02  0.47087466812E+03  0.74732614989E+03  0.88455540851E+03  0.12699999809E+01 0. -1.
</event>
<event>
 5   0  0.2483036E-03  0.1081410E+04  0.7818609E-02  0.9223503E-01
        2   -1    0    0  501    0  0.00000000000E+00  0.00000000000E+00  0.23207175426E+04  0.23207175426E+04  0.25500000920E-02 0.  1.
       -2   -1    0    0    0  501  0.00000000000E+00  0.00000000000E+00 -0.12597914345E+03  0.12597914347E+03  0.25500000920E-02 0. -1.
    10030    2    1    2    0    0  0.00000000000E+00  0.00000000000E+00  0.21947383991E+04  0.24466966860E+04  0.10814102057E+04 0.  0.
        3    1    3    3  502    0 -0.35550388366E+02  0.44141694778E+03  0.39544803405E+03  0.59371029108E+03  0.10100000352E+00 0. -1.
       -3    1    3    3    0  502  0.35550388366E+02 -0.44141694778E+03  0.17992903651E+04  0.18529863950E+04  0.10100000352E+00 0.  1.
</event>
<event>
 5   0  0.1509004E-03  0.1101046E+04  0.7818609E-02  0.9204173E-01
       -1   -1    0    0    0  501  0.00000000000E+00  0.00000000000E+00  0.14142344680E+04  0.14142344680E+04  0.50400001928E-02 0.  1.
        1   -1    0    0  501    0  0.00000000000E+00  0.00000000000E+00 -0.21430345534E+03  0.21430345540E+03  0.50400001928E-02 0. -1.
    10030    2    1    2    0    0  0.00000000000E+00  0.00000000000E+00  0.11999310127E+04  0.16285379234E+04  0.11010455635E+04 0.  0.
        3    1    3    3  502    0  0.23456014136E+02 -0.75900960509E+02 -0.20578080633E+03  0.22058307020E+03  0.10100000352E+00 0. -1.
       -3    1    3    3    0  502 -0.23456014136E+02  0.75900960509E+02  0.14057118190E+04  0.14079548532E+04  0.10100000352E+00 0.  1.
</event>
<event>
 5   0  0.2488472E-03  0.1100252E+04  0.7818609E-02  0.9204946E-01
       -2   -1    0    0    0  501  0.00000000000E+00  0.00000000000E+00  0.54318736472E+03  0.54318736473E+03  0.25500000920E-02 0.  1.
        2   -1    0    0  501    0  0.00000000000E+00  0.00000000000E+00 -0.55715372220E+03  0.55715372221E+03  0.25500000920E-02 0. -1.
    10030    2    1    2    0    0  0.00000000000E+00  0.00000000000E+00 -0.13966357481E+02  0.11003410869E+04  0.11002524476E+04 0.  0.
        2    1    3    3  502    0  0.69749323971E+02 -0.40518556498E+03 -0.37252398199E+03  0.55481026254E+03  0.25500000920E-02 0. -1.
       -2    1    3    3    0  502 -0.69749323971E+02  0.40518556498E+03  0.35855762450E+03  0.54553082439E+03  0.25500000920E-02 0.  1.
</event>
<event>
 5   0  0.2483036E-03  0.1064534E+04  0.7818609E-02  0.9240466E-01
       -2   -1    0    0    0  501  0.00000000000E+00  0.00000000000E+00  0.29303859072E+03  0.29303859073E+03  0.25500000920E-02 0.  1.
        2   -1    0    0  501    0  0.00000000000E+00  0.00000000000E+00 -0.96679516364E+03  0.96679516365E+03  0.25500000920E-02 0. -1.
    10030    2    1    2    0    0  0.00000000000E+00  0.00000000000E+00 -0.67375657293E+03  0.12598337544E+04  0.10645342499E+04 0.  0.
        3    1    3    3  502    0 -0.24933793673E+02  0.88105973531E+02  0.28364755109E+03  0.29806089995E+03  0.10100000352E+00 0.  1.
       -3    1    3    3    0  502  0.24933793673E+02 -0.88105973531E+02 -0.95740412401E+03  0.96177285443E+03  0.10100000352E+00 0. -1.
</event>
<event>
 5   0  0.2488472E-03  0.1146999E+04  0.7818609E-02  0.9160556E-01
       -2   -1    0    0    0  501  0.00000000000E+00  0.00000000000E+00  0.23483576134E+03  0.23483576135E+03  0.25500000920E-02 0.  1.
        2   -1    0    0  501    0  0.00000000000E+00  0.00000000000E+00 -0.14005614315E+04  0.14005614315E+04  0.25500000920E-02 0. -1.
    10030    2    1    2    0    0  0.00000000000E+00  0.00000000000E+00 -0.11657256701E+04  0.16353971928E+04  0.11469994073E+04 0.  0.
        2    1    3    3  502    0  0.16157569495E+03 -0.89794185622E+02  0.19119578983E+03  0.26594272133E+03  0.25500000920E-02 0.  1.
       -2    1    3    3    0  502 -0.16157569495E+03  0.89794185622E+02 -0.13569214600E+04  0.13694544715E+04  0.25500000920E-02 0. -1.
</event>
<event>
 5   0  0.2488472E-03  0.1100119E+04  0.7818609E-02  0.9205076E-01
        2   -1    0    0  501    0  0.00000000000E+00  0.00000000000E+00  0.23553248543E+03  0.23553248545E+03  0.25500000920E-02 0.  1.
       -2   -1    0    0    0  501  0.00000000000E+00  0.00000000000E+00 -0.12846010682E+04  0.12846010682E+04  0.25500000920E-02 0. -1.
    10030    2    1    2    0    0  0.00000000000E+00  0.00000000000E+00 -0.10490685828E+04  0.15201335537E+04  0.11001186889E+04 0.  0.
        2    1    3    3  502    0  0.48554131169E+03 -0.14568775141E+03 -0.22949695381E+03  0.55645677108E+03  0.25500000920E-02 0. -1.
       -2    1    3    3    0  502 -0.48554131169E+03  0.14568775141E+03 -0.81957162900E+03  0.96367678261E+03  0.25500000920E-02 0.  1.
</event>
<event>
 5   0  0.1468556E-03  0.1118854E+04  0.7818609E-02  0.9187008E-01
       -1   -1    0    0    0  501  0.00000000000E+00  0.00000000000E+00  0.10310069423E+04  0.10310069423E+04  0.50400001928E-02 0. -1.
        1   -1    0    0  501    0  0.00000000000E+00  0.00000000000E+00 -0.30354645314E+03  0.30354645318E+03  0.50400001928E-02 0.  1.
    10030    2    1    2    0    0  0.00000000000E+00  0.00000000000E+00  0.72746048915E+03  0.13345533955E+04  0.11188538788E+04 0.  0.
        5    1    3    3  502    0  0.59391773938E+02 -0.51034905326E+03  0.99822783232E+02  0.52342164364E+03  0.46999998093E+01 0.  1.
       -5    1    3    3    0  502 -0.59391773938E+02  0.51034905326E+03  0.62763770592E+03  0.81113175186E+03  0.46999998093E+01 0. -1.
</event>
<event>
 5   0  0.1479573E-03  0.1099556E+04  0.7818609E-02  0.9205625E-01
        1   -1    0    0  501    0  0.00000000000E+00  0.00000000000E+00  0.46678286860E+03  0.46678286862E+03  0.50400001928E-02 0. -1.
       -1   -1    0    0    0  501  0.00000000000E+00  0.00000000000E+00 -0.64752961312E+03  0.64752961314E+03  0.50400001928E-02 0.  1.
    10030    2    1    2    0    0  0.00000000000E+00  0.00000000000E+00 -0.18074674453E+03  0.11143124818E+04  0.10995557837E+04 0.  0.
        4    1    3    3  502    0 -0.51324085326E+03  0.19584162189E+03 -0.68078047296E+02  0.55353983393E+03  0.12699999809E+01 0.  1.
       -4    1    3    3    0  502  0.51324085326E+03 -0.19584162189E+03 -0.11266869723E+03  0.56077264784E+03  0.12699999809E+01 0. -1.
</event>
<event>
 5   0  0.2488472E-03  0.1103465E+04  0.7818609E-02  0.9201822E-01
       -2   -1    0    0    0  501  0.00000000000E+00  0.00000000000E+00  0.18382189590E+03  0.18382189592E+03  0.25500000920E-02 0. -1.
        2   -1    0    0  501    0  0.00000000000E+00  0.00000000000E+00 -0.16559969931E+04  0.16559969931E+04  0.25500000920E-02 0.  1.
    10030    2    1    2    0    0  0.00000000000E+00  0.00000000000E+00 -0.14721750972E+04  0.18398188890E+04  0.11034645566E+04 0.  0.
        2    1    3    3  502    0  0.21908458948E+03  0.67244811097E+01 -0.15802892972E+04  0.15954176691E+04  0.25500000920E-02 0.  1.
       -2    1    3    3    0  502 -0.21908458948E+03 -0.67244811097E+01  0.10811420009E+03  0.24440121985E+03  0.25500000920E-02 0. -1.
</event>
<event>
 5   0  0.2488472E-03  0.1089572E+04  0.7818609E-02  0.9215416E-01
        2   -1    0    0  501    0  0.00000000000E+00  0.00000000000E+00  0.12538673272E+04  0.12538673272E+04  0.25500000920E-02 0.  1.
       -2   -1    0    0    0  501  0.00000000000E+00  0.00000000000E+00 -0.23670105651E+03  0.23670105652E+03  0.25500000920E-02 0. -1.
    10030    2    1    2    0    0  0.00000000000E+00  0.00000000000E+00  0.10171662707E+04  0.14905683837E+04  0.10895718812E+04 0.  0.
        2    1    3    3  502    0  0.26014831564E+03  0.21488245388E+03 -0.76544326770E+02  0.34599226737E+03  0.25500000920E-02 0. -1.
       -2    1    3    3    0  502 -0.26014831564E+03 -0.21488245388E+03  0.10937105974E+04  0.11445761163E+04  0.25500000920E-02 0.  1.
</event>
<event>
 5   0  0.9631750E-04  0.1081165E+04  0.7818609E-02  0.9223747E-01
       -3   -1    0    0    0  501  0.00000000000E+00  0.00000000000E+00  0.93366841113E+03  0.93366841659E+03  0.10100000352E+00 0. -1.
        3   -1    0    0  501    0  0.00000000000E+00  0.00000000000E+00 -0.31299046315E+03  0.31299047945E+03  0.10100000352E+00 0.  1.
    10030    2    1    2    0    0  0.00000000000E+00  0.00000000000E+00  0.62067794798E+03  0.12466588960E+04  0.10811647830E+04 0.  0.
        4    1    3    3  502    0  0.22454893686E+03  0.48306773242E+03  0.41634024769E+03  0.67610463236E+03  0.12699999809E+01 0. -1.
       -4    1    3    3    0  502 -0.22454893686E+03 -0.48306773242E+03  0.20433770029E+03  0.57055426368E+03  0.12699999809E+01 0.  1.
</event>
<event>
 5   0  0.2483036E-03  0.1104976E+04  0.7818609E-02  0.9200356E-01
       -2   -1    0    0    0  501  0.00000000000E+00  0.00000000000E+00  0.44932193174E+03  0.44932193175E+03  0.25500000920E-02 0.  1.
        2   -1    0    0  501    0  0.00000000000E+00  0.00000000000E+00 -0.67934090966E+03  0.67934090967E+03  0.25500000920E-02 0. -1.
    10030    2    1    2    0    0  0.00000000000E+00  0.00000000000E+00 -0.23001897792E+03  0.11286628414E+04  0.11049756013E+04 0.  0.
        3    1    3    3  502    0  0.54411452921E+02 -0.46258681968E+03  0.18850612618E+03  0.50247561310E+03  0.10100000352E+00 0.  1.
       -3    1    3    3    0  502 -0.54411452921E+02  0.46258681968E+03 -0.41852510410E+03  0.62618722832E+03  0.10100000352E+00 0. -1.
</event>
<event>
 5   0  0.9631750E-04  0.1114275E+04  0.7818609E-02  0.9191389E-01
       -4   -1    0    0    0  501  0.00000000000E+00  0.00000000000E+00  0.50717800085E+03  0.50717959092E+03  0.12699999809E+01 0. -1.
        4   -1    0    0  501    0  0.00000000000E+00  0.00000000000E+00 -0.61201524363E+03  0.61201656132E+03  0.12699999809E+01 0.  1.
    10030    2    1    2    0    0  0.00000000000E+00  0.00000000000E+00 -0.10483724278E+03  0.11191961522E+04  0.11142751813E+04 0.  0.
        4    1    3    3  502    0  0.17533750487E+03  0.50124028581E+03 -0.22173239860E+03  0.57545802125E+03  0.12699999809E+01 0.  1.
       -4    1    3    3    0  502 -0.17533750487E+03 -0.50124028581E+03  0.11689515582E+03  0.54373813099E+03  0.12699999809E+01 0. -1.
</event>
<event>
 5   0  0.1480937E-03  0.1096190E+04  0.7818609E-02  0.9208913E-01
        1   -1    0    0  501    0  0.00000000000E+00  0.00000000000E+00  0.53651505766E+03  0.53651505769E+03  0.50400001928E-02 0. -1.
       -1   -1    0    0    0  501  0.00000000000E+00  0.00000000000E+00 -0.55992538598E+03  0.55992538600E+03  0.50400001928E-02 0.  1.
    10030    2    1    2    0    0  0.00000000000E+00  0.00000000000E+00 -0.23410328314E+02  0.10964404437E+04  0.10961904958E+04 0.  0.
        1    1    3    3  502    0  0.42250924046E+02 -0.22891636084E+03 -0.50802447334E+03  0.55881723880E+03  0.50400001928E-02 0.  1.
       -1    1    3    3    0  502 -0.42250924046E+02  0.22891636084E+03  0.48461414503E+03  0.53762320488E+03  0.50400001928E-02 0. -1.
</event>
<event>
 5   0  0.2488472E-03  0.1079983E+04  0.7818609E-02  0.9224925E-01
       -2   -1    0    0    0  501  0.00000000000E+00  0.00000000000E+00  0.53383384633E+03  0.53383384634E+03  0.25500000920E-02 0.  1.
        2   -1    0    0  501    0  0.00000000000E+00  0.00000000000E+00 -0.54621995315E+03  0.54621995315E+03  0.25500000920E-02 0. -1.
    10030    2    1    2    0    0  0.00000000000E+00  0.00000000000E+00 -0.12386106815E+02  0.10800537995E+04  0.10799827749E+04 0.  0.
        2    1    3    3  502    0  0.16379262632E+03  0.51451458141E+03 -0.12310612641E+02  0.54009705620E+03  0.25500000920E-02 0. -1.
       -2    1    3    3    0  502 -0.16379262632E+03 -0.51451458141E+03 -0.75494174092E-01  0.53995674330E+03  0.25500000920E-02 0.  1.
</event>
<event>
 5   0  0.2392585E-03  0.1098448E+04  0.7818609E-02  0.9206706E-01
        2   -1    0    0  501    0  0.00000000000E+00  0.00000000000E+00  0.22432393132E+04  0.22432393132E+04  0.25500000920E-02 0.  1.
       -2   -1    0    0    0  501  0.00000000000E+00  0.00000000000E+00 -0.13446944542E+03  0.13446944545E+03  0.25500000920E-02 0. -1.
    10030    2    1    2    0    0  0.00000000000E+00  0.00000000000E+00  0.21087698678E+04  0.23777087587E+04  0.10984482627E+04 0.  0.
        5    1    3    3  502    0  0.11989202406E+03  0.21807576986E+03  0.21141450188E+04  0.21287466710E+04  0.46999998093E+01 0.  1.
       -5    1    3    3    0  502 -0.11989202406E+03 -0.21807576986E+03 -0.53751510233E+01  0.24896208764E+03  0.46999998093E+01 0. -1.
</event>
<event>
 5   0  0.9631750E-04  0.1092552E+04  0.7818609E-02  0.9212482E-01
        4   -1    0    0  501    0  0.00000000000E+00  0.00000000000E+00  0.12812934409E+04  0.12812940703E+04  0.12699999809E+01 0. -1.
       -4   -1    0    0    0  501  0.00000000000E+00  0.00000000000E+00 -0.23290091417E+03  0.23290437678E+03  0.12699999809E+01 0.  1.
    10030    2    1    2    0    0  0.00000000000E+00  0.00000000000E+00  0.10483925267E+04  0.15141984471E+04  0.10925520798E+04 0.  0.
        2    1    3    3  502    0  0.30606843669E+02  0.46210445069E+03  0.12265916822E+03  0.47908514252E+03  0.25500000920E-02 0.  1.
       -2    1    3    3    0  502 -0.30606843669E+02 -0.46210445069E+03  0.92573335852E+03  0.10351133046E+04  0.25500000920E-02 0. -1.
</event>
<event>
 5   0  0.1468556E-03  0.1109449E+04  0.7818609E-02  0.9196030E-01
       -1   -1    0    0    0  501  0.00000000000E+00  0.00000000000E+00  0.57852739807E+03  0.57852739809E+03  0.50400001928E-02 0.  1.
        1   -1    0    0  501    0  0.00000000000E+00  0.00000000000E+00 -0.53190140352E+03  0.53190140355E+03  0.50400001928E-02 0. -1.
    10030    2    1    2    0    0  0.00000000000E+00  0.00000000000E+00  0.46625994546E+02  0.11104288016E+04  0.11094494762E+04 0.  0.
        5    1    3    3  502    0  0.28557786985E+03  0.45358493793E+03 -0.11965366323E+03  0.54921134801E+03  0.46999998093E+01 0. -1.
       -5    1    3    3    0  502 -0.28557786985E+03 -0.45358493793E+03  0.16627965777E+03  0.56121745362E+03  0.46999998093E+01 0.  1.
</event>
<event>
 5   0  0.2438115E-03  0.1097933E+04  0.7818609E-02  0.9207209E-01
        2   -1    0    0  501    0  0.00000000000E+00  0.00000000000E+00  0.20735401846E+04  0.20735401846E+04  0.25500000920E-02 0. -1.
       -2   -1    0    0    0  501  0.00000000000E+00  0.00000000000E+00 -0.14533807837E+03  0.14533807839E+03  0.25500000920E-02 0.  1.
    10030    2    1    2    0    0  0.00000000000E+00  0.00000000000E+00  0.19282021063E+04  0.22188782630E+04  0.10979332327E+04 0.  0.
        4    1    3    3  502    0  0.26490792002E+03  0.27457816144E+03  0.16641496645E+03  0.41625103818E+03  0.12699999809E+01 0.  1.
       -4    1    3    3    0  502 -0.26490792002E+03 -0.27457816144E+03  0.17617871398E+04  0.18026272248E+04  0.12699999809E+01 0. -1.
</event>
<event>
 5   0  0.1509004E-03  0.1107509E+04  0.7818609E-02  0.9197904E-01
       -1   -1    0    0    0  501  0.00000000000E+00  0.00000000000E+00  0.29516392036E+03  0.29516392041E+03  0.50400001928E-02 0.  1.
        1   -1    0    0  501    0  0.00000000000E+00  0.00000000000E+00 -0.10388939720E+04  0.10388939721E+04  0.50400001928E-02 0. -1.
    10030    2    1    2    0    0  0.00000000000E+00  0.00000000000E+00 -0.74373005168E+03  0.13340578925E+04  0.11075089483E+04 0.  0.
        3    1    3    3  502    0 -0.15189549487E+03 -0.32885091442E+03  0.13265444458E+03  0.38576207323E+03  0.10100000352E+00 0.  1.
       -3    1    3    3    0  502  0.15189549487E+03  0.32885091442E+03 -0.87638449626E+03  0.94829581923E+03  0.10100000352E+00 0. -1.
</event>
<event>
 5   0  0.1415400E-03  0.1094182E+04  0.7818609E-02  0.9210881E-01
       -1   -1    0    0    0  501  0.00000000000E+00  0.00000000000E+00  0.26861625590E+03  0.26861625594E+03  0.50400001928E-02 0.  1.
        1   -1    0    0  501    0  0.00000000000E+00  0.00000000000E+00 -0.11142607651E+04  0.11142607652E+04  0.50400001928E-02 0. -1.
    10030    2    1    2    0    0  0.00000000000E+00  0.00000000000E+00 -0.84564450925E+03  0.13828770211E+04  0.10941819864E+04 0.  0.
        2    1    3    3  502    0  0.46291193929E+03  0.29141609820E+03 -0.43531765702E+03  0.69907958656E+03  0.25500000920E-02 0.  1.
       -2    1    3    3    0  502 -0.46291193929E+03 -0.29141609820E+03 -0.41032685223E+03  0.68379743454E+03  0.25500000920E-02 0. -1.
</event>
<event>
 5   0  0.2488472E-03  0.1091387E+04  0.7818609E-02  0.9213627E-01
        2   -1    0    0  501    0  0.00000000000E+00  0.00000000000E+00  0.11301488466E+04  0.11301488466E+04  0.25500000920E-02 0.  1.
       -2   -1    0    0    0  501  0.00000000000E+00  0.00000000000E+00 -0.26348883803E+03  0.26348883804E+03  0.25500000920E-02 0. -1.
    10030    2    1    2    0    0  0.00000000000E+00  0.00000000000E+00  0.86666000861E+03  0.13936376847E+04  0.10913873857E+04 0.  0.
        2    1    3    3  502    0  0.14026237395E+03  0.52205992677E+03  0.33810146001E+03  0.63759916715E+03  0.25500000920E-02 0. -1.
       -2    1    3    3    0  502 -0.14026237395E+03 -0.52205992677E+03  0.52855854861E+03  0.75603851754E+03  0.25500000920E-02 0.  1.
</event>
<event>
 5   0  0.2483036E-03  0.1105910E+04  0.7818609E-02  0.9199451E-01
       -2   -1    0    0    0  501  0.00000000000E+00  0.00000000000E+00  0.74023073328E+03  0.74023073328E+03  0.25500000920E-02 0. -1.
        2   -1    0    0  501    0  0.00000000000E+00  0.00000000000E+00 -0.41305928150E+03  0.41305928151E+03  0.25500000920E-02 0.  1.
    10030    2    1    2    0    0  0.00000000000E+00  0.00000000000E+00  0.32717145177E+03  0.11532900148E+04  0.11059098966E+04 0.  0.
        3    1    3    3  502    0 -0.14310813205E+03  0.45026172782E+03 -0.13602716842E+03  0.49164922633E+03  0.10100000352E+00 0.  1.
       -3    1    3    3    0  502  0.14310813205E+03 -0.45026172782E+03  0.46319862020E+03  0.66164078846E+03  0.10100000352E+00 0. -1.
</event>
<event>
 5   0  0.1479573E-03  0.1096697E+04  0.7818609E-02  0.9208417E-01
       -1   -1    0    0    0  501  0.00000000000E+00  0.00000000000E+00  0.27837245630E+03  0.27837245634E+03  0.50400001928E-02 0. -1.
        1   -1    0    0  501    0  0.00000000000E+00  0.00000000000E+00 -0.10801574758E+04  0.10801574758E+04  0.50400001928E-02 0.  1.
    10030    2    1    2    0    0  0.00000000000E+00  0.00000000000E+00 -0.80178501952E+03  0.13585299322E+04  0.10966970225E+04 0.  0.
        4    1    3    3  502    0 -0.19759352935E+02  0.53781988052E+03 -0.27071312167E+03  0.60243494508E+03  0.12699999809E+01 0. -1.
       -4    1    3    3    0  502  0.19759352935E+02 -0.53781988052E+03 -0.53107189785E+03  0.75609498709E+03  0.12699999809E+01 0.  1.
</event>
<event>
 5   0  0.2483036E-03  0.1132899E+04  0.7818609E-02  0.9173707E-01
       -2   -1    0    0    0  501  0.00000000000E+00  0.00000000000E+00  0.33651779353E+03  0.33651779354E+03  0.25500000920E-02 0. -1.
        2   -1    0    0  501    0  0.00000000000E+00  0.00000000000E+00 -0.95348545132E+03  0.95348545132E+03  0.25500000920E-02 0.  1.
    10030    2    1    2    0    0  0.00000000000E+00  0.00000000000E+00 -0.61696765779E+03  0.12900032449E+04  0.11328986190E+04 0.  0.
        3    1    3    3  502    0  0.83818160167E+02 -0.53248130121E+03 -0.11026609987E+03  0.55020036632E+03  0.10100000352E+00 0. -1.
       -3    1    3    3    0  502 -0.83818160167E+02  0.53248130121E+03 -0.50670155791E+03  0.73980287855E+03  0.10100000352E+00 0.  1.
</event>
<event>
 5   0  0.1509004E-03  0.1098447E+04  0.7818609E-02  0.9206707E-01
       -1   -1    0    0    0  501  0.00000000000E+00  0.00000000000E+00  0.26037504446E+03  0.26037504451E+03  0.50400001928E-02 0.  1.
        1   -1    0    0  501    0  0.00000000000E+00  0.00000000000E+00 -0.11585068543E+04  0.11585068543E+04  0.50400001928E-02 0. -1.
    10030    2    1    2    0    0  0.00000000000E+00  0.00000000000E+00 -0.89813180981E+03  0.14188818988E+04  0.10984466737E+04 0.  0.
        3    1    3    3  502    0  0.94378961087E+02  0.26366975126E+03  0.16121676491E+03  0.32314080757E+03  0.10100000352E+00 0.  1.
       -3    1    3    3    0  502 -0.94378961087E+02 -0.26366975126E+03 -0.10593485747E+04  0.10957410912E+04  0.10100000352E+00 0. -1.
</event>
<event>
 5   0  0.2488472E-03  0.1084369E+04  0.7818609E-02  0.9220562E-01
       -2   -1    0    0    0  501  0.00000000000E+00  0.00000000000E+00  0.15108503403E+04  0.15108503403E+04  0.25500000920E-02 0.  1.
        2   -1    0    0  501    0  0.00000000000E+00  0.00000000000E+00 -0.19456863355E+03  0.19456863357E+03  0.25500000920E-02 0. -1.
    10030    2    1    2    0    0  0.00000000000E+00  0.00000000000E+00  0.13162817068E+04  0.17054189739E+04  0.10843691000E+04 0.  0.
        2    1    3    3  502    0  0.43450780471E+03  0.87954530507E+02  0.11490517344E+04  0.12316058299E+04  0.25500000920E-02 0.  1.
       -2    1    3    3    0  502 -0.43450780471E+03 -0.87954530507E+02  0.16722997234E+03  0.47381314402E+03  0.25500000920E-02 0. -1.
</event>
<event>
 5   0  0.2483036E-03  0.1102404E+04  0.7818609E-02  0.9202852E-01
       -2   -1    0    0    0  501  0.00000000000E+00  0.00000000000E+00  0.12326185633E+03  0.12326185636E+03  0.25500000920E-02 0.  1.
        2   -1    0    0  501    0  0.00000000000E+00  0.00000000000E+00 -0.24648644516E+04  0.24648644516E+04  0.25500000920E-02 0. -1.
    10030    2    1    2    0    0  0.00000000000E+00  0.00000000000E+00 -0.23416025953E+04  0.25881263080E+04  0.11024042234E+04 0.  0.
        3    1    3    3  502    0  0.65585650054E+02  0.10499691469E+03  0.90201204300E+02  0.15317342147E+03  0.10100000352E+00 0.  1.
       -3    1    3    3    0  502 -0.65585650054E+02 -0.10499691469E+03 -0.24318037996E+04  0.24349528865E+04  0.10100000352E+00 0. -1.
</event>
<event>
 5   0  0.2467448E-03  0.1098492E+04  0.7818609E-02  0.9206663E-01
       -2   -1    0    0    0  501  0.00000000000E+00  0.00000000000E+00  0.25428826589E+03  0.25428826591E+03  0.25500000920E-02 0.  1.
        2   -1    0    0  501    0  0.00000000000E+00  0.00000000000E+00 -0.11863357641E+04  0.11863357641E+04  0.25500000920E-02 0. -1.
    10030    2    1    2    0    0  0.00000000000E+00  0.00000000000E+00 -0.93204749819E+03  0.14406240300E+04  0.10984921743E+04 0.  0.
        1    1    3    3  502    0 -0.24110888823E+03  0.34420938354E+03 -0.92980036916E+03  0.10203638186E+04  0.50400001928E-02 0. -1.
       -1    1    3    3    0  502  0.24110888823E+03 -0.34420938354E+03 -0.22471290259E+01  0.42026021143E+03  0.50400001928E-02 0.  1.
</event>
<event>
 5   0  0.1479573E-03  0.1106862E+04  0.7818609E-02  0.9198530E-01
        1   -1    0    0  501    0  0.00000000000E+00  0.00000000000E+00  0.26607180814E+04  0.26607180814E+04  0.50400001928E-02 0. -1.
       -1   -1    0    0    0  501  0.00000000000E+00  0.00000000000E+00 -0.11511394088E+03  0.11511394099E+03  0.50400001928E-02 0.  1.
    10030    2    1    2    0    0  0.00000000000E+00  0.00000000000E+00  0.25456041406E+04  0.27758320224E+04  0.11068617693E+04 0.  0.
        4    1    3    3  502    0  0.95881287076E+02 -0.53591713690E+03  0.15221238868E+04  0.16165590427E+04  0.12699999809E+01 0. -1.
       -4    1    3    3    0  502 -0.95881287076E+02  0.53591713690E+03  0.10234802538E+04  0.11592729797E+04  0.12699999809E+01 0.  1.
</event>
<event>
 5   0  0.2483036E-03  0.1101402E+04  0.7818609E-02  0.9203827E-01
       -2   -1    0    0    0  501  0.00000000000E+00  0.00000000000E+00  0.64697662447E+03  0.64697662448E+03  0.25500000920E-02 0.  1.
        2   -1    0    0  501    0  0.00000000000E+00  0.00000000000E+00 -0.46875163035E+03  0.46875163035E+03  0.25500000920E-02 0. -1.
    10030    2    1    2    0    0  0.00000000000E+00  0.00000000000E+00  0.17822499412E+03  0.11157282548E+04  0.11014015572E+04 0.  0.
        3    1    3    3  502    0  0.41689036860E+03  0.33583181500E+03 -0.41760687523E+02  0.53695861350E+03  0.10100000352E+00 0. -1.
       -3    1    3    3    0  502 -0.41689036860E+03 -0.33583181500E+03  0.21998568165E+03  0.57876964133E+03  0.10100000352E+00 0.  1.
</event>
<event>
 5   0  0.1479573E-03  0.1154153E+04  0.7818609E-02  0.9153961E-01
        1   -1    0    0  501    0  0.00000000000E+00  0.00000000000E+00  0.16000686342E+04  0.16000686342E+04  0.50400001928E-02 0. -1.
       -1   -1    0    0    0  501  0.00000000000E+00  0.00000000000E+00 -0.20812694061E+03  0.20812694067E+03  0.50400001928E-02 0.  1.
    10030    2    1    2    0    0  0.00000000000E+00  0.00000000000E+00  0.13919416935E+04  0.18081955748E+04  0.11541531781E+04 0.  0.
        4    1    3    3  502    0 -0.18913886194E+03  0.22766525573E+03  0.14720906858E+04  0.15015517234E+04  0.12699999809E+01 0. -1.
       -4    1    3    3    0  502  0.18913886194E+03 -0.22766525573E+03 -0.80148992303E+02  0.30664385144E+03  0.12699999809E+01 0.  1.
</event>
<event>
 5   0  0.2392585E-03  0.1111657E+04  0.7818609E-02  0.9193904E-01
       -2   -1    0    0    0  501  0.00000000000E+00  0.00000000000E+00  0.61754118922E+03  0.61754118923E+03  0.25500000920E-02 0.  1.
        2   -1    0    0  501    0  0.00000000000E+00  0.00000000000E+00 -0.50028325687E+03  0.50028325687E+03  0.25500000920E-02 0. -1.
    10030    2    1    2    0    0  0.00000000000E+00  0.00000000000E+00  0.11725793236E+03  0.11178244461E+04  0.11116573526E+04 0.  0.
        5    1    3    3  502    0 -0.61179452083E+02  0.14377424658E+03 -0.47772441178E+03  0.50264964235E+03  0.46999998093E+01 0. -1.
       -5    1    3    3    0  502  0.61179452083E+02 -0.14377424658E+03  0.59498234414E+03  0.61517480375E+03  0.46999998093E+01 0.  1.
</event>
<event>
 5   0  0.1479573E-03  0.1103941E+04  0.7818609E-02  0.9201359E-01
        1   -1    0    0  501    0  0.00000000000E+00  0.00000000000E+00  0.95995651934E+03  0.95995651935E+03  0.50400001928E-02 0. -1.
       -1   -1    0    0    0  501  0.00000000000E+00  0.00000000000E+00 -0.31738047589E+03  0.31738047593E+03  0.50400001928E-02 0.  1.
    10030    2    1    2    0    0  0.00000000000E+00  0.00000000000E+00  0.64257604345E+03  0.12773369953E+04  0.11039410437E+04 0.  0.
        4    1    3    3  502    0  0.25972456546E+03 -0.52808972327E+02  0.88151089654E+03  0.92049373224E+03  0.12699999809E+01 0. -1.
       -4    1    3    3    0  502 -0.25972456546E+03  0.52808972327E+02 -0.23893485310E+03  0.35684326305E+03  0.12699999809E+01 0.  1.
</event>
<event>
 5   0  0.1509004E-03  0.1085096E+04  0.7818609E-02  0.9219841E-01
       -1   -1    0    0    0  501  0.00000000000E+00  0.00000000000E+00  0.50971471177E+03  0.50971471180E+03  0.50400001928E-02 0.  1.
        1   -1    0    0  501    0  0.00000000000E+00  0.00000000000E+00 -0.57749611814E+03  0.57749611816E+03  0.50400001928E-02 0. -1.
    10030    2    1    2    0    0  0.00000000000E+00  0.00000000000E+00 -0.67781406368E+02  0.10872108300E+04  0.10850958804E+04 0.  0.
        3    1    3    3  502    0  0.73487567521E+02  0.43713298451E+03 -0.34734641822E+03  0.56314759448E+03  0.10100000352E+00 0. -1.
       -3    1    3    3    0  502 -0.73487567521E+02 -0.43713298451E+03  0.27956501185E+03  0.52406323547E+03  0.10100000352E+00 0.  1.
</event>
<event>
 5   0  0.2467448E-03  0.1106869E+04  0.7818609E-02  0.9198523E-01
       -2   -1    0    0    0  501  0.00000000000E+00  0.00000000000E+00  0.70583592514E+03  0.70583592515E+03  0.25500000920E-02 0.  1.
        2   -1    0    0  501    0  0.00000000000E+00  0.00000000000E+00 -0.43393881489E+03  0.43393881489E+03  0.25500000920E-02 0. -1.
    10030    2    1    2    0    0  0.00000000000E+00  0.00000000000E+00  0.27189711026E+03  0.11397747400E+04  0.11068687454E+04 0.  0.
        1    1    3    3  502    0 -0.42567137530E+03 -0.10675697159E+02 -0.22808575703E+03  0.48304575647E+03  0.50400001928E-02 0. -1.
       -1    1    3    3    0  502  0.42567137530E+03  0.10675697159E+02  0.49998286728E+03  0.65672898357E+03  0.50400001928E-02 0.  1.
</event>
<event>
 5   0  0.2438115E-03  0.1087200E+04  0.7818609E-02  0.9217758E-01
       -2   -1    0    0    0  501  0.00000000000E+00  0.00000000000E+00  0.27369669187E+03  0.27369669188E+03  0.25500000920E-02 0.  1.
        2   -1    0    0  501    0  0.00000000000E+00  0.00000000000E+00 -0.10796662366E+04  0.10796662366E+04  0.25500000920E-02 0. -1.
    10030    2    1    2    0    0  0.00000000000E+00  0.00000000000E+00 -0.80596954470E+03  0.13533629284E+04  0.10872002157E+04 0.  0.
        4    1    3    3  502    0  0.12402683605E+03 -0.47180546248E+03 -0.70152347849E+03  0.85447051105E+03  0.12699999809E+01 0. -1.
       -4    1    3    3    0  502 -0.12402683605E+03  0.47180546248E+03 -0.10444606620E+03  0.49889241739E+03  0.12699999809E+01 0.  1.
</event>
<event>
 5   0  0.2483036E-03  0.1101453E+04  0.7818609E-02  0.9203777E-01
       -2   -1    0    0    0  501  0.00000000000E+00  0.00000000000E+00  0.92331079214E+03  0.92331079215E+03  0.25500000920E-02 0.  1.
        2   -1    0    0  501    0  0.00000000000E+00  0.00000000000E+00 -0.32849149715E+03  0.32849149716E+03  0.25500000920E-02 0. -1.
    10030    2    1    2    0    0  0.00000000000E+00  0.00000000000E+00  0.59481929499E+03  0.12518022893E+04  0.11014531210E+04 0.  0.
        3    1    3    3  502    0 -0.25903748448E+02 -0.47094800177E+03  0.62053723462E+03  0.77944178378E+03  0.10100000352E+00 0.  1.
       -3    1    3    3    0  502  0.25903748448E+02  0.47094800177E+03 -0.25717939624E+02  0.47236050552E+03  0.10100000352E+00 0. -1.
</event>
<event>
 5   0  0.1415400E-03  0.1098630E+04  0.7818609E-02  0.9206528E-01
       -1   -1    0    0    0  501  0.00000000000E+00  0.00000000000E+00  0.41195048864E+03  0.41195048867E+03  0.50400001928E-02 0.  1.
        1   -1    0    0  501    0  0.00000000000E+00  0.00000000000E+00 -0.73248316096E+03  0.73248316098E+03  0.50400001928E-02 0. -1.
    10030    2    1    2    0    0  0.00000000000E+00  0.00000000000E+00 -0.32053267232E+03  0.11444336497E+04  0.10986296849E+04 0.  0.
        2    1    3    3  502    0  0.46829171718E+03 -0.40970372333E+02  0.13578516495E+03  0.48929879911E+03  0.25500000920E-02 0.  1.
       -2    1    3    3    0  502 -0.46829171718E+03  0.40970372333E+02 -0.45631783727E+03  0.65513485055E+03  0.25500000920E-02 0. -1.
</event>
<event>
 5   0  0.1415400E-03  0.1114854E+04  0.7818609E-02  0.9190834E-01
        1   -1    0    0  501    0  0.00000000000E+00  0.00000000000E+00  0.44175580517E+03  0.44175580520E+03  0.50400001928E-02 0.  1.
       -1   -1    0    0    0  501  0.00000000000E+00  0.00000000000E+00 -0.70338580332E+03  0.70338580334E+03  0.50400001928E-02 0. -1.
    10030    2    1    2    0    0  0.00000000000E+00  0.00000000000E+00 -0.26162999815E+03  0.11451416085E+04  0.11148538235E+04 0.  0.
        2    1    3    3  502    0  0.17049781911E+03  0.74191584228E+02  0.40896211976E+03  0.44924816404E+03  0.25500000920E-02 0.  1.
       -2    1    3    3    0  502 -0.17049781911E+03 -0.74191584228E+02 -0.67059211790E+03  0.69589344450E+03  0.25500000920E-02 0. -1.
</event>
<event>
 5   0  0.2392585E-03  0.1095526E+04  0.7818609E-02  0.9209564E-01
        2   -1    0    0  501    0  0.00000000000E+00  0.00000000000E+00  0.78902461909E+03  0.78902461909E+03  0.25500000920E-02 0.  1.
       -2   -1    0    0    0  501  0.00000000000E+00  0.00000000000E+00 -0.38027227005E+03  0.38027227005E+03  0.25500000920E-02 0. -1.
    10030    2    1    2    0    0  0.00000000000E+00  0.00000000000E+00  0.40875234904E+03  0.11692968891E+04  0.10955257788E+04 0.  0.
        5    1    3    3  502    0  0.33892491861E+03  0.43021968690E+03  0.19590352434E+03  0.58168665130E+03  0.46999998093E+01 0.  1.
       -5    1    3    3    0  502 -0.33892491861E+03 -0.43021968690E+03  0.21284882471E+03  0.58761023785E+03  0.46999998093E+01 0. -1.
</event>
<event>
 5   0  0.1480937E-03  0.1097121E+04  0.7818609E-02  0.9208002E-01
       -1   -1    0    0    0  501  0.00000000000E+00  0.00000000000E+00  0.37730587153E+03  0.37730587156E+03  0.50400001928E-02 0. -1.
        1   -1    0    0  501    0  0.00000000000E+00  0.00000000000E+00 -0.79754553034E+03  0.79754553036E+03  0.50400001928E-02 0.  1.
    10030    2    1    2    0    0  0.00000000000E+00  0.00000000000E+00 -0.42023965882E+03  0.11748514019E+04  0.10971209805E+04 0.  0.
        1    1    3    3  502    0  0.19799452488E+03 -0.10288196437E+03  0.32651581609E+03  0.39547327174E+03  0.50400001928E-02 0. -1.
       -1    1    3    3    0  502 -0.19799452488E+03  0.10288196437E+03 -0.74675547491E+03  0.77937813018E+03  0.50400001928E-02 0.  1.
</event>
<event>
 5   0  0.2483036E-03  0.1098760E+04  0.7818609E-02  0.9206401E-01
        2   -1    0    0  501    0  0.00000000000E+00  0.00000000000E+00  0.64565798937E+03  0.64565798937E+03  0.25500000920E-02 0. -1.
       -2   -1    0    0    0  501  0.00000000000E+00  0.00000000000E+00 -0.46745854716E+03  0.46745854717E+03  0.25500000920E-02 0.  1.
    10030    2    1    2    0    0  0.00000000000E+00  0.00000000000E+00  0.17819944221E+03  0.11131165365E+04  0.10987599295E+04 0.  0.
        3    1    3    3  502    0 -0.42670802143E+03  0.19889662733E+03  0.37595801596E+03  0.60248157141E+03  0.10100000352E+00 0. -1.
       -3    1    3    3    0  502  0.42670802143E+03 -0.19889662733E+03 -0.19775857375E+03  0.51063496513E+03  0.10100000352E+00 0.  1.
</event>
<event>
 5   0  0.9631750E-04  0.1105610E+04  0.7818609E-02  0.9199741E-01
       -4   -1    0    0    0  501  0.00000000000E+00  0.00000000000E+00  0.50945552223E+03  0.50945710520E+03  0.12699999809E+01 0.  1.
        4   -1    0    0  501    0  0.00000000000E+00  0.00000000000E+00 -0.59983958563E+03  0.59984093008E+03  0.12699999809E+01 0. -1.
    10030    2    1    2    0    0  0.00000000000E+00  0.00000000000E+00 -0.90384063401E+02  0.11092980353E+04  0.11056097196E+04 0.  0.
        3    1    3    3  502    0 -0.30134516256E+03 -0.20239607569E+03  0.37311621252E+03  0.52056584281E+03  0.10100000352E+00 0.  1.
       -3    1    3    3    0  502  0.30134516256E+03  0.20239607569E+03 -0.46350027592E+03  0.58873219246E+03  0.10100000352E+00 0. -1.
</event>
<event>
 5   0  0.1479573E-03  0.1103713E+04  0.7818609E-02  0.9201581E-01
        1   -1    0    0  501    0  0.00000000000E+00  0.00000000000E+00  0.15003333123E+04  0.15003333124E+04  0.50400001928E-02 0. -1.
       -1   -1    0    0    0  501  0.00000000000E+00  0.00000000000E+00 -0.20298518812E+03  0.20298518818E+03  0.50400001928E-02 0.  1.
    10030    2    1    2    0    0  0.00000000000E+00  0.00000000000E+00  0.12973481242E+04  0.17033185005E+04  0.11037127157E+04 0.  0.
        4    1    3    3  502    0  0.35784660031E+03  0.41619750314E+03  0.56043404170E+03  0.78445043117E+03  0.12699999809E+01 0. -1.
       -4    1    3    3    0  502 -0.35784660031E+03 -0.41619750314E+03  0.73691408253E+03  0.91886806937E+03  0.12699999809E+01 0.  1.
</event>
<event>
 5   0  0.1468556E-03  0.1105010E+04  0.7818609E-02  0.9200322E-01
        1   -1    0    0  501    0  0.00000000000E+00  0.00000000000E+00  0.42345591828E+03  0.42345591831E+03  0.50400001928E-02 0.  1.
       -1   -1    0    0    0  501  0.00000000000E+00  0.00000000000E+00 -0.72088232470E+03  0.72088232471E+03  0.50400001928E-02 0. -1.
    10030    2    1    2    0    0  0.00000000000E+00  0.00000000000E+00 -0.29742640642E+03  0.11443382430E+04  0.11050102023E+04 0.  0.
        5    1    3    3  502    0 -0.17516398372E+03  0.52069396051E+03 -0.88016854840E+02  0.55639345650E+03  0.46999998093E+01 0.  1.
       -5    1    3    3    0  502  0.17516398372E+03 -0.52069396051E+03 -0.20940955158E+03  0.58794478652E+03  0.46999998093E+01 0. -1.
</event>
<event>
 5   0  0.2438115E-03  0.1099350E+04  0.7818609E-02  0.9205826E-01
       -2   -1    0    0    0  501  0.00000000000E+00  0.00000000000E+00  0.91699815239E+03  0.91699815239E+03  0.25500000920E-02 0.  1.
        2   -1    0    0  501    0  0.00000000000E+00  0.00000000000E+00 -0.32949082791E+03  0.32949082792E+03  0.25500000920E-02 0. -1.
    10030    2    1    2    0    0  0.00000000000E+00  0.00000000000E+00  0.58750732448E+03  0.12464889803E+04  0.10993497722E+04 0.  0.
        4    1    3    3  502    0  0.19951917431E+03  0.28244900019E+03 -0.19069755110E+03  0.39490822671E+03  0.12699999809E+01 0. -1.
       -4    1    3    3    0  502 -0.19951917431E+03 -0.28244900019E+03  0.77820487558E+03  0.85158075360E+03  0.12699999809E+01 0.  1.
</event>
<event>
 5   0  0.1468556E-03  0.1105844E+04  0.7818609E-02  0.9199515E-01
        1   -1    0    0  501    0  0.00000000000E+00  0.00000000000E+00  0.13408421976E+04  0.13408421976E+04  0.50400001928E-02 0. -1.
       -1   -1    0    0    0  501  0.00000000000E+00  0.00000000000E+00 -0.22800801101E+03  0.22800801107E+03  0.50400001928E-02 0.  1.
    10030    2    1    2    0    0  0.00000000000E+00  0.00000000000E+00  0.11128341866E+04  0.15688502087E+04  0.11058440443E+04 0.  0.
        5    1    3    3  502    0 -0.49337899446E+03 -0.19965314287E+02  0.20351028636E+03  0.53409734375E+03  0.46999998093E+01 0.  1.
       -5    1    3    3    0  502  0.49337899446E+03  0.19965314287E+02  0.90932390021E+03  0.10347528649E+04  0.46999998093E+01 0. -1.
</event>
<event>
 5   0  0.2488472E-03  0.1095212E+04  0.7818609E-02  0.9209871E-01
       -2   -1    0    0    0  501  0.00000000000E+00  0.00000000000E+00  0.72087392685E+03  0.72087392686E+03  0.25500000920E-02 0.  1.
        2   -1    0    0  501    0  0.00000000000E+00  0.00000000000E+00 -0.41598467714E+03  0.41598467715E+03  0.25500000920E-02 0. -1.
    10030    2    1    2    0    0  0.00000000000E+00  0.00000000000E+00  0.30488924971E+03  0.11368586040E+04  0.10952123223E+04 0.  0.
        2    1    3    3  502    0  0.29401292933E+03  0.32020892731E+03  0.49811678527E+03  0.66113364119E+03  0.25500000920E-02 0.  1.
       -2    1    3    3    0  502 -0.29401292933E+03 -0.32020892731E+03 -0.19322753556E+03  0.47572496281E+03  0.25500000920E-02 0. -1.
</event>
<event>
 5   0  0.1415400E-03  0.1096209E+04  0.7818609E-02  0.9208895E-01
       -1   -1    0    0    0  501  0.00000000000E+00  0.00000000000E+00  0.18177622605E+03  0.18177622612E+03  0.50400001928E-02 0.  1.
        1   -1    0    0  501    0  0.00000000000E+00  0.00000000000E+00 -0.16526819955E+04  0.16526819955E+04  0.50400001928E-02 0. -1.
    10030    2    1    2    0    0  0.00000000000E+00  0.00000000000E+00 -0.14709057695E+04  0.18344582217E+04  0.10962085496E+04 0.  0.
        2    1    3    3  502    0  0.41322042646E+03 -0.10696085239E+03 -0.16004984591E+03  0.45585929624E+03  0.25500000920E-02 0.  1.
       -2    1    3    3    0  502 -0.41322042646E+03  0.10696085239E+03 -0.13108559236E+04  0.13785989254E+04  0.25500000920E-02 0. -1.
</event>
<event>
 5   0  0.1479573E-03  0.1098061E+04  0.7818609E-02  0.9207084E-01
       -1   -1    0    0    0  501  0.00000000000E+00  0.00000000000E+00  0.19969640811E+03  0.19969640817E+03  0.50400001928E-02 0. -1.
        1   -1    0    0  501    0  0.00000000000E+00  0.00000000000E+00 -0.15094635379E+04  0.15094635379E+04  0.50400001928E-02 0.  1.
    10030    2    1    2    0    0  0.00000000000E+00  0.00000000000E+00 -0.13097671298E+04  0.17091599461E+04  0.10980609213E+04 0.  0.
        4    1    3    3  502    0  0.13036342795E+03 -0.53137684493E+03 -0.72581843775E+03  0.90893893753E+03  0.12699999809E+01 0.  1.
       -4    1    3    3    0  502 -0.13036342795E+03  0.53137684493E+03 -0.58394869202E+03  0.80022100853E+03  0.12699999809E+01 0. -1.
</event>
<event>
 5   0  0.2488472E-03  0.1099377E+04  0.7818609E-02  0.9205799E-01
       -2   -1    0    0    0  501  0.00000000000E+00  0.00000000000E+00  0.33382403292E+03  0.33382403293E+03  0.25500000920E-02 0. -1.
        2   -1    0    0  501    0  0.00000000000E+00  0.00000000000E+00 -0.90514006836E+03  0.90514006836E+03  0.25500000920E-02 0.  1.
    10030    2    1    2    0    0  0.00000000000E+00  0.00000000000E+00 -0.57131603544E+03  0.12389641013E+04  0.10993771109E+04 0.  0.
        2    1    3    3  502    0 -0.92699996619E+02 -0.48001094821E+02 -0.89386659360E+03  0.89994159901E+03  0.25500000920E-02 0.  1.
       -2    1    3    3    0  502  0.92699996619E+02  0.48001094821E+02  0.32255055816E+03  0.33902250228E+03  0.25500000920E-02 0. -1.
</event>
<event>
 5   0  0.2438115E-03  0.1107534E+04  0.7818609E-02  0.9197880E-01
        2   -1    0    0  501    0  0.00000000000E+00  0.00000000000E+00  0.94443674038E+03  0.94443674038E+03  0.25500000920E-02 0. -1.
       -2   -1    0    0    0  501  0.00000000000E+00  0.00000000000E+00 -0.32469911643E+03  0.32469911644E+03  0.25500000920E-02 0.  1.
    10030    2    1    2    0    0  0.00000000000E+00  0.00000000000E+00  0.61973762395E+03  0.12691358568E+04  0.11075337920E+04 0.  0.
        4    1    3    3  502    0 -0.11228519229E+03 -0.20739667934E+03  0.88400921097E+03  0.91492909288E+03  0.12699999809E+01 0. -1.
       -4    1    3    3    0  502  0.11228519229E+03  0.20739667934E+03 -0.26427158702E+03  0.35420676394E+03  0.12699999809E+01 0.  1.
</event>
<event>
 5   0  0.1415400E-03  0.1101519E+04  0.7818609E-02  0.9203712E-01
       -1   -1    0    0    0  501  0.00000000000E+00  0.00000000000E+00  0.15234520064E+04  0.15234520064E+04  0.50400001928E-02 0.  1.
        1   -1    0    0  501    0  0.00000000000E+00  0.00000000000E+00 -0.19911103497E+03  0.19911103503E+03  0.50400001928E-02 0. -1.
    10030    2    1    2    0    0  0.00000000000E+00  0.00000000000E+00  0.13243409714E+04  0.17225630414E+04  0.11015191433E+04 0.  0.
        2    1    3    3  502    0  0.13688477085E+03  0.12431217294E+02  0.14962002770E+04  0.15025003309E+04  0.25500000920E-02 0.  1.
       -2    1    3    3    0  502 -0.13688477085E+03 -0.12431217294E+02 -0.17185930553E+03  0.22006271051E+03  0.25500000920E-02 0. -1.
</event>
<event>
 5   0  0.1480937E-03  0.1101987E+04  0.7818609E-02  0.9203257E-01
       -1   -1    0    0    0  501  0.00000000000E+00  0.00000000000E+00  0.39134177917E+03  0.39134177920E+03  0.50400001928E-02 0. -1.
        1   -1    0    0  501    0  0.00000000000E+00  0.00000000000E+00 -0.77577660453E+03  0.77577660454E+03  0.50400001928E-02 0.  1.
    10030    2    1    2    0    0  0.00000000000E+00  0.00000000000E+00 -0.38443482535E+03  0.11671183837E+04  0.11019869268E+04 0.  0.
        1    1    3    3  502    0  0.10498770662E+03  0.27923465947E+03  0.29841100804E+03  0.42195206285E+03  0.50400001928E-02 0. -1.
       -1    1    3    3    0  502 -0.10498770662E+03 -0.27923465947E+03 -0.68284583340E+03  0.74516632090E+03  0.50400001928E-02 0.  1.
</event>
<event>
 5   0  0.1479573E-03  0.1099175E+04  0.7818609E-02  0.9205996E-01
        1   -1    0    0  501    0  0.00000000000E+00  0.00000000000E+00  0.53617358965E+03  0.53617358967E+03  0.50400001928E-02 0. -1.
       -1   -1    0    0    0  501  0.00000000000E+00  0.00000000000E+00 -0.56333747183E+03  0.56333747186E+03  0.50400001928E-02 0.  1.
    10030    2    1    2    0    0  0.00000000000E+00  0.00000000000E+00 -0.27163882189E+02  0.10995110615E+04  0.10991754628E+04 0.  0.
        4    1    3    3  502    0  0.23122599582E+03  0.20189609089E+02  0.48473878527E+03  0.53744430810E+03  0.12699999809E+01 0. -1.
       -4    1    3    3    0  502 -0.23122599582E+03 -0.20189609089E+02 -0.51190266746E+03  0.56206675343E+03  0.12699999809E+01 0.  1.
</event>
<event>
 5   0  0.2438115E-03  0.1098195E+04  0.7818609E-02  0.9206953E-01
        2   -1    0    0  501    0  0.00000000000E+00  0.00000000000E+00  0.10342529912E+04  0.10342529912E+04  0.25500000920E-02 0. -1.
       -2   -1    0    0    0  501  0.00000000000E+00  0.00000000000E+00 -0.29152261293E+03  0.29152261294E+03  0.25500000920E-02 0.  1.
    10030    2    1    2    0    0  0.00000000000E+00  0.00000000000E+00  0.74273037826E+03  0.13257756041E+04  0.10981951273E+04 0.  0.
        4    1    3    3  502    0 -0.15552160494E+03  0.30340746019E+03  0.89098464290E+03  0.95399072495E+03  0.12699999809E+01 0. -1.
       -4    1    3    3    0  502  0.15552160494E+03 -0.30340746019E+03 -0.14825426464E+03  0.37178487918E+03  0.12699999809E+01 0.  1.
</event>
<event>
 5   0  0.1509004E-03  0.1097565E+04  0.7818609E-02  0.9207568E-01
       -1   -1    0    0    0  501  0.00000000000E+00  0.00000000000E+00  0.18397504950E+03  0.18397504957E+03  0.50400001928E-02 0. -1.
        1   -1    0    0  501    0  0.00000000000E+00  0.00000000000E+00 -0.16369739857E+04  0.16369739857E+04  0.50400001928E-02 0.  1.
    10030    2    1    2    0    0  0.00000000000E+00  0.00000000000E+00 -0.14529989362E+04  0.18209490353E+04  0.10975652511E+04 0.  0.
        3    1    3    3  502    0  0.61701483346E+02  0.38008704017E+03 -0.13752171642E+04  0.14281090610E+04  0.10100000352E+00 0.  1.
       -3    1    3    3    0  502 -0.61701483346E+02 -0.38008704017E+03 -0.77781772004E+02  0.39283997430E+03  0.10100000352E+00 0. -1.
</event>
<event>
 5   0  0.1480937E-03  0.1105515E+04  0.7818609E-02  0.9199834E-01
       -1   -1    0    0    0  501  0.00000000000E+00  0.00000000000E+00  0.76008753174E+03  0.76008753175E+03  0.50400001928E-02 0. -1.
        1   -1    0    0  501    0  0.00000000000E+00  0.00000000000E+00 -0.40198089041E+03  0.40198089044E+03  0.50400001928E-02 0.  1.
    10030    2    1    2    0    0  0.00000000000E+00  0.00000000000E+00  0.35810664132E+03  0.11620684222E+04  0.11055146545E+04 0.  0.
        1    1    3    3  502    0 -0.49117311246E+03 -0.34529518282E+02 -0.84988520087E+02  0.49966625122E+03  0.50400001928E-02 0.  1.
       -1    1    3    3    0  502  0.49117311246E+03  0.34529518282E+02  0.44309516141E+03  0.66240217098E+03  0.50400001928E-02 0. -1.
</event>
<event>
 5   0  0.1480937E-03  0.1101824E+04  0.7818609E-02  0.9203416E-01
       -1   -1    0    0    0  501  0.00000000000E+00  0.00000000000E+00  0.41686971722E+03  0.41686971725E+03  0.50400001928E-02 0. -1.
        1   -1    0    0  501    0  0.00000000000E+00  0.00000000000E+00 -0.72805422287E+03  0.72805422289E+03  0.50400001928E-02 0.  1.
    10030    2    1    2    0    0  0.00000000000E+00  0.00000000000E+00 -0.31118450565E+03  0.11449239401E+04  0.11018235032E+04 0.  0.
        1    1    3    3  502    0  0.42568956710E+03 -0.94627390298E+02  0.19423368559E+03  0.47738105867E+03  0.50400001928E-02 0. -1.
       -1    1    3    3    0  502 -0.42568956710E+03  0.94627390298E+02 -0.50541819124E+03  0.66754288147E+03  0.50400001928E-02 0.  1.
</event>
<event>
 5   0  0.2438115E-03  0.1095578E+04  0.7818609E-02  0.9209512E-01
        2   -1    0    0  501    0  0.00000000000E+00  0.00000000000E+00  0.15798571399E+04  0.15798571399E+04  0.25500000920E-02 0.  1.
       -2   -1    0    0    0  501  0.00000000000E+00  0.00000000000E+00 -0.18993675951E+03  0.18993675953E+03  0.25500000920E-02 0. -1.
    10030    2    1    2    0    0  0.00000000000E+00  0.00000000000E+00  0.13899203804E+04  0.17697938994E+04  0.10955782869E+04 0.  0.
        4    1    3    3  502    0  0.31456771238E+02  0.38863926874E+03  0.73417796186E+02  0.39676415584E+03  0.12699999809E+01 0. -1.
       -4    1    3    3    0  502 -0.31456771238E+02 -0.38863926874E+03  0.13165025842E+04  0.13730297436E+04  0.12699999809E+01 0.  1.
</event>
<event>
 5   0  0.2483036E-03  0.1075159E+04  0.7818609E-02  0.9229747E-01
        2   -1    0    0  501    0  0.00000000000E+00  0.00000000000E+00  0.13411208641E+04  0.13411208641E+04  0.25500000920E-02 0.  1.
       -2   -1    0    0    0  501  0.00000000000E+00  0.00000000000E+00 -0.21548530525E+03  0.21548530526E+03  0.25500000920E-02 0. -1.
    10030    2    1    2    0    0  0.00000000000E+00  0.00000000000E+00  0.11256355588E+04  0.15566061693E+04  0.10751592231E+04 0.  0.
        3    1    3    3  502    0  0.11536646408E+03 -0.29621473443E+03  0.11904636764E+04  0.12321754603E+04  0.10100000352E+00 0.  1.
       -3    1    3    3    0  502 -0.11536646408E+03  0.29621473443E+03 -0.64828117587E+02  0.32443070903E+03  0.10100000352E+00 0. -1.
</event>
<event>
 5   0  0.2392585E-03  0.1161002E+04  0.7818609E-02  0.9147694E-01
        2   -1    0    0  501    0  0.00000000000E+00  0.00000000000E+00  0.83530462881E+03  0.83530462882E+03  0.25500000920E-02 0.  1.
       -2   -1    0    0    0  501  0.00000000000E+00  0.00000000000E+00 -0.40342304509E+03  0.40342304509E+03  0.25500000920E-02 0. -1.
    10030    2    1    2    0    0  0.00000000000E+00  0.00000000000E+00  0.43188158373E+03  0.12387276739E+04  0.11610015279E+04 0.  0.
        5    1    3    3  502    0  0.52071878652E+03 -0.14321958177E+03 -0.11143997461E+02  0.54019087544E+03  0.46999998093E+01 0.  1.
       -5    1    3    3    0  502 -0.52071878652E+03  0.14321958177E+03  0.44302558119E+03  0.69853679847E+03  0.46999998093E+01 0. -1.
</event>
<event>
 5   0  0.2483036E-03  0.1105016E+04  0.7818609E-02  0.9200316E-01
       -2   -1    0    0    0  501  0.00000000000E+00  0.00000000000E+00  0.46219117779E+03  0.46219117779E+03  0.25500000920E-02 0. -1.
        2   -1    0    0  501    0  0.00000000000E+00  0.00000000000E+00 -0.66047396472E+03  0.66047396473E+03  0.25500000920E-02 0.  1.
    10030    2    1    2    0    0  0.00000000000E+00  0.00000000000E+00 -0.19828278694E+03  0.11226651425E+04  0.11050162708E+04 0.  0.
        3    1    3    3  502    0 -0.13479436096E+03  0.46262406909E+03  0.17549938917E+03  0.51282608636E+03  0.10100000352E+00 0. -1.
       -3    1    3    3    0  502  0.13479436096E+03 -0.46262406909E+03 -0.37378217611E+03  0.60983905616E+03  0.10100000352E+00 0.  1.
</event>
<event>
 5   0  0.1468556E-03  0.1098379E+04  0.7818609E-02  0.9206773E-01
        1   -1    0    0  501    0  0.00000000000E+00  0.00000000000E+00  0.12787442936E+04  0.12787442936E+04  0.50400001928E-02 0.  1.
       -1   -1    0    0    0  501  0.00000000000E+00  0.00000000000E+00 -0.23586354372E+03  0.23586354378E+03  0.50400001928E-02 0. -1.
    10030    2    1    2    0    0  0.00000000000E+00  0.00000000000E+00  0.10428807499E+04  0.15146078374E+04  0.10983790979E+04 0.  0.
        5    1    3    3  502    0  0.21119616518E+03 -0.59554473008E+02  0.12156370580E+04  0.12352919097E+04  0.46999998093E+01 0.  1.
       -5    1    3    3    0  502 -0.21119616518E+03  0.59554473008E+02 -0.17275630813E+03  0.27931592765E+03  0.46999998093E+01 0. -1.
</event>
<event>
 5   0  0.2392585E-03  0.1094528E+04  0.7818609E-02  0.9210542E-01
       -2   -1    0    0    0  501  0.00000000000E+00  0.00000000000E+00  0.20890212064E+03  0.20890212066E+03  0.25500000920E-02 0.  1.
        2   -1    0    0  501    0  0.00000000000E+00  0.00000000000E+00 -0.14336760531E+04  0.14336760531E+04  0.25500000920E-02 0. -1.
    10030    2    1    2    0    0  0.00000000000E+00  0.00000000000E+00 -0.12247739324E+04  0.16425781737E+04  0.10945281501E+04 0.  0.
        5    1    3    3  502    0 -0.26287799280E+03 -0.29470818171E+03 -0.43858139505E+02  0.39737058002E+03  0.46999998093E+01 0.  1.
       -5    1    3    3    0  502  0.26287799280E+03  0.29470818171E+03 -0.11809157929E+04  0.12452075937E+04  0.46999998093E+01 0. -1.
</event>
<event>
 5   0  0.2488472E-03  0.1102036E+04  0.7818609E-02  0.9203210E-01
       -2   -1    0    0    0  501  0.00000000000E+00  0.00000000000E+00  0.14398346499E+03  0.14398346501E+03  0.25500000920E-02 0.  1.
        2   -1    0    0  501    0  0.00000000000E+00  0.00000000000E+00 -0.21087189064E+04  0.21087189064E+04  0.25500000920E-02 0. -1.
    10030    2    1    2    0    0  0.00000000000E+00  0.00000000000E+00 -0.19647354414E+04  0.22527023714E+04  0.11020356707E+04 0.  0.
        2    1    3    3  502    0 -0.17317126518E+03  0.52094715909E+03 -0.10792521855E+04  0.12108507380E+04  0.25500000920E-02 0. -1.
       -2    1    3    3    0  502  0.17317126518E+03 -0.52094715909E+03 -0.88548325584E+03  0.10418516334E+04  0.25500000920E-02 0.  1.
</event>
<event>
 5   0  0.2392585E-03  0.1104857E+04  0.7818609E-02  0.9200471E-01
        2   -1    0    0  501    0  0.00000000000E+00  0.00000000000E+00  0.31857692811E+03  0.31857692812E+03  0.25500000920E-02 0. -1.
       -2   -1    0    0    0  501  0.00000000000E+00  0.00000000000E+00 -0.95793942751E+03  0.95793942751E+03  0.25500000920E-02 0.  1.
    10030    2    1    2    0    0  0.00000000000E+00  0.00000000000E+00 -0.63936249940E+03  0.12765163556E+04  0.11048572761E+04 0.  0.
        5    1    3    3  502    0  0.11831557402E+03 -0.41667633945E+03 -0.71578462662E+03  0.83665253757E+03  0.46999998093E+01 0.  1.
       -5    1    3    3    0  502 -0.11831557402E+03  0.41667633945E+03  0.76422127220E+02  0.43986381807E+03  0.46999998093E+01 0. -1.
</event>
<event>
 5   0  0.1480937E-03  0.1104352E+04  0.7818609E-02  0.9200960E-01
        1   -1    0    0  501    0  0.00000000000E+00  0.00000000000E+00  0.65143214814E+03  0.65143214816E+03  0.50400001928E-02 0.  1.
       -1   -1    0    0    0  501  0.00000000000E+00  0.00000000000E+00 -0.46804352851E+03  0.46804352853E+03  0.50400001928E-02 0. -1.
    10030    2    1    2    0    0  0.00000000000E+00  0.00000000000E+00  0.18338861963E+03  0.11194756767E+04  0.11043524822E+04 0.  0.
        1    1    3    3  502    0  0.28101205704E+03  0.30085015817E+02 -0.38917053440E+03  0.48096422866E+03  0.50400001928E-02 0. -1.
       -1    1    3    3    0  502 -0.28101205704E+03 -0.30085015817E+02  0.57255915403E+03  0.63851144804E+03  0.50400001928E-02 0.  1.
</event>
<event>
 5   0  0.2488472E-03  0.1105117E+04  0.7818609E-02  0.9200219E-01
        2   -1    0    0  501    0  0.00000000000E+00  0.00000000000E+00  0.14137077914E+04  0.14137077914E+04  0.25500000920E-02 0. -1.
       -2   -1    0    0    0  501  0.00000000000E+00  0.00000000000E+00 -0.21597171855E+03  0.21597171857E+03  0.25500000920E-02 0.  1.
    10030    2    1    2    0    0  0.00000000000E+00  0.00000000000E+00  0.11977360729E+04  0.16296795100E+04  0.11051170097E+04 0.  0.
        2    1    3    3  502    0 -0.34202020236E+03  0.53322639081E+02  0.12340024422E+04  0.12816330013E+04  0.25500000920E-02 0. -1.
       -2    1    3    3    0  502  0.34202020236E+03 -0.53322639081E+02 -0.36266369338E+02  0.34804650869E+03  0.25500000920E-02 0.  1.
</event>
<event>
 5   0  0.1468556E-03  0.1104737E+04  0.7818609E-02  0.9200587E-01
        1   -1    0    0  501    0  0.00000000000E+00  0.00000000000E+00  0.17747095438E+04  0.17747095438E+04  0.50400001928E-02 0. -1.
       -1   -1    0    0    0  501  0.00000000000E+00  0.00000000000E+00 -0.17192156047E+03  0.17192156054E+03  0.50400001928E-02 0.  1.
    10030    2    1    2    0    0  0.00000000000E+00  0.00000000000E+00  0.16027879834E+04  0.19466311044E+04  0.11047367727E+04 0.  0.
        5    1    3    3  502    0 -0.19837565683E+03  0.38618617592E+03  0.19971226231E+03  0.47791185527E+03  0.46999998093E+01 0. -1.
       -5    1    3    3    0  502  0.19837565683E+03 -0.38618617592E+03  0.14030757210E+04  0.14687192491E+04  0.46999998093E+01 0.  1.
</event>
<event>
 5   0  0.1509004E-03  0.1082365E+04  0.7818609E-02  0.9222553E-01
        1   -1    0    0  501    0  0.00000000000E+00  0.00000000000E+00  0.63723301175E+03  0.63723301177E+03  0.50400001928E-02 0.  1.
       -1   -1    0    0    0  501  0.00000000000E+00  0.00000000000E+00 -0.45960950129E+03  0.45960950132E+03  0.50400001928E-02 0. -1.
    10030    2    1    2    0    0  0.00000000000E+00  0.00000000000E+00  0.17762351046E+03  0.10968425131E+04  0.10823647200E+04 0.  0.
        3    1    3    3  502    0 -0.14475758324E+03 -0.16951504394E+02  0.61697051916E+03  0.63395168831E+03  0.10100000352E+00 0.  1.
       -3    1    3    3    0  502  0.14475758324E+03  0.16951504394E+02 -0.43934700870E+03  0.46289082478E+03  0.10100000352E+00 0. -1.
</event>
<event>
 5   0  0.2438115E-03  0.1092504E+04  0.7818609E-02  0.9212529E-01
        2   -1    0    0  501    0  0.00000000000E+00  0.00000000000E+00  0.64987374497E+03  0.64987374498E+03  0.25500000920E-02 0.  1.
       -2   -1    0    0    0  501  0.00000000000E+00  0.00000000000E+00 -0.45915278765E+03  0.45915278766E+03  0.25500000920E-02 0. -1.
    10030    2    1    2    0    0  0.00000000000E+00  0.00000000000E+00  0.19072095732E+03  0.11090265326E+04  0.10925041723E+04 0.  0.
        4    1    3    3  502    0 -0.31502756391E+03  0.11995898945E+03  0.53169494781E+03  0.62955035986E+03  0.12699999809E+01 0.  1.
       -4    1    3    3    0  502  0.31502756391E+03 -0.11995898945E+03 -0.34097399048E+03  0.47947617278E+03  0.12699999809E+01 0. -1.
</event>
<event>
 5   0  0.1509004E-03  0.1089795E+04  0.7818609E-02  0.9215196E-01
       -1   -1    0    0    0  501  0.00000000000E+00  0.00000000000E+00  0.39254411384E+03  0.39254411387E+03  0.50400001928E-02 0. -1.
        1   -1    0    0  501    0  0.00000000000E+00  0.00000000000E+00 -0.75638165042E+03  0.75638165044E+03  0.50400001928E-02 0.  1.
    10030    2    1    2    0    0  0.00000000000E+00  0.00000000000E+00 -0.36383753658E+03  0.11489257643E+04  0.10897947783E+04 0.  0.
        3    1    3    3  502    0 -0.41822610894E+03 -0.30326514230E+03 -0.36461403533E+03  0.63231813962E+03  0.10100000352E+00 0.  1.
       -3    1    3    3    0  502  0.41822610894E+03  0.30326514230E+03  0.77649874674E+00  0.51660762469E+03  0.10100000352E+00 0. -1.
</event>
<event>
 5   0  0.1479573E-03  0.1098906E+04  0.7818609E-02  0.9206258E-01
       -1   -1    0    0    0  501  0.00000000000E+00  0.00000000000E+00  0.18169977339E+03  0.18169977346E+03  0.50400001928E-02 0. -1.
        1   -1    0    0  501    0  0.00000000000E+00  0.00000000000E+00 -0.16615257873E+04  0.16615257873E+04  0.50400001928E-02 0.  1.
    10030    2    1    2    0    0  0.00000000000E+00  0.00000000000E+00 -0.14798260139E+04  0.18432255608E+04  0.10989064730E+04 0.  0.
        4    1    3    3  502    0 -0.15714227378E+03  0.64310041658E+02  0.13658912146E+03  0.21791667368E+03  0.12699999809E+01 0. -1.
       -4    1    3    3    0  502  0.15714227378E+03 -0.64310041658E+02 -0.16164151354E+04  0.16253088871E+04  0.12699999809E+01 0.  1.
</event>
<event>
 5   0  0.1509004E-03  0.1097466E+04  0.7818609E-02  0.9207665E-01
       -1   -1    0    0    0  501  0.00000000000E+00  0.00000000000E+00  0.59098439731E+03  0.59098439733E+03  0.50400001928E-02 0. -1.
        1   -1    0    0  501    0  0.00000000000E+00  0.00000000000E+00 -0.50950219826E+03  0.50950219829E+03  0.50400001928E-02 0.  1.
    10030    2    1    2    0    0  0.00000000000E+00  0.00000000000E+00  0.81482199047E+02  0.11004865956E+04  0.10974658985E+04 0.  0.
        3    1    3    3  502    0  0.52463069945E+03  0.12770254617E+03  0.13879843529E+03  0.55750365644E+03  0.10100000352E+00 0. -1.
       -3    1    3    3    0  502 -0.52463069945E+03 -0.12770254617E+03 -0.57316236243E+02  0.54298293918E+03  0.10100000352E+00 0.  1.
</event>
<event>
 5   0  0.2392585E-03  0.1106231E+04  0.7818609E-02  0.9199139E-01
       -2   -1    0    0    0  501  0.00000000000E+00  0.00000000000E+00  0.30417540303E+03  0.30417540304E+03  0.25500000920E-02 0. -1.
        2   -1    0    0  501    0  0.00000000000E+00  0.00000000000E+00 -0.10057914846E+04  0.10057914846E+04  0.25500000920E-02 0.  1.
    10030    2    1    2    0    0  0.00000000000E+00  0.00000000000E+00 -0.70161608153E+03  0.13099668876E+04  0.11062314951E+04 0.  0.
        5    1    3    3  502    0 -0.18780725596E+02 -0.43626683588E+03 -0.75278727972E+03  0.87028285417E+03  0.46999998093E+01 0.  1.
       -5    1    3    3    0  502  0.18780725596E+02  0.43626683588E+03  0.51171198190E+02  0.43968403345E+03  0.46999998093E+01 0. -1.
</event>
<event>
 5   0  0.1479573E-03  0.1089904E+04  0.7818609E-02  0.9215088E-01
       -1   -1    0    0    0  501  0.00000000000E+00  0.00000000000E+00  0.20155204919E+03  0.20155204926E+03  0.50400001928E-02 0. -1.
        1   -1    0    0  501    0  0.00000000000E+00  0.00000000000E+00 -0.14734303115E+04  0.14734303115E+04  0.50400001928E-02 0.  1.
    10030    2    1    2    0    0  0.00000000000E+00  0.00000000000E+00 -0.12718782623E+04  0.16749823608E+04  0.10899043971E+04 0.  0.
        4    1    3    3  502    0 -0.46541215431E+03 -0.19179720240E+03 -0.31512851510E+03  0.59388739182E+03  0.12699999809E+01 0. -1.
       -4    1    3    3    0  502  0.46541215431E+03  0.19179720240E+03 -0.95674974724E+03  0.10810949690E+04  0.12699999809E+01 0.  1.
</event>
<event>
 5   0  0.1468556E-03  0.1111497E+04  0.7818609E-02  0.9194058E-01
        1   -1    0    0  501    0  0.00000000000E+00  0.00000000000E+00  0.98732840202E+03  0.98732840203E+03  0.50400001928E-02 0.  1.
       -1   -1    0    0    0  501  0.00000000000E+00  0.00000000000E+00 -0.31282044014E+03  0.31282044018E+03  0.50400001928E-02 0. -1.
    10030    2    1    2    0    0  0.00000000000E+00  0.00000000000E+00  0.67450796187E+03  0.13001488422E+04  0.11114971981E+04 0.  0.
        5    1    3    3  502    0 -0.33166662107E+03  0.25194210170E+03  0.76760695945E+03  0.87333848211E+03  0.46999998093E+01 0.  1.
       -5    1    3    3    0  502  0.33166662107E+03 -0.25194210170E+03 -0.93098997576E+02  0.42681036010E+03  0.46999998093E+01 0. -1.
</event>
<event>
 5   0  0.2392585E-03  0.1066570E+04  0.7818609E-02  0.9238402E-01
       -2   -1    0    0    0  501  0.00000000000E+00  0.00000000000E+00  0.33173784057E+03  0.33173784058E+03  0.25500000920E-02 0.  1.
        2   -1    0    0  501    0  0.00000000000E+00  0.00000000000E+00 -0.85728238826E+03  0.85728238827E+03  0.25500000920E-02 0. -1.
    10030    2    1    2    0    0  0.00000000000E+00  0.00000000000E+00 -0.52554454769E+03  0.11890202289E+04  0.10665702194E+04 0.  0.
        5    1    3    3  502    0  0.50401258059E+03 -0.54071359380E+02 -0.78176466124E+02  0.51291913900E+03  0.46999998093E+01 0.  1.
       -5    1    3    3    0  502 -0.50401258059E+03  0.54071359380E+02 -0.44736808157E+03  0.67610108985E+03  0.46999998093E+01 0. -1.
</event>
<event>
 5   0  0.1468556E-03  0.1088895E+04  0.7818609E-02  0.9216084E-01
        1   -1    0    0  501    0  0.00000000000E+00  0.00000000000E+00  0.12854228536E+04  0.12854228536E+04  0.50400001928E-02 0. -1.
       -1   -1    0    0    0  501  0.00000000000E+00  0.00000000000E+00 -0.23060336997E+03  0.23060337003E+03  0.50400001928E-02 0.  1.
    10030    2    1    2    0    0  0.00000000000E+00  0.00000000000E+00  0.10548194836E+04  0.15160262236E+04  0.10888945623E+04 0.  0.
        5    1    3    3  502    0  0.14942439158E+03  0.50654684531E+03  0.71150126444E+03  0.88610016059E+03  0.46999998093E+01 0.  1.
       -5    1    3    3    0  502 -0.14942439158E+03 -0.50654684531E+03  0.34331821918E+03  0.62992606305E+03  0.46999998093E+01 0. -1.
</event>
<event>
 5   0  0.2438115E-03  0.1086450E+04  0.7818609E-02  0.9218500E-01
        2   -1    0    0  501    0  0.00000000000E+00  0.00000000000E+00  0.19635231776E+04  0.19635231776E+04  0.25500000920E-02 0.  1.
       -2   -1    0    0    0  501  0.00000000000E+00  0.00000000000E+00 -0.15028761109E+03  0.15028761111E+03  0.25500000920E-02 0. -1.
    10030    2    1    2    0    0  0.00000000000E+00  0.00000000000E+00  0.18132355665E+04  0.21138107887E+04  0.10864496449E+04 0.  0.
        4    1    3    3  502    0  0.24539946868E+03 -0.20843548095E+03  0.17578660254E+04  0.17871096287E+04  0.12699999809E+01 0.  1.
       -4    1    3    3    0  502 -0.24539946868E+03  0.20843548095E+03  0.55369541113E+02  0.32670115998E+03  0.12699999809E+01 0. -1.
</event>
<event>
 5   0  0.1415400E-03  0.1097687E+04  0.7818609E-02  0.9207450E-01
        1   -1    0    0  501    0  0.00000000000E+00  0.00000000000E+00  0.85802815825E+03  0.85802815826E+03  0.50400001928E-02 0. -1.
       -1   -1    0    0    0  501  0.00000000000E+00  0.00000000000E+00 -0.35107120247E+03  0.35107120250E+03  0.50400001928E-02 0.  1.
    10030    2    1    2    0    0  0.00000000000E+00  0.00000000000E+00  0.50695695578E+03  0.12090993608E+04  0.10976866170E+04 0.  0.
        2    1    3    3  502    0 -0.44712595619E+03 -0.17151171511E+03  0.54881771648E+03  0.72838092716E+03  0.25500000920E-02 0. -1.
       -2    1    3    3    0  502  0.44712595619E+03  0.17151171511E+03 -0.41860760695E+02  0.48071843361E+03  0.25500000920E-02 0.  1.
</event>
<event>
 5   0  0.1415400E-03  0.1094876E+04  0.7818609E-02  0.9210200E-01
        1   -1    0    0  501    0  0.00000000000E+00  0.00000000000E+00  0.12699788592E+04  0.12699788592E+04  0.50400001928E-02 0. -1.
       -1   -1    0    0    0  501  0.00000000000E+00  0.00000000000E+00 -0.23597909558E+03  0.23597909563E+03  0.50400001928E-02 0.  1.
    10030    2    1    2    0    0  0.00000000000E+00  0.00000000000E+00  0.10339997636E+04  0.15059579548E+04  0.10948761805E+04 0.  0.
        2    1    3    3  502    0  0.23471227063E+02 -0.26130002952E+03  0.11778790340E+04  0.12067425669E+04  0.25500000920E-02 0. -1.
       -2    1    3    3    0  502 -0.23471227063E+02  0.26130002952E+03 -0.14387927041E+03  0.29921538795E+03  0.25500000920E-02 0.  1.
</event>
<event>
 5   0  0.1480937E-03  0.1104234E+04  0.7818609E-02  0.9201074E-01
       -1   -1    0    0    0  501  0.00000000000E+00  0.00000000000E+00  0.81974413301E+03  0.81974413302E+03  0.50400001928E-02 0. -1.
        1   -1    0    0  501    0  0.00000000000E+00  0.00000000000E+00 -0.37186411503E+03  0.37186411506E+03  0.50400001928E-02 0.  1.
    10030    2    1    2    0    0  0.00000000000E+00  0.00000000000E+00  0.44788001798E+03  0.11916082481E+04  0.11042344436E+04 0.  0.
        1    1    3    3  502    0  0.45493585063E+03 -0.21893688361E+03 -0.17199266384E+02  0.50516908256E+03  0.50400001928E-02 0.  1.
       -1    1    3    3    0  502 -0.45493585063E+03  0.21893688361E+03  0.46507928436E+03  0.68643916552E+03  0.50400001928E-02 0. -1.
</event>
<event>
 5   0  0.2483036E-03  0.1101778E+04  0.7818609E-02  0.9203461E-01
        2   -1    0    0  501    0  0.00000000000E+00  0.00000000000E+00  0.15671206615E+04  0.15671206615E+04  0.25500000920E-02 0. -1.
       -2   -1    0    0    0  501  0.00000000000E+00  0.00000000000E+00 -0.19365366213E+03  0.19365366214E+03  0.25500000920E-02 0.  1.
    10030    2    1    2    0    0  0.00000000000E+00  0.00000000000E+00  0.13734669994E+04  0.17607743236E+04  0.11017779361E+04 0.  0.
        3    1    3    3  502    0  0.13317519732E+03  0.11225234255E+03 -0.14849288378E+03  0.22888068578E+03  0.10100000352E+00 0.  1.
       -3    1    3    3    0  502 -0.13317519732E+03 -0.11225234255E+03  0.15219598831E+04  0.15318936378E+04  0.10100000352E+00 0. -1.
</event>
<event>
 5   0  0.1415400E-03  0.1100890E+04  0.7818609E-02  0.9204325E-01
        1   -1    0    0  501    0  0.00000000000E+00  0.00000000000E+00  0.19045414368E+04  0.19045414368E+04  0.50400001928E-02 0. -1.
       -1   -1    0    0    0  501  0.00000000000E+00  0.00000000000E+00 -0.15908805689E+03  0.15908805697E+03  0.50400001928E-02 0.  1.
    10030    2    1    2    0    0  0.00000000000E+00  0.00000000000E+00  0.17454533799E+04  0.20636294938E+04  0.11008901790E+04 0.  0.
        2    1    3    3  502    0  0.29964757673E+03 -0.45569647410E+03  0.10122719545E+04  0.11498445359E+04  0.25500000920E-02 0.  1.
       -2    1    3    3    0  502 -0.29964757673E+03  0.45569647410E+03  0.73318142538E+03  0.91378495790E+03  0.25500000920E-02 0. -1.
</event>
<event>
 5   0  0.9631750E-04  0.1099093E+04  0.7818609E-02  0.9206076E-01
       -3   -1    0    0    0  501  0.00000000000E+00  0.00000000000E+00  0.23472222272E+03  0.23472224445E+03  0.10100000352E+00 0. -1.
        3   -1    0    0  501    0  0.00000000000E+00  0.00000000000E+00 -0.12866335116E+04  0.12866335156E+04  0.10100000352E+00 0.  1.
    10030    2    1    2    0    0  0.00000000000E+00  0.00000000000E+00 -0.10519112889E+04  0.15213557600E+04  0.10990932576E+04 0.  0.
        3    1    3    3  502    0 -0.44207228287E+03 -0.32056025977E+03 -0.44046341590E+03  0.70156597293E+03  0.10100000352E+00 0.  1.
       -3    1    3    3    0  502  0.44207228287E+03  0.32056025977E+03 -0.61144787299E+03  0.81978978709E+03  0.10100000352E+00 0. -1.
</event>
<event>
 5   0  0.1415400E-03  0.1114618E+04  0.7818609E-02  0.9191060E-01
       -1   -1    0    0    0  501  0.00000000000E+00  0.00000000000E+00  0.16976315870E+03  0.16976315878E+03  0.50400001928E-02 0. -1.
        1   -1    0    0  501    0  0.00000000000E+00  0.00000000000E+00 -0.18295688427E+04  0.18295688427E+04  0.50400001928E-02 0.  1.
    10030    2    1    2    0    0  0.00000000000E+00  0.00000000000E+00 -0.16598056840E+04  0.19993320015E+04  0.11146181156E+04 0.  0.
        2    1    3    3  502    0  0.55160983501E+03  0.18091682149E+01 -0.68734075681E+03  0.88131379154E+03  0.25500000920E-02 0. -1.
       -2    1    3    3    0  502 -0.55160983501E+03 -0.18091682149E+01 -0.97246492722E+03  0.11180182100E+04  0.25500000920E-02 0.  1.
</event>
<event>
 5   0  0.2392585E-03  0.1063026E+04  0.7818609E-02  0.9241998E-01
        2   -1    0    0  501    0  0.00000000000E+00  0.00000000000E+00  0.11551468137E+04  0.11551468137E+04  0.25500000920E-02 0. -1.
       -2   -1    0    0    0  501  0.00000000000E+00  0.00000000000E+00 -0.24456296056E+03  0.24456296057E+03  0.25500000920E-02 0.  1.
    10030    2    1    2    0    0  0.00000000000E+00  0.00000000000E+00  0.91058385318E+03  0.13997097743E+04  0.10630261044E+04 0.  0.
        5    1    3    3  502    0  0.49054913062E+02  0.52257374958E+03  0.34517172089E+03  0.62821597810E+03  0.46999998093E+01 0. -1.
       -5    1    3    3    0  502 -0.49054913062E+02 -0.52257374958E+03  0.56541213229E+03  0.77149379620E+03  0.46999998093E+01 0.  1.
</event>
<event>
 5   0  0.2438115E-03  0.1093104E+04  0.7818609E-02  0.9211939E-01
        2   -1    0    0  501    0  0.00000000000E+00  0.00000000000E+00  0.14065916127E+04  0.14065916127E+04  0.25500000920E-02 0.  1.
       -2   -1    0    0    0  501  0.00000000000E+00  0.00000000000E+00 -0.21237085364E+03  0.21237085365E+03  0.25500000920E-02 0. -1.
    10030    2    1    2    0    0  0.00000000000E+00  0.00000000000E+00  0.11942207591E+04  0.16189624664E+04  0.10931039503E+04 0.  0.
        4    1    3    3  502    0 -0.50193738824E+02 -0.52109717545E+03  0.36455059848E+03  0.63793450246E+03  0.12699999809E+01 0. -1.
       -4    1    3    3    0  502  0.50193738824E+02  0.52109717545E+03  0.82967016061E+03  0.98102796391E+03  0.12699999809E+01 0.  1.
</event>
<event>
 5   0  0.1415400E-03  0.1101501E+04  0.7818609E-02  0.9203730E-01
       -1   -1    0    0    0  501  0.00000000000E+00  0.00000000000E+00  0.11853205106E+04  0.11853205106E+04  0.50400001928E-02 0.  1.
        1   -1    0    0  501    0  0.00000000000E+00  0.00000000000E+00 -0.25590214616E+03  0.25590214621E+03  0.50400001928E-02 0. -1.
    10030    2    1    2    0    0  0.00000000000E+00  0.00000000000E+00  0.92941836446E+03  0.14412226568E+04  0.11015009080E+04 0.  0.
        2    1    3    3  502    0 -0.33682755465E+02 -0.14621722719E+03 -0.22864333531E+03  0.27348085917E+03  0.25500000920E-02 0. -1.
       -2    1    3    3    0  502  0.33682755465E+02  0.14621722719E+03  0.11580616998E+04  0.11677417977E+04  0.25500000920E-02 0.  1.
</event>
<event>
 5   0  0.1480937E-03  0.1099228E+04  0.7818609E-02  0.9205944E-01
       -1   -1    0    0    0  501  0.00000000000E+00  0.00000000000E+00  0.16062552847E+04  0.16062552847E+04  0.50400001928E-02 0.  1.
        1   -1    0    0  501    0  0.00000000000E+00  0.00000000000E+00 -0.18806206651E+03  0.18806206658E+03  0.50400001928E-02 0. -1.
    10030    2    1    2    0    0  0.00000000000E+00  0.00000000000E+00  0.14181932181E+04  0.17943173512E+04  0.10992282534E+04 0.  0.
        1    1    3    3  502    0 -0.17641404598E+03 -0.49243723629E+03  0.43372206354E+03  0.67950803949E+03  0.50400001928E-02 0. -1.
       -1    1    3    3    0  502  0.17641404598E+03  0.49243723629E+03  0.98447115460E+03  0.11148093118E+04  0.50400001928E-02 0.  1.
</event>
<event>
 5   0  0.1509004E-03  0.1099300E+04  0.7818609E-02  0.9205874E-01
        1   -1    0    0  501    0  0.00000000000E+00  0.00000000000E+00  0.46820868056E+03  0.46820868059E+03  0.50400001928E-02 0.  1.
       -1   -1    0    0    0  501  0.00000000000E+00  0.00000000000E+00 -0.64525750996E+03  0.64525750998E+03  0.50400001928E-02 0. -1.
    10030    2    1    2    0    0  0.00000000000E+00  0.00000000000E+00 -0.17704882940E+03  0.11134661906E+04  0.10993000817E+04 0.  0.
        3    1    3    3  502    0 -0.36981433445E+03  0.40616847975E+03 -0.68787904442E+02  0.55359485358E+03  0.10100000352E+00 0. -1.
       -3    1    3    3    0  502  0.36981433445E+03 -0.40616847975E+03 -0.10826092496E+03  0.55987133699E+03  0.10100000352E+00 0.  1.
</event>
<event>
 5   0  0.2488472E-03  0.1102526E+04  0.7818609E-02  0.9202734E-01
        2   -1    0    0  501    0  0.00000000000E+00  0.00000000000E+00  0.14207899171E+04  0.14207899171E+04  0.25500000920E-02 0. -1.
       -2   -1    0    0    0  501  0.00000000000E+00  0.00000000000E+00 -0.21388862034E+03  0.21388862036E+03  0.25500000920E-02 0.  1.
    10030    2    1    2    0    0  0.00000000000E+00  0.00000000000E+00  0.12069012968E+04  0.16346785375E+04  0.11025258186E+04 0.  0.
        2    1    3    3  502    0  0.28141576843E+03 -0.10485909211E+03  0.12888542671E+04  0.13233803633E+04  0.25500000920E-02 0. -1.
       -2    1    3    3    0  502 -0.28141576843E+03  0.10485909211E+03 -0.81952970366E+02  0.31129817423E+03  0.25500000920E-02 0.  1.
</event>
<event>
 5   0  0.1480937E-03  0.1111714E+04  0.7818609E-02  0.9193849E-01
       -1   -1    0    0    0  501  0.00000000000E+00  0.00000000000E+00  0.41639685438E+03  0.41639685441E+03  0.50400001928E-02 0. -1.
        1   -1    0    0  501    0  0.00000000000E+00  0.00000000000E+00 -0.74202506456E+03  0.74202506458E+03  0.50400001928E-02 0.  1.
    10030    2    1    2    0    0  0.00000000000E+00  0.00000000000E+00 -0.32562821018E+03  0.11584219190E+04  0.11117138171E+04 0.  0.
        1    1    3    3  502    0  0.54305393318E+03  0.11721064137E+03 -0.14385648586E+03  0.57388204132E+03  0.50400001928E-02 0.  1.
       -1    1    3    3    0  502 -0.54305393318E+03 -0.11721064137E+03 -0.18177172432E+03  0.58453987767E+03  0.50400001928E-02 0. -1.
</event>
<event>
 5   0  0.2392585E-03  0.1108554E+04  0.7818609E-02  0.9196895E-01
       -2   -1    0    0    0  501  0.00000000000E+00  0.00000000000E+00  0.23209558385E+03  0.23209558386E+03  0.25500000920E-02 0.  1.
        2   -1    0    0  501    0  0.00000000000E+00  0.00000000000E+00 -0.13236914867E+04  0.13236914867E+04  0.25500000920E-02 0. -1.
    10030    2    1    2    0    0  0.00000000000E+00  0.00000000000E+00 -0.10915959028E+04  0.15557870705E+04  0.11085539201E+04 0.  0.
        5    1    3    3  502    0 -0.25734553357E+02  0.55146972673E+03 -0.47676174103E+03  0.72945525870E+03  0.46999998093E+01 0.  1.
       -5    1    3    3    0  502  0.25734553357E+02 -0.55146972673E+03 -0.61483416177E+03  0.82633181182E+03  0.46999998093E+01 0. -1.
</event>
<event>
 5   0  0.1480937E-03  0.1094322E+04  0.7818609E-02  0.9210744E-01
       -1   -1    0    0    0  501  0.00000000000E+00  0.00000000000E+00  0.12862247204E+04  0.12862247204E+04  0.50400001928E-02 0.  1.
        1   -1    0    0  501    0  0.00000000000E+00  0.00000000000E+00 -0.23276261341E+03  0.23276261346E+03  0.50400001928E-02 0. -1.
    10030    2    1    2    0    0  0.00000000000E+00  0.00000000000E+00  0.10534621070E+04  0.15189873339E+04  0.10943217578E+04 0.  0.
        1    1    3    3  502    0  0.90711665679E+02  0.34180994184E+03 -0.52811990544E+02  0.35756362931E+03  0.50400001928E-02 0. -1.
       -1    1    3    3    0  502 -0.90711665679E+02 -0.34180994184E+03  0.11062740976E+04  0.11614237046E+04  0.50400001928E-02 0.  1.
</event>
<event>
 5   0  0.2488472E-03  0.1091292E+04  0.7818609E-02  0.9213721E-01
        2   -1    0    0  501    0  0.00000000000E+00  0.00000000000E+00  0.46266532396E+03  0.46266532397E+03  0.25500000920E-02 0.  1.
       -2   -1    0    0    0  501  0.00000000000E+00  0.00000000000E+00 -0.64350954072E+03  0.64350954073E+03  0.25500000920E-02 0. -1.
    10030    2    1    2    0    0  0.00000000000E+00  0.00000000000E+00 -0.18084421676E+03  0.11061748647E+04  0.10912919868E+04 0.  0.
        2    1    3    3  502    0 -0.50617069540E+03 -0.12623049822E+03 -0.25256183515E+03  0.57959502426E+03  0.25500000920E-02 0. -1.
       -2    1    3    3    0  502  0.50617069540E+03  0.12623049822E+03  0.71717618389E+02  0.52657984044E+03  0.25500000920E-02 0.  1.
</event>
<event>
 5   0  0.9631750E-04  0.1100176E+04  0.7818609E-02  0.9205020E-01
        3   -1    0    0  501    0  0.00000000000E+00  0.00000000000E+00  0.49629878983E+03  0.49629880011E+03  0.10100000352E+00 0. -1.
       -3   -1    0    0    0  501  0.00000000000E+00  0.00000000000E+00 -0.60970710629E+03  0.60970711465E+03  0.10100000352E+00 0.  1.
    10030    2    1    2    0    0  0.00000000000E+00  0.00000000000E+00 -0.11340831645E+03  0.11060059148E+04  0.11001761846E+04 0.  0.
        4    1    3    3  502    0 -0.10903947340E+03 -0.24898897442E+02  0.48474588910E+03  0.49748341857E+03  0.12699999809E+01 0. -1.
       -4    1    3    3    0  502  0.10903947340E+03  0.24898897442E+02 -0.59815420555E+03  0.60852249619E+03  0.12699999809E+01 0.  1.
</event>
<event>
 5   0  0.2392585E-03  0.1096344E+04  0.7818609E-02  0.9208763E-01
        2   -1    0    0  501    0  0.00000000000E+00  0.00000000000E+00  0.12319107266E+04  0.12319107266E+04  0.25500000920E-02 0. -1.
       -2   -1    0    0    0  501  0.00000000000E+00  0.00000000000E+00 -0.24392376487E+03  0.24392376488E+03  0.25500000920E-02 0.  1.
    10030    2    1    2    0    0  0.00000000000E+00  0.00000000000E+00  0.98798696172E+03  0.14758344915E+04  0.10963435637E+04 0.  0.
        5    1    3    3  502    0 -0.87620321207E+02  0.73808457884E+02  0.12155875591E+04  0.12209832975E+04  0.46999998093E+01 0. -1.
       -5    1    3    3    0  502  0.87620321207E+02 -0.73808457884E+02 -0.22760059734E+03  0.25485119394E+03  0.46999998093E+01 0.  1.
</event>
<event>
 5   0  0.1480937E-03  0.1092298E+04  0.7818609E-02  0.9212732E-01
       -1   -1    0    0    0  501  0.00000000000E+00  0.00000000000E+00  0.13554346537E+04  0.13554346537E+04  0.50400001928E-02 0. -1.
        1   -1    0    0  501    0  0.00000000000E+00  0.00000000000E+00 -0.22006117149E+03  0.22006117155E+03  0.50400001928E-02 0.  1.
    10030    2    1    2    0    0  0.00000000000E+00  0.00000000000E+00  0.11353734822E+04  0.15754958252E+04  0.10922976477E+04 0.  0.
        1    1    3    3  502    0  0.45892483106E+02 -0.49440297532E+03  0.23960537660E+03  0.55131765664E+03  0.50400001928E-02 0.  1.
       -1    1    3    3    0  502 -0.45892483106E+02  0.49440297532E+03  0.89576810556E+03  0.10241781686E+04  0.50400001928E-02 0. -1.
</event>
<event>
 5   0  0.1415400E-03  0.1101176E+04  0.7818609E-02  0.9204046E-01
       -1   -1    0    0    0  501  0.00000000000E+00  0.00000000000E+00  0.44995869964E+03  0.44995869967E+03  0.50400001928E-02 0. -1.
        1   -1    0    0  501    0  0.00000000000E+00  0.00000000000E+00 -0.67372238898E+03  0.67372238900E+03  0.50400001928E-02 0.  1.
    10030    2    1    2    0    0  0.00000000000E+00  0.00000000000E+00 -0.22376368935E+03  0.11236810887E+04  0.11011761895E+04 0.  0.
        2    1    3    3  502    0 -0.38244712561E+03  0.21700880447E+03 -0.44999722970E+03  0.62917098777E+03  0.25500000920E-02 0.  1.
       -2    1    3    3    0  502  0.38244712561E+03 -0.21700880447E+03  0.22623354035E+03  0.49451010090E+03  0.25500000920E-02 0. -1.
</event>
<event>
 5   0  0.2483036E-03  0.1100903E+04  0.7818609E-02  0.9204313E-01
        2   -1    0    0  501    0  0.00000000000E+00  0.00000000000E+00  0.93491075083E+03  0.93491075083E+03  0.25500000920E-02 0. -1.
       -2   -1    0    0    0  501  0.00000000000E+00  0.00000000000E+00 -0.32409151906E+03  0.32409151907E+03  0.25500000920E-02 0.  1.
    10030    2    1    2    0    0  0.00000000000E+00  0.00000000000E+00  0.61081923177E+03  0.12590022699E+04  0.11009026214E+04 0.  0.
        3    1    3    3  502    0  0.42879054766E+03 -0.29242913690E+02 -0.87899078533E+02  0.43868296066E+03  0.10100000352E+00 0.  1.
       -3    1    3    3    0  502 -0.42879054766E+03  0.29242913690E+02  0.69871831030E+03  0.82031930924E+03  0.10100000352E+00 0. -1.
</event>
<event>
 5   0  0.1509004E-03  0.1100121E+04  0.7818609E-02  0.9205074E-01
       -1   -1    0    0    0  501  0.00000000000E+00  0.00000000000E+00  0.91126003893E+03  0.91126003895E+03  0.50400001928E-02 0. -1.
        1   -1    0    0  501    0  0.00000000000E+00  0.00000000000E+00 -0.33203105380E+03  0.33203105384E+03  0.50400001928E-02 0.  1.
    10030    2    1    2    0    0  0.00000000000E+00  0.00000000000E+00  0.57922898513E+03  0.12432910928E+04  0.11001211407E+04 0.  0.
        3    1    3    3  502    0 -0.17413136778E+03  0.51551509549E+03  0.38065269470E+03  0.66405875577E+03  0.10100000352E+00 0.  1.
       -3    1    3    3    0  502  0.17413136778E+03 -0.51551509549E+03  0.19857629043E+03  0.57923233702E+03  0.10100000352E+00 0. -1.
</event>
<event>
 5   0  0.2467448E-03  0.1107120E+04  0.7818609E-02  0.9198279E-01
       -2   -1    0    0    0  501  0.00000000000E+00  0.00000000000E+00  0.65995564815E+03  0.65995564815E+03  0.25500000920E-02 0.  1.
        2   -1    0    0  501    0  0.00000000000E+00  0.00000000000E+00 -0.46431744393E+03  0.46431744394E+03  0.25500000920E-02 0. -1.
    10030    2    1    2    0    0  0.00000000000E+00  0.00000000000E+00  0.19563820422E+03  0.11242730921E+04  0.11071204445E+04 0.  0.
        1    1    3    3  502    0  0.23274755345E+03  0.46355427618E+03  0.29414027238E+03  0.59629899418E+03  0.50400001928E-02 0.  1.
       -1    1    3    3    0  502 -0.23274755345E+03 -0.46355427618E+03 -0.98502068164E+02  0.52797409791E+03  0.50400001928E-02 0. -1.
</event>
<event>
 5   0  0.1480937E-03  0.1104111E+04  0.7818609E-02  0.9201194E-01
        1   -1    0    0  501    0  0.00000000000E+00  0.00000000000E+00  0.24693988475E+04  0.24693988475E+04  0.50400001928E-02 0.  1.
       -1   -1    0    0    0  501  0.00000000000E+00  0.00000000000E+00 -0.12341678579E+03  0.12341678589E+03  0.50400001928E-02 0. -1.
    10030    2    1    2    0    0  0.00000000000E+00  0.00000000000E+00  0.23459820617E+04  0.25928156334E+04  0.11041109885E+04 0.  0.
        1    1    3    3  502    0 -0.34874469863E+03 -0.29623128936E+03  0.44770548145E+03  0.64016875882E+03  0.50400001928E-02 0. -1.
       -1    1    3    3    0  502  0.34874469863E+03  0.29623128936E+03  0.18982765802E+04  0.19526468745E+04  0.50400001928E-02 0.  1.
</event>
<event>
 5   0  0.2488472E-03  0.1098455E+04  0.7818609E-02  0.9206700E-01
        2   -1    0    0  501    0  0.00000000000E+00  0.00000000000E+00  0.12502885665E+04  0.12502885665E+04  0.25500000920E-02 0.  1.
       -2   -1    0    0    0  501  0.00000000000E+00  0.00000000000E+00 -0.24126476140E+03  0.24126476141E+03  0.25500000920E-02 0. -1.
    10030    2    1    2    0    0  0.00000000000E+00  0.00000000000E+00  0.10090238051E+04  0.14915533279E+04  0.10984545010E+04 0.  0.
        2    1    3    3  502    0  0.29441167032E+03 -0.20032422420E+03  0.10722921424E+04  0.11298754202E+04  0.25500000920E-02 0.  1.
       -2    1    3    3    0  502 -0.29441167032E+03  0.20032422420E+03 -0.63268337323E+02  0.36167790773E+03  0.25500000920E-02 0. -1.
</event>
<event>
 5   0  0.1509004E-03  0.1096958E+04  0.7818609E-02  0.9208161E-01
        1   -1    0    0  501    0  0.00000000000E+00  0.00000000000E+00  0.25804768696E+03  0.25804768700E+03  0.50400001928E-02 0. -1.
       -1   -1    0    0    0  501  0.00000000000E+00  0.00000000000E+00 -0.11657902518E+04  0.11657902518E+04  0.50400001928E-02 0.  1.
    10030    2    1    2    0    0  0.00000000000E+00  0.00000000000E+00 -0.90774256487E+03  0.14238379388E+04  0.10969584824E+04 0.  0.
        3    1    3    3  502    0  0.29647762312E+03  0.43424010122E+03 -0.65648212360E+03  0.84108990918E+03  0.10100000352E+00 0.  1.
       -3    1    3    3    0  502 -0.29647762312E+03 -0.43424010122E+03 -0.25126044127E+03  0.58274802966E+03  0.10100000352E+00 0. -1.
</event>
<event>
 5   0  0.2438115E-03  0.1088739E+04  0.7818609E-02  0.9216238E-01
       -2   -1    0    0    0  501  0.00000000000E+00  0.00000000000E+00  0.24368907816E+03  0.24368907817E+03  0.25500000920E-02 0.  1.
        2   -1    0    0  501    0  0.00000000000E+00  0.00000000000E+00 -0.12160497781E+04  0.12160497781E+04  0.25500000920E-02 0. -1.
    10030    2    1    2    0    0  0.00000000000E+00  0.00000000000E+00 -0.97236069990E+03  0.14597388562E+04  0.10887388106E+04 0.  0.
        4    1    3    3  502    0 -0.19519562750E+03 -0.38200844330E+03 -0.36865948762E+02  0.43057228757E+03  0.12699999809E+01 0.  1.
       -4    1    3    3    0  502  0.19519562750E+03  0.38200844330E+03 -0.93549475114E+03  0.10291665687E+04  0.12699999809E+01 0. -1.
</event>
<event>
 5   0  0.2467448E-03  0.1119697E+04  0.7818609E-02  0.9186204E-01
        2   -1    0    0  501    0  0.00000000000E+00  0.00000000000E+00  0.13722438786E+04  0.13722438786E+04  0.25500000920E-02 0.  1.
       -2   -1    0    0    0  501  0.00000000000E+00  0.00000000000E+00 -0.22840721745E+03  0.22840721746E+03  0.25500000920E-02 0. -1.
    10030    2    1    2    0    0  0.00000000000E+00  0.00000000000E+00  0.11438366612E+04  0.16006510961E+04  0.11196971126E+04 0.  0.
        1    1    3    3  502    0 -0.30680030545E+03 -0.39994997975E+03  0.22367364493E+03  0.55146741807E+03  0.50400001928E-02 0. -1.
       -1    1    3    3    0  502  0.30680030545E+03  0.39994997975E+03  0.92016301625E+03  0.10491836780E+04  0.50400001928E-02 0.  1.
</event>
<event>
 5   0  0.1509004E-03  0.1102085E+04  0.7818609E-02  0.9203162E-01
       -1   -1    0    0    0  501  0.00000000000E+00  0.00000000000E+00  0.84071888853E+03  0.84071888855E+03  0.50400001928E-02 0.  1.
        1   -1    0    0  501    0  0.00000000000E+00  0.00000000000E+00 -0.36117622044E+03  0.36117622047E+03  0.50400001928E-02 0. -1.
    10030    2    1    2    0    0  0.00000000000E+00  0.00000000000E+00  0.47954266809E+03  0.12018951090E+04  0.11020846985E+04 0.  0.
        3    1    3    3  502    0  0.19330894597E+03 -0.24565241782E+03  0.73466948966E+03  0.79840636784E+03  0.10100000352E+00 0.  1.
       -3    1    3    3    0  502 -0.19330894597E+03  0.24565241782E+03 -0.25512682156E+03  0.40348874118E+03  0.10100000352E+00 0. -1.
</event>
<event>
 5   0  0.1468556E-03  0.1109936E+04  0.7818609E-02  0.9195561E-01
        1   -1    0    0  501    0  0.00000000000E+00  0.00000000000E+00  0.41108817189E+03  0.41108817192E+03  0.50400001928E-02 0. -1.
       -1   -1    0    0    0  501  0.00000000000E+00  0.00000000000E+00 -0.74920603761E+03  0.74920603762E+03  0.50400001928E-02 0.  1.
    10030    2    1    2    0    0  0.00000000000E+00  0.00000000000E+00 -0.33811786572E+03  0.11602942095E+04  0.11099364674E+04 0.  0.
        5    1    3    3  502    0  0.33040361907E+03 -0.40865396374E+03 -0.35548399668E+03  0.63447267511E+03  0.46999998093E+01 0.  1.
       -5    1    3    3    0  502 -0.33040361907E+03  0.40865396374E+03  0.17366130956E+02  0.52582153443E+03  0.46999998093E+01 0. -1.
</event>
<event>
 5   0  0.1509004E-03  0.1096990E+04  0.7818609E-02  0.9208131E-01
        1   -1    0    0  501    0  0.00000000000E+00  0.00000000000E+00  0.44248836455E+03  0.44248836458E+03  0.50400001928E-02 0. -1.
       -1   -1    0    0    0  501  0.00000000000E+00  0.00000000000E+00 -0.67989696497E+03  0.67989696499E+03  0.50400001928E-02 0.  1.
    10030    2    1    2    0    0  0.00000000000E+00  0.00000000000E+00 -0.23740860042E+03  0.11223853296E+04  0.10969895097E+04 0.  0.
        3    1    3    3  502    0 -0.34024699506E+03  0.42402134923E+03 -0.19308082048E+03  0.57692489606E+03  0.10100000352E+00 0.  1.
       -3    1    3    3    0  502  0.34024699506E+03 -0.42402134923E+03 -0.44327779933E+02  0.54546043351E+03  0.10100000352E+00 0. -1.
</event>
<event>
 5   0  0.1468556E-03  0.1096651E+04  0.7818609E-02  0.9208462E-01
       -1   -1    0    0    0  501  0.00000000000E+00  0.00000000000E+00  0.42281627151E+03  0.42281627154E+03  0.50400001928E-02 0. -1.
        1   -1    0    0  501    0  0.00000000000E+00  0.00000000000E+00 -0.71109089562E+03  0.71109089564E+03  0.50400001928E-02 0.  1.
    10030    2    1    2    0    0  0.00000000000E+00  0.00000000000E+00 -0.28827462411E+03  0.11339071672E+04  0.10966509038E+04 0.  0.
        5    1    3    3  502    0 -0.37424305604E+03  0.33344668399E+03  0.85661024327E+02  0.50853166779E+03  0.46999998093E+01 0.  1.
       -5    1    3    3    0  502  0.37424305604E+03 -0.33344668399E+03 -0.37393564844E+03  0.62537549939E+03  0.46999998093E+01 0. -1.
</event>
<event>
 5   0  0.2488472E-03  0.1107952E+04  0.7818609E-02  0.9197476E-01
       -2   -1    0    0    0  501  0.00000000000E+00  0.00000000000E+00  0.42508089833E+03  0.42508089834E+03  0.25500000920E-02 0.  1.
        2   -1    0    0  501    0  0.00000000000E+00  0.00000000000E+00 -0.72195554202E+03  0.72195554202E+03  0.25500000920E-02 0. -1.
    10030    2    1    2    0    0  0.00000000000E+00  0.00000000000E+00 -0.29687464369E+03  0.11470364404E+04  0.11079521837E+04 0.  0.
        2    1    3    3  502    0  0.18584043618E+03 -0.20548160638E+01 -0.68871719258E+03  0.71335283090E+03  0.25500000920E-02 0. -1.
       -2    1    3    3    0  502 -0.18584043618E+03  0.20548160638E+01  0.39184254890E+03  0.43368360947E+03  0.25500000920E-02 0.  1.
</event>
<event>
 5   0  0.1509004E-03  0.1102845E+04  0.7818609E-02  0.9202424E-01
       -1   -1    0    0    0  501  0.00000000000E+00  0.00000000000E+00  0.27287323295E+03  0.27287323300E+03  0.50400001928E-02 0. -1.
        1   -1    0    0  501    0  0.00000000000E+00  0.00000000000E+00 -0.11143143904E+04  0.11143143904E+04  0.50400001928E-02 0.  1.
    10030    2    1    2    0    0  0.00000000000E+00  0.00000000000E+00 -0.84144115746E+03  0.13871876234E+04  0.11028446314E+04 0.  0.
        3    1    3    3  502    0 -0.49816207885E+03  0.15424479826E+03 -0.64611264618E+03  0.83031227641E+03  0.10100000352E+00 0. -1.
       -3    1    3    3    0  502  0.49816207885E+03 -0.15424479826E+03 -0.19532851128E+03  0.55687534702E+03  0.10100000352E+00 0.  1.
</event>
<event>
 5   0  0.2467448E-03  0.1063370E+04  0.7818609E-02  0.9241648E-01
       -2   -1    0    0    0  501  0.00000000000E+00  0.00000000000E+00  0.69235994912E+03  0.69235994913E+03  0.25500000920E-02 0.  1.
        2   -1    0    0  501    0  0.00000000000E+00  0.00000000000E+00 -0.40829759574E+03  0.40829759575E+03  0.25500000920E-02 0. -1.
    10030    2    1    2    0    0  0.00000000000E+00  0.00000000000E+00  0.28406235338E+03  0.11006575449E+04  0.10633699312E+04 0.  0.
        1    1    3    3  502    0  0.14312957024E+03 -0.22144581711E+03  0.61991833404E+03  0.67366391078E+03  0.50400001928E-02 0.  1.
       -1    1    3    3    0  502 -0.14312957024E+03  0.22144581711E+03 -0.33585598066E+03  0.42699363410E+03  0.50400001928E-02 0. -1.
</event>
<event>
 5   0  0.2438115E-03  0.1097957E+04  0.7818609E-02  0.9207186E-01
        2   -1    0    0  501    0  0.00000000000E+00  0.00000000000E+00  0.14216171516E+04  0.14216171516E+04  0.25500000920E-02 0.  1.
       -2   -1    0    0    0  501  0.00000000000E+00  0.00000000000E+00 -0.21199604028E+03  0.21199604030E+03  0.25500000920E-02 0. -1.
    10030    2    1    2    0    0  0.00000000000E+00  0.00000000000E+00  0.12096211113E+04  0.16336131919E+04  0.10979566602E+04 0.  0.
        4    1    3    3  502    0 -0.33607173386E+03 -0.15995536705E+03  0.43947250286E+01  0.37222420160E+03  0.12699999809E+01 0. -1.
       -4    1    3    3    0  502  0.33607173386E+03  0.15995536705E+03  0.12052263863E+04  0.12613889903E+04  0.12699999809E+01 0.  1.
</event>
<event>
 5   0  0.1509004E-03  0.1135500E+04  0.7818609E-02  0.9171266E-01
       -1   -1    0    0    0  501  0.00000000000E+00  0.00000000000E+00  0.26664956784E+03  0.26664956789E+03  0.50400001928E-02 0.  1.
        1   -1    0    0  501    0  0.00000000000E+00  0.00000000000E+00 -0.12088521950E+04  0.12088521950E+04  0.50400001928E-02 0. -1.
    10030    2    1    2    0    0  0.00000000000E+00  0.00000000000E+00 -0.94220262716E+03  0.14755017629E+04  0.11354997409E+04 0.  0.
        3    1    3    3  502    0 -0.37887821645E+03 -0.33835103898E+03 -0.80062845744E+03  0.94817512388E+03  0.10100000352E+00 0. -1.
       -3    1    3    3    0  502  0.37887821645E+03  0.33835103898E+03 -0.14157416972E+03  0.52732663901E+03  0.10100000352E+00 0.  1.
</event>
<event>
 5   0  0.2483036E-03  0.1094366E+04  0.7818609E-02  0.9210700E-01
       -2   -1    0    0    0  501  0.00000000000E+00  0.00000000000E+00  0.22741985847E+03  0.22741985848E+03  0.25500000920E-02 0.  1.
        2   -1    0    0  501    0  0.00000000000E+00  0.00000000000E+00 -0.13165494800E+04  0.13165494800E+04  0.25500000920E-02 0. -1.
    10030    2    1    2    0    0  0.00000000000E+00  0.00000000000E+00 -0.10891296215E+04  0.15439693385E+04  0.10943664769E+04 0.  0.
        3    1    3    3  502    0 -0.45280420185E+03 -0.66325869534E+02 -0.12136467740E+03  0.47345555367E+03  0.10100000352E+00 0.  1.
       -3    1    3    3    0  502  0.45280420185E+03  0.66325869534E+02 -0.96776494414E+03  0.10705137848E+04  0.10100000352E+00 0. -1.
</event>
<event>
 5   0  0.2483036E-03  0.1096460E+04  0.7818609E-02  0.9208649E-01
       -2   -1    0    0    0  501  0.00000000000E+00  0.00000000000E+00  0.37522320823E+03  0.37522320824E+03  0.25500000920E-02 0.  1.
        2   -1    0    0  501    0  0.00000000000E+00  0.00000000000E+00 -0.80100635738E+03  0.80100635739E+03  0.25500000920E-02 0. -1.
    10030    2    1    2    0    0  0.00000000000E+00  0.00000000000E+00 -0.42578314915E+03  0.11762295656E+04  0.10964600772E+04 0.  0.
        3    1    3    3  502    0  0.36603612802E+02 -0.15061676771E+03 -0.77701109134E+03  0.79232031494E+03  0.10100000352E+00 0. -1.
       -3    1    3    3    0  502 -0.36603612802E+02  0.15061676771E+03  0.35122794220E+03  0.38390925069E+03  0.10100000352E+00 0.  1.
</event>
<event>
 5   0  0.1415400E-03  0.1115203E+04  0.7818609E-02  0.9190500E-01
        1   -1    0    0  501    0  0.00000000000E+00  0.00000000000E+00  0.88485229545E+03  0.88485229547E+03  0.50400001928E-02 0.  1.
       -1   -1    0    0    0  501  0.00000000000E+00  0.00000000000E+00 -0.35137976897E+03  0.35137976900E+03  0.50400001928E-02 0. -1.
    10030    2    1    2    0    0  0.00000000000E+00  0.00000000000E+00  0.53347252648E+03  0.12362320645E+04  0.11152025738E+04 0.  0.
        2    1    3    3  502    0 -0.34146492180E+03 -0.51158521755E+02 -0.21862096002E+03  0.40866931783E+03  0.25500000920E-02 0. -1.
       -2    1    3    3    0  502  0.34146492180E+03  0.51158521755E+02  0.75209348651E+03  0.82756274664E+03  0.25500000920E-02 0.  1.
</event>
<event>
 5   0  0.1468556E-03  0.1099896E+04  0.7818609E-02  0.9205293E-01
       -1   -1    0    0    0  501  0.00000000000E+00  0.00000000000E+00  0.38395750101E+03  0.38395750104E+03  0.50400001928E-02 0.  1.
        1   -1    0    0  501    0  0.00000000000E+00  0.00000000000E+00 -0.78769826915E+03  0.78769826917E+03  0.50400001928E-02 0. -1.
    10030    2    1    2    0    0  0.00000000000E+00  0.00000000000E+00 -0.40374076814E+03  0.11716557702E+04  0.10998957387E+04 0.  0.
        5    1    3    3  502    0 -0.78383558247E+02  0.65784835144E+02  0.37370467838E+03  0.38749052037E+03  0.46999998093E+01 0.  1.
       -5    1    3    3    0  502  0.78383558247E+02 -0.65784835144E+02 -0.77744544652E+03  0.78416524984E+03  0.46999998093E+01 0. -1.
</event>
<event>
 5   0  0.1480937E-03  0.1110288E+04  0.7818609E-02  0.9195222E-01
       -1   -1    0    0    0  501  0.00000000000E+00  0.00000000000E+00  0.24728724751E+03  0.24728724756E+03  0.50400001928E-02 0. -1.
        1   -1    0    0  501    0  0.00000000000E+00  0.00000000000E+00 -0.12462625994E+04  0.12462625994E+04  0.50400001928E-02 0.  1.
    10030    2    1    2    0    0  0.00000000000E+00  0.00000000000E+00 -0.99897535189E+03  0.14935498470E+04  0.11102879769E+04 0.  0.
        1    1    3    3  502    0 -0.28920067663E+03  0.43175823419E+02 -0.11342750277E+04  0.11713586221E+04  0.50400001928E-02 0.  1.
       -1    1    3    3    0  502  0.28920067663E+03 -0.43175823419E+02  0.13529967580E+03  0.32219122488E+03  0.50400001928E-02 0. -1.
</event>
<event>
 5   0  0.2392585E-03  0.1110327E+04  0.7818609E-02  0.9195185E-01
        2   -1    0    0  501    0  0.00000000000E+00  0.00000000000E+00  0.48720228467E+03  0.48720228467E+03  0.25500000920E-02 0. -1.
       -2   -1    0    0    0  501  0.00000000000E+00  0.00000000000E+00 -0.63260460746E+03  0.63260460746E+03  0.25500000920E-02 0.  1.
    10030    2    1    2    0    0  0.00000000000E+00  0.00000000000E+00 -0.14540232279E+03  0.11198068921E+04  0.11103268168E+04 0.  0.
        5    1    3    3  502    0 -0.11359692520E+03 -0.19287823330E+03 -0.58505245581E+03  0.62643015600E+03  0.46999998093E+01 0.  1.
       -5    1    3    3    0  502  0.11359692520E+03  0.19287823330E+03  0.43965013302E+03  0.49337673614E+03  0.46999998093E+01 0. -1.
</event>
<event>
 5   0  0.2483036E-03  0.1101113E+04  0.7818609E-02  0.9204108E-01
       -2   -1    0    0    0  501  0.00000000000E+00  0.00000000000E+00  0.99662257596E+03  0.99662257596E+03  0.25500000920E-02 0. -1.
        2   -1    0    0  501    0  0.00000000000E+00  0.00000000000E+00 -0.30413940420E+03  0.30413940421E+03  0.25500000920E-02 0.  1.
    10030    2    1    2    0    0  0.00000000000E+00  0.00000000000E+00  0.69248317176E+03  0.13007619802E+04  0.11011125219E+04 0.  0.
        3    1    3    3  502    0 -0.35835728091E+03 -0.37604439580E+03  0.13072711411E+03  0.53564812793E+03  0.10100000352E+00 0. -1.
       -3    1    3    3    0  502  0.35835728091E+03  0.37604439580E+03  0.56175605764E+03  0.76511385224E+03  0.10100000352E+00 0.  1.
</event>
<event>
 5   0  0.2438115E-03  0.1101667E+04  0.7818609E-02  0.9203568E-01
       -2   -1    0    0    0  501  0.00000000000E+00  0.00000000000E+00  0.12237498202E+04  0.12237498202E+04  0.25500000920E-02 0.  1.
        2   -1    0    0  501    0  0.00000000000E+00  0.00000000000E+00 -0.24794090496E+03  0.24794090497E+03  0.25500000920E-02 0. -1.
    10030    2    1    2    0    0  0.00000000000E+00  0.00000000000E+00  0.97580891523E+03  0.14716907252E+04  0.11016671691E+04 0.  0.
        4    1    3    3  502    0 -0.36529210724E+03 -0.15793372838E+03 -0.20842721965E+02  0.39851903107E+03  0.12699999809E+01 0. -1.
       -4    1    3    3    0  502  0.36529210724E+03  0.15793372838E+03  0.99665163720E+03  0.10731716941E+04  0.12699999809E+01 0.  1.
</event>
<event>
 5   0  0.2483036E-03  0.1212778E+04  0.7818609E-02  0.9101745E-01
        2   -1    0    0  501    0  0.00000000000E+00  0.00000000000E+00  0.12417883609E+04  0.12417883609E+04  0.25500000920E-02 0.  1.
       -2   -1    0    0    0  501  0.00000000000E+00  0.00000000000E+00 -0.29611130164E+03  0.29611130165E+03  0.25500000920E-02 0. -1.
    10030    2    1    2    0    0  0.00000000000E+00  0.00000000000E+00  0.94567705924E+03  0.15378996625E+04  0.12127779152E+04 0.  0.
        3    1    3    3  502    0 -0.30767840894E+03 -0.11175458385E+03 -0.17444464310E+03  0.37092591450E+03  0.10100000352E+00 0. -1.
       -3    1    3    3    0  502  0.30767840894E+03  0.11175458385E+03  0.11201217023E+04  0.11669737480E+04  0.10100000352E+00 0.  1.
</event>
<event>
 5   0  0.1468556E-03  0.1095770E+04  0.7818609E-02  0.9209325E-01
       -1   -1    0    0    0  501  0.00000000000E+00  0.00000000000E+00  0.27768031700E+03  0.27768031704E+03  0.50400001928E-02 0. -1.
        1   -1    0    0  501    0  0.00000000000E+00  0.00000000000E+00 -0.10810192032E+04  0.10810192032E+04  0.50400001928E-02 0.  1.
    10030    2    1    2    0    0  0.00000000000E+00  0.00000000000E+00 -0.80333888623E+03  0.13586995203E+04  0.10957696018E+04 0.  0.
        5    1    3    3  502    0  0.13043897966E+03 -0.44065097370E+03 -0.31823186978E+02  0.46067603939E+03  0.46999998093E+01 0. -1.
       -5    1    3    3    0  502 -0.13043897966E+03  0.44065097370E+03 -0.77151569925E+03  0.89802348089E+03  0.46999998093E+01 0.  1.
</event>
<event>
 5   0  0.1479573E-03  0.1097446E+04  0.7818609E-02  0.9207685E-01
        1   -1    0    0  501    0  0.00000000000E+00  0.00000000000E+00  0.22798949673E+03  0.22798949679E+03  0.50400001928E-02 0.  1.
       -1   -1    0    0    0  501  0.00000000000E+00  0.00000000000E+00 -0.13206616095E+04  0.13206616095E+04  0.50400001928E-02 0. -1.
    10030    2    1    2    0    0  0.00000000000E+00  0.00000000000E+00 -0.10926721128E+04  0.15486511063E+04  0.10974460821E+04 0.  0.
        4    1    3    3  502    0 -0.40311826212E+03 -0.26325232095E+03 -0.91778857691E+03  0.10364089939E+04  0.12699999809E+01 0. -1.
       -4    1    3    3    0  502  0.40311826212E+03  0.26325232095E+03 -0.17488353585E+03  0.51224211244E+03  0.12699999809E+01 0.  1.
</event>
<event>
 5   0  0.1468556E-03  0.1111193E+04  0.7818609E-02  0.9194351E-01
        1   -1    0    0  501    0  0.00000000000E+00  0.00000000000E+00  0.11425110511E+04  0.11425110511E+04  0.50400001928E-02 0.  1.
       -1   -1    0    0    0  501  0.00000000000E+00  0.00000000000E+00 -0.27018322383E+03  0.27018322388E+03  0.50400001928E-02 0. -1.
    10030    2    1    2    0    0  0.00000000000E+00  0.00000000000E+00  0.87232782723E+03  0.14126942749E+04  0.11111927269E+04 0.  0.
        5    1    3    3  502    0 -0.25232861046E+03  0.41691223620E+03  0.96978757932E+02  0.49690291792E+03  0.46999998093E+01 0. -1.
       -5    1    3    3    0  502  0.25232861046E+03 -0.41691223620E+03  0.77534906930E+03  0.91579135703E+03  0.46999998093E+01 0.  1.
</event>
<event>
 5   0  0.1479573E-03  0.1108918E+04  0.7818609E-02  0.9196543E-01
        1   -1    0    0  501    0  0.00000000000E+00  0.00000000000E+00  0.45117882982E+03  0.45117882985E+03  0.50400001928E-02 0. -1.
       -1   -1    0    0    0  501  0.00000000000E+00  0.00000000000E+00 -0.68138099768E+03  0.68138099770E+03  0.50400001928E-02 0.  1.
    10030    2    1    2    0    0  0.00000000000E+00  0.00000000000E+00 -0.23020216786E+03  0.11325598275E+04  0.11089178170E+04 0.  0.
        4    1    3    3  502    0 -0.12140557854E+03  0.53281681059E+03 -0.21085493139E+03  0.58574267656E+03  0.12699999809E+01 0.  1.
       -4    1    3    3    0  502  0.12140557854E+03 -0.53281681059E+03 -0.19347236472E+02  0.54681715098E+03  0.12699999809E+01 0. -1.
</event>
<event>
 5   0  0.2483036E-03  0.1103400E+04  0.7818609E-02  0.9201884E-01
       -2   -1    0    0    0  501  0.00000000000E+00  0.00000000000E+00  0.34965781534E+03  0.34965781535E+03  0.25500000920E-02 0. -1.
        2   -1    0    0  501    0  0.00000000000E+00  0.00000000000E+00 -0.87048809342E+03  0.87048809342E+03  0.25500000920E-02 0.  1.
    10030    2    1    2    0    0  0.00000000000E+00  0.00000000000E+00 -0.52083027808E+03  0.12201459088E+04  0.11034001360E+04 0.  0.
        3    1    3    3  502    0 -0.51734868189E+03  0.18748061301E+03 -0.30429090181E+03  0.62880171917E+03  0.10100000352E+00 0.  1.
       -3    1    3    3    0  502  0.51734868189E+03 -0.18748061301E+03 -0.21653937627E+03  0.59134418961E+03  0.10100000352E+00 0. -1.
</event>
<event>
 5   0  0.1509004E-03  0.1095347E+04  0.7818609E-02  0.9209739E-01
        1   -1    0    0  501    0  0.00000000000E+00  0.00000000000E+00  0.29243955007E+03  0.29243955012E+03  0.50400001928E-02 0. -1.
       -1   -1    0    0    0  501  0.00000000000E+00  0.00000000000E+00 -0.10256691873E+04  0.10256691873E+04  0.50400001928E-02 0.  1.
    10030    2    1    2    0    0  0.00000000000E+00  0.00000000000E+00 -0.73322963719E+03  0.13181087374E+04  0.10953469508E+04 0.  0.
        3    1    3    3  502    0  0.55641292842E+02  0.40237792708E+03 -0.80866701257E+03  0.90495651668E+03  0.10100000352E+00 0.  1.
       -3    1    3    3    0  502 -0.55641292842E+02 -0.40237792708E+03  0.75437375384E+02  0.41315222070E+03  0.10100000352E+00 0. -1.
</event>
<event>
 5   0  0.2392585E-03  0.1099507E+04  0.7818609E-02  0.9205672E-01
       -2   -1    0    0    0  501  0.00000000000E+00  0.00000000000E+00  0.49974571405E+03  0.49974571406E+03  0.25500000920E-02 0.  1.
        2   -1    0    0  501    0  0.00000000000E+00  0.00000000000E+00 -0.60476549802E+03  0.60476549803E+03  0.25500000920E-02 0. -1.
    10030    2    1    2    0    0  0.00000000000E+00  0.00000000000E+00 -0.10501978397E+03  0.11045112121E+04  0.10995070998E+04 0.  0.
        5    1    3    3  502    0 -0.44988073952E+03 -0.24350248476E+03 -0.25472367410E+03  0.57148261568E+03  0.46999998093E+01 0. -1.
       -5    1    3    3    0  502  0.44988073952E+03  0.24350248476E+03  0.14970389013E+03  0.53302859641E+03  0.46999998093E+01 0.  1.
</event>
<event>
 5   0  0.2483036E-03  0.1096869E+04  0.7818609E-02  0.9208249E-01
       -2   -1    0    0    0  501  0.00000000000E+00  0.00000000000E+00  0.42262786945E+03  0.42262786946E+03  0.25500000920E-02 0. -1.
        2   -1    0    0  501    0  0.00000000000E+00  0.00000000000E+00 -0.71169117781E+03  0.71169117782E+03  0.25500000920E-02 0.  1.
    10030    2    1    2    0    0  0.00000000000E+00  0.00000000000E+00 -0.28906330836E+03  0.11343190473E+04  0.10968692287E+04 0.  0.
        3    1    3    3  502    0 -0.47407787875E+03  0.21804176239E+03 -0.31907967954E+03  0.61164033333E+03  0.10100000352E+00 0.  1.
       -3    1    3    3    0  502  0.47407787875E+03 -0.21804176239E+03  0.30016371172E+02  0.52267871394E+03  0.10100000352E+00 0. -1.
</event>
<event>
 5   0  0.1509004E-03  0.1102293E+04  0.7818609E-02  0.9202960E-01
       -1   -1    0    0    0  501  0.00000000000E+00  0.00000000000E+00  0.23751523227E+03  0.23751523233E+03  0.50400001928E-02 0.  1.
        1   -1    0    0  501    0  0.00000000000E+00  0.00000000000E+00 -0.12789181495E+04  0.12789181495E+04  0.50400001928E-02 0. -1.
    10030    2    1    2    0    0  0.00000000000E+00  0.00000000000E+00 -0.10414029172E+04  0.15164333818E+04  0.11022931396E+04 0.  0.
        3    1    3    3  502    0 -0.43227592517E+03  0.33776163872E+03 -0.59371942971E+03  0.80836141143E+03  0.10100000352E+00 0. -1.
       -3    1    3    3    0  502  0.43227592517E+03 -0.33776163872E+03 -0.44768348749E+03  0.70807197039E+03  0.10100000352E+00 0.  1.
</event>
<event>
 5   0  0.2438115E-03  0.1206848E+04  0.7818609E-02  0.9106883E-01
        2   -1    0    0  501    0  0.00000000000E+00  0.00000000000E+00  0.91933491219E+03  0.91933491219E+03  0.25500000920E-02 0. -1.
       -2   -1    0    0    0  501  0.00000000000E+00  0.00000000000E+00 -0.39606976797E+03  0.39606976798E+03  0.25500000920E-02 0.  1.
    10030    2    1    2    0    0  0.00000000000E+00  0.00000000000E+00  0.52326514422E+03  0.13154046802E+04  0.12068484004E+04 0.  0.
        4    1    3    3  502    0 -0.58601566141E+02  0.23139078816E+03  0.86568856197E+03  0.89799450980E+03  0.12699999809E+01 0. -1.
       -4    1    3    3    0  502  0.58601566141E+02 -0.23139078816E+03 -0.34242341775E+03  0.41741017037E+03  0.12699999809E+01 0.  1.
</event>
<event>
 5   0  0.2392585E-03  0.1099900E+04  0.7818609E-02  0.9205289E-01
       -2   -1    0    0    0  501  0.00000000000E+00  0.00000000000E+00  0.12062469114E+03  0.12062469117E+03  0.25500000920E-02 0.  1.
        2   -1    0    0  501    0  0.00000000000E+00  0.00000000000E+00 -0.25073243507E+04  0.25073243507E+04  0.25500000920E-02 0. -1.
    10030    2    1    2    0    0  0.00000000000E+00  0.00000000000E+00 -0.23866996596E+04  0.26279490419E+04  0.10999004054E+04 0.  0.
        5    1    3    3  502    0 -0.99522088444E+02 -0.18963006496E+03  0.16850156048E+02  0.21487257941E+03  0.46999998093E+01 0.  1.
       -5    1    3    3    0  502  0.99522088444E+02  0.18963006496E+03 -0.24035498156E+04  0.24130764625E+04  0.46999998093E+01 0. -1.
</event>
<event>
 5   0  0.1415400E-03  0.1102635E+04  0.7818609E-02  0.9202627E-01
       -1   -1    0    0    0  501  0.00000000000E+00  0.00000000000E+00  0.83262310257E+03  0.83262310258E+03  0.50400001928E-02 0.  1.
        1   -1    0    0  501    0  0.00000000000E+00  0.00000000000E+00 -0.36505254513E+03  0.36505254516E+03  0.50400001928E-02 0. -1.
    10030    2    1    2    0    0  0.00000000000E+00  0.00000000000E+00  0.46757055744E+03  0.11976756477E+04  0.11026353572E+04 0.  0.
        2    1    3    3  502    0  0.15935011417E+03 -0.43048661990E+03  0.56545698347E+03  0.72832189928E+03  0.25500000920E-02 0.  1.
       -2    1    3    3    0  502 -0.15935011417E+03  0.43048661990E+03 -0.97886426035E+02  0.46935374847E+03  0.25500000920E-02 0. -1.
</event>
<event>
 5   0  0.1479573E-03  0.1088130E+04  0.7818609E-02  0.9216839E-01
        1   -1    0    0  501    0  0.00000000000E+00  0.00000000000E+00  0.11612715261E+04  0.11612715261E+04  0.50400001928E-02 0. -1.
       -1   -1    0    0    0  501  0.00000000000E+00  0.00000000000E+00 -0.25489875442E+03  0.25489875447E+03  0.50400001928E-02 0.  1.
    10030    2    1    2    0    0  0.00000000000E+00  0.00000000000E+00  0.90637277163E+03  0.14161702805E+04  0.10881298922E+04 0.  0.
        4    1    3    3  502    0 -0.83165980909E+02  0.36960578494E+03 -0.55021299163E+02  0.38282368384E+03  0.12699999809E+01 0.  1.
       -4    1    3    3    0  502  0.83165980909E+02 -0.36960578494E+03  0.96139407080E+03  0.10333465967E+04  0.12699999809E+01 0. -1.
</event>
<event>
 5   0  0.1509004E-03  0.1092963E+04  0.7818609E-02  0.9212078E-01
        1   -1    0    0  501    0  0.00000000000E+00  0.00000000000E+00  0.15664082278E+03  0.15664082286E+03  0.50400001928E-02 0. -1.
       -1   -1    0    0    0  501  0.00000000000E+00  0.00000000000E+00 -0.19065403927E+04  0.19065403927E+04  0.50400001928E-02 0.  1.
    10030    2    1    2    0    0  0.00000000000E+00  0.00000000000E+00 -0.17498995699E+04  0.20631812156E+04  0.10929630476E+04 0.  0.
        3    1    3    3  502    0  0.18858452940E+03  0.40079267275E+03 -0.27076001524E+03  0.51914341690E+03  0.10100000352E+00 0. -1.
       -3    1    3    3    0  502 -0.18858452940E+03 -0.40079267275E+03 -0.14791395547E+04  0.15440377987E+04  0.10100000352E+00 0.  1.
</event>
<event>
 5   0  0.1468556E-03  0.1103755E+04  0.7818609E-02  0.9201540E-01
       -1   -1    0    0    0  501  0.00000000000E+00  0.00000000000E+00  0.40643875545E+03  0.40643875548E+03  0.50400001928E-02 0.  1.
        1   -1    0    0  501    0  0.00000000000E+00  0.00000000000E+00 -0.74935935707E+03  0.74935935709E+03  0.50400001928E-02 0. -1.
    10030    2    1    2    0    0  0.00000000000E+00  0.00000000000E+00 -0.34292060162E+03  0.11557981126E+04  0.11037548360E+04 0.  0.
        5    1    3    3  502    0 -0.41994046164E+03  0.34734416824E+03 -0.80480812985E+02  0.55090581208E+03  0.46999998093E+01 0.  1.
       -5    1    3    3    0  502  0.41994046164E+03 -0.34734416824E+03 -0.26243978864E+03  0.60489230049E+03  0.46999998093E+01 0. -1.
</event>
<event>
 5   0  0.2467448E-03  0.1102655E+04  0.7818609E-02  0.9202608E-01
       -2   -1    0    0    0  501  0.00000000000E+00  0.00000000000E+00  0.11459890754E+04  0.11459890754E+04  0.25500000920E-02 0. -1.
        2   -1    0    0  501    0  0.00000000000E+00  0.00000000000E+00 -0.26524007782E+03  0.26524007783E+03  0.25500000920E-02 0.  1.
    10030    2    1    2    0    0  0.00000000000E+00  0.00000000000E+00  0.88074899754E+03  0.14112291532E+04  0.11026553977E+04 0.  0.
        1    1    3    3  502    0  0.14473009615E+02 -0.52550530775E+03  0.22776231053E+03  0.57292317688E+03  0.50400001928E-02 0.  1.
       -1    1    3    3    0  502 -0.14473009615E+02  0.52550530775E+03  0.65298668701E+03  0.83830597631E+03  0.50400001928E-02 0. -1.
</event>
<event>
 5   0  0.1480937E-03  0.1090083E+04  0.7818609E-02  0.9214912E-01
        1   -1    0    0  501    0  0.00000000000E+00  0.00000000000E+00  0.68679430263E+03  0.68679430265E+03  0.50400001928E-02 0.  1.
       -1   -1    0    0    0  501  0.00000000000E+00  0.00000000000E+00 -0.43254644847E+03  0.43254644850E+03  0.50400001928E-02 0. -1.
    10030    2    1    2    0    0  0.00000000000E+00  0.00000000000E+00  0.25424785416E+03  0.11193407511E+04  0.10900833665E+04 0.  0.
        1    1    3    3  502    0 -0.23350667473E+02 -0.23041157683E+03  0.63375838665E+03  0.67474768698E+03  0.50400001928E-02 0.  1.
       -1    1    3    3    0  502  0.23350667473E+02  0.23041157683E+03 -0.37951053249E+03  0.44459306416E+03  0.50400001928E-02 0. -1.
</event>
<event>
 5   0  0.2467448E-03  0.1093124E+04  0.7818609E-02  0.9211920E-01
       -2   -1    0    0    0  501  0.00000000000E+00  0.00000000000E+00  0.16742497833E+03  0.16742497835E+03  0.25500000920E-02 0. -1.
        2   -1    0    0  501    0  0.00000000000E+00  0.00000000000E+00 -0.17842609269E+04  0.17842609269E+04  0.25500000920E-02 0.  1.
    10030    2    1    2    0    0  0.00000000000E+00  0.00000000000E+00 -0.16168359486E+04  0.19516859053E+04  0.10931236838E+04 0.  0.
        1    1    3    3  502    0 -0.53441550370E+03 -0.10891775774E+03 -0.74487006850E+03  0.92319793518E+03  0.50400001928E-02 0. -1.
       -1    1    3    3    0  502  0.53441550370E+03  0.10891775774E+03 -0.87196588009E+03  0.10284879701E+04  0.50400001928E-02 0.  1.
</event>
<event>
 5   0  0.1509004E-03  0.1098619E+04  0.7818609E-02  0.9206539E-01
        1   -1    0    0  501    0  0.00000000000E+00  0.00000000000E+00  0.56889810493E+03  0.56889810496E+03  0.50400001928E-02 0. -1.
       -1   -1    0    0    0  501  0.00000000000E+00  0.00000000000E+00 -0.53039494978E+03  0.53039494981E+03  0.50400001928E-02 0.  1.
    10030    2    1    2    0    0  0.00000000000E+00  0.00000000000E+00  0.38503155152E+02  0.10992930548E+04  0.10986185540E+04 0.  0.
        3    1    3    3  502    0 -0.15070242365E+03 -0.23534698279E+03 -0.45394599615E+03  0.53307260333E+03  0.10100000352E+00 0.  1.
       -3    1    3    3    0  502  0.15070242365E+03  0.23534698279E+03  0.49244915130E+03  0.56622045143E+03  0.10100000352E+00 0. -1.
</event>
<event>
 5   0  0.1415400E-03  0.1099693E+04  0.7818609E-02  0.9205491E-01
       -1   -1    0    0    0  501  0.00000000000E+00  0.00000000000E+00  0.52495710459E+03  0.52495710461E+03  0.50400001928E-02 0. -1.
        1   -1    0    0  501    0  0.00000000000E+00  0.00000000000E+00 -0.57591580997E+03  0.57591580999E+03  0.50400001928E-02 0.  1.
    10030    2    1    2    0    0  0.00000000000E+00  0.00000000000E+00 -0.50958705377E+02  0.11008729146E+04  0.10996928591E+04 0.  0.
        2    1    3    3  502    0 -0.13821150649E+03  0.53149676196E+03  0.17503430748E+01  0.54917601204E+03  0.25500000920E-02 0.  1.
       -2    1    3    3    0  502  0.13821150649E+03 -0.53149676196E+03 -0.52709048451E+02  0.55169690256E+03  0.25500000920E-02 0. -1.
</event>
<event>
 5   0  0.1468556E-03  0.1099533E+04  0.7818609E-02  0.9205647E-01
       -1   -1    0    0    0  501  0.00000000000E+00  0.00000000000E+00  0.29019925815E+03  0.29019925820E+03  0.50400001928E-02 0.  1.
        1   -1    0    0  501    0  0.00000000000E+00  0.00000000000E+00 -0.10415016750E+04  0.10415016751E+04  0.50400001928E-02 0. -1.
    10030    2    1    2    0    0  0.00000000000E+00  0.00000000000E+00 -0.75130241689E+03  0.13317009333E+04  0.10995326525E+04 0.  0.
        5    1    3    3  502    0 -0.32789719498E+02  0.26014474142E+02 -0.10395447021E+04  0.10403976145E+04  0.46999998093E+01 0. -1.
       -5    1    3    3    0  502  0.32789719498E+02 -0.26014474142E+02  0.28824228519E+03  0.29130331879E+03  0.46999998093E+01 0.  1.
</event>
<event>
 5   0  0.2392585E-03  0.1102055E+04  0.7818609E-02  0.9203191E-01
        2   -1    0    0  501    0  0.00000000000E+00  0.00000000000E+00  0.12617707421E+04  0.12617707421E+04  0.25500000920E-02 0.  1.
       -2   -1    0    0    0  501  0.00000000000E+00  0.00000000000E+00 -0.24063916704E+03  0.24063916705E+03  0.25500000920E-02 0. -1.
    10030    2    1    2    0    0  0.00000000000E+00  0.00000000000E+00  0.10211315751E+04  0.15024099092E+04  0.11020552806E+04 0.  0.
        5    1    3    3  502    0 -0.99685517989E+01  0.40013178841E+03  0.10268234675E+04  0.11020859057E+04  0.46999998093E+01 0.  1.
       -5    1    3    3    0  502  0.99685517989E+01 -0.40013178841E+03 -0.56918924262E+01  0.40032400347E+03  0.46999998093E+01 0. -1.
</event>
<event>
 5   0  0.2392585E-03  0.1100278E+04  0.7818609E-02  0.9204921E-01
       -2   -1    0    0    0  501  0.00000000000E+00  0.00000000000E+00  0.10465444654E+04  0.10465444654E+04  0.25500000920E-02 0.  1.
        2   -1    0    0  501    0  0.00000000000E+00  0.00000000000E+00 -0.28919234803E+03  0.28919234804E+03  0.25500000920E-02 0. -1.
    10030    2    1    2    0    0  0.00000000000E+00  0.00000000000E+00  0.75735211734E+03  0.13357368134E+04  0.11002775128E+04 0.  0.
        5    1    3    3  502    0 -0.13825861919E+03 -0.21492674640E+03 -0.21273208527E+03  0.33254470707E+03  0.46999998093E+01 0. -1.
       -5    1    3    3    0  502  0.13825861919E+03  0.21492674640E+03  0.97008420260E+03  0.10031921063E+04  0.46999998093E+01 0.  1.
</event>
<event>
 5   0  0.2392585E-03  0.1095342E+04  0.7818609E-02  0.9209743E-01
       -2   -1    0    0    0  501  0.00000000000E+00  0.00000000000E+00  0.84023264088E+03  0.84023264088E+03  0.25500000920E-02 0.  1.
        2   -1    0    0  501    0  0.00000000000E+00  0.00000000000E+00 -0.35697696419E+03  0.35697696420E+03  0.25500000920E-02 0. -1.
    10030    2    1    2    0    0  0.00000000000E+00  0.00000000000E+00  0.48325567669E+03  0.11972096051E+04  0.10953423161E+04 0.  0.
        5    1    3    3  502    0  0.30375134570E+03  0.10309597073E+03 -0.24353133100E+03  0.40276948540E+03  0.46999998093E+01 0. -1.
       -5    1    3    3    0  502 -0.30375134570E+03 -0.10309597073E+03  0.72678700769E+03  0.79444011967E+03  0.46999998093E+01 0.  1.
</event>
<event>
 5   0  0.1479573E-03  0.9812958E+03  0.7818609E-02  0.9329300E-01
        1   -1    0    0  501    0  0.00000000000E+00  0.00000000000E+00  0.22600931863E+03  0.22600931869E+03  0.50400001928E-02 0. -1.
       -1   -1    0    0    0  501  0.00000000000E+00  0.00000000000E+00 -0.10651568411E+04  0.10651568411E+04  0.50400001928E-02 0.  1.
    10030    2    1    2    0    0  0.00000000000E+00  0.00000000000E+00 -0.83914752243E+03  0.12911661598E+04  0.98129582070E+03 0.  0.
        4    1    3    3  502    0 -0.32798419322E+03 -0.28734868158E+03 -0.71552368384E+03  0.83792520600E+03  0.12699999809E+01 0.  1.
       -4    1    3    3    0  502  0.32798419322E+03  0.28734868158E+03 -0.12362383859E+03  0.45324095377E+03  0.12699999809E+01 0. -1.
</event>
<event>
 5   0  0.2488472E-03  0.1112537E+04  0.7818609E-02  0.9193058E-01
       -2   -1    0    0    0  501  0.00000000000E+00  0.00000000000E+00  0.30708964155E+03  0.30708964156E+03  0.25500000920E-02 0. -1.
        2   -1    0    0  501    0  0.00000000000E+00  0.00000000000E+00 -0.10076366726E+04  0.10076366726E+04  0.25500000920E-02 0.  1.
    10030    2    1    2    0    0  0.00000000000E+00  0.00000000000E+00 -0.70054703108E+03  0.13147263142E+04  0.11125372526E+04 0.  0.
        2    1    3    3  502    0 -0.86054076781E+02  0.54951243631E+03 -0.35984214288E+03  0.66246176462E+03  0.25500000920E-02 0.  1.
       -2    1    3    3    0  502  0.86054076781E+02 -0.54951243631E+03 -0.34070488820E+03  0.65226454958E+03  0.25500000920E-02 0. -1.
</event>
<event>
 5   0  0.2483036E-03  0.1113224E+04  0.7818609E-02  0.9192398E-01
       -2   -1    0    0    0  501  0.00000000000E+00  0.00000000000E+00  0.93216038442E+03  0.93216038443E+03  0.25500000920E-02 0.  1.
        2   -1    0    0  501    0  0.00000000000E+00  0.00000000000E+00 -0.33236451006E+03  0.33236451007E+03  0.25500000920E-02 0. -1.
    10030    2    1    2    0    0  0.00000000000E+00  0.00000000000E+00  0.59979587436E+03  0.12645248945E+04  0.11132241993E+04 0.  0.
        3    1    3    3  502    0  0.43926940633E+03  0.18507973427E+03 -0.26575348300E+02  0.47740797932E+03  0.10100000352E+00 0. -1.
       -3    1    3    3    0  502 -0.43926940633E+03 -0.18507973427E+03  0.62637122266E+03  0.78711691518E+03  0.10100000352E+00 0.  1.
</event>
<event>
 5   0  0.1480937E-03  0.1067225E+04  0.7818609E-02  0.9237738E-01
        1   -1    0    0  501    0  0.00000000000E+00  0.00000000000E+00  0.63220647773E+03  0.63220647775E+03  0.50400001928E-02 0.  1.
       -1   -1    0    0    0  501  0.00000000000E+00  0.00000000000E+00 -0.45039473876E+03  0.45039473879E+03  0.50400001928E-02 0. -1.
    10030    2    1    2    0    0  0.00000000000E+00  0.00000000000E+00  0.18181173897E+03  0.10826012165E+04  0.10672253209E+04 0.  0.
        1    1    3    3  502    0  0.35426372318E+03 -0.16420777063E+02 -0.31354897076E+03  0.47337657797E+03  0.50400001928E-02 0. -1.
       -1    1    3    3    0  502 -0.35426372318E+03  0.16420777063E+02  0.49536070973E+03  0.60922463857E+03  0.50400001928E-02 0.  1.
</event>
<event>
 5   0  0.2483036E-03  0.1105029E+04  0.7818609E-02  0.9200304E-01
        2   -1    0    0  501    0  0.00000000000E+00  0.00000000000E+00  0.13613832370E+04  0.13613832370E+04  0.25500000920E-02 0.  1.
       -2   -1    0    0    0  501  0.00000000000E+00  0.00000000000E+00 -0.22423669578E+03  0.22423669580E+03  0.25500000920E-02 0. -1.
    10030    2    1    2    0    0  0.00000000000E+00  0.00000000000E+00  0.11371465412E+04  0.15856199328E+04  0.11050286490E+04 0.  0.
        3    1    3    3  502    0 -0.39598305509E+03 -0.17814948788E+03  0.78319452431E+02  0.44121850231E+03  0.10100000352E+00 0. -1.
       -3    1    3    3    0  502  0.39598305509E+03  0.17814948788E+03  0.10588270887E+04  0.11444014304E+04  0.10100000352E+00 0.  1.
</event>
<event>
 5   0  0.1479573E-03  0.1102413E+04  0.7818609E-02  0.9202843E-01
        1   -1    0    0  501    0  0.00000000000E+00  0.00000000000E+00  0.52091026133E+03  0.52091026136E+03  0.50400001928E-02 0.  1.
       -1   -1    0    0    0  501  0.00000000000E+00  0.00000000000E+00 -0.58326508716E+03  0.58326508718E+03  0.50400001928E-02 0. -1.
    10030    2    1    2    0    0  0.00000000000E+00  0.00000000000E+00 -0.62354825829E+02  0.11041753485E+04  0.11024132964E+04 0.  0.
        4    1    3    3  502    0  0.36958977339E+03 -0.18415415969E+03  0.33453329376E+03  0.53143531371E+03  0.12699999809E+01 0.  1.
       -4    1    3    3    0  502 -0.36958977339E+03  0.18415415969E+03 -0.39688811959E+03  0.57274003483E+03  0.12699999809E+01 0. -1.
</event>
<event>
 5   0  0.2392585E-03  0.1106748E+04  0.7818609E-02  0.9198640E-01
       -2   -1    0    0    0  501  0.00000000000E+00  0.00000000000E+00  0.31787156337E+03  0.31787156338E+03  0.25500000920E-02 0. -1.
        2   -1    0    0  501    0  0.00000000000E+00  0.00000000000E+00 -0.96335323151E+03  0.96335323151E+03  0.25500000920E-02 0.  1.
    10030    2    1    2    0    0  0.00000000000E+00  0.00000000000E+00 -0.64548166813E+03  0.12812247949E+04  0.11067476637E+04 0.  0.
        5    1    3    3  502    0 -0.51290764055E+03  0.15255762115E+03 -0.15962970930E+03  0.55843693430E+03  0.46999998093E+01 0. -1.
       -5    1    3    3    0  502  0.51290764055E+03 -0.15255762115E+03 -0.48585195884E+03  0.72278786059E+03  0.46999998093E+01 0.  1.
</event>
<event>
 5   0  0.1509004E-03  0.1097006E+04  0.7818609E-02  0.9208115E-01
       -1   -1    0    0    0  501  0.00000000000E+00  0.00000000000E+00  0.56799789579E+03  0.56799789581E+03  0.50400001928E-02 0.  1.
        1   -1    0    0  501    0  0.00000000000E+00  0.00000000000E+00 -0.52967710540E+03  0.52967710542E+03  0.50400001928E-02 0. -1.
    10030    2    1    2    0    0  0.00000000000E+00  0.00000000000E+00  0.38320790391E+02  0.10976750012E+04  0.10970058912E+04 0.  0.
        3    1    3    3  502    0 -0.52016760791E+03  0.19726360513E+02  0.19215888483E+03  0.55487702857E+03  0.10100000352E+00 0.  1.
       -3    1    3    3    0  502  0.52016760791E+03 -0.19726360513E+02 -0.15383809444E+03  0.54279797266E+03  0.10100000352E+00 0. -1.
</event>
<event>
 5   0  0.2488472E-03  0.1088889E+04  0.7818609E-02  0.9216089E-01
       -2   -1    0    0    0  501  0.00000000000E+00  0.00000000000E+00  0.14290533927E+03  0.14290533929E+03  0.25500000920E-02 0.  1.
        2   -1    0    0  501    0  0.00000000000E+00  0.00000000000E+00 -0.20742406473E+04  0.20742406473E+04  0.25500000920E-02 0. -1.
    10030    2    1    2    0    0  0.00000000000E+00  0.00000000000E+00 -0.19313353080E+04  0.22171459866E+04  0.10888894589E+04 0.  0.
        2    1    3    3  502    0 -0.50512602884E+02 -0.43345143515E+02 -0.20659250363E+04  0.20669969956E+04  0.25500000920E-02 0. -1.
       -2    1    3    3    0  502  0.50512602884E+02  0.43345143515E+02  0.13458972826E+03  0.15014899092E+03  0.25500000920E-02 0.  1.
</event>
<event>
 5   0  0.1468556E-03  0.1107840E+04  0.7818609E-02  0.9197584E-01
        1   -1    0    0  501    0  0.00000000000E+00  0.00000000000E+00  0.15038115422E+04  0.15038115422E+04  0.50400001928E-02 0.  1.
       -1   -1    0    0    0  501  0.00000000000E+00  0.00000000000E+00 -0.20403301706E+03  0.20403301712E+03  0.50400001928E-02 0. -1.
    10030    2    1    2    0    0  0.00000000000E+00  0.00000000000E+00  0.12997785252E+04  0.17078445593E+04  0.11078397106E+04 0.  0.
        5    1    3    3  502    0 -0.20609606538E+03  0.28328429202E+03  0.13113044604E+04  0.13573013873E+04  0.46999998093E+01 0.  1.
       -5    1    3    3    0  502  0.20609606538E+03 -0.28328429202E+03 -0.11525935205E+02  0.35054317202E+03  0.46999998093E+01 0. -1.
</event>
<event>
 5   0  0.1415400E-03  0.1068840E+04  0.7818609E-02  0.9236106E-01
        1   -1    0    0  501    0  0.00000000000E+00  0.00000000000E+00  0.54143099123E+03  0.54143099126E+03  0.50400001928E-02 0. -1.
       -1   -1    0    0    0  501  0.00000000000E+00  0.00000000000E+00 -0.52749972649E+03  0.52749972651E+03  0.50400001928E-02 0.  1.
    10030    2    1    2    0    0  0.00000000000E+00  0.00000000000E+00  0.13931264744E+02  0.10689307178E+04  0.10688399315E+04 0.  0.
        2    1    3    3  502    0 -0.19246309307E+03 -0.30096117059E+03 -0.39054143768E+03  0.52928468989E+03  0.25500000920E-02 0.  1.
       -2    1    3    3    0  502  0.19246309307E+03  0.30096117059E+03  0.40447270242E+03  0.53964602788E+03  0.25500000920E-02 0. -1.
</event>
<event>
 5   0  0.1468556E-03  0.1100970E+04  0.7818609E-02  0.9204247E-01
        1   -1    0    0  501    0  0.00000000000E+00  0.00000000000E+00  0.45547392099E+03  0.45547392101E+03  0.50400001928E-02 0. -1.
       -1   -1    0    0    0  501  0.00000000000E+00  0.00000000000E+00 -0.66531565318E+03  0.66531565320E+03  0.50400001928E-02 0.  1.
    10030    2    1    2    0    0  0.00000000000E+00  0.00000000000E+00 -0.20984173220E+03  0.11207895742E+04  0.11009703525E+04 0.  0.
        5    1    3    3  502    0  0.50470332280E+03 -0.20457719948E+03 -0.18658061569E+03  0.57568367246E+03  0.46999998093E+01 0.  1.
       -5    1    3    3    0  502 -0.50470332280E+03  0.20457719948E+03 -0.23261116510E+02  0.54510590175E+03  0.46999998093E+01 0. -1.
</event>
<event>
 5   0  0.2392585E-03  0.1101048E+04  0.7818609E-02  0.9204171E-01
        2   -1    0    0  501    0  0.00000000000E+00  0.00000000000E+00  0.55485506943E+03  0.55485506944E+03  0.25500000920E-02 0.  1.
       -2   -1    0    0    0  501  0.00000000000E+00  0.00000000000E+00 -0.54622646524E+03  0.54622646524E+03  0.25500000920E-02 0. -1.
    10030    2    1    2    0    0  0.00000000000E+00  0.00000000000E+00  0.86286041938E+01  0.11010815347E+04  0.11010477252E+04 0.  0.
        5    1    3    3  502    0  0.36361915881E+03  0.16138321170E+03 -0.37621150760E+03  0.54755878418E+03  0.46999998093E+01 0. -1.
       -5    1    3    3    0  502 -0.36361915881E+03 -0.16138321170E+03  0.38484011180E+03  0.55352275050E+03  0.46999998093E+01 0.  1.
</event>
<event>
 5   0  0.1468556E-03  0.1101073E+04  0.7818609E-02  0.9204147E-01
        1   -1    0    0  501    0  0.00000000000E+00  0.00000000000E+00  0.43107642934E+03  0.43107642937E+03  0.50400001928E-02 0. -1.
       -1   -1    0    0    0  501  0.00000000000E+00  0.00000000000E+00 -0.70310150722E+03  0.70310150724E+03  0.50400001928E-02 0.  1.
    10030    2    1    2    0    0  0.00000000000E+00  0.00000000000E+00 -0.27202507788E+03  0.11341779366E+04  0.11010730897E+04 0.  0.
        5    1    3    3  502    0  0.40483298015E+02 -0.33484320854E+03 -0.58419130803E+03  0.67458168230E+03  0.46999998093E+01 0.  1.
       -5    1    3    3    0  502 -0.40483298015E+02  0.33484320854E+03  0.31216623015E+03  0.45959625430E+03  0.46999998093E+01 0. -1.
</event>
<event>
 5   0  0.2467448E-03  0.1103776E+04  0.7818609E-02  0.9201519E-01
       -2   -1    0    0    0  501  0.00000000000E+00  0.00000000000E+00  0.38671353513E+03  0.38671353514E+03  0.25500000920E-02 0.  1.
        2   -1    0    0  501    0  0.00000000000E+00  0.00000000000E+00 -0.78761274608E+03  0.78761274609E+03  0.25500000920E-02 0. -1.
    10030    2    1    2    0    0  0.00000000000E+00  0.00000000000E+00 -0.40089921095E+03  0.11743262812E+04  0.11037762624E+04 0.  0.
        1    1    3    3  502    0 -0.10084965316E+03 -0.54256689888E+03 -0.20637487108E+03  0.58918594666E+03  0.50400001928E-02 0.  1.
       -1    1    3    3    0  502  0.10084965316E+03  0.54256689888E+03 -0.19452433987E+03  0.58514033456E+03  0.50400001928E-02 0. -1.
</event>
<event>
 5   0  0.2392585E-03  0.1108141E+04  0.7818609E-02  0.9197293E-01
        2   -1    0    0  501    0  0.00000000000E+00  0.00000000000E+00  0.76757603174E+03  0.76757603174E+03  0.25500000920E-02 0.  1.
       -2   -1    0    0    0  501  0.00000000000E+00  0.00000000000E+00 -0.39995283126E+03  0.39995283126E+03  0.25500000920E-02 0. -1.
    10030    2    1    2    0    0  0.00000000000E+00  0.00000000000E+00  0.36762320048E+03  0.11675288630E+04  0.11081411591E+04 0.  0.
        5    1    3    3  502    0  0.95505471650E+02  0.18042181339E+03  0.72648705074E+03  0.75463822508E+03  0.46999998093E+01 0.  1.
       -5    1    3    3    0  502 -0.95505471650E+02 -0.18042181339E+03 -0.35886385026E+03  0.41289063792E+03  0.46999998093E+01 0. -1.
</event>
<event>
 5   0  0.2392585E-03  0.1100782E+04  0.7818609E-02  0.9204430E-01
       -2   -1    0    0    0  501  0.00000000000E+00  0.00000000000E+00  0.21843027602E+03  0.21843027603E+03  0.25500000920E-02 0.  1.
        2   -1    0    0  501    0  0.00000000000E+00  0.00000000000E+00 -0.13868516904E+04  0.13868516904E+04  0.25500000920E-02 0. -1.
    10030    2    1    2    0    0  0.00000000000E+00  0.00000000000E+00 -0.11684214143E+04  0.16052819664E+04  0.11007822628E+04 0.  0.
        5    1    3    3  502    0  0.15190500633E+03 -0.33355829934E+03 -0.11829567718E+04  0.12384446229E+04  0.46999998093E+01 0. -1.
       -5    1    3    3    0  502 -0.15190500633E+03  0.33355829934E+03  0.14535357418E+02  0.36683734355E+03  0.46999998093E+01 0.  1.
</event>
<event>
 5   0  0.1468556E-03  0.1035251E+04  0.7818609E-02  0.9270705E-01
        1   -1    0    0  501    0  0.00000000000E+00  0.00000000000E+00  0.40473185749E+03  0.40473185752E+03  0.50400001928E-02 0. -1.
       -1   -1    0    0    0  501  0.00000000000E+00  0.00000000000E+00 -0.66200911184E+03  0.66200911186E+03  0.50400001928E-02 0.  1.
    10030    2    1    2    0    0  0.00000000000E+00  0.00000000000E+00 -0.25727725435E+03  0.10667409694E+04  0.10352510373E+04 0.  0.
        5    1    3    3  502    0 -0.35373845881E+03 -0.34684228390E+03  0.25867754746E+02  0.49610653884E+03  0.46999998093E+01 0. -1.
       -5    1    3    3    0  502  0.35373845881E+03  0.34684228390E+03 -0.28314500909E+03  0.57063443054E+03  0.46999998093E+01 0.  1.
</event>
<event>
 5   0  0.1468556E-03  0.1106747E+04  0.7818609E-02  0.9198641E-01
        1   -1    0    0  501    0  0.00000000000E+00  0.00000000000E+00  0.45226764448E+03  0.45226764451E+03  0.50400001928E-02 0.  1.
       -1   -1    0    0    0  501  0.00000000000E+00  0.00000000000E+00 -0.67708199245E+03  0.67708199247E+03  0.50400001928E-02 0. -1.
    10030    2    1    2    0    0  0.00000000000E+00  0.00000000000E+00 -0.22481434797E+03  0.11293496370E+04  0.11067470856E+04 0.  0.
        5    1    3    3  502    0  0.50274885726E+03 -0.75348291471E+01  0.12336784642E+03  0.51774018837E+03  0.46999998093E+01 0.  1.
       -5    1    3    3    0  502 -0.50274885726E+03  0.75348291471E+01 -0.34818219439E+03  0.61160944860E+03  0.46999998093E+01 0. -1.
</event>
<event>
 5   0  0.2392585E-03  0.1104230E+04  0.7818609E-02  0.9201079E-01
        2   -1    0    0  501    0  0.00000000000E+00  0.00000000000E+00  0.79001381974E+03  0.79001381974E+03  0.25500000920E-02 0.  1.
       -2   -1    0    0    0  501  0.00000000000E+00  0.00000000000E+00 -0.38585530185E+03  0.38585530185E+03  0.25500000920E-02 0. -1.
    10030    2    1    2    0    0  0.00000000000E+00  0.00000000000E+00  0.40415851789E+03  0.11758691216E+04  0.11042300863E+04 0.  0.
        5    1    3    3  502    0 -0.53554165296E+03 -0.41688628703E+02  0.33789230515E+03  0.63461492552E+03  0.46999998093E+01 0. -1.
       -5    1    3    3    0  502  0.53554165296E+03  0.41688628703E+02  0.66266212738E+02  0.54125419607E+03  0.46999998093E+01 0.  1.
</event>
<event>
 5   0  0.1415400E-03  0.1099297E+04  0.7818609E-02  0.9205878E-01
        1   -1    0    0  501    0  0.00000000000E+00  0.00000000000E+00  0.13233361187E+04  0.13233361187E+04  0.50400001928E-02 0. -1.
       -1   -1    0    0    0  501  0.00000000000E+00  0.00000000000E+00 -0.22829676298E+03  0.22829676304E+03  0.50400001928E-02 0.  1.
    10030    2    1    2    0    0  0.00000000000E+00  0.00000000000E+00  0.10950393557E+04  0.15516328817E+04  0.10992967794E+04 0.  0.
        2    1    3    3  502    0 -0.22210230485E+03 -0.48614880526E+03  0.72851524942E+03  0.90355108507E+03  0.25500000920E-02 0.  1.
       -2    1    3    3    0  502  0.22210230485E+03  0.48614880526E+03  0.36652410628E+03  0.64808179666E+03  0.25500000920E-02 0. -1.
</event>
<event>
 5   0  0.2467448E-03  0.1117350E+04  0.7818609E-02  0.9188444E-01
        2   -1    0    0  501    0  0.00000000000E+00  0.00000000000E+00  0.58585116554E+03  0.58585116555E+03  0.25500000920E-02 0. -1.
       -2   -1    0    0    0  501  0.00000000000E+00  0.00000000000E+00 -0.53275988594E+03  0.53275988595E+03  0.25500000920E-02 0.  1.
    10030    2    1    2    0    0  0.00000000000E+00  0.00000000000E+00  0.53091279599E+02  0.11186110515E+04  0.11173504377E+04 0.  0.
        1    1    3    3  502    0 -0.13112004866E+03 -0.43908435924E+03 -0.29339347796E+03  0.54412064345E+03  0.50400001928E-02 0.  1.
       -1    1    3    3    0  502  0.13112004866E+03  0.43908435924E+03  0.34648475756E+03  0.57449040805E+03  0.50400001928E-02 0. -1.
</event>
<event>
 5   0  0.1468556E-03  0.1104223E+04  0.7818609E-02  0.9201086E-01
        1   -1    0    0  501    0  0.00000000000E+00  0.00000000000E+00  0.34553363310E+03  0.34553363314E+03  0.50400001928E-02 0. -1.
       -1   -1    0    0    0  501  0.00000000000E+00  0.00000000000E+00 -0.88219183546E+03  0.88219183547E+03  0.50400001928E-02 0.  1.
    10030    2    1    2    0    0  0.00000000000E+00  0.00000000000E+00 -0.53665820236E+03  0.12277254686E+04  0.11042227131E+04 0.  0.
        5    1    3    3  502    0 -0.40726884510E+03 -0.16582156561E+02  0.14569277370E+03  0.43288723059E+03  0.46999998093E+01 0. -1.
       -5    1    3    3    0  502  0.40726884510E+03  0.16582156561E+02 -0.68235097606E+03  0.79483823802E+03  0.46999998093E+01 0.  1.
</event>
<event>
 5   0  0.1480937E-03  0.1103224E+04  0.7818609E-02  0.9202055E-01
        1   -1    0    0  501    0  0.00000000000E+00  0.00000000000E+00  0.48041245976E+03  0.48041245979E+03  0.50400001928E-02 0.  1.
       -1   -1    0    0    0  501  0.00000000000E+00  0.00000000000E+00 -0.63336380019E+03  0.63336380021E+03  0.50400001928E-02 0. -1.
    10030    2    1    2    0    0  0.00000000000E+00  0.00000000000E+00 -0.15295134043E+03  0.11137762600E+04  0.11032241136E+04 0.  0.
        1    1    3    3  502    0 -0.30927406659E+03 -0.25882030317E+03  0.30347155865E+03  0.50471118923E+03  0.50400001928E-02 0.  1.
       -1    1    3    3    0  502  0.30927406659E+03  0.25882030317E+03 -0.45642289908E+03  0.60906507076E+03  0.50400001928E-02 0. -1.
</event>
<event>
 5   0  0.1480937E-03  0.1104586E+04  0.7818609E-02  0.9200733E-01
       -1   -1    0    0    0  501  0.00000000000E+00  0.00000000000E+00  0.63305509404E+03  0.63305509406E+03  0.50400001928E-02 0.  1.
        1   -1    0    0  501    0  0.00000000000E+00  0.00000000000E+00 -0.48183457467E+03  0.48183457470E+03  0.50400001928E-02 0. -1.
    10030    2    1    2    0    0  0.00000000000E+00  0.00000000000E+00  0.15122051937E+03  0.11148896688E+04  0.11045864964E+04 0.  0.
        1    1    3    3  502    0  0.31761655973E+03  0.53826614182E+01  0.53161927682E+03  0.61929662326E+03  0.50400001928E-02 0.  1.
       -1    1    3    3    0  502 -0.31761655973E+03 -0.53826614182E+01 -0.38039875745E+03  0.49559304551E+03  0.50400001928E-02 0. -1.
</event>
<event>
 5   0  0.1479573E-03  0.1093788E+04  0.7818609E-02  0.9211267E-01
        1   -1    0    0  501    0  0.00000000000E+00  0.00000000000E+00  0.97991890713E+03  0.97991890714E+03  0.50400001928E-02 0.  1.
       -1   -1    0    0    0  501  0.00000000000E+00  0.00000000000E+00 -0.30522246655E+03  0.30522246659E+03  0.50400001928E-02 0. -1.
    10030    2    1    2    0    0  0.00000000000E+00  0.00000000000E+00  0.67469644059E+03  0.12851413737E+04  0.10937883998E+04 0.  0.
        4    1    3    3  502    0 -0.23455628341E+03 -0.47762151809E+03  0.18894800438E+03  0.56466089460E+03  0.12699999809E+01 0. -1.
       -4    1    3    3    0  502  0.23455628341E+03  0.47762151809E+03  0.48574843620E+03  0.72048047913E+03  0.12699999809E+01 0.  1.
</event>
<event>
 5   0  0.2438115E-03  0.1096433E+04  0.7818609E-02  0.9208676E-01
        2   -1    0    0  501    0  0.00000000000E+00  0.00000000000E+00  0.78160760610E+03  0.78160760611E+03  0.25500000920E-02 0.  1.
       -2   -1    0    0    0  501  0.00000000000E+00  0.00000000000E+00 -0.38451680236E+03  0.38451680237E+03  0.25500000920E-02 0. -1.
    10030    2    1    2    0    0  0.00000000000E+00  0.00000000000E+00  0.39709080374E+03  0.11661244085E+04  0.10964328660E+04 0.  0.
        4    1    3    3  502    0 -0.15362412967E+03 -0.15763368368E+03 -0.33545479727E+03  0.40122348555E+03  0.12699999809E+01 0. -1.
       -4    1    3    3    0  502  0.15362412967E+03  0.15763368368E+03  0.73254560101E+03  0.76490092293E+03  0.12699999809E+01 0.  1.
</event>
<event>
 5   0  0.2467448E-03  0.1116791E+04  0.7818609E-02  0.9188979E-01
        2   -1    0    0  501    0  0.00000000000E+00  0.00000000000E+00  0.65141240584E+03  0.65141240585E+03  0.25500000920E-02 0. -1.
       -2   -1    0    0    0  501  0.00000000000E+00  0.00000000000E+00 -0.47866083330E+03  0.47866083331E+03  0.25500000920E-02 0.  1.
    10030    2    1    2    0    0  0.00000000000E+00  0.00000000000E+00  0.17275157254E+03  0.11300732392E+04  0.11167911264E+04 0.  0.
        1    1    3    3  502    0 -0.45196724453E+03 -0.29371469971E+03 -0.61176445481E+02  0.54248066552E+03  0.50400001928E-02 0.  1.
       -1    1    3    3    0  502  0.45196724453E+03  0.29371469971E+03  0.23392801802E+03  0.58759257364E+03  0.50400001928E-02 0. -1.
</event>
<event>
 5   0  0.1479573E-03  0.1037681E+04  0.7818609E-02  0.9268156E-01
       -1   -1    0    0    0  501  0.00000000000E+00  0.00000000000E+00  0.24320052998E+03  0.24320053004E+03  0.50400001928E-02 0.  1.
        1   -1    0    0  501    0  0.00000000000E+00  0.00000000000E+00 -0.11068872977E+04  0.11068872977E+04  0.50400001928E-02 0. -1.
    10030    2    1    2    0    0  0.00000000000E+00  0.00000000000E+00 -0.86368676775E+03  0.13500878278E+04  0.10376812179E+04 0.  0.
        4    1    3    3  502    0 -0.45982103346E+03  0.18366179377E+03 -0.23017065134E+03  0.54602855139E+03  0.12699999809E+01 0.  1.
       -4    1    3    3    0  502  0.45982103346E+03 -0.18366179377E+03 -0.63351611641E+03  0.80405927639E+03  0.12699999809E+01 0. -1.
</event>
<event>
 5   0  0.2392585E-03  0.1099902E+04  0.7818609E-02  0.9205287E-01
       -2   -1    0    0    0  501  0.00000000000E+00  0.00000000000E+00  0.48877330188E+03  0.48877330189E+03  0.25500000920E-02 0. -1.
        2   -1    0    0  501    0  0.00000000000E+00  0.00000000000E+00 -0.61878596320E+03  0.61878596320E+03  0.25500000920E-02 0.  1.
    10030    2    1    2    0    0  0.00000000000E+00  0.00000000000E+00 -0.13001266132E+03  0.11075592651E+04  0.10999019200E+04 0.  0.
        5    1    3    3  502    0  0.12494024578E+03 -0.27632237903E+03  0.39694650644E+03  0.49955254092E+03  0.46999998093E+01 0. -1.
       -5    1    3    3    0  502 -0.12494024578E+03  0.27632237903E+03 -0.52695916775E+03  0.60800672418E+03  0.46999998093E+01 0.  1.
</event>
<event>
 5   0  0.2483036E-03  0.1088752E+04  0.7818609E-02  0.9216224E-01
       -2   -1    0    0    0  501  0.00000000000E+00  0.00000000000E+00  0.52632730827E+03  0.52632730827E+03  0.25500000920E-02 0. -1.
        2   -1    0    0  501    0  0.00000000000E+00  0.00000000000E+00 -0.56304402710E+03  0.56304402711E+03  0.25500000920E-02 0.  1.
    10030    2    1    2    0    0  0.00000000000E+00  0.00000000000E+00 -0.36716718840E+02  0.10893713354E+04  0.10887524002E+04 0.  0.
        3    1    3    3  502    0 -0.53638322526E+03 -0.51221025721E+02 -0.95958100668E+02  0.54730112836E+03  0.10100000352E+00 0.  1.
       -3    1    3    3    0  502  0.53638322526E+03  0.51221025721E+02  0.59241381828E+02  0.54207020702E+03  0.10100000352E+00 0. -1.
</event>
<event>
 5   0  0.2438115E-03  0.1105330E+04  0.7818609E-02  0.9200012E-01
        2   -1    0    0  501    0  0.00000000000E+00  0.00000000000E+00  0.56284531807E+03  0.56284531808E+03  0.25500000920E-02 0. -1.
       -2   -1    0    0    0  501  0.00000000000E+00  0.00000000000E+00 -0.54266907436E+03  0.54266907437E+03  0.25500000920E-02 0.  1.
    10030    2    1    2    0    0  0.00000000000E+00  0.00000000000E+00  0.20176243711E+02  0.11055143924E+04  0.11053302634E+04 0.  0.
        4    1    3    3  502    0 -0.33325587629E+03  0.18974586016E+03 -0.38794068813E+03  0.54549295224E+03  0.12699999809E+01 0.  1.
       -4    1    3    3    0  502  0.33325587629E+03 -0.18974586016E+03  0.40811693184E+03  0.56002144021E+03  0.12699999809E+01 0. -1.
</event>
<event>
 5   0  0.2488472E-03  0.1055228E+04  0.7818609E-02  0.9249963E-01
       -2   -1    0    0    0  501  0.00000000000E+00  0.00000000000E+00  0.73712465628E+03  0.73712465629E+03  0.25500000920E-02 0.  1.
        2   -1    0    0  501    0  0.00000000000E+00  0.00000000000E+00 -0.37765223442E+03  0.37765223443E+03  0.25500000920E-02 0. -1.
    10030    2    1    2    0    0  0.00000000000E+00  0.00000000000E+00  0.35947242187E+03  0.11147768907E+04  0.10552284558E+04 0.  0.
        2    1    3    3  502    0 -0.41825120062E+03  0.61447479450E+02  0.51325243763E+03  0.66493452632E+03  0.25500000920E-02 0.  1.
       -2    1    3    3    0  502  0.41825120062E+03 -0.61447479450E+02 -0.15378001576E+03  0.44984236440E+03  0.25500000920E-02 0. -1.
</event>
<event>
 5   0  0.2488472E-03  0.1153660E+04  0.7818609E-02  0.9154414E-01
        2   -1    0    0  501    0  0.00000000000E+00  0.00000000000E+00  0.15986967898E+04  0.15986967899E+04  0.25500000920E-02 0. -1.
       -2   -1    0    0    0  501  0.00000000000E+00  0.00000000000E+00 -0.20812757628E+03  0.20812757629E+03  0.25500000920E-02 0.  1.
    10030    2    1    2    0    0  0.00000000000E+00  0.00000000000E+00  0.13905692136E+04  0.18068243661E+04  0.11536600679E+04 0.  0.
        2    1    3    3  502    0 -0.52535147259E+03  0.14619209383E+03  0.40075112440E+03  0.67673315403E+03  0.25500000920E-02 0.  1.
       -2    1    3    3    0  502  0.52535147259E+03 -0.14619209383E+03  0.98981808917E+03  0.11300912121E+04  0.25500000920E-02 0. -1.
</event>
<event>
 5   0  0.2488472E-03  0.1067890E+04  0.7818609E-02  0.9237067E-01
        2   -1    0    0  501    0  0.00000000000E+00  0.00000000000E+00  0.19982833979E+04  0.19982833979E+04  0.25500000920E-02 0.  1.
       -2   -1    0    0    0  501  0.00000000000E+00  0.00000000000E+00 -0.14267095686E+03  0.14267095689E+03  0.25500000920E-02 0. -1.
    10030    2    1    2    0    0  0.00000000000E+00  0.00000000000E+00  0.18556124410E+04  0.21409543548E+04  0.10678895158E+04 0.  0.
        2    1    3    3  502    0 -0.26288018966E+03  0.79377490087E+01 -0.38068414678E+01  0.26302755373E+03  0.25500000920E-02 0. -1.
       -2    1    3    3    0  502  0.26288018966E+03 -0.79377490087E+01  0.18594192825E+04  0.18779268011E+04  0.25500000920E-02 0.  1.
</event>
<event>
 5   0  0.2483036E-03  0.1084275E+04  0.7818609E-02  0.9220656E-01
       -2   -1    0    0    0  501  0.00000000000E+00  0.00000000000E+00  0.27619242896E+03  0.27619242897E+03  0.25500000920E-02 0. -1.
        2   -1    0    0  501    0  0.00000000000E+00  0.00000000000E+00 -0.10641595206E+04  0.10641595206E+04  0.25500000920E-02 0.  1.
    10030    2    1    2    0    0  0.00000000000E+00  0.00000000000E+00 -0.78796709164E+03  0.13403519496E+04  0.10842745092E+04 0.  0.
        3    1    3    3  502    0  0.39488441802E+03  0.18760245317E+03 -0.79030102165E+03  0.90316338447E+03  0.10100000352E+00 0.  1.
       -3    1    3    3    0  502 -0.39488441802E+03 -0.18760245317E+03  0.23339300108E+01  0.43718856510E+03  0.10100000352E+00 0. -1.
</event>
<event>
 5   0  0.2438115E-03  0.1102731E+04  0.7818609E-02  0.9202534E-01
       -2   -1    0    0    0  501  0.00000000000E+00  0.00000000000E+00  0.20552432932E+03  0.20552432934E+03  0.25500000920E-02 0. -1.
        2   -1    0    0  501    0  0.00000000000E+00  0.00000000000E+00 -0.14791636458E+04  0.14791636458E+04  0.25500000920E-02 0.  1.
    10030    2    1    2    0    0  0.00000000000E+00  0.00000000000E+00 -0.12736393165E+04  0.16846879751E+04  0.11027313658E+04 0.  0.
        4    1    3    3  502    0 -0.23360488630E+01  0.53369336895E+03 -0.84833558145E+03  0.10022519348E+04  0.12699999809E+01 0. -1.
       -4    1    3    3    0  502  0.23360488630E+01 -0.53369336895E+03 -0.42530373501E+03  0.68243604030E+03  0.12699999809E+01 0.  1.
</event>
<event>
 5   0  0.2467448E-03  0.1110304E+04  0.7818609E-02  0.9195207E-01
       -2   -1    0    0    0  501  0.00000000000E+00  0.00000000000E+00  0.41529290954E+03  0.41529290955E+03  0.25500000920E-02 0. -1.
        2   -1    0    0  501    0  0.00000000000E+00  0.00000000000E+00 -0.74211109783E+03  0.74211109784E+03  0.25500000920E-02 0.  1.
    10030    2    1    2    0    0  0.00000000000E+00  0.00000000000E+00 -0.32681818829E+03  0.11574040074E+04  0.11103035207E+04 0.  0.
        1    1    3    3  502    0  0.27067752995E+03  0.29827539947E+03 -0.56166168696E+03  0.69115728295E+03  0.50400001928E-02 0.  1.
       -1    1    3    3    0  502 -0.27067752995E+03 -0.29827539947E+03  0.23484349867E+03  0.46624672443E+03  0.50400001928E-02 0. -1.
</event>
<event>
 5   0  0.1480937E-03  0.1104492E+04  0.7818609E-02  0.9200825E-01
       -1   -1    0    0    0  501  0.00000000000E+00  0.00000000000E+00  0.31014343231E+03  0.31014343235E+03  0.50400001928E-02 0. -1.
        1   -1    0    0  501    0  0.00000000000E+00  0.00000000000E+00 -0.98333750343E+03  0.98333750344E+03  0.50400001928E-02 0.  1.
    10030    2    1    2    0    0  0.00000000000E+00  0.00000000000E+00 -0.67319407112E+03  0.12934809358E+04  0.11044920434E+04 0.  0.
        1    1    3    3  502    0  0.11162062214E+03  0.10651912343E+03 -0.95758341014E+03  0.96993374740E+03  0.50400001928E-02 0.  1.
       -1    1    3    3    0  502 -0.11162062214E+03 -0.10651912343E+03  0.28438933902E+03  0.32354718839E+03  0.50400001928E-02 0. -1.
</event>
<event>
 5   0  0.1509004E-03  0.1125737E+04  0.7818609E-02  0.9180464E-01
       -1   -1    0    0    0  501  0.00000000000E+00  0.00000000000E+00  0.18547939977E+03  0.18547939984E+03  0.50400001928E-02 0.  1.
        1   -1    0    0  501    0  0.00000000000E+00  0.00000000000E+00 -0.17081192976E+04  0.17081192976E+04  0.50400001928E-02 0. -1.
    10030    2    1    2    0    0  0.00000000000E+00  0.00000000000E+00 -0.15226398978E+04  0.18935986975E+04  0.11257369890E+04 0.  0.
        3    1    3    3  502    0  0.63469494392E+02  0.29884628640E+03 -0.15565150498E+04  0.15862145473E+04  0.10100000352E+00 0. -1.
       -3    1    3    3    0  502 -0.63469494392E+02 -0.29884628640E+03  0.33875152003E+02  0.30738415011E+03  0.10100000352E+00 0.  1.
</event>
<event>
 5   0  0.1480937E-03  0.1089381E+04  0.7818609E-02  0.9215604E-01
        1   -1    0    0  501    0  0.00000000000E+00  0.00000000000E+00  0.99593964473E+03  0.99593964474E+03  0.50400001928E-02 0.  1.
       -1   -1    0    0    0  501  0.00000000000E+00  0.00000000000E+00 -0.29789740220E+03  0.29789740224E+03  0.50400001928E-02 0. -1.
    10030    2    1    2    0    0  0.00000000000E+00  0.00000000000E+00  0.69804224253E+03  0.12938370470E+04  0.10893811692E+04 0.  0.
        1    1    3    3  502    0 -0.33275893363E+03  0.32975957280E+03  0.18986994476E+02  0.46886073599E+03  0.50400001928E-02 0. -1.
       -1    1    3    3    0  502  0.33275893363E+03 -0.32975957280E+03  0.67905524805E+03  0.82497631099E+03  0.50400001928E-02 0.  1.
</event>
<event>
 5   0  0.2438115E-03  0.1100726E+04  0.7818609E-02  0.9204484E-01
       -2   -1    0    0    0  501  0.00000000000E+00  0.00000000000E+00  0.20930606307E+03  0.20930606309E+03  0.25500000920E-02 0. -1.
        2   -1    0    0  501    0  0.00000000000E+00  0.00000000000E+00 -0.14471608989E+04  0.14471608989E+04  0.25500000920E-02 0.  1.
    10030    2    1    2    0    0  0.00000000000E+00  0.00000000000E+00 -0.12378548358E+04  0.16564669620E+04  0.11007262155E+04 0.  0.
        4    1    3    3  502    0 -0.50668399646E+03  0.21431265650E+03 -0.64220943631E+03  0.84563181113E+03  0.12699999809E+01 0.  1.
       -4    1    3    3    0  502  0.50668399646E+03 -0.21431265650E+03 -0.59564539953E+03  0.81083515087E+03  0.12699999809E+01 0. -1.
</event>
<event>
 5   0  0.2488472E-03  0.1091120E+04  0.7818609E-02  0.9213890E-01
       -2   -1    0    0    0  501  0.00000000000E+00  0.00000000000E+00  0.21923736747E+03  0.21923736749E+03  0.25500000920E-02 0.  1.
        2   -1    0    0  501    0  0.00000000000E+00  0.00000000000E+00 -0.13575956821E+04  0.13575956821E+04  0.25500000920E-02 0. -1.
    10030    2    1    2    0    0  0.00000000000E+00  0.00000000000E+00 -0.11383583146E+04  0.15768330496E+04  0.10911199814E+04 0.  0.
        2    1    3    3  502    0 -0.53292698149E+02  0.40599503414E+03 -0.48195486376E+02  0.41230435886E+03  0.25500000920E-02 0.  1.
       -2    1    3    3    0  502  0.53292698149E+02 -0.40599503414E+03 -0.10901628283E+04  0.11645286907E+04  0.25500000920E-02 0. -1.
</event>
<event>
 5   0  0.2488472E-03  0.1090100E+04  0.7818609E-02  0.9214895E-01
       -2   -1    0    0    0  501  0.00000000000E+00  0.00000000000E+00  0.10867859510E+04  0.10867859510E+04  0.25500000920E-02 0.  1.
        2   -1    0    0  501    0  0.00000000000E+00  0.00000000000E+00 -0.27335587200E+03  0.27335587201E+03  0.25500000920E-02 0. -1.
    10030    2    1    2    0    0  0.00000000000E+00  0.00000000000E+00  0.81343007902E+03  0.13601418230E+04  0.10900996676E+04 0.  0.
        2    1    3    3  502    0 -0.93957885373E+01  0.83455004348E+02 -0.26523453124E+03  0.27821282350E+03  0.25500000920E-02 0. -1.
       -2    1    3    3    0  502  0.93957885373E+01 -0.83455004348E+02  0.10786646103E+04  0.10819289995E+04  0.25500000920E-02 0.  1.
</event>
<event>
 5   0  0.2467448E-03  0.1103842E+04  0.7818609E-02  0.9201455E-01
       -2   -1    0    0    0  501  0.00000000000E+00  0.00000000000E+00  0.10909422064E+03  0.10909422067E+03  0.25500000920E-02 0.  1.
        2   -1    0    0  501    0  0.00000000000E+00  0.00000000000E+00 -0.27922376846E+04  0.27922376847E+04  0.25500000920E-02 0. -1.
    10030    2    1    2    0    0  0.00000000000E+00  0.00000000000E+00 -0.26831434640E+04  0.29013319053E+04  0.11038423693E+04 0.  0.
        1    1    3    3  502    0  0.11722148847E+03  0.50301963524E+03 -0.18529098497E+04  0.19235499842E+04  0.50400001928E-02 0.  1.
       -1    1    3    3    0  502 -0.11722148847E+03 -0.50301963524E+03 -0.83023361434E+03  0.97778192109E+03  0.50400001928E-02 0. -1.
</event>
<event>
 5   0  0.2392585E-03  0.1118945E+04  0.7818609E-02  0.9186921E-01
       -2   -1    0    0    0  501  0.00000000000E+00  0.00000000000E+00  0.27848038538E+03  0.27848038539E+03  0.25500000920E-02 0.  1.
        2   -1    0    0  501    0  0.00000000000E+00  0.00000000000E+00 -0.11239920349E+04  0.11239920349E+04  0.25500000920E-02 0. -1.
    10030    2    1    2    0    0  0.00000000000E+00  0.00000000000E+00 -0.84551164949E+03  0.14024724203E+04  0.11189454590E+04 0.  0.
        5    1    3    3  502    0  0.17964531209E+03  0.37523114530E+02  0.23965358743E+03  0.30188798294E+03  0.46999998093E+01 0.  1.
       -5    1    3    3    0  502 -0.17964531209E+03 -0.37523114530E+02 -0.10851652369E+04  0.11005844373E+04  0.46999998093E+01 0. -1.
</event>
<event>
 5   0  0.1415400E-03  0.1104216E+04  0.7818609E-02  0.9201092E-01
        1   -1    0    0  501    0  0.00000000000E+00  0.00000000000E+00  0.78549307625E+03  0.78549307627E+03  0.50400001928E-02 0.  1.
       -1   -1    0    0    0  501  0.00000000000E+00  0.00000000000E+00 -0.38806642604E+03  0.38806642608E+03  0.50400001928E-02 0. -1.
    10030    2    1    2    0    0  0.00000000000E+00  0.00000000000E+00  0.39742665021E+03  0.11735595023E+04  0.11042164476E+04 0.  0.
        2    1    3    3  502    0 -0.51841615652E+03 -0.12326408562E+03  0.35226524358E+03  0.63878020319E+03  0.25500000920E-02 0. -1.
       -2    1    3    3    0  502  0.51841615652E+03  0.12326408562E+03  0.45161406630E+02  0.53477929915E+03  0.25500000920E-02 0.  1.
</event>
<event>
 5   0  0.1509004E-03  0.1090185E+04  0.7818609E-02  0.9214812E-01
        1   -1    0    0  501    0  0.00000000000E+00  0.00000000000E+00  0.11615955639E+04  0.11615955639E+04  0.50400001928E-02 0. -1.
       -1   -1    0    0    0  501  0.00000000000E+00  0.00000000000E+00 -0.25579100480E+03  0.25579100485E+03  0.50400001928E-02 0.  1.
    10030    2    1    2    0    0  0.00000000000E+00  0.00000000000E+00  0.90580455914E+03  0.14173865688E+04  0.10901847486E+04 0.  0.
        3    1    3    3  502    0  0.77979812193E+02  0.32586552445E+03  0.10118942484E+04  0.10659264380E+04  0.10100000352E+00 0. -1.
       -3    1    3    3    0  502 -0.77979812193E+02 -0.32586552445E+03 -0.10608968928E+03  0.35146013075E+03  0.10100000352E+00 0.  1.
</event>
<event>
 5   0  0.1480937E-03  0.1104563E+04  0.7818609E-02  0.9200755E-01
       -1   -1    0    0    0  501  0.00000000000E+00  0.00000000000E+00  0.93697617293E+03  0.93697617295E+03  0.50400001928E-02 0.  1.
        1   -1    0    0  501    0  0.00000000000E+00  0.00000000000E+00 -0.32553133547E+03  0.32553133551E+03  0.50400001928E-02 0. -1.
    10030    2    1    2    0    0  0.00000000000E+00  0.00000000000E+00  0.61144483746E+03  0.12625075085E+04  0.11045634521E+04 0.  0.
        1    1    3    3  502    0 -0.64106544313E+02 -0.49261569806E+03  0.58154905148E+03  0.76483931273E+03  0.50400001928E-02 0.  1.
       -1    1    3    3    0  502  0.64106544313E+02  0.49261569806E+03  0.29895785978E+02  0.49766819573E+03  0.50400001928E-02 0. -1.
</event>
<event>
 5   0  0.1415400E-03  0.1101820E+04  0.7818609E-02  0.9203420E-01
       -1   -1    0    0    0  501  0.00000000000E+00  0.00000000000E+00  0.36396495239E+03  0.36396495243E+03  0.50400001928E-02 0.  1.
        1   -1    0    0  501    0  0.00000000000E+00  0.00000000000E+00 -0.83387672373E+03  0.83387672375E+03  0.50400001928E-02 0. -1.
    10030    2    1    2    0    0  0.00000000000E+00  0.00000000000E+00 -0.46991177134E+03  0.11978416762E+04  0.11018201343E+04 0.  0.
        2    1    3    3  502    0 -0.31628054889E+03  0.18298199692E+03  0.21326844438E+03  0.42308300152E+03  0.25500000920E-02 0.  1.
       -2    1    3    3    0  502  0.31628054889E+03 -0.18298199692E+03 -0.68318021571E+03  0.77475867465E+03  0.25500000920E-02 0. -1.
</event>
<event>
 5   0  0.2483036E-03  0.1089588E+04  0.7818609E-02  0.9215400E-01
       -2   -1    0    0    0  501  0.00000000000E+00  0.00000000000E+00  0.31747262377E+03  0.31747262378E+03  0.25500000920E-02 0. -1.
        2   -1    0    0  501    0  0.00000000000E+00  0.00000000000E+00 -0.93488556310E+03  0.93488556310E+03  0.25500000920E-02 0.  1.
    10030    2    1    2    0    0  0.00000000000E+00  0.00000000000E+00 -0.61741293933E+03  0.12523581869E+04  0.10895881289E+04 0.  0.
        3    1    3    3  502    0  0.16612361680E+03  0.42965429205E+03 -0.64301939169E+03  0.79099545829E+03  0.10100000352E+00 0.  1.
       -3    1    3    3    0  502 -0.16612361680E+03 -0.42965429205E+03  0.25606452367E+02  0.46136272860E+03  0.10100000352E+00 0. -1.
</event>
<event>
 5   0  0.1415400E-03  0.1105708E+04  0.7818609E-02  0.9199646E-01
       -1   -1    0    0    0  501  0.00000000000E+00  0.00000000000E+00  0.27767732839E+03  0.27767732844E+03  0.50400001928E-02 0. -1.
        1   -1    0    0  501    0  0.00000000000E+00  0.00000000000E+00 -0.11007302003E+04  0.11007302003E+04  0.50400001928E-02 0.  1.
    10030    2    1    2    0    0  0.00000000000E+00  0.00000000000E+00 -0.82305287191E+03  0.13784075288E+04  0.11057084993E+04 0.  0.
        2    1    3    3  502    0 -0.34080411217E+03 -0.27534870420E+03 -0.83185184898E+03  0.94018181775E+03  0.25500000920E-02 0.  1.
       -2    1    3    3    0  502  0.34080411217E+03  0.27534870420E+03  0.87989770706E+01  0.43822571100E+03  0.25500000920E-02 0. -1.
</event>
<event>
 5   0  0.2392585E-03  0.1172513E+04  0.7818609E-02  0.9137262E-01
       -2   -1    0    0    0  501  0.00000000000E+00  0.00000000000E+00  0.19071529545E+03  0.19071529547E+03  0.25500000920E-02 0.  1.
        2   -1    0    0  501    0  0.00000000000E+00  0.00000000000E+00 -0.18021440344E+04  0.18021440344E+04  0.25500000920E-02 0. -1.
    10030    2    1    2    0    0  0.00000000000E+00  0.00000000000E+00 -0.16114287389E+04  0.19928593298E+04  0.11725125705E+04 0.  0.
        5    1    3    3  502    0 -0.26070169595E+02  0.29227922669E+03  0.56876195186E+02  0.29893777225E+03  0.46999998093E+01 0.  1.
       -5    1    3    3    0  502  0.26070169595E+02 -0.29227922669E+03 -0.16683049341E+04  0.16939215576E+04  0.46999998093E+01 0. -1.
</event>
<event>
 5   0  0.2438115E-03  0.1101524E+04  0.7818609E-02  0.9203708E-01
        2   -1    0    0  501    0  0.00000000000E+00  0.00000000000E+00  0.93043306302E+03  0.93043306302E+03  0.25500000920E-02 0.  1.
       -2   -1    0    0    0  501  0.00000000000E+00  0.00000000000E+00 -0.32601902814E+03  0.32601902815E+03  0.25500000920E-02 0. -1.
    10030    2    1    2    0    0  0.00000000000E+00  0.00000000000E+00  0.60441403488E+03  0.12564520912E+04  0.11015241858E+04 0.  0.
        4    1    3    3  502    0 -0.16397910130E+03  0.52201244362E+03  0.37390595596E+03  0.66271669193E+03  0.12699999809E+01 0.  1.
       -4    1    3    3    0  502  0.16397910130E+03 -0.52201244362E+03  0.23050807892E+03  0.59373539924E+03  0.12699999809E+01 0. -1.
</event>
<event>
 5   0  0.1468556E-03  0.1098482E+04  0.7818609E-02  0.9206672E-01
        1   -1    0    0  501    0  0.00000000000E+00  0.00000000000E+00  0.13055032229E+04  0.13055032229E+04  0.50400001928E-02 0.  1.
       -1   -1    0    0    0  501  0.00000000000E+00  0.00000000000E+00 -0.23107251576E+03  0.23107251582E+03  0.50400001928E-02 0. -1.
    10030    2    1    2    0    0  0.00000000000E+00  0.00000000000E+00  0.10744307071E+04  0.15365757387E+04  0.10984824333E+04 0.  0.
        5    1    3    3  502    0  0.18228470147E+03 -0.47776178780E+03  0.81753694463E+03  0.96429911548E+03  0.46999998093E+01 0. -1.
       -5    1    3    3    0  502 -0.18228470147E+03  0.47776178780E+03  0.25689376246E+03  0.57227662320E+03  0.46999998093E+01 0.  1.
</event>
<event>
 5   0  0.1509004E-03  0.1032442E+04  0.7818609E-02  0.9273662E-01
        1   -1    0    0  501    0  0.00000000000E+00  0.00000000000E+00  0.84194119904E+03  0.84194119905E+03  0.50400001928E-02 0. -1.
       -1   -1    0    0    0  501  0.00000000000E+00  0.00000000000E+00 -0.31651160097E+03  0.31651160101E+03  0.50400001928E-02 0.  1.
    10030    2    1    2    0    0  0.00000000000E+00  0.00000000000E+00  0.52542959807E+03  0.11584528001E+04  0.10324420698E+04 0.  0.
        3    1    3    3  502    0  0.47844639638E+03  0.15521466505E+03  0.39299648580E+03  0.63831715825E+03  0.10100000352E+00 0.  1.
       -3    1    3    3    0  502 -0.47844639638E+03 -0.15521466505E+03  0.13243311227E+03  0.52013564181E+03  0.10100000352E+00 0. -1.
</event>
<event>
 5   0  0.1479573E-03  0.1029419E+04  0.7818609E-02  0.9276854E-01
       -1   -1    0    0    0  501  0.00000000000E+00  0.00000000000E+00  0.38572393408E+03  0.38572393411E+03  0.50400001928E-02 0. -1.
        1   -1    0    0  501    0  0.00000000000E+00  0.00000000000E+00 -0.68682817180E+03  0.68682817182E+03  0.50400001928E-02 0.  1.
    10030    2    1    2    0    0  0.00000000000E+00  0.00000000000E+00 -0.30110423773E+03  0.10725521059E+04  0.10294193790E+04 0.  0.
        4    1    3    3  502    0  0.83846725579E+02  0.11159038667E+02  0.37843117265E+03  0.38777127648E+03  0.12699999809E+01 0. -1.
       -4    1    3    3    0  502 -0.83846725579E+02 -0.11159038667E+02 -0.67953541037E+03  0.68478082945E+03  0.12699999809E+01 0.  1.
</event>
<event>
 5   0  0.1468556E-03  0.1104574E+04  0.7818609E-02  0.9200745E-01
       -1   -1    0    0    0  501  0.00000000000E+00  0.00000000000E+00  0.29059709138E+03  0.29059709142E+03  0.50400001928E-02 0.  1.
        1   -1    0    0  501    0  0.00000000000E+00  0.00000000000E+00 -0.10496357530E+04  0.10496357530E+04  0.50400001928E-02 0. -1.
    10030    2    1    2    0    0  0.00000000000E+00  0.00000000000E+00 -0.75903866158E+03  0.13402328444E+04  0.11045743014E+04 0.  0.
        5    1    3    3  502    0 -0.31026569314E+03  0.30959893867E+03  0.28141535723E+02  0.43923836262E+03  0.46999998093E+01 0.  1.
       -5    1    3    3    0  502  0.31026569314E+03 -0.30959893867E+03 -0.78718019730E+03  0.90099448177E+03  0.46999998093E+01 0. -1.
</event>
<event>
 5   0  0.2488472E-03  0.1090811E+04  0.7818609E-02  0.9214194E-01
        2   -1    0    0  501    0  0.00000000000E+00  0.00000000000E+00  0.31009272139E+03  0.31009272140E+03  0.25500000920E-02 0.  1.
       -2   -1    0    0    0  501  0.00000000000E+00  0.00000000000E+00 -0.95928494103E+03  0.95928494103E+03  0.25500000920E-02 0. -1.
    10030    2    1    2    0    0  0.00000000000E+00  0.00000000000E+00 -0.64919221964E+03  0.12693776624E+04  0.10908112173E+04 0.  0.
        2    1    3    3  502    0  0.15415205979E+03  0.10710376923E+03 -0.92051217842E+03  0.93945555805E+03  0.25500000920E-02 0. -1.
       -2    1    3    3    0  502 -0.15415205979E+03 -0.10710376923E+03  0.27131995878E+03  0.32992210438E+03  0.25500000920E-02 0.  1.
</event>
<event>
 5   0  0.1415400E-03  0.1097904E+04  0.7818609E-02  0.9207237E-01
       -1   -1    0    0    0  501  0.00000000000E+00  0.00000000000E+00  0.23890986011E+03  0.23890986016E+03  0.50400001928E-02 0.  1.
        1   -1    0    0  501    0  0.00000000000E+00  0.00000000000E+00 -0.12613483680E+04  0.12613483681E+04  0.50400001928E-02 0. -1.
    10030    2    1    2    0    0  0.00000000000E+00  0.00000000000E+00 -0.10224385079E+04  0.15002582282E+04  0.10979044807E+04 0.  0.
        2    1    3    3  502    0  0.17174078116E+03 -0.12803538912E+03  0.17943935304E+03  0.27943950724E+03  0.25500000920E-02 0.  1.
       -2    1    3    3    0  502 -0.17174078116E+03  0.12803538912E+03 -0.12018778610E+04  0.12208187210E+04  0.25500000920E-02 0. -1.
</event>
<event>
 5   0  0.2392585E-03  0.1101896E+04  0.7818609E-02  0.9203346E-01
        2   -1    0    0  501    0  0.00000000000E+00  0.00000000000E+00  0.48285630530E+03  0.48285630530E+03  0.25500000920E-02 0. -1.
       -2   -1    0    0    0  501  0.00000000000E+00  0.00000000000E+00 -0.62864223217E+03  0.62864223218E+03  0.25500000920E-02 0.  1.
    10030    2    1    2    0    0  0.00000000000E+00  0.00000000000E+00 -0.14578592687E+03  0.11114985375E+04  0.11018963029E+04 0.  0.
        5    1    3    3  502    0  0.22358462758E+03  0.44518511947E+03  0.16440564942E+03  0.52462480293E+03  0.46999998093E+01 0. -1.
       -5    1    3    3    0  502 -0.22358462758E+03 -0.44518511947E+03 -0.31019157630E+03  0.58687373454E+03  0.46999998093E+01 0.  1.
</event>
<event>
 5   0  0.1480937E-03  0.1132342E+04  0.7818609E-02  0.9174230E-01
        1   -1    0    0  501    0  0.00000000000E+00  0.00000000000E+00  0.10508579048E+04  0.10508579048E+04  0.50400001928E-02 0.  1.
       -1   -1    0    0    0  501  0.00000000000E+00  0.00000000000E+00 -0.30503596771E+03  0.30503596775E+03  0.50400001928E-02 0. -1.
    10030    2    1    2    0    0  0.00000000000E+00  0.00000000000E+00  0.74582193711E+03  0.13558938726E+04  0.11323417469E+04 0.  0.
        1    1    3    3  502    0  0.30849091580E+03  0.29039127530E+03  0.82263234387E+03  0.92532032892E+03  0.50400001928E-02 0. -1.
       -1    1    3    3    0  502 -0.30849091580E+03 -0.29039127530E+03 -0.76810406758E+02  0.43057354367E+03  0.50400001928E-02 0.  1.
</event>
<event>
 5   0  0.2483036E-03  0.1100354E+04  0.7818609E-02  0.9204846E-01
        2   -1    0    0  501    0  0.00000000000E+00  0.00000000000E+00  0.54317524641E+03  0.54317524641E+03  0.25500000920E-02 0. -1.
       -2   -1    0    0    0  501  0.00000000000E+00  0.00000000000E+00 -0.55726944415E+03  0.55726944416E+03  0.25500000920E-02 0.  1.
    10030    2    1    2    0    0  0.00000000000E+00  0.00000000000E+00 -0.14094197744E+02  0.11004446906E+04  0.11003544295E+04 0.  0.
        3    1    3    3  502    0 -0.32330682962E+02  0.56908309926E+02 -0.55336210637E+03  0.55721940003E+03  0.10100000352E+00 0.  1.
       -3    1    3    3    0  502  0.32330682962E+02 -0.56908309926E+02  0.53926790863E+03  0.54322529054E+03  0.10100000352E+00 0. -1.
</event>
<event>
 5   0  0.2392585E-03  0.1091488E+04  0.7818609E-02  0.9213528E-01
        2   -1    0    0  501    0  0.00000000000E+00  0.00000000000E+00  0.47355133133E+03  0.47355133134E+03  0.25500000920E-02 0. -1.
       -2   -1    0    0    0  501  0.00000000000E+00  0.00000000000E+00 -0.62894239914E+03  0.62894239915E+03  0.25500000920E-02 0.  1.
    10030    2    1    2    0    0  0.00000000000E+00  0.00000000000E+00 -0.15539106781E+03  0.11024937305E+04  0.10914879944E+04 0.  0.
        5    1    3    3  502    0 -0.21623066426E+03 -0.44164220138E+02  0.42644453188E+03  0.48019080299E+03  0.46999998093E+01 0. -1.
       -5    1    3    3    0  502  0.21623066426E+03  0.44164220138E+02 -0.58183559969E+03  0.62230292750E+03  0.46999998093E+01 0.  1.
</event>
<event>
 5   0  0.2392585E-03  0.1100252E+04  0.7818609E-02  0.9204946E-01
        2   -1    0    0  501    0  0.00000000000E+00  0.00000000000E+00  0.51889557925E+03  0.51889557925E+03  0.25500000920E-02 0.  1.
       -2   -1    0    0    0  501  0.00000000000E+00  0.00000000000E+00 -0.58323641352E+03  0.58323641352E+03  0.25500000920E-02 0. -1.
    10030    2    1    2    0    0  0.00000000000E+00  0.00000000000E+00 -0.64340834272E+02  0.11021319928E+04  0.11002523286E+04 0.  0.
        5    1    3    3  502    0  0.51893621422E+03 -0.53078646240E+02  0.14278353733E+03  0.54085244351E+03  0.46999998093E+01 0.  1.
       -5    1    3    3    0  502 -0.51893621422E+03  0.53078646240E+02 -0.20712437160E+03  0.56127954927E+03  0.46999998093E+01 0. -1.
</event>
<event>
 5   0  0.2483036E-03  0.1101121E+04  0.7818609E-02  0.9204100E-01
       -2   -1    0    0    0  501  0.00000000000E+00  0.00000000000E+00  0.42819227261E+03  0.42819227262E+03  0.25500000920E-02 0. -1.
        2   -1    0    0  501    0  0.00000000000E+00  0.00000000000E+00 -0.70789838141E+03  0.70789838141E+03  0.25500000920E-02 0.  1.
    10030    2    1    2    0    0  0.00000000000E+00  0.00000000000E+00 -0.27970610879E+03  0.11360906540E+04  0.11011205506E+04 0.  0.
        3    1    3    3  502    0  0.50057350079E+03 -0.74660841363E+02 -0.36345811538E+03  0.62309700911E+03  0.10100000352E+00 0.  1.
       -3    1    3    3    0  502 -0.50057350079E+03  0.74660841363E+02  0.83752006584E+02  0.51299364492E+03  0.10100000352E+00 0. -1.
</event>
<event>
 5   0  0.1480937E-03  0.1102843E+04  0.7818609E-02  0.9202426E-01
       -1   -1    0    0    0  501  0.00000000000E+00  0.00000000000E+00  0.22412858652E+03  0.22412858658E+03  0.50400001928E-02 0.  1.
        1   -1    0    0  501    0  0.00000000000E+00  0.00000000000E+00 -0.13566564306E+04  0.13566564306E+04  0.50400001928E-02 0. -1.
    10030    2    1    2    0    0  0.00000000000E+00  0.00000000000E+00 -0.11325278441E+04  0.15807850172E+04  0.11028426692E+04 0.  0.
        1    1    3    3  502    0  0.26916439357E+03  0.47876724256E+03 -0.49607333899E+03  0.74010560124E+03  0.50400001928E-02 0.  1.
       -1    1    3    3    0  502 -0.26916439357E+03 -0.47876724256E+03 -0.63645450508E+03  0.84067941593E+03  0.50400001928E-02 0. -1.
</event>
<event>
 5   0  0.1415400E-03  0.1074154E+04  0.7818609E-02  0.9230756E-01
        1   -1    0    0  501    0  0.00000000000E+00  0.00000000000E+00  0.87852692682E+03  0.87852692683E+03  0.50400001928E-02 0.  1.
       -1   -1    0    0    0  501  0.00000000000E+00  0.00000000000E+00 -0.32833559627E+03  0.32833559630E+03  0.50400001928E-02 0. -1.
    10030    2    1    2    0    0  0.00000000000E+00  0.00000000000E+00  0.55019133055E+03  0.12068625231E+04  0.10741539226E+04 0.  0.
        2    1    3    3  502    0  0.38303773280E+03  0.91969941633E+02  0.68526774664E+03  0.79042283590E+03  0.25500000920E-02 0.  1.
       -2    1    3    3    0  502 -0.38303773280E+03 -0.91969941633E+02 -0.13507641609E+03  0.41643968724E+03  0.25500000920E-02 0. -1.
</event>
<event>
 5   0  0.1468556E-03  0.1099543E+04  0.7818609E-02  0.9205637E-01
        1   -1    0    0  501    0  0.00000000000E+00  0.00000000000E+00  0.91971763690E+03  0.91971763691E+03  0.50400001928E-02 0. -1.
       -1   -1    0    0    0  501  0.00000000000E+00  0.00000000000E+00 -0.32863206645E+03  0.32863206649E+03  0.50400001928E-02 0.  1.
    10030    2    1    2    0    0  0.00000000000E+00  0.00000000000E+00  0.59108557045E+03  0.12483497034E+04  0.10995430098E+04 0.  0.
        5    1    3    3  502    0  0.14278307391E+03  0.47706465265E+03  0.31107367299E+02  0.49896637893E+03  0.46999998093E+01 0.  1.
       -5    1    3    3    0  502 -0.14278307391E+03 -0.47706465265E+03  0.55997820315E+03  0.74938332447E+03  0.46999998093E+01 0. -1.
</event>
<event>
 5   0  0.2488472E-03  0.1106411E+04  0.7818609E-02  0.9198966E-01
       -2   -1    0    0    0  501  0.00000000000E+00  0.00000000000E+00  0.28098179987E+03  0.28098179988E+03  0.25500000920E-02 0.  1.
        2   -1    0    0  501    0  0.00000000000E+00  0.00000000000E+00 -0.10891674730E+04  0.10891674730E+04  0.25500000920E-02 0. -1.
    10030    2    1    2    0    0  0.00000000000E+00  0.00000000000E+00 -0.80818567314E+03  0.13701492729E+04  0.11064108404E+04 0.  0.
        2    1    3    3  502    0  0.53309705485E+03 -0.14313539731E+03 -0.44969498691E+03  0.71197316881E+03  0.25500000920E-02 0. -1.
       -2    1    3    3    0  502 -0.53309705485E+03  0.14313539731E+03 -0.35849068624E+03  0.65817610408E+03  0.25500000920E-02 0.  1.
</event>
<event>
 5   0  0.1509004E-03  0.1098091E+04  0.7818609E-02  0.9207054E-01
        1   -1    0    0  501    0  0.00000000000E+00  0.00000000000E+00  0.41584390460E+03  0.41584390464E+03  0.50400001928E-02 0.  1.
       -1   -1    0    0    0  501  0.00000000000E+00  0.00000000000E+00 -0.72491392492E+03  0.72491392494E+03  0.50400001928E-02 0. -1.
    10030    2    1    2    0    0  0.00000000000E+00  0.00000000000E+00 -0.30907002032E+03  0.11407578296E+04  0.10980911384E+04 0.  0.
        3    1    3    3  502    0  0.13802296404E+03 -0.46506337101E+03  0.11258770324E+03  0.49800630395E+03  0.10100000352E+00 0.  1.
       -3    1    3    3    0  502 -0.13802296404E+03  0.46506337101E+03 -0.42165772356E+03  0.64275152562E+03  0.10100000352E+00 0. -1.
</event>
<event>
 5   0  0.1479573E-03  0.1080600E+04  0.7818609E-02  0.9224310E-01
        1   -1    0    0  501    0  0.00000000000E+00  0.00000000000E+00  0.99293514220E+03  0.99293514221E+03  0.50400001928E-02 0. -1.
       -1   -1    0    0    0  501  0.00000000000E+00  0.00000000000E+00 -0.29400095700E+03  0.29400095704E+03  0.50400001928E-02 0.  1.
    10030    2    1    2    0    0  0.00000000000E+00  0.00000000000E+00  0.69893418520E+03  0.12869360993E+04  0.10805996152E+04 0.  0.
        4    1    3    3  502    0 -0.29882691290E+03  0.35148810039E+03  0.14557283153E+02  0.46157874299E+03  0.12699999809E+01 0.  1.
       -4    1    3    3    0  502  0.29882691290E+03 -0.35148810039E+03  0.68437690205E+03  0.82535735627E+03  0.12699999809E+01 0. -1.
</event>
<event>
 5   0  0.2438115E-03  0.1100269E+04  0.7818609E-02  0.9204930E-01
       -2   -1    0    0    0  501  0.00000000000E+00  0.00000000000E+00  0.27538334469E+03  0.27538334470E+03  0.25500000920E-02 0. -1.
        2   -1    0    0  501    0  0.00000000000E+00  0.00000000000E+00 -0.10990063891E+04  0.10990063891E+04  0.25500000920E-02 0.  1.
    10030    2    1    2    0    0  0.00000000000E+00  0.00000000000E+00 -0.82362304441E+03  0.13743897338E+04  0.11002691585E+04 0.  0.
        4    1    3    3  502    0 -0.18445463305E+03  0.81506350132E+02  0.22754741187E+03  0.30404972342E+03  0.12699999809E+01 0. -1.
       -4    1    3    3    0  502  0.18445463305E+03 -0.81506350132E+02 -0.10511704563E+04  0.10703400104E+04  0.12699999809E+01 0.  1.
</event>
<event>
 5   0  0.9631750E-04  0.1093260E+04  0.7818609E-02  0.9211786E-01
        3   -1    0    0  501    0  0.00000000000E+00  0.00000000000E+00  0.14046641647E+04  0.14046641683E+04  0.10100000352E+00 0. -1.
       -3   -1    0    0    0  501  0.00000000000E+00  0.00000000000E+00 -0.21272293202E+03  0.21272295599E+03  0.10100000352E+00 0.  1.
    10030    2    1    2    0    0  0.00000000000E+00  0.00000000000E+00  0.11919412327E+04  0.16173871243E+04  0.10932598994E+04 0.  0.
        5    1    3    3  502    0  0.16078095785E+03  0.26958797529E+03  0.12580059722E+04  0.12965837069E+04  0.46999998093E+01 0. -1.
       -5    1    3    3    0  502 -0.16078095785E+03 -0.26958797529E+03 -0.66064739543E+02  0.32080341743E+03  0.46999998093E+01 0.  1.
</event>
<event>
 5   0  0.1479573E-03  0.1100212E+04  0.7818609E-02  0.9204986E-01
       -1   -1    0    0    0  501  0.00000000000E+00  0.00000000000E+00  0.17312381570E+03  0.17312381577E+03  0.50400001928E-02 0.  1.
        1   -1    0    0  501    0  0.00000000000E+00  0.00000000000E+00 -0.17479767426E+04  0.17479767426E+04  0.50400001928E-02 0. -1.
    10030    2    1    2    0    0  0.00000000000E+00  0.00000000000E+00 -0.15748529269E+04  0.19211005583E+04  0.11002116224E+04 0.  0.
        4    1    3    3  502    0  0.22898919306E+03 -0.27082095150E+03 -0.53153260591E+02  0.35861807026E+03  0.12699999809E+01 0.  1.
       -4    1    3    3    0  502 -0.22898919306E+03  0.27082095150E+03 -0.15216996663E+04  0.15624824881E+04  0.12699999809E+01 0. -1.
</event>
<event>
 5   0  0.1479573E-03  0.1097658E+04  0.7818609E-02  0.9207477E-01
       -1   -1    0    0    0  501  0.00000000000E+00  0.00000000000E+00  0.79310703887E+03  0.79310703889E+03  0.50400001928E-02 0.  1.
        1   -1    0    0  501    0  0.00000000000E+00  0.00000000000E+00 -0.37978905564E+03  0.37978905568E+03  0.50400001928E-02 0. -1.
    10030    2    1    2    0    0  0.00000000000E+00  0.00000000000E+00  0.41331798323E+03  0.11728960946E+04  0.10976581860E+04 0.  0.
        4    1    3    3  502    0 -0.46761479906E+03  0.33646346466E+02 -0.98234057197E+02  0.47900649247E+03  0.12699999809E+01 0. -1.
       -4    1    3    3    0  502  0.46761479906E+03 -0.33646346466E+02  0.51155204043E+03  0.69388960210E+03  0.12699999809E+01 0.  1.
</event>
<event>
 5   0  0.1480937E-03  0.1098232E+04  0.7818609E-02  0.9206917E-01
        1   -1    0    0  501    0  0.00000000000E+00  0.00000000000E+00  0.67330756529E+03  0.67330756530E+03  0.50400001928E-02 0.  1.
       -1   -1    0    0    0  501  0.00000000000E+00  0.00000000000E+00 -0.44783161736E+03  0.44783161739E+03  0.50400001928E-02 0. -1.
    10030    2    1    2    0    0  0.00000000000E+00  0.00000000000E+00  0.22547594793E+03  0.11211391827E+04  0.10982320629E+04 0.  0.
        1    1    3    3  502    0  0.45927905069E+03  0.13634815262E+03  0.38666363507E+03  0.61565967209E+03  0.50400001928E-02 0.  1.
       -1    1    3    3    0  502 -0.45927905069E+03 -0.13634815262E+03 -0.16118768715E+03  0.50547951060E+03  0.50400001928E-02 0. -1.
</event>
<event>
 5   0  0.2467448E-03  0.1102253E+04  0.7818609E-02  0.9202999E-01
       -2   -1    0    0    0  501  0.00000000000E+00  0.00000000000E+00  0.44525640560E+03  0.44525640561E+03  0.25500000920E-02 0.  1.
        2   -1    0    0  501    0  0.00000000000E+00  0.00000000000E+00 -0.68216965793E+03  0.68216965793E+03  0.25500000920E-02 0. -1.
    10030    2    1    2    0    0  0.00000000000E+00  0.00000000000E+00 -0.23691325232E+03  0.11274260635E+04  0.11022529835E+04 0.  0.
        1    1    3    3  502    0  0.47101494159E+03 -0.27124971627E+03 -0.25221570224E+02  0.54412095292E+03  0.50400001928E-02 0. -1.
       -1    1    3    3    0  502 -0.47101494159E+03  0.27124971627E+03 -0.21169168210E+03  0.58330511062E+03  0.50400001928E-02 0.  1.
</event>
<event>
 5   0  0.1509004E-03  0.1088283E+04  0.7818609E-02  0.9216688E-01
       -1   -1    0    0    0  501  0.00000000000E+00  0.00000000000E+00  0.46268214228E+03  0.46268214231E+03  0.50400001928E-02 0.  1.
        1   -1    0    0  501    0  0.00000000000E+00  0.00000000000E+00 -0.63994193795E+03  0.63994193797E+03  0.50400001928E-02 0. -1.
    10030    2    1    2    0    0  0.00000000000E+00  0.00000000000E+00 -0.17725979567E+03  0.11026240803E+04  0.10882825126E+04 0.  0.
        3    1    3    3  502    0 -0.43943916194E+03 -0.28212489784E+03  0.66318343134E+02  0.52640228710E+03  0.10100000352E+00 0. -1.
       -3    1    3    3    0  502  0.43943916194E+03  0.28212489784E+03 -0.24357813880E+03  0.57622179318E+03  0.10100000352E+00 0.  1.
</event>
<event>
 5   0  0.2488472E-03  0.1085600E+04  0.7818609E-02  0.9219342E-01
       -2   -1    0    0    0  501  0.00000000000E+00  0.00000000000E+00  0.15956294749E+03  0.15956294751E+03  0.25500000920E-02 0. -1.
        2   -1    0    0  501    0  0.00000000000E+00  0.00000000000E+00 -0.18464931498E+04  0.18464931498E+04  0.25500000920E-02 0.  1.
    10030    2    1    2    0    0  0.00000000000E+00  0.00000000000E+00 -0.16869302023E+04  0.20060560973E+04  0.10856000912E+04 0.  0.
        2    1    3    3  502    0  0.20409333368E+03  0.99010282001E+02 -0.17547044279E+04  0.17693062917E+04  0.25500000920E-02 0.  1.
       -2    1    3    3    0  502 -0.20409333368E+03 -0.99010282001E+02  0.67774225530E+02  0.23674980559E+03  0.25500000920E-02 0. -1.
</event>
<event>
 5   0  0.2483036E-03  0.1110409E+04  0.7818609E-02  0.9195105E-01
       -2   -1    0    0    0  501  0.00000000000E+00  0.00000000000E+00  0.56523257893E+03  0.56523257894E+03  0.25500000920E-02 0. -1.
        2   -1    0    0  501    0  0.00000000000E+00  0.00000000000E+00 -0.54535469655E+03  0.54535469655E+03  0.25500000920E-02 0.  1.
    10030    2    1    2    0    0  0.00000000000E+00  0.00000000000E+00  0.19877882383E+02  0.11105872755E+04  0.11104093688E+04 0.  0.
        3    1    3    3  502    0 -0.22458124490E+03 -0.41679457150E+03  0.29998157764E+03  0.56048497528E+03  0.10100000352E+00 0. -1.
       -3    1    3    3    0  502  0.22458124490E+03  0.41679457150E+03 -0.28010369526E+03  0.55010230021E+03  0.10100000352E+00 0.  1.
</event>
<event>
 5   0  0.9631750E-04  0.1099481E+04  0.7818609E-02  0.9205697E-01
        3   -1    0    0  501    0  0.00000000000E+00  0.00000000000E+00  0.32187886148E+03  0.32187887733E+03  0.10100000352E+00 0.  1.
       -3   -1    0    0    0  501  0.00000000000E+00  0.00000000000E+00 -0.93890863356E+03  0.93890863899E+03  0.10100000352E+00 0. -1.
    10030    2    1    2    0    0  0.00000000000E+00  0.00000000000E+00 -0.61702977207E+03  0.12607875163E+04  0.10994814331E+04 0.  0.
        4    1    3    3  502    0  0.31578991397E+02 -0.50884492404E+03 -0.72691162626E+02  0.51498156029E+03  0.12699999809E+01 0.  1.
       -4    1    3    3    0  502 -0.31578991397E+02  0.50884492404E+03 -0.54433860945E+03  0.74580595603E+03  0.12699999809E+01 0. -1.
</event>
<event>
 5   0  0.1468556E-03  0.9765076E+03  0.7818609E-02  0.9334693E-01
       -1   -1    0    0    0  501  0.00000000000E+00  0.00000000000E+00  0.30706530154E+03  0.30706530158E+03  0.50400001928E-02 0.  1.
        1   -1    0    0  501    0  0.00000000000E+00  0.00000000000E+00 -0.77635525591E+03  0.77635525593E+03  0.50400001928E-02 0. -1.
    10030    2    1    2    0    0  0.00000000000E+00  0.00000000000E+00 -0.46928995437E+03  0.10834205575E+04  0.97650757455E+03 0.  0.
        5    1    3    3  502    0 -0.23095460118E+03 -0.12642461157E+02 -0.71168460153E+03  0.74834278355E+03  0.46999998093E+01 0. -1.
       -5    1    3    3    0  502  0.23095460118E+03  0.12642461157E+02  0.24239464716E+03  0.33507777396E+03  0.46999998093E+01 0.  1.
</event>
<event>
 5   0  0.2438115E-03  0.1092866E+04  0.7818609E-02  0.9212173E-01
       -2   -1    0    0    0  501  0.00000000000E+00  0.00000000000E+00  0.80890812589E+03  0.80890812589E+03  0.25500000920E-02 0. -1.
        2   -1    0    0  501    0  0.00000000000E+00  0.00000000000E+00 -0.36912593196E+03  0.36912593197E+03  0.25500000920E-02 0.  1.
    10030    2    1    2    0    0  0.00000000000E+00  0.00000000000E+00  0.43978219393E+03  0.11780340579E+04  0.10928658945E+04 0.  0.
        4    1    3    3  502    0  0.44882198528E+03 -0.13703893299E+03 -0.81865118751E+02  0.47636577773E+03  0.12699999809E+01 0.  1.
       -4    1    3    3    0  502 -0.44882198528E+03  0.13703893299E+03  0.52164731268E+03  0.70166828013E+03  0.12699999809E+01 0. -1.
</event>
<event>
 5   0  0.2438115E-03  0.1095486E+04  0.7818609E-02  0.9209603E-01
        2   -1    0    0  501    0  0.00000000000E+00  0.00000000000E+00  0.24960753588E+04  0.24960753588E+04  0.25500000920E-02 0. -1.
       -2   -1    0    0    0  501  0.00000000000E+00  0.00000000000E+00 -0.12019761369E+03  0.12019761372E+03  0.25500000920E-02 0.  1.
    10030    2    1    2    0    0  0.00000000000E+00  0.00000000000E+00  0.23758777451E+04  0.26162729725E+04  0.10954858315E+04 0.  0.
        4    1    3    3  502    0 -0.74083790036E+02 -0.30132526403E+03  0.10996185485E+03  0.32920896876E+03  0.12699999809E+01 0.  1.
       -4    1    3    3    0  502  0.74083790036E+02  0.30132526403E+03  0.22659158903E+04  0.22870640038E+04  0.12699999809E+01 0. -1.
</event>
<event>
 5   0  0.2488472E-03  0.1101591E+04  0.7818609E-02  0.9203643E-01
       -2   -1    0    0    0  501  0.00000000000E+00  0.00000000000E+00  0.20422817567E+03  0.20422817568E+03  0.25500000920E-02 0. -1.
        2   -1    0    0  501    0  0.00000000000E+00  0.00000000000E+00 -0.14854742228E+04  0.14854742228E+04  0.25500000920E-02 0.  1.
    10030    2    1    2    0    0  0.00000000000E+00  0.00000000000E+00 -0.12812460471E+04  0.16897023985E+04  0.11015910140E+04 0.  0.
        2    1    3    3  502    0  0.95568641740E+02  0.23333404922E+03  0.11050195354E+03  0.27529770350E+03  0.25500000920E-02 0. -1.
       -2    1    3    3    0  502 -0.95568641740E+02 -0.23333404922E+03 -0.13917480007E+04  0.14144046950E+04  0.25500000920E-02 0.  1.
</event>
<event>
 5   0  0.1468556E-03  0.1102192E+04  0.7818609E-02  0.9203058E-01
       -1   -1    0    0    0  501  0.00000000000E+00  0.00000000000E+00  0.20160986628E+03  0.20160986634E+03  0.50400001928E-02 0.  1.
        1   -1    0    0  501    0  0.00000000000E+00  0.00000000000E+00 -0.15064085118E+04  0.15064085119E+04  0.50400001928E-02 0. -1.
    10030    2    1    2    0    0  0.00000000000E+00  0.00000000000E+00 -0.13047986456E+04  0.17080183782E+04  0.11021920317E+04 0.  0.
        5    1    3    3  502    0  0.17857666543E+03  0.11536117260E+03  0.13547064106E+03  0.25213530131E+03  0.46999998093E+01 0.  1.
       -5    1    3    3    0  502 -0.17857666543E+03 -0.11536117260E+03 -0.14402692866E+04  0.14558830769E+04  0.46999998093E+01 0. -1.
</event>
<event>
 5   0  0.2483036E-03  0.1099152E+04  0.7818609E-02  0.9206019E-01
       -2   -1    0    0    0  501  0.00000000000E+00  0.00000000000E+00  0.50568603941E+03  0.50568603942E+03  0.25500000920E-02 0. -1.
        2   -1    0    0  501    0  0.00000000000E+00  0.00000000000E+00 -0.59727491976E+03  0.59727491976E+03  0.25500000920E-02 0.  1.
    10030    2    1    2    0    0  0.00000000000E+00  0.00000000000E+00 -0.91588880341E+02  0.11029609592E+04  0.10991516522E+04 0.  0.
        3    1    3    3  502    0  0.82270852580E+02  0.49949830558E+03  0.16887810550E+03  0.53365426559E+03  0.10100000352E+00 0. -1.
       -3    1    3    3    0  502 -0.82270852580E+02 -0.49949830558E+03 -0.26046698584E+03  0.56930669360E+03  0.10100000352E+00 0.  1.
</event>
<event>
 5   0  0.1468556E-03  0.1100536E+04  0.7818609E-02  0.9204670E-01
       -1   -1    0    0    0  501  0.00000000000E+00  0.00000000000E+00  0.23361982703E+03  0.23361982708E+03  0.50400001928E-02 0.  1.
        1   -1    0    0  501    0  0.00000000000E+00  0.00000000000E+00 -0.12961005592E+04  0.12961005592E+04  0.50400001928E-02 0. -1.
    10030    2    1    2    0    0  0.00000000000E+00  0.00000000000E+00 -0.10624807321E+04  0.15297203863E+04  0.11005358486E+04 0.  0.
        5    1    3    3  502    0  0.26238660752E+02 -0.53338251894E+03 -0.71557531776E+03  0.89289165312E+03  0.46999998093E+01 0. -1.
       -5    1    3    3    0  502 -0.26238660752E+02  0.53338251894E+03 -0.34690541438E+03  0.63682873314E+03  0.46999998093E+01 0.  1.
</event>
<event>
 5   0  0.1509004E-03  0.1105134E+04  0.7818609E-02  0.9200203E-01
        1   -1    0    0  501    0  0.00000000000E+00  0.00000000000E+00  0.25838414506E+03  0.25838414511E+03  0.50400001928E-02 0.  1.
       -1   -1    0    0    0  501  0.00000000000E+00  0.00000000000E+00 -0.11816906788E+04  0.11816906789E+04  0.50400001928E-02 0. -1.
    10030    2    1    2    0    0  0.00000000000E+00  0.00000000000E+00 -0.92330653378E+03  0.14400748240E+04  0.11051337219E+04 0.  0.
        3    1    3    3  502    0 -0.19494892941E+03 -0.42046626187E+03 -0.69573822457E+02  0.46865497908E+03  0.10100000352E+00 0.  1.
       -3    1    3    3    0  502  0.19494892941E+03  0.42046626187E+03 -0.85373271133E+03  0.97141984488E+03  0.10100000352E+00 0. -1.
</event>
<event>
 5   0  0.9631750E-04  0.1099744E+04  0.7818609E-02  0.9205442E-01
        3   -1    0    0  501    0  0.00000000000E+00  0.00000000000E+00  0.10630817457E+04  0.10630817505E+04  0.10100000352E+00 0.  1.
       -3   -1    0    0    0  501  0.00000000000E+00  0.00000000000E+00 -0.28441740910E+03  0.28441742704E+03  0.10100000352E+00 0. -1.
    10030    2    1    2    0    0  0.00000000000E+00  0.00000000000E+00  0.77866433660E+03  0.13474991775E+04  0.10997435539E+04 0.  0.
        2    1    3    3  502    0 -0.25152863071E+02  0.35252183914E+03  0.90548793630E+03  0.97201477169E+03  0.25500000920E-02 0.  1.
       -2    1    3    3    0  502  0.25152863071E+02 -0.35252183914E+03 -0.12682359970E+03  0.37548440585E+03  0.25500000920E-02 0. -1.
</event>
<event>
 5   0  0.2438115E-03  0.1098731E+04  0.7818609E-02  0.9206429E-01
       -2   -1    0    0    0  501  0.00000000000E+00  0.00000000000E+00  0.63784135326E+03  0.63784135326E+03  0.25500000920E-02 0.  1.
        2   -1    0    0  501    0  0.00000000000E+00  0.00000000000E+00 -0.47316268321E+03  0.47316268322E+03  0.25500000920E-02 0. -1.
    10030    2    1    2    0    0  0.00000000000E+00  0.00000000000E+00  0.16467867005E+03  0.11110040365E+04  0.10987314980E+04 0.  0.
        4    1    3    3  502    0 -0.31367417394E+03 -0.41368682963E+03  0.26399234831E+03  0.58242755195E+03  0.12699999809E+01 0.  1.
       -4    1    3    3    0  502  0.31367417394E+03  0.41368682963E+03 -0.99313678262E+02  0.52857648453E+03  0.12699999809E+01 0. -1.
</event>
<event>
 5   0  0.1479573E-03  0.1102826E+04  0.7818609E-02  0.9202441E-01
       -1   -1    0    0    0  501  0.00000000000E+00  0.00000000000E+00  0.45640884881E+03  0.45640884884E+03  0.50400001928E-02 0. -1.
        1   -1    0    0  501    0  0.00000000000E+00  0.00000000000E+00 -0.66619337901E+03  0.66619337903E+03  0.50400001928E-02 0.  1.
    10030    2    1    2    0    0  0.00000000000E+00  0.00000000000E+00 -0.20978453020E+03  0.11226022279E+04  0.11028264655E+04 0.  0.
        4    1    3    3  502    0  0.54060398038E+03  0.39487083192E+01 -0.21540556525E+03  0.58195311353E+03  0.12699999809E+01 0.  1.
       -4    1    3    3    0  502 -0.54060398038E+03 -0.39487083192E+01  0.56210350478E+01  0.54064911434E+03  0.12699999809E+01 0. -1.
</event>
<event>
 5   0  0.1509004E-03  0.1090424E+04  0.7818609E-02  0.9214576E-01
       -1   -1    0    0    0  501  0.00000000000E+00  0.00000000000E+00  0.29004426203E+03  0.29004426208E+03  0.50400001928E-02 0. -1.
        1   -1    0    0  501    0  0.00000000000E+00  0.00000000000E+00 -0.10248648810E+04  0.10248648810E+04  0.50400001928E-02 0.  1.
    10030    2    1    2    0    0  0.00000000000E+00  0.00000000000E+00 -0.73482061892E+03  0.13149091430E+04  0.10904240975E+04 0.  0.
        3    1    3    3  502    0 -0.39362907583E+03 -0.24297955326E+03 -0.19431277359E+02  0.46299081782E+03  0.10100000352E+00 0. -1.
       -3    1    3    3    0  502  0.39362907583E+03  0.24297955326E+03 -0.71538934156E+03  0.85191832523E+03  0.10100000352E+00 0.  1.
</event>
<event>
 5   0  0.2488472E-03  0.1019475E+04  0.7818609E-02  0.9287439E-01
       -2   -1    0    0    0  501  0.00000000000E+00  0.00000000000E+00  0.38849238593E+03  0.38849238594E+03  0.25500000920E-02 0.  1.
        2   -1    0    0  501    0  0.00000000000E+00  0.00000000000E+00 -0.66882275103E+03  0.66882275103E+03  0.25500000920E-02 0. -1.
    10030    2    1    2    0    0  0.00000000000E+00  0.00000000000E+00 -0.28033036510E+03  0.10573151370E+04  0.10194754461E+04 0.  0.
        2    1    3    3  502    0 -0.14881553100E+03 -0.18652092921E+03 -0.60732435352E+03  0.65251742481E+03  0.25500000920E-02 0. -1.
       -2    1    3    3    0  502  0.14881553100E+03  0.18652092921E+03  0.32699398842E+03  0.40479771216E+03  0.25500000920E-02 0.  1.
</event>
<event>
 5   0  0.1509004E-03  0.1114477E+04  0.7818609E-02  0.9191195E-01
       -1   -1    0    0    0  501  0.00000000000E+00  0.00000000000E+00  0.63102269637E+03  0.63102269639E+03  0.50400001928E-02 0.  1.
        1   -1    0    0  501    0  0.00000000000E+00  0.00000000000E+00 -0.49208185469E+03  0.49208185472E+03  0.50400001928E-02 0. -1.
    10030    2    1    2    0    0  0.00000000000E+00  0.00000000000E+00  0.13894084168E+03  0.11231045511E+04  0.11144771309E+04 0.  0.
        3    1    3    3  502    0 -0.14112185897E+03 -0.33405083121E+03  0.49584080556E+03  0.61429915478E+03  0.10100000352E+00 0.  1.
       -3    1    3    3    0  502  0.14112185897E+03  0.33405083121E+03 -0.35689996388E+03  0.50880539632E+03  0.10100000352E+00 0. -1.
</event>
<event>
 5   0  0.2438115E-03  0.1101248E+04  0.7818609E-02  0.9203977E-01
       -2   -1    0    0    0  501  0.00000000000E+00  0.00000000000E+00  0.25945407903E+03  0.25945407904E+03  0.25500000920E-02 0. -1.
        2   -1    0    0  501    0  0.00000000000E+00  0.00000000000E+00 -0.11685561679E+04  0.11685561679E+04  0.25500000920E-02 0.  1.
    10030    2    1    2    0    0  0.00000000000E+00  0.00000000000E+00 -0.90910208887E+03  0.14280102470E+04  0.11012477729E+04 0.  0.
        4    1    3    3  502    0  0.40688214350E+03  0.35669054383E+03 -0.32228667160E+03  0.62980277417E+03  0.12699999809E+01 0. -1.
       -4    1    3    3    0  502 -0.40688214350E+03 -0.35669054383E+03 -0.58681541727E+03  0.79820747278E+03  0.12699999809E+01 0.  1.
</event>
<event>
 5   0  0.2467448E-03  0.1093623E+04  0.7818609E-02  0.9211430E-01
        2   -1    0    0  501    0  0.00000000000E+00  0.00000000000E+00  0.13109564213E+04  0.13109564213E+04  0.25500000920E-02 0.  1.
       -2   -1    0    0    0  501  0.00000000000E+00  0.00000000000E+00 -0.22807986794E+03  0.22807986795E+03  0.25500000920E-02 0. -1.
    10030    2    1    2    0    0  0.00000000000E+00  0.00000000000E+00  0.10828765534E+04  0.15390362893E+04  0.10936229103E+04 0.  0.
        1    1    3    3  502    0  0.33380206576E+03 -0.30083346118E+03  0.97991047990E+03  0.10780302125E+04  0.50400001928E-02 0.  1.
       -1    1    3    3    0  502 -0.33380206576E+03  0.30083346118E+03  0.10296607346E+03  0.46100607673E+03  0.50400001928E-02 0. -1.
</event>
<event>
 5   0  0.2467448E-03  0.1123062E+04  0.7818609E-02  0.9183001E-01
       -2   -1    0    0    0  501  0.00000000000E+00  0.00000000000E+00  0.83994183904E+03  0.83994183905E+03  0.25500000920E-02 0. -1.
        2   -1    0    0  501    0  0.00000000000E+00  0.00000000000E+00 -0.37540339822E+03  0.37540339823E+03  0.25500000920E-02 0.  1.
    10030    2    1    2    0    0  0.00000000000E+00  0.00000000000E+00  0.46453844082E+03  0.12153452373E+04  0.11230619229E+04 0.  0.
        1    1    3    3  502    0 -0.18907132631E+03 -0.29239287161E+03  0.70900887319E+03  0.78989565139E+03  0.50400001928E-02 0. -1.
       -1    1    3    3    0  502  0.18907132631E+03  0.29239287161E+03 -0.24447043237E+03  0.42544958588E+03  0.50400001928E-02 0.  1.
</event>
<event>
 5   0  0.2483036E-03  0.1097360E+04  0.7818609E-02  0.9207769E-01
       -2   -1    0    0    0  501  0.00000000000E+00  0.00000000000E+00  0.38506567502E+03  0.38506567502E+03  0.25500000920E-02 0. -1.
        2   -1    0    0  501    0  0.00000000000E+00  0.00000000000E+00 -0.78181394330E+03  0.78181394330E+03  0.25500000920E-02 0.  1.
    10030    2    1    2    0    0  0.00000000000E+00  0.00000000000E+00 -0.39674826828E+03  0.11668796183E+04  0.10973599479E+04 0.  0.
        3    1    3    3  502    0 -0.14937630597E+03 -0.36323386948E+03 -0.60578855346E+03  0.72196392322E+03  0.10100000352E+00 0.  1.
       -3    1    3    3    0  502  0.14937630597E+03  0.36323386948E+03  0.20904028518E+03  0.44491569511E+03  0.10100000352E+00 0. -1.
</event>
<event>
 5   0  0.2392585E-03  0.1092268E+04  0.7818609E-02  0.9212761E-01
       -2   -1    0    0    0  501  0.00000000000E+00  0.00000000000E+00  0.27196421341E+03  0.27196421342E+03  0.25500000920E-02 0.  1.
        2   -1    0    0  501    0  0.00000000000E+00  0.00000000000E+00 -0.10966964357E+04  0.10966964357E+04  0.25500000920E-02 0. -1.
    10030    2    1    2    0    0  0.00000000000E+00  0.00000000000E+00 -0.82473222229E+03  0.13686606491E+04  0.10922677025E+04 0.  0.
        5    1    3    3  502    0 -0.21434781298E+03  0.12410555631E+03 -0.10222437761E+04  0.10518324971E+04  0.46999998093E+01 0. -1.
       -5    1    3    3    0  502  0.21434781298E+03 -0.12410555631E+03  0.19751155384E+03  0.31682815206E+03  0.46999998093E+01 0.  1.
</event>
<event>
 5   0  0.1509004E-03  0.1097322E+04  0.7818609E-02  0.9207806E-01
        1   -1    0    0  501    0  0.00000000000E+00  0.00000000000E+00  0.10552661828E+04  0.10552661828E+04  0.50400001928E-02 0. -1.
       -1   -1    0    0    0  501  0.00000000000E+00  0.00000000000E+00 -0.28526355929E+03  0.28526355934E+03  0.50400001928E-02 0.  1.
    10030    2    1    2    0    0  0.00000000000E+00  0.00000000000E+00  0.77000262346E+03  0.13405297421E+04  0.10973221721E+04 0.  0.
        3    1    3    3  502    0 -0.26892561300E+03 -0.16779568704E+03  0.93208837714E+03  0.98451263624E+03  0.10100000352E+00 0. -1.
       -3    1    3    3    0  502  0.26892561300E+03  0.16779568704E+03 -0.16208575368E+03  0.35601710586E+03  0.10100000352E+00 0.  1.
</event>
<event>
 5   0  0.1479573E-03  0.1117176E+04  0.7818609E-02  0.9188611E-01
        1   -1    0    0  501    0  0.00000000000E+00  0.00000000000E+00  0.87024414790E+03  0.87024414791E+03  0.50400001928E-02 0. -1.
       -1   -1    0    0    0  501  0.00000000000E+00  0.00000000000E+00 -0.35854388870E+03  0.35854388874E+03  0.50400001928E-02 0.  1.
    10030    2    1    2    0    0  0.00000000000E+00  0.00000000000E+00  0.51170025920E+03  0.12287880366E+04  0.11171762993E+04 0.  0.
        4    1    3    3  502    0 -0.52724673897E+03  0.18410726012E+03  0.26860623543E+03  0.61970600254E+03  0.12699999809E+01 0. -1.
       -4    1    3    3    0  502  0.52724673897E+03 -0.18410726012E+03  0.24309402377E+03  0.60908203410E+03  0.12699999809E+01 0.  1.
</event>
<event>
 5   0  0.2438115E-03  0.1095593E+04  0.7818609E-02  0.9209498E-01
       -2   -1    0    0    0  501  0.00000000000E+00  0.00000000000E+00  0.23600831337E+03  0.23600831339E+03  0.25500000920E-02 0. -1.
        2   -1    0    0  501    0  0.00000000000E+00  0.00000000000E+00 -0.12714839373E+04  0.12714839373E+04  0.25500000920E-02 0.  1.
    10030    2    1    2    0    0  0.00000000000E+00  0.00000000000E+00 -0.10354756239E+04  0.15074922507E+04  0.10955925877E+04 0.  0.
        4    1    3    3  502    0  0.29134051713E+03  0.45855459102E+02 -0.11529148945E+04  0.11900404980E+04  0.12699999809E+01 0.  1.
       -4    1    3    3    0  502 -0.29134051713E+03 -0.45855459102E+02  0.11743927063E+03  0.31745175262E+03  0.12699999809E+01 0. -1.
</event>
<event>
 5   0  0.1509004E-03  0.1103277E+04  0.7818609E-02  0.9202004E-01
        1   -1    0    0  501    0  0.00000000000E+00  0.00000000000E+00  0.61383209442E+03  0.61383209444E+03  0.50400001928E-02 0. -1.
       -1   -1    0    0    0  501  0.00000000000E+00  0.00000000000E+00 -0.49574641880E+03  0.49574641883E+03  0.50400001928E-02 0.  1.
    10030    2    1    2    0    0  0.00000000000E+00  0.00000000000E+00  0.11808567562E+03  0.11095785133E+04  0.11032770506E+04 0.  0.
        3    1    3    3  502    0 -0.46323676589E+02 -0.27160151641E+03  0.53967595708E+03  0.60594010891E+03  0.10100000352E+00 0. -1.
       -3    1    3    3    0  502  0.46323676589E+02  0.27160151641E+03 -0.42159028146E+03  0.50363840437E+03  0.10100000352E+00 0.  1.
</event>
<event>
 5   0  0.1415400E-03  0.1104430E+04  0.7818609E-02  0.9200885E-01
        1   -1    0    0  501    0  0.00000000000E+00  0.00000000000E+00  0.28892674089E+03  0.28892674093E+03  0.50400001928E-02 0. -1.
       -1   -1    0    0    0  501  0.00000000000E+00  0.00000000000E+00 -0.10554281757E+04  0.10554281757E+04  0.50400001928E-02 0.  1.
    10030    2    1    2    0    0  0.00000000000E+00  0.00000000000E+00 -0.76650143481E+03  0.13443549166E+04  0.11044300305E+04 0.  0.
        2    1    3    3  502    0 -0.42191237054E+02  0.23095166461E+02  0.28637209513E+03  0.29038330543E+03  0.25500000920E-02 0. -1.
       -2    1    3    3    0  502  0.42191237054E+02 -0.23095166461E+02 -0.10528735299E+04  0.10539716112E+04  0.25500000920E-02 0.  1.
</event>
<event>
 5   0  0.1509004E-03  0.1094200E+04  0.7818609E-02  0.9210863E-01
       -1   -1    0    0    0  501  0.00000000000E+00  0.00000000000E+00  0.23754670580E+03  0.23754670585E+03  0.50400001928E-02 0.  1.
        1   -1    0    0  501    0  0.00000000000E+00  0.00000000000E+00 -0.12600404498E+04  0.12600404498E+04  0.50400001928E-02 0. -1.
    10030    2    1    2    0    0  0.00000000000E+00  0.00000000000E+00 -0.10224937440E+04  0.14975871556E+04  0.10942000879E+04 0.  0.
        3    1    3    3  502    0  0.50242589308E+03 -0.11930282627E+03 -0.75856745804E+03  0.91765436902E+03  0.10100000352E+00 0. -1.
       -3    1    3    3    0  502 -0.50242589308E+03  0.11930282627E+03 -0.26392628594E+03  0.57993278662E+03  0.10100000352E+00 0.  1.
</event>
<event>
 5   0  0.1509004E-03  0.1093197E+04  0.7818609E-02  0.9211848E-01
       -1   -1    0    0    0  501  0.00000000000E+00  0.00000000000E+00  0.19090672493E+03  0.19090672500E+03  0.50400001928E-02 0. -1.
        1   -1    0    0  501    0  0.00000000000E+00  0.00000000000E+00 -0.15650033891E+04  0.15650033892E+04  0.50400001928E-02 0.  1.
    10030    2    1    2    0    0  0.00000000000E+00  0.00000000000E+00 -0.13740966642E+04  0.17559101142E+04  0.10931965452E+04 0.  0.
        3    1    3    3  502    0 -0.33398363912E+03  0.34097087744E+03 -0.25916891711E+03  0.54311577795E+03  0.10100000352E+00 0. -1.
       -3    1    3    3    0  502  0.33398363912E+03 -0.34097087744E+03 -0.11149277471E+04  0.12127943362E+04  0.10100000352E+00 0.  1.
</event>
<event>
 5   0  0.1468556E-03  0.1098725E+04  0.7818609E-02  0.9206436E-01
        1   -1    0    0  501    0  0.00000000000E+00  0.00000000000E+00  0.18763772708E+04  0.18763772709E+04  0.50400001928E-02 0. -1.
       -1   -1    0    0    0  501  0.00000000000E+00  0.00000000000E+00 -0.16084135278E+03  0.16084135286E+03  0.50400001928E-02 0.  1.
    10030    2    1    2    0    0  0.00000000000E+00  0.00000000000E+00  0.17155359181E+04  0.20372186237E+04  0.10987248221E+04 0.  0.
        5    1    3    3  502    0 -0.78324246257E+02 -0.15679382191E+03  0.18231068413E+04  0.18315183960E+04  0.46999998093E+01 0. -1.
       -5    1    3    3    0  502  0.78324246257E+02  0.15679382191E+03 -0.10757092325E+03  0.20570022768E+03  0.46999998093E+01 0.  1.
</event>
<event>
 5   0  0.1415400E-03  0.1114438E+04  0.7818609E-02  0.9191232E-01
       -1   -1    0    0    0  501  0.00000000000E+00  0.00000000000E+00  0.45701476488E+03  0.45701476491E+03  0.50400001928E-02 0.  1.
        1   -1    0    0  501    0  0.00000000000E+00  0.00000000000E+00 -0.67939430920E+03  0.67939430922E+03  0.50400001928E-02 0. -1.
    10030    2    1    2    0    0  0.00000000000E+00  0.00000000000E+00 -0.22237954431E+03  0.11364090741E+04  0.11144383886E+04 0.  0.
        2    1    3    3  502    0  0.10273205840E+03  0.37887290123E+03  0.29207437889E+03  0.48929131806E+03  0.25500000920E-02 0.  1.
       -2    1    3    3    0  502 -0.10273205840E+03 -0.37887290123E+03 -0.51445392321E+03  0.64711775607E+03  0.25500000920E-02 0. -1.
</event>
<event>
 5   0  0.9631750E-04  0.1102524E+04  0.7818609E-02  0.9202736E-01
       -3   -1    0    0    0  501  0.00000000000E+00  0.00000000000E+00  0.41667898594E+03  0.41667899818E+03  0.10100000352E+00 0. -1.
        3   -1    0    0  501    0  0.00000000000E+00  0.00000000000E+00 -0.72931328816E+03  0.72931329515E+03  0.10100000352E+00 0.  1.
    10030    2    1    2    0    0  0.00000000000E+00  0.00000000000E+00 -0.31263430221E+03  0.11459922933E+04  0.11025235278E+04 0.  0.
        1    1    3    3  502    0  0.23345076802E+03 -0.47688401269E+03 -0.31039057493E+03  0.61502839909E+03  0.50400001928E-02 0.  1.
       -1    1    3    3    0  502 -0.23345076802E+03  0.47688401269E+03 -0.22437272807E+01  0.53096389424E+03  0.50400001928E-02 0. -1.
</event>
<event>
 5   0  0.9631750E-04  0.1073887E+04  0.7818609E-02  0.9231023E-01
        4   -1    0    0  501    0  0.00000000000E+00  0.00000000000E+00  0.57858271067E+03  0.57858410451E+03  0.12699999809E+01 0. -1.
       -4   -1    0    0    0  501  0.00000000000E+00  0.00000000000E+00 -0.49829849436E+03  0.49830011276E+03  0.12699999809E+01 0.  1.
    10030    2    1    2    0    0  0.00000000000E+00  0.00000000000E+00  0.80284216319E+02  0.10768842173E+04  0.10738873600E+04 0.  0.
        1    1    3    3  502    0  0.86655189684E+02 -0.70493976058E+02 -0.48651872947E+03  0.49917832156E+03  0.50400001928E-02 0.  1.
       -1    1    3    3    0  502 -0.86655189684E+02  0.70493976058E+02  0.56680294579E+03  0.57770589571E+03  0.50400001928E-02 0. -1.
</event>
<event>
 5   0  0.2392585E-03  0.1106677E+04  0.7818609E-02  0.9198708E-01
        2   -1    0    0  501    0  0.00000000000E+00  0.00000000000E+00  0.19342487359E+04  0.19342487359E+04  0.25500000920E-02 0.  1.
       -2   -1    0    0    0  501  0.00000000000E+00  0.00000000000E+00 -0.15829595142E+03  0.15829595144E+03  0.25500000920E-02 0. -1.
    10030    2    1    2    0    0  0.00000000000E+00  0.00000000000E+00  0.17759527845E+04  0.20925446873E+04  0.11066774489E+04 0.  0.
        5    1    3    3  502    0 -0.36238438928E+03  0.34341363132E+03  0.13390358598E+04  0.14290886927E+04  0.46999998093E+01 0.  1.
       -5    1    3    3    0  502  0.36238438928E+03 -0.34341363132E+03  0.43691692471E+03  0.66345599467E+03  0.46999998093E+01 0. -1.
</event>
<event>
 5   0  0.1480937E-03  0.1107364E+04  0.7818609E-02  0.9198044E-01
        1   -1    0    0  501    0  0.00000000000E+00  0.00000000000E+00  0.12662391045E+04  0.12662391045E+04  0.50400001928E-02 0. -1.
       -1   -1    0    0    0  501  0.00000000000E+00  0.00000000000E+00 -0.24210583053E+03  0.24210583059E+03  0.50400001928E-02 0.  1.
    10030    2    1    2    0    0  0.00000000000E+00  0.00000000000E+00  0.10241332740E+04  0.15083449351E+04  0.11073642041E+04 0.  0.
        1    1    3    3  502    0  0.41757767175E+03 -0.89697256072E+02  0.32135879256E+02  0.42830996306E+03  0.50400001928E-02 0.  1.
       -1    1    3    3    0  502 -0.41757767175E+03  0.89697256072E+02  0.99199739473E+03  0.10800349721E+04  0.50400001928E-02 0. -1.
</event>
<event>
 5   0  0.2392585E-03  0.1102107E+04  0.7818609E-02  0.9203140E-01
       -2   -1    0    0    0  501  0.00000000000E+00  0.00000000000E+00  0.27573722022E+03  0.27573722023E+03  0.25500000920E-02 0. -1.
        2   -1    0    0  501    0  0.00000000000E+00  0.00000000000E+00 -0.11012665472E+04  0.11012665472E+04  0.25500000920E-02 0.  1.
    10030    2    1    2    0    0  0.00000000000E+00  0.00000000000E+00 -0.82552932703E+03  0.13770037675E+04  0.11021073931E+04 0.  0.
        5    1    3    3  502    0  0.26188830658E+03 -0.48447407186E+03 -0.43571727158E+03  0.70226223178E+03  0.46999998093E+01 0.  1.
       -5    1    3    3    0  502 -0.26188830658E+03  0.48447407186E+03 -0.38981205545E+03  0.67474153570E+03  0.46999998093E+01 0. -1.
</event>
<event>
 5   0  0.1509004E-03  0.1100258E+04  0.7818609E-02  0.9204940E-01
       -1   -1    0    0    0  501  0.00000000000E+00  0.00000000000E+00  0.67538686114E+03  0.67538686116E+03  0.50400001928E-02 0.  1.
        1   -1    0    0  501    0  0.00000000000E+00  0.00000000000E+00 -0.44810155957E+03  0.44810155960E+03  0.50400001928E-02 0. -1.
    10030    2    1    2    0    0  0.00000000000E+00  0.00000000000E+00  0.22728530157E+03  0.11234884208E+04  0.11002579803E+04 0.  0.
        3    1    3    3  502    0  0.16137606667E+03 -0.52508028548E+03  0.14411146535E+03  0.56790814903E+03  0.10100000352E+00 0. -1.
       -3    1    3    3    0  502 -0.16137606667E+03  0.52508028548E+03  0.83173836221E+02  0.55558027172E+03  0.10100000352E+00 0.  1.
</event>
<event>
 5   0  0.2438115E-03  0.1099408E+04  0.7818609E-02  0.9205769E-01
       -2   -1    0    0    0  501  0.00000000000E+00  0.00000000000E+00  0.64516162679E+03  0.64516162679E+03  0.25500000920E-02 0. -1.
        2   -1    0    0  501    0  0.00000000000E+00  0.00000000000E+00 -0.46836984740E+03  0.46836984740E+03  0.25500000920E-02 0.  1.
    10030    2    1    2    0    0  0.00000000000E+00  0.00000000000E+00  0.17679177939E+03  0.11135314742E+04  0.10994075726E+04 0.  0.
        4    1    3    3  502    0  0.72495895516E+02 -0.51764153000E+03  0.26077108719E+03  0.58413318794E+03  0.12699999809E+01 0. -1.
       -4    1    3    3    0  502 -0.72495895516E+02  0.51764153000E+03 -0.83979307797E+02  0.52939828625E+03  0.12699999809E+01 0.  1.
</event>
<event>
 5   0  0.1479573E-03  0.1102127E+04  0.7818609E-02  0.9203122E-01
        1   -1    0    0  501    0  0.00000000000E+00  0.00000000000E+00  0.40136786488E+03  0.40136786491E+03  0.50400001928E-02 0. -1.
       -1   -1    0    0    0  501  0.00000000000E+00  0.00000000000E+00 -0.75658951964E+03  0.75658951966E+03  0.50400001928E-02 0.  1.
    10030    2    1    2    0    0  0.00000000000E+00  0.00000000000E+00 -0.35522165477E+03  0.11579573846E+04  0.11021265265E+04 0.  0.
        4    1    3    3  502    0  0.51062559668E+03  0.17081612375E+03 -0.54399311046E+02  0.54118162021E+03  0.12699999809E+01 0. -1.
       -4    1    3    3    0  502 -0.51062559668E+03 -0.17081612375E+03 -0.30082234372E+03  0.61677576436E+03  0.12699999809E+01 0.  1.
</event>
<event>
 5   0  0.2438115E-03  0.1097426E+04  0.7818609E-02  0.9207704E-01
       -2   -1    0    0    0  501  0.00000000000E+00  0.00000000000E+00  0.19900873686E+03  0.19900873688E+03  0.25500000920E-02 0.  1.
        2   -1    0    0  501    0  0.00000000000E+00  0.00000000000E+00 -0.15129283721E+04  0.15129283721E+04  0.25500000920E-02 0. -1.
    10030    2    1    2    0    0  0.00000000000E+00  0.00000000000E+00 -0.13139196353E+04  0.17119371090E+04  0.10974260145E+04 0.  0.
        4    1    3    3  502    0 -0.26994690610E+03 -0.15887132274E+03  0.45839946708E+02  0.31656649051E+03  0.12699999809E+01 0.  1.
       -4    1    3    3    0  502  0.26994690610E+03  0.15887132274E+03 -0.13597595820E+04  0.13953706185E+04  0.12699999809E+01 0. -1.
</event>
<event>
 5   0  0.2488472E-03  0.1084928E+04  0.7818609E-02  0.9220007E-01
       -2   -1    0    0    0  501  0.00000000000E+00  0.00000000000E+00  0.15741770752E+03  0.15741770754E+03  0.25500000920E-02 0. -1.
        2   -1    0    0  501    0  0.00000000000E+00  0.00000000000E+00 -0.18693412547E+04  0.18693412547E+04  0.25500000920E-02 0.  1.
    10030    2    1    2    0    0  0.00000000000E+00  0.00000000000E+00 -0.17119235472E+04  0.20267589623E+04  0.10849284122E+04 0.  0.
        2    1    3    3  502    0 -0.14904766738E+03  0.51784453406E+03 -0.73945967658E+03  0.91497474386E+03  0.25500000920E-02 0. -1.
       -2    1    3    3    0  502  0.14904766738E+03 -0.51784453406E+03 -0.97246387061E+03  0.11117842184E+04  0.25500000920E-02 0.  1.
</event>
<event>
 5   0  0.1480937E-03  0.1110221E+04  0.7818609E-02  0.9195286E-01
        1   -1    0    0  501    0  0.00000000000E+00  0.00000000000E+00  0.54972803679E+03  0.54972803681E+03  0.50400001928E-02 0. -1.
       -1   -1    0    0    0  501  0.00000000000E+00  0.00000000000E+00 -0.56054616547E+03  0.56054616549E+03  0.50400001928E-02 0.  1.
    10030    2    1    2    0    0  0.00000000000E+00  0.00000000000E+00 -0.10818128678E+02  0.11102742023E+04  0.11102214970E+04 0.  0.
        1    1    3    3  502    0 -0.67118631094E+02 -0.44513089954E+03 -0.33023445104E+03  0.55830208762E+03  0.50400001928E-02 0. -1.
       -1    1    3    3    0  502  0.67118631094E+02  0.44513089954E+03  0.31941632236E+03  0.55197211468E+03  0.50400001928E-02 0.  1.
</event>
<event>
 5   0  0.9631750E-04  0.1055120E+04  0.7818609E-02  0.9250074E-01
        3   -1    0    0  501    0  0.00000000000E+00  0.00000000000E+00  0.10631345149E+04  0.10631345197E+04  0.10100000352E+00 0. -1.
       -3   -1    0    0    0  501  0.00000000000E+00  0.00000000000E+00 -0.26179155631E+03  0.26179157579E+03  0.10100000352E+00 0.  1.
    10030    2    1    2    0    0  0.00000000000E+00  0.00000000000E+00  0.80134295856E+03  0.13249260954E+04  0.10551201928E+04 0.  0.
        2    1    3    3  502    0  0.50521392770E+03  0.10596231157E+03  0.26397459178E+03  0.57978591681E+03  0.25500000920E-02 0. -1.
       -2    1    3    3    0  502 -0.50521392770E+03 -0.10596231157E+03  0.53736836677E+03  0.74514017864E+03  0.25500000920E-02 0.  1.
</event>
<event>
 5   0  0.1480937E-03  0.1096447E+04  0.7818609E-02  0.9208662E-01
        1   -1    0    0  501    0  0.00000000000E+00  0.00000000000E+00  0.26343212572E+03  0.26343212576E+03  0.50400001928E-02 0. -1.
       -1   -1    0    0    0  501  0.00000000000E+00  0.00000000000E+00 -0.11408978009E+04  0.11408978010E+04  0.50400001928E-02 0.  1.
    10030    2    1    2    0    0  0.00000000000E+00  0.00000000000E+00 -0.87746567523E+03  0.14043299267E+04  0.10964472317E+04 0.  0.
        1    1    3    3  502    0  0.45556497825E+03  0.49116558907E+02 -0.53219936356E+02  0.46128542944E+03  0.50400001928E-02 0. -1.
       -1    1    3    3    0  502 -0.45556497825E+03 -0.49116558907E+02 -0.82424573887E+03  0.94304449728E+03  0.50400001928E-02 0.  1.
</event>
<event>
 5   0  0.2392585E-03  0.1081789E+04  0.7818609E-02  0.9223125E-01
        2   -1    0    0  501    0  0.00000000000E+00  0.00000000000E+00  0.91462802548E+03  0.91462802548E+03  0.25500000920E-02 0.  1.
       -2   -1    0    0    0  501  0.00000000000E+00  0.00000000000E+00 -0.31987548724E+03  0.31987548725E+03  0.25500000920E-02 0. -1.
    10030    2    1    2    0    0  0.00000000000E+00  0.00000000000E+00  0.59475253824E+03  0.12345035127E+04  0.10817894163E+04 0.  0.
        5    1    3    3  502    0 -0.10290795232E+03 -0.51352751534E+03  0.45151609579E+03  0.69151242246E+03  0.46999998093E+01 0.  1.
       -5    1    3    3    0  502  0.10290795232E+03  0.51352751534E+03  0.14323644245E+03  0.54299109027E+03  0.46999998093E+01 0. -1.
</event>
<event>
 5   0  0.2483036E-03  0.1069275E+04  0.7818609E-02  0.9235667E-01
       -2   -1    0    0    0  501  0.00000000000E+00  0.00000000000E+00  0.23511648198E+03  0.23511648200E+03  0.25500000920E-02 0.  1.
        2   -1    0    0  501    0  0.00000000000E+00  0.00000000000E+00 -0.12157268936E+04  0.12157268936E+04  0.25500000920E-02 0. -1.
    10030    2    1    2    0    0  0.00000000000E+00  0.00000000000E+00 -0.98061041157E+03  0.14508433756E+04  0.10692753252E+04 0.  0.
        3    1    3    3  502    0 -0.51761440639E+03 -0.44287678330E+02 -0.66167318674E+03  0.84124757855E+03  0.10100000352E+00 0. -1.
       -3    1    3    3    0  502  0.51761440639E+03  0.44287678330E+02 -0.31893722483E+03  0.60959579701E+03  0.10100000352E+00 0.  1.
</event>
<event>
 5   0  0.2392585E-03  0.1083733E+04  0.7818609E-02  0.9221194E-01
       -2   -1    0    0    0  501  0.00000000000E+00  0.00000000000E+00  0.24925333588E+03  0.24925333589E+03  0.25500000920E-02 0.  1.
        2   -1    0    0  501    0  0.00000000000E+00  0.00000000000E+00 -0.11779946996E+04  0.11779946996E+04  0.25500000920E-02 0. -1.
    10030    2    1    2    0    0  0.00000000000E+00  0.00000000000E+00 -0.92874136370E+03  0.14272480355E+04  0.10837326396E+04 0.  0.
        5    1    3    3  502    0  0.10002953737E+03  0.65994315804E+01  0.23690738446E+03  0.25728711521E+03  0.46999998093E+01 0.  1.
       -5    1    3    3    0  502 -0.10002953737E+03 -0.65994315804E+01 -0.11656487482E+04  0.11699609203E+04  0.46999998093E+01 0. -1.
</event>
<event>
 5   0  0.1415400E-03  0.1080055E+04  0.7818609E-02  0.9224852E-01
        1   -1    0    0  501    0  0.00000000000E+00  0.00000000000E+00  0.35292103704E+03  0.35292103707E+03  0.50400001928E-02 0. -1.
       -1   -1    0    0    0  501  0.00000000000E+00  0.00000000000E+00 -0.82633160285E+03  0.82633160286E+03  0.50400001928E-02 0.  1.
    10030    2    1    2    0    0  0.00000000000E+00  0.00000000000E+00 -0.47341056581E+03  0.11792526399E+04  0.10800551953E+04 0.  0.
        2    1    3    3  502    0 -0.37832654021E+02 -0.42049307387E+03 -0.60435728095E+03  0.73722008785E+03  0.25500000920E-02 0.  1.
       -2    1    3    3    0  502  0.37832654021E+02  0.42049307387E+03  0.13094671514E+03  0.44203255208E+03  0.25500000920E-02 0. -1.
</event>
<event>
 5   0  0.2438115E-03  0.1107483E+04  0.7818609E-02  0.9197929E-01
        2   -1    0    0  501    0  0.00000000000E+00  0.00000000000E+00  0.37440659381E+03  0.37440659382E+03  0.25500000920E-02 0. -1.
       -2   -1    0    0    0  501  0.00000000000E+00  0.00000000000E+00 -0.81897469279E+03  0.81897469279E+03  0.25500000920E-02 0.  1.
    10030    2    1    2    0    0  0.00000000000E+00  0.00000000000E+00 -0.44456809898E+03  0.11933812866E+04  0.11074827767E+04 0.  0.
        4    1    3    3  502    0 -0.33102464761E+03 -0.41054332492E+03 -0.40355424104E+02  0.52891711271E+03  0.12699999809E+01 0. -1.
       -4    1    3    3    0  502  0.33102464761E+03  0.41054332492E+03 -0.40421267488E+03  0.66446417390E+03  0.12699999809E+01 0.  1.
</event>
<event>
 5   0  0.1480937E-03  0.1105771E+04  0.7818609E-02  0.9199585E-01
        1   -1    0    0  501    0  0.00000000000E+00  0.00000000000E+00  0.61594262904E+03  0.61594262906E+03  0.50400001928E-02 0. -1.
       -1   -1    0    0    0  501  0.00000000000E+00  0.00000000000E+00 -0.49628414752E+03  0.49628414754E+03  0.50400001928E-02 0.  1.
    10030    2    1    2    0    0  0.00000000000E+00  0.00000000000E+00  0.11965848152E+03  0.11122267766E+04  0.11057713373E+04 0.  0.
        1    1    3    3  502    0 -0.46869995197E+03 -0.13101472747E+02 -0.23485084312E+03  0.52441034706E+03  0.50400001928E-02 0.  1.
       -1    1    3    3    0  502  0.46869995197E+03  0.13101472747E+02  0.35450932464E+03  0.58781642954E+03  0.50400001928E-02 0. -1.
</event>
<event>
 5   0  0.2483036E-03  0.1100705E+04  0.7818609E-02  0.9204505E-01
        2   -1    0    0  501    0  0.00000000000E+00  0.00000000000E+00  0.11883288157E+04  0.11883288157E+04  0.25500000920E-02 0.  1.
       -2   -1    0    0    0  501  0.00000000000E+00  0.00000000000E+00 -0.25488579131E+03  0.25488579132E+03  0.25500000920E-02 0. -1.
    10030    2    1    2    0    0  0.00000000000E+00  0.00000000000E+00  0.93344302435E+03  0.14432146070E+04  0.11007054657E+04 0.  0.
        3    1    3    3  502    0  0.40762004466E+03  0.12147855697E+03  0.92465112678E+03  0.10177872357E+04  0.10100000352E+00 0.  1.
       -3    1    3    3    0  502 -0.40762004466E+03 -0.12147855697E+03  0.87918975667E+01  0.42542737133E+03  0.10100000352E+00 0. -1.
</event>
<event>
 5   0  0.1480937E-03  0.1104044E+04  0.7818609E-02  0.9201259E-01
       -1   -1    0    0    0  501  0.00000000000E+00  0.00000000000E+00  0.61168631555E+03  0.61168631557E+03  0.50400001928E-02 0.  1.
        1   -1    0    0  501    0  0.00000000000E+00  0.00000000000E+00 -0.49817779299E+03  0.49817779302E+03  0.50400001928E-02 0. -1.
    10030    2    1    2    0    0  0.00000000000E+00  0.00000000000E+00  0.11350852256E+03  0.11098641086E+04  0.11040444533E+04 0.  0.
        1    1    3    3  502    0 -0.23875720555E+03 -0.42579870066E+03  0.31583159555E+03  0.58142852825E+03  0.50400001928E-02 0. -1.
       -1    1    3    3    0  502  0.23875720555E+03  0.42579870066E+03 -0.20232307299E+03  0.52843558034E+03  0.50400001928E-02 0.  1.
</event>
<event>
 5   0  0.2392585E-03  0.1071230E+04  0.7818609E-02  0.9233696E-01
        2   -1    0    0  501    0  0.00000000000E+00  0.00000000000E+00  0.81197416404E+03  0.81197416405E+03  0.25500000920E-02 0. -1.
       -2   -1    0    0    0  501  0.00000000000E+00  0.00000000000E+00 -0.35331591688E+03  0.35331591689E+03  0.25500000920E-02 0.  1.
    10030    2    1    2    0    0  0.00000000000E+00  0.00000000000E+00  0.45865824716E+03  0.11652900809E+04  0.10712299403E+04 0.  0.
        5    1    3    3  502    0  0.32573823159E+02  0.53006933591E+03  0.30490423817E+03  0.61239141020E+03  0.46999998093E+01 0.  1.
       -5    1    3    3    0  502 -0.32573823159E+02 -0.53006933591E+03  0.15375400899E+03  0.55289867074E+03  0.46999998093E+01 0. -1.
</event>
<event>
 5   0  0.9631750E-04  0.1046395E+04  0.7818609E-02  0.9259073E-01
       -3   -1    0    0    0  501  0.00000000000E+00  0.00000000000E+00  0.12692051796E+04  0.12692051836E+04  0.10100000352E+00 0.  1.
        3   -1    0    0  501    0  0.00000000000E+00  0.00000000000E+00 -0.21567498197E+03  0.21567500562E+03  0.10100000352E+00 0. -1.
    10030    2    1    2    0    0  0.00000000000E+00  0.00000000000E+00  0.10535301976E+04  0.14848801892E+04  0.10463953837E+04 0.  0.
        4    1    3    3  502    0  0.33709621220E+03 -0.58003614222E+02 -0.35032513868E+02  0.34384177389E+03  0.12699999809E+01 0. -1.
       -4    1    3    3    0  502 -0.33709621220E+03  0.58003614222E+02  0.10885627115E+04  0.11410384154E+04  0.12699999809E+01 0.  1.
</event>
<event>
 5   0  0.1415400E-03  0.1101531E+04  0.7818609E-02  0.9203701E-01
       -1   -1    0    0    0  501  0.00000000000E+00  0.00000000000E+00  0.85148202002E+03  0.85148202003E+03  0.50400001928E-02 0.  1.
        1   -1    0    0  501    0  0.00000000000E+00  0.00000000000E+00 -0.35625257065E+03  0.35625257068E+03  0.50400001928E-02 0. -1.
    10030    2    1    2    0    0  0.00000000000E+00  0.00000000000E+00  0.49522944937E+03  0.12077345907E+04  0.11015310409E+04 0.  0.
        2    1    3    3  502    0 -0.12253172067E+03 -0.73900630729E+02 -0.33551631975E+03  0.36475543397E+03  0.25500000920E-02 0. -1.
       -2    1    3    3    0  502  0.12253172067E+03  0.73900630729E+02  0.83074576911E+03  0.84297915674E+03  0.25500000920E-02 0.  1.
</event>
<event>
 5   0  0.2488472E-03  0.1032492E+04  0.7818609E-02  0.9273609E-01
        2   -1    0    0  501    0  0.00000000000E+00  0.00000000000E+00  0.16015422486E+04  0.16015422486E+04  0.25500000920E-02 0. -1.
       -2   -1    0    0    0  501  0.00000000000E+00  0.00000000000E+00 -0.16640824279E+03  0.16640824281E+03  0.25500000920E-02 0.  1.
    10030    2    1    2    0    0  0.00000000000E+00  0.00000000000E+00  0.14351340058E+04  0.17679504914E+04  0.10324918041E+04 0.  0.
        2    1    3    3  502    0  0.34976167145E+03 -0.35431340491E+03  0.48379617628E+03  0.69421175149E+03  0.25500000920E-02 0.  1.
       -2    1    3    3    0  502 -0.34976167145E+03  0.35431340491E+03  0.95133782953E+03  0.10737387399E+04  0.25500000920E-02 0. -1.
</event>
<event>
 5   0  0.2483036E-03  0.1101590E+04  0.7818609E-02  0.9203644E-01
       -2   -1    0    0    0  501  0.00000000000E+00  0.00000000000E+00  0.41792429212E+03  0.41792429213E+03  0.25500000920E-02 0.  1.
        2   -1    0    0  501    0  0.00000000000E+00  0.00000000000E+00 -0.72590869087E+03  0.72590869088E+03  0.25500000920E-02 0. -1.
    10030    2    1    2    0    0  0.00000000000E+00  0.00000000000E+00 -0.30798439875E+03  0.11438329830E+04  0.11015895348E+04 0.  0.
        3    1    3    3  502    0  0.51392143375E+03  0.18556452787E+03 -0.22612136230E+03  0.59133773324E+03  0.10100000352E+00 0. -1.
       -3    1    3    3    0  502 -0.51392143375E+03 -0.18556452787E+03 -0.81863036456E+02  0.55249524976E+03  0.10100000352E+00 0.  1.
</event>
<event>
 5   0  0.1468556E-03  0.1099199E+04  0.7818609E-02  0.9205973E-01
       -1   -1    0    0    0  501  0.00000000000E+00  0.00000000000E+00  0.26514879269E+03  0.26514879273E+03  0.50400001928E-02 0. -1.
        1   -1    0    0  501    0  0.00000000000E+00  0.00000000000E+00 -0.11392077060E+04  0.11392077060E+04  0.50400001928E-02 0.  1.
    10030    2    1    2    0    0  0.00000000000E+00  0.00000000000E+00 -0.87405891332E+03  0.14043564988E+04  0.10991988863E+04 0.  0.
        5    1    3    3  502    0  0.12714570153E+03  0.85525102273E+02 -0.11113370303E+04  0.11218612469E+04  0.46999998093E+01 0.  1.
       -5    1    3    3    0  502 -0.12714570153E+03 -0.85525102273E+02  0.23727811693E+03  0.28249525183E+03  0.46999998093E+01 0. -1.
</event>
<event>
 5   0  0.2392585E-03  0.1095613E+04  0.7818609E-02  0.9209478E-01
        2   -1    0    0  501    0  0.00000000000E+00  0.00000000000E+00  0.11966179213E+04  0.11966179213E+04  0.25500000920E-02 0.  1.
       -2   -1    0    0    0  501  0.00000000000E+00  0.00000000000E+00 -0.25078352164E+03  0.25078352166E+03  0.25500000920E-02 0. -1.
    10030    2    1    2    0    0  0.00000000000E+00  0.00000000000E+00  0.94583439965E+03  0.14474014430E+04  0.10956131733E+04 0.  0.
        5    1    3    3  502    0  0.38276455019E+03 -0.24543968047E+03  0.69345611629E+02  0.45997852285E+03  0.46999998093E+01 0. -1.
       -5    1    3    3    0  502 -0.38276455019E+03  0.24543968047E+03  0.87648878802E+03  0.98742292011E+03  0.46999998093E+01 0.  1.
</event>
<event>
 5   0  0.2438115E-03  0.1034939E+04  0.7818609E-02  0.9271033E-01
       -2   -1    0    0    0  501  0.00000000000E+00  0.00000000000E+00  0.41293289830E+03  0.41293289831E+03  0.25500000920E-02 0.  1.
        2   -1    0    0  501    0  0.00000000000E+00  0.00000000000E+00 -0.64847022186E+03  0.64847022186E+03  0.25500000920E-02 0. -1.
    10030    2    1    2    0    0  0.00000000000E+00  0.00000000000E+00 -0.23553732356E+03  0.10614031202E+04  0.10349390092E+04 0.  0.
        4    1    3    3  502    0  0.17738971088E+03  0.31802521214E+03 -0.49481890211E+03  0.61437326103E+03  0.12699999809E+01 0. -1.
       -4    1    3    3    0  502 -0.17738971088E+03 -0.31802521214E+03  0.25928157855E+03  0.44702985914E+03  0.12699999809E+01 0.  1.
</event>
<event>
 5   0  0.2488472E-03  0.1107774E+04  0.7818609E-02  0.9197648E-01
       -2   -1    0    0    0  501  0.00000000000E+00  0.00000000000E+00  0.43162392726E+03  0.43162392727E+03  0.25500000920E-02 0.  1.
        2   -1    0    0  501    0  0.00000000000E+00  0.00000000000E+00 -0.71078238692E+03  0.71078238693E+03  0.25500000920E-02 0. -1.
    10030    2    1    2    0    0  0.00000000000E+00  0.00000000000E+00 -0.27915845966E+03  0.11424063142E+04  0.11077737770E+04 0.  0.
        2    1    3    3  502    0 -0.19774492712E+03 -0.47661343473E+03 -0.34718678364E+03  0.62193414853E+03  0.25500000920E-02 0. -1.
       -2    1    3    3    0  502  0.19774492712E+03  0.47661343473E+03  0.68028323981E+02  0.52047216567E+03  0.25500000920E-02 0.  1.
</event>
<event>
 5   0  0.9631750E-04  0.1108093E+04  0.7818609E-02  0.9197340E-01
        4   -1    0    0  501    0  0.00000000000E+00  0.00000000000E+00  0.27030246090E+03  0.27030544440E+03  0.12699999809E+01 0. -1.
       -4   -1    0    0    0  501  0.00000000000E+00  0.00000000000E+00 -0.11356346810E+04  0.11356353912E+04  0.12699999809E+01 0.  1.
    10030    2    1    2    0    0  0.00000000000E+00  0.00000000000E+00 -0.86533222013E+03  0.14059408356E+04  0.11080928580E+04 0.  0.
        3    1    3    3  502    0  0.27031269817E+03  0.30993131166E+03 -0.90373041380E+03  0.99290233345E+03  0.10100000352E+00 0.  1.
       -3    1    3    3    0  502 -0.27031269817E+03 -0.30993131166E+03  0.38398193675E+02  0.41303850210E+03  0.10100000352E+00 0. -1.
</event>
<event>
 5   0  0.2488472E-03  0.1090504E+04  0.7818609E-02  0.9214497E-01
        2   -1    0    0  501    0  0.00000000000E+00  0.00000000000E+00  0.82084495951E+03  0.82084495952E+03  0.25500000920E-02 0. -1.
       -2   -1    0    0    0  501  0.00000000000E+00  0.00000000000E+00 -0.36218766174E+03  0.36218766174E+03  0.25500000920E-02 0.  1.
    10030    2    1    2    0    0  0.00000000000E+00  0.00000000000E+00  0.45865729778E+03  0.11830326213E+04  0.10905043174E+04 0.  0.
        2    1    3    3  502    0 -0.67361207662E+02 -0.33951298648E+03  0.68637509121E+03  0.76871149733E+03  0.25500000920E-02 0. -1.
       -2    1    3    3    0  502  0.67361207662E+02  0.33951298648E+03 -0.22771779343E+03  0.41432112393E+03  0.25500000920E-02 0.  1.
</event>
<event>
 5   0  0.2392585E-03  0.1092611E+04  0.7818609E-02  0.9212423E-01
        2   -1    0    0  501    0  0.00000000000E+00  0.00000000000E+00  0.14443958347E+04  0.14443958347E+04  0.25500000920E-02 0.  1.
       -2   -1    0    0    0  501  0.00000000000E+00  0.00000000000E+00 -0.20662606917E+03  0.20662606919E+03  0.25500000920E-02 0. -1.
    10030    2    1    2    0    0  0.00000000000E+00  0.00000000000E+00  0.12377697655E+04  0.16510219039E+04  0.10926112459E+04 0.  0.
        5    1    3    3  502    0  0.43966570801E+03 -0.21551921797E+02  0.13003897856E+03  0.45902357900E+03  0.46999998093E+01 0.  1.
       -5    1    3    3    0  502 -0.43966570801E+03  0.21551921797E+02  0.11077307870E+04  0.11919983249E+04  0.46999998093E+01 0. -1.
</event>
<event>
 5   0  0.2438115E-03  0.1103019E+04  0.7818609E-02  0.9202255E-01
        2   -1    0    0  501    0  0.00000000000E+00  0.00000000000E+00  0.16809533446E+04  0.16809533446E+04  0.25500000920E-02 0.  1.
       -2   -1    0    0    0  501  0.00000000000E+00  0.00000000000E+00 -0.18094641580E+03  0.18094641582E+03  0.25500000920E-02 0. -1.
    10030    2    1    2    0    0  0.00000000000E+00  0.00000000000E+00  0.15000069288E+04  0.18618997604E+04  0.11030185544E+04 0.  0.
        4    1    3    3  502    0 -0.21222309599E+03  0.50518278277E+03  0.85558920867E+03  0.10160131856E+04  0.12699999809E+01 0. -1.
       -4    1    3    3    0  502  0.21222309599E+03 -0.50518278277E+03  0.64441772012E+03  0.84588657478E+03  0.12699999809E+01 0.  1.
</event>
<event>
 5   0  0.2488472E-03  0.1100155E+04  0.7818609E-02  0.9205041E-01
       -2   -1    0    0    0  501  0.00000000000E+00  0.00000000000E+00  0.36058630581E+03  0.36058630582E+03  0.25500000920E-02 0. -1.
        2   -1    0    0  501    0  0.00000000000E+00  0.00000000000E+00 -0.83914786432E+03  0.83914786432E+03  0.25500000920E-02 0.  1.
    10030    2    1    2    0    0  0.00000000000E+00  0.00000000000E+00 -0.47856155851E+03  0.11997341701E+04  0.11001549499E+04 0.  0.
        2    1    3    3  502    0  0.27914554464E+03  0.47269742257E+03 -0.20118858331E+03  0.58467250188E+03  0.25500000920E-02 0.  1.
       -2    1    3    3    0  502 -0.27914554464E+03 -0.47269742257E+03 -0.27737297519E+03  0.61506166826E+03  0.25500000920E-02 0. -1.
</event>
<event>
 5   0  0.2392585E-03  0.1096648E+04  0.7818609E-02  0.9208465E-01
        2   -1    0    0  501    0  0.00000000000E+00  0.00000000000E+00  0.10334524964E+04  0.10334524964E+04  0.25500000920E-02 0.  1.
       -2   -1    0    0    0  501  0.00000000000E+00  0.00000000000E+00 -0.29092700074E+03  0.29092700075E+03  0.25500000920E-02 0. -1.
    10030    2    1    2    0    0  0.00000000000E+00  0.00000000000E+00  0.74252549561E+03  0.13243794971E+04  0.10966480478E+04 0.  0.
        5    1    3    3  502    0  0.17801456739E+03  0.42734266028E+03  0.16435865488E+02  0.46325280697E+03  0.46999998093E+01 0. -1.
       -5    1    3    3    0  502 -0.17801456739E+03 -0.42734266028E+03  0.72608963012E+03  0.86112669014E+03  0.46999998093E+01 0.  1.
</event>
<event>
 5   0  0.1480937E-03  0.1106742E+04  0.7818609E-02  0.9198646E-01
        1   -1    0    0  501    0  0.00000000000E+00  0.00000000000E+00  0.14397177263E+04  0.14397177263E+04  0.50400001928E-02 0.  1.
       -1   -1    0    0    0  501  0.00000000000E+00  0.00000000000E+00 -0.21269399794E+03  0.21269399800E+03  0.50400001928E-02 0. -1.
    10030    2    1    2    0    0  0.00000000000E+00  0.00000000000E+00  0.12270237284E+04  0.16524117243E+04  0.11067417389E+04 0.  0.
        1    1    3    3  502    0  0.46600481227E+03 -0.28927837804E+03  0.72299219585E+03  0.90750216548E+03  0.50400001928E-02 0. -1.
       -1    1    3    3    0  502 -0.46600481227E+03  0.28927837804E+03  0.50403153252E+03  0.74490955885E+03  0.50400001928E-02 0.  1.
</event>
<event>
 5   0  0.2483036E-03  0.1101529E+04  0.7818609E-02  0.9203703E-01
        2   -1    0    0  501    0  0.00000000000E+00  0.00000000000E+00  0.85105446785E+03  0.85105446786E+03  0.25500000920E-02 0.  1.
       -2   -1    0    0    0  501  0.00000000000E+00  0.00000000000E+00 -0.35643042956E+03  0.35643042957E+03  0.25500000920E-02 0. -1.
    10030    2    1    2    0    0  0.00000000000E+00  0.00000000000E+00  0.49462403829E+03  0.12074848974E+04  0.11015293179E+04 0.  0.
        3    1    3    3  502    0 -0.29978734588E+01  0.45594361361E+03 -0.91352240497E+02  0.46501484716E+03  0.10100000352E+00 0. -1.
       -3    1    3    3    0  502  0.29978734588E+01 -0.45594361361E+03  0.58597627879E+03  0.74247005026E+03  0.10100000352E+00 0.  1.
</event>
<event>
 5   0  0.1480937E-03  0.1092284E+04  0.7818609E-02  0.9212745E-01
       -1   -1    0    0    0  501  0.00000000000E+00  0.00000000000E+00  0.76473045299E+03  0.76473045301E+03  0.50400001928E-02 0.  1.
        1   -1    0    0  501    0  0.00000000000E+00  0.00000000000E+00 -0.39003433077E+03  0.39003433080E+03  0.50400001928E-02 0. -1.
    10030    2    1    2    0    0  0.00000000000E+00  0.00000000000E+00  0.37469612222E+03  0.11547647838E+04  0.10922840848E+04 0.  0.
        1    1    3    3  502    0 -0.13505223892E+03 -0.49521979680E+03 -0.98402853557E+01  0.51339905105E+03  0.50400001928E-02 0. -1.
       -1    1    3    3    0  502  0.13505223892E+03  0.49521979680E+03  0.38453640758E+03  0.64136573276E+03  0.50400001928E-02 0.  1.
</event>
<event>
 5   0  0.2488472E-03  0.1052585E+04  0.7818609E-02  0.9252680E-01
       -2   -1    0    0    0  501  0.00000000000E+00  0.00000000000E+00  0.99001551746E+03  0.99001551746E+03  0.25500000920E-02 0.  1.
        2   -1    0    0  501    0  0.00000000000E+00  0.00000000000E+00 -0.27977708977E+03  0.27977708978E+03  0.25500000920E-02 0. -1.
    10030    2    1    2    0    0  0.00000000000E+00  0.00000000000E+00  0.71023842768E+03  0.12697926072E+04  0.10525847430E+04 0.  0.
        2    1    3    3  502    0  0.11714259985E+03  0.50568226639E+03  0.45991763930E+03  0.69351364672E+03  0.25500000920E-02 0.  1.
       -2    1    3    3    0  502 -0.11714259985E+03 -0.50568226639E+03  0.25032078838E+03  0.57627896052E+03  0.25500000920E-02 0. -1.
</event>
<event>
 5   0  0.2392585E-03  0.1105357E+04  0.7818609E-02  0.9199986E-01
        2   -1    0    0  501    0  0.00000000000E+00  0.00000000000E+00  0.20944532034E+04  0.20944532034E+04  0.25500000920E-02 0.  1.
       -2   -1    0    0    0  501  0.00000000000E+00  0.00000000000E+00 -0.14583938565E+03  0.14583938567E+03  0.25500000920E-02 0. -1.
    10030    2    1    2    0    0  0.00000000000E+00  0.00000000000E+00  0.19486138177E+04  0.22402925890E+04  0.11053574417E+04 0.  0.
        5    1    3    3  502    0  0.46920853591E+03  0.15267949115E+03  0.46979464236E+03  0.68131987581E+03  0.46999998093E+01 0. -1.
       -5    1    3    3    0  502 -0.46920853591E+03 -0.15267949115E+03  0.14788191754E+04  0.15589727132E+04  0.46999998093E+01 0.  1.
</event>
<event>
 5   0  0.1480937E-03  0.1100381E+04  0.7818609E-02  0.9204820E-01
        1   -1    0    0  501    0  0.00000000000E+00  0.00000000000E+00  0.91423445617E+03  0.91423445618E+03  0.50400001928E-02 0.  1.
       -1   -1    0    0    0  501  0.00000000000E+00  0.00000000000E+00 -0.33110731461E+03  0.33110731465E+03  0.50400001928E-02 0. -1.
    10030    2    1    2    0    0  0.00000000000E+00  0.00000000000E+00  0.58312714155E+03  0.12453417708E+04  0.11003812353E+04 0.  0.
        1    1    3    3  502    0  0.19978191405E+01  0.53977880478E+03  0.17102131093E+03  0.56622737323E+03  0.50400001928E-02 0.  1.
       -1    1    3    3    0  502 -0.19978191405E+01 -0.53977880478E+03  0.41210583063E+03  0.67911439761E+03  0.50400001928E-02 0. -1.
</event>
<event>
 5   0  0.1479573E-03  0.1100041E+04  0.7818609E-02  0.9205152E-01
        1   -1    0    0  501    0  0.00000000000E+00  0.00000000000E+00  0.10220823696E+04  0.10220823696E+04  0.50400001928E-02 0.  1.
       -1   -1    0    0    0  501  0.00000000000E+00  0.00000000000E+00 -0.29598637917E+03  0.29598637921E+03  0.50400001928E-02 0. -1.
    10030    2    1    2    0    0  0.00000000000E+00  0.00000000000E+00  0.72609599047E+03  0.13180687489E+04  0.11000408353E+04 0.  0.
        4    1    3    3  502    0 -0.18807728101E+03  0.29280457030E+02  0.98135909378E+03  0.99964878465E+03  0.12699999809E+01 0.  1.
       -4    1    3    3    0  502  0.18807728101E+03 -0.29280457030E+02 -0.25526310331E+03  0.31841996421E+03  0.12699999809E+01 0. -1.
</event>
<event>
 5   0  0.1509004E-03  0.1100094E+04  0.7818609E-02  0.9205100E-01
        1   -1    0    0  501    0  0.00000000000E+00  0.00000000000E+00  0.14374147806E+04  0.14374147806E+04  0.50400001928E-02 0. -1.
       -1   -1    0    0    0  501  0.00000000000E+00  0.00000000000E+00 -0.21048315328E+03  0.21048315334E+03  0.50400001928E-02 0.  1.
    10030    2    1    2    0    0  0.00000000000E+00  0.00000000000E+00  0.12269316273E+04  0.16478979340E+04  0.11000938063E+04 0.  0.
        3    1    3    3  502    0 -0.31947630507E+03  0.44660992180E+03  0.66144861889E+03  0.85967425074E+03  0.10100000352E+00 0. -1.
       -3    1    3    3    0  502  0.31947630507E+03 -0.44660992180E+03  0.56548300844E+03  0.78822368322E+03  0.10100000352E+00 0.  1.
</event>
<event>
 5   0  0.9631750E-04  0.1109015E+04  0.7818609E-02  0.9196450E-01
       -3   -1    0    0    0  501  0.00000000000E+00  0.00000000000E+00  0.37288444096E+03  0.37288445464E+03  0.10100000352E+00 0. -1.
        3   -1    0    0  501    0  0.00000000000E+00  0.00000000000E+00 -0.82459410231E+03  0.82459410850E+03  0.10100000352E+00 0.  1.
    10030    2    1    2    0    0  0.00000000000E+00  0.00000000000E+00 -0.45170966135E+03  0.11974785631E+04  0.11090145585E+04 0.  0.
        4    1    3    3  502    0  0.21429731691E+03  0.87017703697E+02 -0.77002077878E+03  0.80400810533E+03  0.12699999809E+01 0.  1.
       -4    1    3    3    0  502 -0.21429731691E+03 -0.87017703697E+02  0.31831111743E+03  0.39347045781E+03  0.12699999809E+01 0. -1.
</event>
<event>
 5   0  0.1468556E-03  0.1099196E+04  0.7818609E-02  0.9205976E-01
       -1   -1    0    0    0  501  0.00000000000E+00  0.00000000000E+00  0.36806681703E+03  0.36806681707E+03  0.50400001928E-02 0. -1.
        1   -1    0    0  501    0  0.00000000000E+00  0.00000000000E+00 -0.82066076671E+03  0.82066076672E+03  0.50400001928E-02 0.  1.
    10030    2    1    2    0    0  0.00000000000E+00  0.00000000000E+00 -0.45259394967E+03  0.11887275838E+04  0.10991960631E+04 0.  0.
        5    1    3    3  502    0  0.32076626718E+03  0.44622144323E+03 -0.22024357393E+03  0.59205903119E+03  0.46999998093E+01 0.  1.
       -5    1    3    3    0  502 -0.32076626718E+03 -0.44622144323E+03 -0.23235037575E+03  0.59666855260E+03  0.46999998093E+01 0. -1.
</event>
<event>
 5   0  0.1509004E-03  0.1099080E+04  0.7818609E-02  0.9206089E-01
        1   -1    0    0  501    0  0.00000000000E+00  0.00000000000E+00  0.16369863989E+04  0.16369863989E+04  0.50400001928E-02 0. -1.
       -1   -1    0    0    0  501  0.00000000000E+00  0.00000000000E+00 -0.18448178991E+03  0.18448178998E+03  0.50400001928E-02 0.  1.
    10030    2    1    2    0    0  0.00000000000E+00  0.00000000000E+00  0.14525046090E+04  0.18214681889E+04  0.10990799443E+04 0.  0.
        3    1    3    3  502    0  0.38291846832E+03 -0.39167502281E+03  0.65291393574E+03  0.85225142684E+03  0.10100000352E+00 0. -1.
       -3    1    3    3    0  502 -0.38291846832E+03  0.39167502281E+03  0.79959067323E+03  0.96921676203E+03  0.10100000352E+00 0.  1.
</event>
<event>
 5   0  0.2392585E-03  0.1098108E+04  0.7818609E-02  0.9207038E-01
        2   -1    0    0  501    0  0.00000000000E+00  0.00000000000E+00  0.11886923702E+04  0.11886923702E+04  0.25500000920E-02 0. -1.
       -2   -1    0    0    0  501  0.00000000000E+00  0.00000000000E+00 -0.25360676075E+03  0.25360676076E+03  0.25500000920E-02 0.  1.
    10030    2    1    2    0    0  0.00000000000E+00  0.00000000000E+00  0.93508560945E+03  0.14422991310E+04  0.10981082306E+04 0.  0.
        5    1    3    3  502    0  0.29776995108E+03 -0.31246383423E+03  0.91321859736E+03  0.10100944946E+04  0.46999998093E+01 0. -1.
       -5    1    3    3    0  502 -0.29776995108E+03  0.31246383423E+03  0.21867012086E+02  0.43220463635E+03  0.46999998093E+01 0.  1.
</event>
<event>
 5   0  0.1468556E-03  0.1089576E+04  0.7818609E-02  0.9215412E-01
        1   -1    0    0  501    0  0.00000000000E+00  0.00000000000E+00  0.13608326143E+04  0.13608326144E+04  0.50400001928E-02 0.  1.
       -1   -1    0    0    0  501  0.00000000000E+00  0.00000000000E+00 -0.21809726166E+03  0.21809726172E+03  0.50400001928E-02 0. -1.
    10030    2    1    2    0    0  0.00000000000E+00  0.00000000000E+00  0.11427353527E+04  0.15789298761E+04  0.10895758199E+04 0.  0.
        5    1    3    3  502    0 -0.26619247498E+03 -0.82374283025E+02  0.12497181699E+04  0.12804146010E+04  0.46999998093E+01 0.  1.
       -5    1    3    3    0  502  0.26619247498E+03  0.82374283025E+02 -0.10698281726E+03  0.29851527504E+03  0.46999998093E+01 0. -1.
</event>
<event>
 5   0  0.2392585E-03  0.1103219E+04  0.7818609E-02  0.9202060E-01
        2   -1    0    0  501    0  0.00000000000E+00  0.00000000000E+00  0.80101358076E+03  0.80101358077E+03  0.25500000920E-02 0. -1.
       -2   -1    0    0    0  501  0.00000000000E+00  0.00000000000E+00 -0.37985993137E+03  0.37985993138E+03  0.25500000920E-02 0.  1.
    10030    2    1    2    0    0  0.00000000000E+00  0.00000000000E+00  0.42115364939E+03  0.11808735121E+04  0.11032188610E+04 0.  0.
        5    1    3    3  502    0  0.29801622982E+03  0.44649144934E+03  0.34632051377E+03  0.63884918081E+03  0.46999998093E+01 0. -1.
       -5    1    3    3    0  502 -0.29801622982E+03 -0.44649144934E+03  0.74833135620E+02  0.54202433133E+03  0.46999998093E+01 0.  1.
</event>
<event>
 5   0  0.1479573E-03  0.1090161E+04  0.7818609E-02  0.9214835E-01
       -1   -1    0    0    0  501  0.00000000000E+00  0.00000000000E+00  0.44418702680E+03  0.44418702683E+03  0.50400001928E-02 0.  1.
        1   -1    0    0  501    0  0.00000000000E+00  0.00000000000E+00 -0.66889083752E+03  0.66889083754E+03  0.50400001928E-02 0. -1.
    10030    2    1    2    0    0  0.00000000000E+00  0.00000000000E+00 -0.22470381071E+03  0.11130778644E+04  0.10901607815E+04 0.  0.
        4    1    3    3  502    0 -0.13819524111E+02  0.12514306589E+03 -0.65383936293E+03  0.66585230465E+03  0.12699999809E+01 0. -1.
       -4    1    3    3    0  502  0.13819524111E+02 -0.12514306589E+03  0.42913555222E+03  0.44722555972E+03  0.12699999809E+01 0.  1.
</event>
<event>
 5   0  0.1468556E-03  0.1105546E+04  0.7818609E-02  0.9199803E-01
       -1   -1    0    0    0  501  0.00000000000E+00  0.00000000000E+00  0.49194805797E+03  0.49194805799E+03  0.50400001928E-02 0. -1.
        1   -1    0    0  501    0  0.00000000000E+00  0.00000000000E+00 -0.62111813760E+03  0.62111813762E+03  0.50400001928E-02 0.  1.
    10030    2    1    2    0    0  0.00000000000E+00  0.00000000000E+00 -0.12917007963E+03  0.11130661956E+04  0.11055457685E+04 0.  0.
        5    1    3    3  502    0  0.44953757487E+03  0.32088830316E+03 -0.42471173005E+02  0.55396680844E+03  0.46999998093E+01 0.  1.
       -5    1    3    3    0  502 -0.44953757487E+03 -0.32088830316E+03 -0.86698906625E+02  0.55909938717E+03  0.46999998093E+01 0. -1.
</event>
<event>
 5   0  0.2483036E-03  0.1124498E+04  0.7818609E-02  0.9181638E-01
       -2   -1    0    0    0  501  0.00000000000E+00  0.00000000000E+00  0.19880805705E+03  0.19880805707E+03  0.25500000920E-02 0.  1.
        2   -1    0    0  501    0  0.00000000000E+00  0.00000000000E+00 -0.15900954835E+04  0.15900954835E+04  0.25500000920E-02 0. -1.
    10030    2    1    2    0    0  0.00000000000E+00  0.00000000000E+00 -0.13912874264E+04  0.17889035405E+04  0.11244977432E+04 0.  0.
        3    1    3    3  502    0  0.37263651281E+03  0.20898988668E+03 -0.12770955542E+04  0.13466654403E+04  0.10100000352E+00 0. -1.
       -3    1    3    3    0  502 -0.37263651281E+03 -0.20898988668E+03 -0.11419187224E+03  0.44223810024E+03  0.10100000352E+00 0.  1.
</event>
<event>
 5   0  0.2392585E-03  0.1101840E+04  0.7818609E-02  0.9203401E-01
        2   -1    0    0  501    0  0.00000000000E+00  0.00000000000E+00  0.10875251226E+04  0.10875251226E+04  0.25500000920E-02 0.  1.
       -2   -1    0    0    0  501  0.00000000000E+00  0.00000000000E+00 -0.27908566177E+03  0.27908566178E+03  0.25500000920E-02 0. -1.
    10030    2    1    2    0    0  0.00000000000E+00  0.00000000000E+00  0.80843946081E+03  0.13666107844E+04  0.11018396772E+04 0.  0.
        5    1    3    3  502    0  0.33203505662E+03  0.21404118412E+03 -0.72012610349E+02  0.40158288481E+03  0.46999998093E+01 0. -1.
       -5    1    3    3    0  502 -0.33203505662E+03 -0.21404118412E+03  0.88045207116E+03  0.96502789956E+03  0.46999998093E+01 0.  1.
</event>
<event>
 5   0  0.9631750E-04  0.1100612E+04  0.7818609E-02  0.9204596E-01
        3   -1    0    0  501    0  0.00000000000E+00  0.00000000000E+00  0.65134331793E+03  0.65134332576E+03  0.10100000352E+00 0.  1.
       -3   -1    0    0    0  501  0.00000000000E+00  0.00000000000E+00 -0.46494143636E+03  0.46494144733E+03  0.10100000352E+00 0. -1.
    10030    2    1    2    0    0  0.00000000000E+00  0.00000000000E+00  0.18640188157E+03  0.11162847731E+04  0.11006116632E+04 0.  0.
        2    1    3    3  502    0 -0.54419635081E+03 -0.34241292605E+02  0.16851724418E+03  0.57071901663E+03  0.25500000920E-02 0.  1.
       -2    1    3    3    0  502  0.54419635081E+03  0.34241292605E+02  0.17884637385E+02  0.54556575645E+03  0.25500000920E-02 0. -1.
</event>
<event>
 5   0  0.2438115E-03  0.1094790E+04  0.7818609E-02  0.9210285E-01
        2   -1    0    0  501    0  0.00000000000E+00  0.00000000000E+00  0.11852702382E+04  0.11852702382E+04  0.25500000920E-02 0. -1.
       -2   -1    0    0    0  501  0.00000000000E+00  0.00000000000E+00 -0.25280420913E+03  0.25280420914E+03  0.25500000920E-02 0.  1.
    10030    2    1    2    0    0  0.00000000000E+00  0.00000000000E+00  0.93246602905E+03  0.14380744473E+04  0.10947900350E+04 0.  0.
        4    1    3    3  502    0 -0.16568363306E+03 -0.43950194285E+03  0.83549735484E+03  0.95847298703E+03  0.12699999809E+01 0. -1.
       -4    1    3    3    0  502  0.16568363306E+03  0.43950194285E+03  0.96968674214E+02  0.47960146029E+03  0.12699999809E+01 0.  1.
</event>
<event>
 5   0  0.1480937E-03  0.1096475E+04  0.7818609E-02  0.9208634E-01
       -1   -1    0    0    0  501  0.00000000000E+00  0.00000000000E+00  0.32773203631E+03  0.32773203635E+03  0.50400001928E-02 0. -1.
        1   -1    0    0  501    0  0.00000000000E+00  0.00000000000E+00 -0.91710442611E+03  0.91710442612E+03  0.50400001928E-02 0.  1.
    10030    2    1    2    0    0  0.00000000000E+00  0.00000000000E+00 -0.58937238980E+03  0.12448364625E+04  0.10964752639E+04 0.  0.
        1    1    3    3  502    0 -0.15874499078E+03 -0.19667383176E+03 -0.84701520036E+03  0.88392042507E+03  0.50400001928E-02 0.  1.
       -1    1    3    3    0  502  0.15874499078E+03  0.19667383176E+03  0.25764281056E+03  0.36091603740E+03  0.50400001928E-02 0. -1.
</event>
<event>
 5   0  0.1415400E-03  0.1105275E+04  0.7818609E-02  0.9200066E-01
       -1   -1    0    0    0  501  0.00000000000E+00  0.00000000000E+00  0.22855678941E+03  0.22855678947E+03  0.50400001928E-02 0.  1.
        1   -1    0    0  501    0  0.00000000000E+00  0.00000000000E+00 -0.13362454405E+04  0.13362454405E+04  0.50400001928E-02 0. -1.
    10030    2    1    2    0    0  0.00000000000E+00  0.00000000000E+00 -0.11076886511E+04  0.15648022299E+04  0.11052745682E+04 0.  0.
        2    1    3    3  502    0 -0.40191156979E+03  0.23267115212E+03 -0.97795612805E+03  0.10826204152E+04  0.25500000920E-02 0.  1.
       -2    1    3    3    0  502  0.40191156979E+03 -0.23267115212E+03 -0.12973252301E+03  0.48218181477E+03  0.25500000920E-02 0. -1.
</event>
<event>
 5   0  0.1479573E-03  0.1105013E+04  0.7818609E-02  0.9200319E-01
       -1   -1    0    0    0  501  0.00000000000E+00  0.00000000000E+00  0.41834228178E+03  0.41834228181E+03  0.50400001928E-02 0.  1.
        1   -1    0    0  501    0  0.00000000000E+00  0.00000000000E+00 -0.72969818197E+03  0.72969818199E+03  0.50400001928E-02 0. -1.
    10030    2    1    2    0    0  0.00000000000E+00  0.00000000000E+00 -0.31135590020E+03  0.11480404638E+04  0.11050133076E+04 0.  0.
        4    1    3    3  502    0 -0.12666860102E+03  0.42707655386E+02 -0.71264289819E+03  0.72507268019E+03  0.12699999809E+01 0. -1.
       -4    1    3    3    0  502  0.12666860102E+03 -0.42707655386E+02  0.40128699799E+03  0.42296778361E+03  0.12699999809E+01 0.  1.
</event>
<event>
 5   0  0.1479573E-03  0.1103947E+04  0.7818609E-02  0.9201353E-01
        1   -1    0    0  501    0  0.00000000000E+00  0.00000000000E+00  0.12031450580E+04  0.12031450580E+04  0.50400001928E-02 0.  1.
       -1   -1    0    0    0  501  0.00000000000E+00  0.00000000000E+00 -0.25323187639E+03  0.25323187644E+03  0.50400001928E-02 0. -1.
    10030    2    1    2    0    0  0.00000000000E+00  0.00000000000E+00  0.94991318162E+03  0.14563769345E+04  0.11039468840E+04 0.  0.
        4    1    3    3  502    0 -0.47786928146E+02  0.30188358208E+03 -0.13140252971E+03  0.33269434222E+03  0.12699999809E+01 0. -1.
       -4    1    3    3    0  502  0.47786928146E+02 -0.30188358208E+03  0.10813157113E+04  0.11236825922E+04  0.12699999809E+01 0.  1.
</event>
<event>
 5   0  0.1480937E-03  0.1098414E+04  0.7818609E-02  0.9206739E-01
       -1   -1    0    0    0  501  0.00000000000E+00  0.00000000000E+00  0.44524908713E+03  0.44524908716E+03  0.50400001928E-02 0. -1.
        1   -1    0    0  501    0  0.00000000000E+00  0.00000000000E+00 -0.67743765577E+03  0.67743765579E+03  0.50400001928E-02 0.  1.
    10030    2    1    2    0    0  0.00000000000E+00  0.00000000000E+00 -0.23218856864E+03  0.11226867429E+04  0.10984143077E+04 0.  0.
        1    1    3    3  502    0 -0.26925243844E+03  0.39321248075E+02  0.37150680913E+03  0.46050010360E+03  0.50400001928E-02 0. -1.
       -1    1    3    3    0  502  0.26925243844E+03 -0.39321248075E+02 -0.60369537777E+03  0.66218663934E+03  0.50400001928E-02 0.  1.
</event>
<event>
 5   0  0.1468556E-03  0.1102465E+04  0.7818609E-02  0.9202793E-01
       -1   -1    0    0    0  501  0.00000000000E+00  0.00000000000E+00  0.43038747462E+03  0.43038747465E+03  0.50400001928E-02 0.  1.
        1   -1    0    0  501    0  0.00000000000E+00  0.00000000000E+00 -0.70600868168E+03  0.70600868169E+03  0.50400001928E-02 0. -1.
    10030    2    1    2    0    0  0.00000000000E+00  0.00000000000E+00 -0.27562120706E+03  0.11363961563E+04  0.11024650445E+04 0.  0.
        5    1    3    3  502    0  0.24274520754E+02  0.37386211267E+03  0.27895132567E+03  0.46711675601E+03  0.46999998093E+01 0.  1.
       -5    1    3    3    0  502 -0.24274520754E+02 -0.37386211267E+03 -0.55457253273E+03  0.66927940033E+03  0.46999998093E+01 0. -1.
</event>
<event>
 5   0  0.2438115E-03  0.1128320E+04  0.7818609E-02  0.9178021E-01
        2   -1    0    0  501    0  0.00000000000E+00  0.00000000000E+00  0.87216565962E+03  0.87216565962E+03  0.25500000920E-02 0. -1.
       -2   -1    0    0    0  501  0.00000000000E+00  0.00000000000E+00 -0.36492644491E+03  0.36492644492E+03  0.25500000920E-02 0.  1.
    10030    2    1    2    0    0  0.00000000000E+00  0.00000000000E+00  0.50723921471E+03  0.12370921045E+04  0.11283196596E+04 0.  0.
        4    1    3    3  502    0  0.75375469231E+02 -0.38761946155E+03  0.69538178058E+03  0.79967977466E+03  0.12699999809E+01 0. -1.
       -4    1    3    3    0  502 -0.75375469231E+02  0.38761946155E+03 -0.18814256587E+03  0.43741232988E+03  0.12699999809E+01 0.  1.
</event>
<event>
 5   0  0.1468556E-03  0.1106224E+04  0.7818609E-02  0.9199147E-01
        1   -1    0    0  501    0  0.00000000000E+00  0.00000000000E+00  0.96637201968E+03  0.96637201969E+03  0.50400001928E-02 0. -1.
       -1   -1    0    0    0  501  0.00000000000E+00  0.00000000000E+00 -0.31657862801E+03  0.31657862805E+03  0.50400001928E-02 0.  1.
    10030    2    1    2    0    0  0.00000000000E+00  0.00000000000E+00  0.64979339167E+03  0.12829506477E+04  0.11062237173E+04 0.  0.
        5    1    3    3  502    0  0.14923160396E+03 -0.45865577390E+03  0.63883638575E+03  0.80048061083E+03  0.46999998093E+01 0.  1.
       -5    1    3    3    0  502 -0.14923160396E+03  0.45865577390E+03  0.10957005917E+02  0.48247003692E+03  0.46999998093E+01 0. -1.
</event>
<event>
 5   0  0.2438115E-03  0.1094378E+04  0.7818609E-02  0.9210689E-01
        2   -1    0    0  501    0  0.00000000000E+00  0.00000000000E+00  0.55408724255E+03  0.55408724255E+03  0.25500000920E-02 0. -1.
       -2   -1    0    0    0  501  0.00000000000E+00  0.00000000000E+00 -0.54037626579E+03  0.54037626580E+03  0.25500000920E-02 0.  1.
    10030    2    1    2    0    0  0.00000000000E+00  0.00000000000E+00  0.13710976756E+02  0.10944635083E+04  0.10943776223E+04 0.  0.
        4    1    3    3  502    0 -0.52525394995E+03 -0.15219267386E+03  0.25821687269E+02  0.54746935471E+03  0.12699999809E+01 0. -1.
       -4    1    3    3    0  502  0.52525394995E+03  0.15219267386E+03 -0.12110710513E+02  0.54699415364E+03  0.12699999809E+01 0.  1.
</event>
<event>
 5   0  0.1480937E-03  0.1113876E+04  0.7818609E-02  0.9191772E-01
        1   -1    0    0  501    0  0.00000000000E+00  0.00000000000E+00  0.47757541014E+03  0.47757541017E+03  0.50400001928E-02 0.  1.
       -1   -1    0    0    0  501  0.00000000000E+00  0.00000000000E+00 -0.64948935268E+03  0.64948935270E+03  0.50400001928E-02 0. -1.
    10030    2    1    2    0    0  0.00000000000E+00  0.00000000000E+00 -0.17191394254E+03  0.11270647629E+04  0.11138763738E+04 0.  0.
        1    1    3    3  502    0  0.28647599078E+03 -0.28934451032E+03  0.29853081717E+03  0.50488551947E+03  0.50400001928E-02 0.  1.
       -1    1    3    3    0  502 -0.28647599078E+03  0.28934451032E+03 -0.47044475971E+03  0.62217924340E+03  0.50400001928E-02 0. -1.
</event>
<event>
 5   0  0.9631750E-04  0.1098938E+04  0.7818609E-02  0.9206227E-01
       -3   -1    0    0    0  501  0.00000000000E+00  0.00000000000E+00  0.70051026601E+03  0.70051027329E+03  0.10100000352E+00 0.  1.
        3   -1    0    0  501    0  0.00000000000E+00  0.00000000000E+00 -0.43099494065E+03  0.43099495248E+03  0.10100000352E+00 0. -1.
    10030    2    1    2    0    0  0.00000000000E+00  0.00000000000E+00  0.26951532536E+03  0.11315052258E+04  0.10989383811E+04 0.  0.
        5    1    3    3  502    0 -0.52346631703E+03 -0.16417048711E+03  0.10343632297E+03  0.55829212497E+03  0.46999998093E+01 0.  1.
       -5    1    3    3    0  502  0.52346631703E+03  0.16417048711E+03  0.16607900239E+03  0.57321310080E+03  0.46999998093E+01 0. -1.
</event>
<event>
 5   0  0.2467448E-03  0.1102123E+04  0.7818609E-02  0.9203125E-01
       -2   -1    0    0    0  501  0.00000000000E+00  0.00000000000E+00  0.42964026755E+03  0.42964026756E+03  0.25500000920E-02 0.  1.
        2   -1    0    0  501    0  0.00000000000E+00  0.00000000000E+00 -0.70679788909E+03  0.70679788910E+03  0.25500000920E-02 0. -1.
    10030    2    1    2    0    0  0.00000000000E+00  0.00000000000E+00 -0.27715762154E+03  0.11364381567E+04  0.11021231042E+04 0.  0.
        1    1    3    3  502    0 -0.47352561626E+03 -0.20499344693E+03 -0.33804425075E+03  0.61686525111E+03  0.50400001928E-02 0. -1.
       -1    1    3    3    0  502  0.47352561626E+03  0.20499344693E+03  0.60886629208E+02  0.51957290554E+03  0.50400001928E-02 0.  1.
</event>
<event>
 5   0  0.1509004E-03  0.1101280E+04  0.7818609E-02  0.9203945E-01
       -1   -1    0    0    0  501  0.00000000000E+00  0.00000000000E+00  0.53761309415E+03  0.53761309418E+03  0.50400001928E-02 0.  1.
        1   -1    0    0  501    0  0.00000000000E+00  0.00000000000E+00 -0.56398270091E+03  0.56398270093E+03  0.50400001928E-02 0. -1.
    10030    2    1    2    0    0  0.00000000000E+00  0.00000000000E+00 -0.26369606758E+02  0.11015957951E+04  0.11012801368E+04 0.  0.
        3    1    3    3  502    0  0.36327673438E+03 -0.17659368835E+03  0.36115388536E+03  0.54183711170E+03  0.10100000352E+00 0.  1.
       -3    1    3    3    0  502 -0.36327673438E+03  0.17659368835E+03 -0.38752349212E+03  0.55975868341E+03  0.10100000352E+00 0. -1.
</event>
<event>
 5   0  0.2488472E-03  0.1097232E+04  0.7818609E-02  0.9207894E-01
        2   -1    0    0  501    0  0.00000000000E+00  0.00000000000E+00  0.30172530777E+03  0.30172530778E+03  0.25500000920E-02 0. -1.
       -2   -1    0    0    0  501  0.00000000000E+00  0.00000000000E+00 -0.99752751272E+03  0.99752751273E+03  0.25500000920E-02 0.  1.
    10030    2    1    2    0    0  0.00000000000E+00  0.00000000000E+00 -0.69580220495E+03  0.12992528205E+04  0.10972315996E+04 0.  0.
        2    1    3    3  502    0  0.45586458974E+02  0.63833526152E+02  0.29505094613E+03  0.30529969721E+03  0.25500000920E-02 0. -1.
       -2    1    3    3    0  502 -0.45586458974E+02 -0.63833526152E+02 -0.99085315108E+03  0.99395312330E+03  0.25500000920E-02 0.  1.
</event>
<event>
 5   0  0.1480937E-03  0.1153153E+04  0.7818609E-02  0.9154880E-01
        1   -1    0    0  501    0  0.00000000000E+00  0.00000000000E+00  0.10200858791E+04  0.10200858791E+04  0.50400001928E-02 0.  1.
       -1   -1    0    0    0  501  0.00000000000E+00  0.00000000000E+00 -0.32589450436E+03  0.32589450440E+03  0.50400001928E-02 0. -1.
    10030    2    1    2    0    0  0.00000000000E+00  0.00000000000E+00  0.69419137472E+03  0.13459803835E+04  0.11531528641E+04 0.  0.
        1    1    3    3  502    0  0.15130173866E+03 -0.32394868243E+02  0.99539945362E+03  0.10073538186E+04  0.50400001928E-02 0.  1.
       -1    1    3    3    0  502 -0.15130173866E+03  0.32394868243E+02 -0.30120807890E+03  0.33862656486E+03  0.50400001928E-02 0. -1.
</event>
<event>
 5   0  0.1509004E-03  0.1105224E+04  0.7818609E-02  0.9200115E-01
        1   -1    0    0  501    0  0.00000000000E+00  0.00000000000E+00  0.52683898274E+03  0.52683898276E+03  0.50400001928E-02 0.  1.
       -1   -1    0    0    0  501  0.00000000000E+00  0.00000000000E+00 -0.57964604994E+03  0.57964604996E+03  0.50400001928E-02 0. -1.
    10030    2    1    2    0    0  0.00000000000E+00  0.00000000000E+00 -0.52807067204E+02  0.11064850327E+04  0.11052242041E+04 0.  0.
        3    1    3    3  502    0  0.38691551915E+03  0.38374358561E+03  0.65447337476E+02  0.54885892781E+03  0.10100000352E+00 0.  1.
       -3    1    3    3    0  502 -0.38691551915E+03 -0.38374358561E+03 -0.11825440468E+03  0.55762610491E+03  0.10100000352E+00 0. -1.
</event>
<event>
 5   0  0.1480937E-03  0.1101597E+04  0.7818609E-02  0.9203637E-01
       -1   -1    0    0    0  501  0.00000000000E+00  0.00000000000E+00  0.11902213049E+04  0.11902213049E+04  0.50400001928E-02 0. -1.
        1   -1    0    0  501    0  0.00000000000E+00  0.00000000000E+00 -0.25489287382E+03  0.25489287387E+03  0.50400001928E-02 0.  1.
    10030    2    1    2    0    0  0.00000000000E+00  0.00000000000E+00  0.93532843105E+03  0.14451141788E+04  0.11015968935E+04 0.  0.
        1    1    3    3  502    0  0.52434119395E+03  0.99864122990E+02  0.28936842074E+03  0.60715781612E+03  0.50400001928E-02 0.  1.
       -1    1    3    3    0  502 -0.52434119395E+03 -0.99864122990E+02  0.64596001031E+03  0.83795636264E+03  0.50400001928E-02 0. -1.
</event>
<event>
 5   0  0.2392585E-03  0.1109811E+04  0.7818609E-02  0.9195682E-01
       -2   -1    0    0    0  501  0.00000000000E+00  0.00000000000E+00  0.17861702468E+03  0.17861702470E+03  0.25500000920E-02 0. -1.
        2   -1    0    0  501    0  0.00000000000E+00  0.00000000000E+00 -0.17239126888E+04  0.17239126888E+04  0.25500000920E-02 0.  1.
    10030    2    1    2    0    0  0.00000000000E+00  0.00000000000E+00 -0.15452956641E+04  0.19025297135E+04  0.11098110746E+04 0.  0.
        5    1    3    3  502    0 -0.11114261872E+03 -0.45977172632E+03 -0.12699533087E+04  0.13551923178E+04  0.46999998093E+01 0.  1.
       -5    1    3    3    0  502  0.11114261872E+03  0.45977172632E+03 -0.27534235541E+03  0.54733739567E+03  0.46999998093E+01 0. -1.
</event>
<event>
 5   0  0.2483036E-03  0.1103488E+04  0.7818609E-02  0.9201799E-01
       -2   -1    0    0    0  501  0.00000000000E+00  0.00000000000E+00  0.15446809732E+03  0.15446809734E+03  0.25500000920E-02 0.  1.
        2   -1    0    0  501    0  0.00000000000E+00  0.00000000000E+00 -0.19707706131E+04  0.19707706131E+04  0.25500000920E-02 0. -1.
    10030    2    1    2    0    0  0.00000000000E+00  0.00000000000E+00 -0.18163025158E+04  0.21252387105E+04  0.11034875385E+04 0.  0.
        3    1    3    3  502    0  0.27324236788E+03 -0.26724401841E+03 -0.16745171726E+04  0.17175821752E+04  0.10100000352E+00 0. -1.
       -3    1    3    3    0  502 -0.27324236788E+03  0.26724401841E+03 -0.14178534316E+03  0.40765653523E+03  0.10100000352E+00 0.  1.
</event>
<event>
 5   0  0.2467448E-03  0.1096145E+04  0.7818609E-02  0.9208957E-01
       -2   -1    0    0    0  501  0.00000000000E+00  0.00000000000E+00  0.34734249715E+03  0.34734249716E+03  0.25500000920E-02 0. -1.
        2   -1    0    0  501    0  0.00000000000E+00  0.00000000000E+00 -0.86480522722E+03  0.86480522722E+03  0.25500000920E-02 0.  1.
    10030    2    1    2    0    0  0.00000000000E+00  0.00000000000E+00 -0.51746273006E+03  0.12121477244E+04  0.10961452589E+04 0.  0.
        1    1    3    3  502    0 -0.12410248080E+03 -0.26101853042E+03  0.25622290562E+03  0.38624121524E+03  0.50400001928E-02 0. -1.
       -1    1    3    3    0  502  0.12410248080E+03  0.26101853042E+03 -0.77368563568E+03  0.82590650914E+03  0.50400001928E-02 0.  1.
</event>
<event>
 5   0  0.1415400E-03  0.1084750E+04  0.7818609E-02  0.9220185E-01
        1   -1    0    0  501    0  0.00000000000E+00  0.00000000000E+00  0.36008486024E+03  0.36008486028E+03  0.50400001928E-02 0.  1.
       -1   -1    0    0    0  501  0.00000000000E+00  0.00000000000E+00 -0.81694746356E+03  0.81694746358E+03  0.50400001928E-02 0. -1.
    10030    2    1    2    0    0  0.00000000000E+00  0.00000000000E+00 -0.45686260332E+03  0.11770323239E+04  0.10847495808E+04 0.  0.
        2    1    3    3  502    0  0.14263720165E+03  0.14453945417E+03 -0.77414138625E+03  0.80033237534E+03  0.25500000920E-02 0. -1.
       -2    1    3    3    0  502 -0.14263720165E+03 -0.14453945417E+03  0.31727878293E+03  0.37669994851E+03  0.25500000920E-02 0.  1.
</event>
<event>
 5   0  0.1480937E-03  0.1115277E+04  0.7818609E-02  0.9190428E-01
       -1   -1    0    0    0  501  0.00000000000E+00  0.00000000000E+00  0.92329962982E+03  0.92329962983E+03  0.50400001928E-02 0.  1.
        1   -1    0    0  501    0  0.00000000000E+00  0.00000000000E+00 -0.33679309904E+03  0.33679309907E+03  0.50400001928E-02 0. -1.
    10030    2    1    2    0    0  0.00000000000E+00  0.00000000000E+00  0.58650653078E+03  0.12600927289E+04  0.11152774430E+04 0.  0.
        1    1    3    3  502    0  0.30453563456E+03 -0.41812340431E+03  0.52860828693E+03  0.73959168125E+03  0.50400001928E-02 0.  1.
       -1    1    3    3    0  502 -0.30453563456E+03  0.41812340431E+03  0.57898243854E+02  0.52050104765E+03  0.50400001928E-02 0. -1.
</event>
<event>
 5   0  0.2392585E-03  0.1103386E+04  0.7818609E-02  0.9201898E-01
        2   -1    0    0  501    0  0.00000000000E+00  0.00000000000E+00  0.77764957946E+03  0.77764957947E+03  0.25500000920E-02 0. -1.
       -2   -1    0    0    0  501  0.00000000000E+00  0.00000000000E+00 -0.39139081518E+03  0.39139081519E+03  0.25500000920E-02 0.  1.
    10030    2    1    2    0    0  0.00000000000E+00  0.00000000000E+00  0.38625876428E+03  0.11690403947E+04  0.11033855225E+04 0.  0.
        5    1    3    3  502    0  0.88531531030E+01 -0.46505717151E+03  0.50740426252E+03  0.68835871950E+03  0.46999998093E+01 0. -1.
       -5    1    3    3    0  502 -0.88531531030E+01  0.46505717151E+03 -0.12114549824E+03  0.48068167516E+03  0.46999998093E+01 0.  1.
</event>
<event>
 5   0  0.1509004E-03  0.1100957E+04  0.7818609E-02  0.9204259E-01
       -1   -1    0    0    0  501  0.00000000000E+00  0.00000000000E+00  0.44861614968E+03  0.44861614971E+03  0.50400001928E-02 0.  1.
        1   -1    0    0  501    0  0.00000000000E+00  0.00000000000E+00 -0.67547003864E+03  0.67547003866E+03  0.50400001928E-02 0. -1.
    10030    2    1    2    0    0  0.00000000000E+00  0.00000000000E+00 -0.22685388896E+03  0.11240861884E+04  0.11009573434E+04 0.  0.
        3    1    3    3  502    0 -0.18371543541E+02 -0.31857214498E+02  0.44736055040E+03  0.44886954450E+03  0.10100000352E+00 0.  1.
       -3    1    3    3    0  502  0.18371543541E+02  0.31857214498E+02 -0.67421443936E+03  0.67521664387E+03  0.10100000352E+00 0. -1.
</event>
<event>
 5   0  0.1479573E-03  0.1045062E+04  0.7818609E-02  0.9260457E-01
        1   -1    0    0  501    0  0.00000000000E+00  0.00000000000E+00  0.17448296292E+04  0.17448296292E+04  0.50400001928E-02 0. -1.
       -1   -1    0    0    0  501  0.00000000000E+00  0.00000000000E+00 -0.15648438693E+03  0.15648438701E+03  0.50400001928E-02 0.  1.
    10030    2    1    2    0    0  0.00000000000E+00  0.00000000000E+00  0.15883452423E+04  0.19013140162E+04  0.10450619023E+04 0.  0.
        4    1    3    3  502    0 -0.36897194683E+03 -0.14230188668E+03  0.14155398656E+04  0.14697431233E+04  0.12699999809E+01 0. -1.
       -4    1    3    3    0  502  0.36897194683E+03  0.14230188668E+03  0.17280537668E+03  0.43157089292E+03  0.12699999809E+01 0.  1.
</event>
<event>
 5   0  0.2392585E-03  0.1103556E+04  0.7818609E-02  0.9201733E-01
       -2   -1    0    0    0  501  0.00000000000E+00  0.00000000000E+00  0.41925886605E+03  0.41925886606E+03  0.25500000920E-02 0.  1.
        2   -1    0    0  501    0  0.00000000000E+00  0.00000000000E+00 -0.72618400865E+03  0.72618400866E+03  0.25500000920E-02 0. -1.
    10030    2    1    2    0    0  0.00000000000E+00  0.00000000000E+00 -0.30692514260E+03  0.11454428747E+04  0.11035562224E+04 0.  0.
        5    1    3    3  502    0  0.43312613405E+03  0.34142012859E+03 -0.17055080293E+03  0.57730028458E+03  0.46999998093E+01 0. -1.
       -5    1    3    3    0  502 -0.43312613405E+03 -0.34142012859E+03 -0.13637433967E+03  0.56814259013E+03  0.46999998093E+01 0.  1.
</event>
<event>
 5   0  0.1468556E-03  0.1104571E+04  0.7818609E-02  0.9200748E-01
       -1   -1    0    0    0  501  0.00000000000E+00  0.00000000000E+00  0.77194666489E+03  0.77194666490E+03  0.50400001928E-02 0.  1.
        1   -1    0    0  501    0  0.00000000000E+00  0.00000000000E+00 -0.39512994086E+03  0.39512994089E+03  0.50400001928E-02 0. -1.
    10030    2    1    2    0    0  0.00000000000E+00  0.00000000000E+00  0.37681672403E+03  0.11670766058E+04  0.11045709395E+04 0.  0.
        5    1    3    3  502    0 -0.44691569816E+03 -0.24519117163E+01  0.53120161843E+03  0.69421675473E+03  0.46999998093E+01 0.  1.
       -5    1    3    3    0  502  0.44691569816E+03  0.24519117163E+01 -0.15438489439E+03  0.47285985106E+03  0.46999998093E+01 0. -1.
</event>
<event>
 5   0  0.2392585E-03  0.1101243E+04  0.7818609E-02  0.9203982E-01
        2   -1    0    0  501    0  0.00000000000E+00  0.00000000000E+00  0.11624243272E+04  0.11624243272E+04  0.25500000920E-02 0. -1.
       -2   -1    0    0    0  501  0.00000000000E+00  0.00000000000E+00 -0.26082023426E+03  0.26082023427E+03  0.25500000920E-02 0.  1.
    10030    2    1    2    0    0  0.00000000000E+00  0.00000000000E+00  0.90160409297E+03  0.14232445615E+04  0.11012425443E+04 0.  0.
        5    1    3    3  502    0 -0.34281726670E+02  0.52608900320E+03  0.65603245276E+03  0.84163266639E+03  0.46999998093E+01 0. -1.
       -5    1    3    3    0  502  0.34281726670E+02 -0.52608900320E+03  0.24557164022E+03  0.58161189512E+03  0.46999998093E+01 0.  1.
</event>
<event>
 5   0  0.2438115E-03  0.1090950E+04  0.7818609E-02  0.9214058E-01
        2   -1    0    0  501    0  0.00000000000E+00  0.00000000000E+00  0.11932389275E+04  0.11932389275E+04  0.25500000920E-02 0. -1.
       -2   -1    0    0    0  501  0.00000000000E+00  0.00000000000E+00 -0.24935746518E+03  0.24935746519E+03  0.25500000920E-02 0.  1.
    10030    2    1    2    0    0  0.00000000000E+00  0.00000000000E+00  0.94388146232E+03  0.14425963927E+04  0.10909501076E+04 0.  0.
        4    1    3    3  502    0  0.36969795089E+03 -0.33296595347E+03  0.17626306028E+03  0.52783821421E+03  0.12699999809E+01 0.  1.
       -4    1    3    3    0  502 -0.36969795089E+03  0.33296595347E+03  0.76761840203E+03  0.91475817848E+03  0.12699999809E+01 0. -1.
</event>
<event>
 5   0  0.2467448E-03  0.1099036E+04  0.7818609E-02  0.9206132E-01
        2   -1    0    0  501    0  0.00000000000E+00  0.00000000000E+00  0.76224172626E+03  0.76224172626E+03  0.25500000920E-02 0.  1.
       -2   -1    0    0    0  501  0.00000000000E+00  0.00000000000E+00 -0.39616031769E+03  0.39616031770E+03  0.25500000920E-02 0. -1.
    10030    2    1    2    0    0  0.00000000000E+00  0.00000000000E+00  0.36608140857E+03  0.11584020440E+04  0.10990358037E+04 0.  0.
        1    1    3    3  502    0 -0.10328769959E+03 -0.10156557750E+03  0.74175504957E+03  0.75576747020E+03  0.50400001928E-02 0.  1.
       -1    1    3    3    0  502  0.10328769959E+03  0.10156557750E+03 -0.37567364100E+03  0.40263457376E+03  0.50400001928E-02 0. -1.
</event>
<event>
 5   0  0.2467448E-03  0.1084267E+04  0.7818609E-02  0.9220663E-01
       -2   -1    0    0    0  501  0.00000000000E+00  0.00000000000E+00  0.34384868434E+03  0.34384868435E+03  0.25500000920E-02 0. -1.
        2   -1    0    0  501    0  0.00000000000E+00  0.00000000000E+00 -0.85476196271E+03  0.85476196271E+03  0.25500000920E-02 0.  1.
    10030    2    1    2    0    0  0.00000000000E+00  0.00000000000E+00 -0.51091327837E+03  0.11986106471E+04  0.10842670821E+04 0.  0.
        1    1    3    3  502    0  0.88742141635E+02  0.24008547905E+03 -0.78375935736E+03  0.82449677697E+03  0.50400001928E-02 0.  1.
       -1    1    3    3    0  502 -0.88742141635E+02 -0.24008547905E+03  0.27284607900E+03  0.37411387010E+03  0.50400001928E-02 0. -1.
</event>
<event>
 5   0  0.1415400E-03  0.1106811E+04  0.7818609E-02  0.9198579E-01
       -1   -1    0    0    0  501  0.00000000000E+00  0.00000000000E+00  0.54643084147E+03  0.54643084149E+03  0.50400001928E-02 0.  1.
        1   -1    0    0  501    0  0.00000000000E+00  0.00000000000E+00 -0.56046938857E+03  0.56046938859E+03  0.50400001928E-02 0. -1.
    10030    2    1    2    0    0  0.00000000000E+00  0.00000000000E+00 -0.14038547100E+02  0.11069002301E+04  0.11068112028E+04 0.  0.
        2    1    3    3  502    0 -0.34774232544E+03  0.35119958606E+02  0.42208355895E+03  0.54800790791E+03  0.25500000920E-02 0.  1.
       -2    1    3    3    0  502  0.34774232544E+03 -0.35119958606E+02 -0.43612210605E+03  0.55889232217E+03  0.25500000920E-02 0. -1.
</event>
<event>
 5   0  0.2467448E-03  0.1103917E+04  0.7818609E-02  0.9201382E-01
        2   -1    0    0  501    0  0.00000000000E+00  0.00000000000E+00  0.12925005834E+04  0.12925005834E+04  0.25500000920E-02 0.  1.
       -2   -1    0    0    0  501  0.00000000000E+00  0.00000000000E+00 -0.23571235649E+03  0.23571235650E+03  0.25500000920E-02 0. -1.
    10030    2    1    2    0    0  0.00000000000E+00  0.00000000000E+00  0.10567882270E+04  0.15282129399E+04  0.11039173127E+04 0.  0.
        1    1    3    3  502    0  0.24105818904E+03 -0.48649202277E+03  0.39082785913E+03  0.66897679647E+03  0.50400001928E-02 0.  1.
       -1    1    3    3    0  502 -0.24105818904E+03  0.48649202277E+03  0.66596036783E+03  0.85923614348E+03  0.50400001928E-02 0. -1.
</event>
<event>
 5   0  0.1468556E-03  0.1099798E+04  0.7818609E-02  0.9205388E-01
        1   -1    0    0  501    0  0.00000000000E+00  0.00000000000E+00  0.82556510666E+03  0.82556510667E+03  0.50400001928E-02 0. -1.
       -1   -1    0    0    0  501  0.00000000000E+00  0.00000000000E+00 -0.36628141784E+03  0.36628141787E+03  0.50400001928E-02 0.  1.
    10030    2    1    2    0    0  0.00000000000E+00  0.00000000000E+00  0.45928368882E+03  0.11918465245E+04  0.10997984503E+04 0.  0.
        5    1    3    3  502    0 -0.23661223291E+03 -0.29037670632E+03  0.66590575224E+03  0.76403962018E+03  0.46999998093E+01 0. -1.
       -5    1    3    3    0  502  0.23661223291E+03  0.29037670632E+03 -0.20662206342E+03  0.42780690437E+03  0.46999998093E+01 0.  1.
</event>
<event>
 5   0  0.1509004E-03  0.1099287E+04  0.7818609E-02  0.9205888E-01
       -1   -1    0    0    0  501  0.00000000000E+00  0.00000000000E+00  0.24598244355E+03  0.24598244360E+03  0.50400001928E-02 0. -1.
        1   -1    0    0  501    0  0.00000000000E+00  0.00000000000E+00 -0.12281677845E+04  0.12281677845E+04  0.50400001928E-02 0.  1.
    10030    2    1    2    0    0  0.00000000000E+00  0.00000000000E+00 -0.98218534091E+03  0.14741502281E+04  0.10992865191E+04 0.  0.
        3    1    3    3  502    0  0.23956358950E+03 -0.24517620885E+03 -0.10672661919E+04  0.11209635236E+04  0.10100000352E+00 0.  1.
       -3    1    3    3    0  502 -0.23956358950E+03  0.24517620885E+03  0.85080850947E+02  0.35318670445E+03  0.10100000352E+00 0. -1.
</event>
<event>
 5   0  0.2438115E-03  0.1100080E+04  0.7818609E-02  0.9205114E-01
        2   -1    0    0  501    0  0.00000000000E+00  0.00000000000E+00  0.15238960474E+04  0.15238960474E+04  0.25500000920E-02 0. -1.
       -2   -1    0    0    0  501  0.00000000000E+00  0.00000000000E+00 -0.19853306577E+03  0.19853306579E+03  0.25500000920E-02 0.  1.
    10030    2    1    2    0    0  0.00000000000E+00  0.00000000000E+00  0.13253629816E+04  0.17224291132E+04  0.11000795503E+04 0.  0.
        4    1    3    3  502    0 -0.18041152082E+03 -0.93662951546E+01  0.14761179115E+04  0.14871320539E+04  0.12699999809E+01 0. -1.
       -4    1    3    3    0  502  0.18041152082E+03  0.93662951546E+01 -0.15075492985E+03  0.23529705927E+03  0.12699999809E+01 0.  1.
</event>
<event>
 5   0  0.1479573E-03  0.1097815E+04  0.7818609E-02  0.9207324E-01
       -1   -1    0    0    0  501  0.00000000000E+00  0.00000000000E+00  0.34763741627E+03  0.34763741631E+03  0.50400001928E-02 0. -1.
        1   -1    0    0  501    0  0.00000000000E+00  0.00000000000E+00 -0.86670640920E+03  0.86670640921E+03  0.50400001928E-02 0.  1.
    10030    2    1    2    0    0  0.00000000000E+00  0.00000000000E+00 -0.51906899292E+03  0.12143438255E+04  0.10978152427E+04 0.  0.
        4    1    3    3  502    0 -0.44938938182E+03  0.29387830571E+03 -0.13349846018E+03  0.55329804521E+03  0.12699999809E+01 0. -1.
       -4    1    3    3    0  502  0.44938938182E+03 -0.29387830571E+03 -0.38557053274E+03  0.66104578032E+03  0.12699999809E+01 0.  1.
</event>
<event>
 5   0  0.2483036E-03  0.1124646E+04  0.7818609E-02  0.9181497E-01
       -2   -1    0    0    0  501  0.00000000000E+00  0.00000000000E+00  0.44817474362E+03  0.44817474363E+03  0.25500000920E-02 0. -1.
        2   -1    0    0  501    0  0.00000000000E+00  0.00000000000E+00 -0.70554492901E+03  0.70554492902E+03  0.25500000920E-02 0.  1.
    10030    2    1    2    0    0  0.00000000000E+00  0.00000000000E+00 -0.25737018539E+03  0.11537196726E+04  0.11246464648E+04 0.  0.
        3    1    3    3  502    0 -0.35831126889E+03 -0.13603927543E+03  0.29342953261E+03  0.48269509080E+03  0.10100000352E+00 0. -1.
       -3    1    3    3    0  502  0.35831126889E+03  0.13603927543E+03 -0.55079971800E+03  0.67102458184E+03  0.10100000352E+00 0.  1.
</event>
<event>
 5   0  0.2483036E-03  0.1095966E+04  0.7818609E-02  0.9209132E-01
       -2   -1    0    0    0  501  0.00000000000E+00  0.00000000000E+00  0.48572398892E+03  0.48572398893E+03  0.25500000920E-02 0. -1.
        2   -1    0    0  501    0  0.00000000000E+00  0.00000000000E+00 -0.61822269075E+03  0.61822269075E+03  0.25500000920E-02 0.  1.
    10030    2    1    2    0    0  0.00000000000E+00  0.00000000000E+00 -0.13249870183E+03  0.11039466797E+04  0.10959664071E+04 0.  0.
        3    1    3    3  502    0  0.12319801012E+03 -0.41464374030E+03 -0.40511896668E+03  0.59264539856E+03  0.10100000352E+00 0.  1.
       -3    1    3    3    0  502 -0.12319801012E+03  0.41464374030E+03  0.27262026485E+03  0.51130128112E+03  0.10100000352E+00 0. -1.
</event>
<event>
 5   0  0.2483036E-03  0.1102712E+04  0.7818609E-02  0.9202552E-01
       -2   -1    0    0    0  501  0.00000000000E+00  0.00000000000E+00  0.22016651932E+03  0.22016651933E+03  0.25500000920E-02 0.  1.
        2   -1    0    0  501    0  0.00000000000E+00  0.00000000000E+00 -0.13807436317E+04  0.13807436317E+04  0.25500000920E-02 0. -1.
    10030    2    1    2    0    0  0.00000000000E+00  0.00000000000E+00 -0.11605771124E+04  0.16009101511E+04  0.11027121465E+04 0.  0.
        3    1    3    3  502    0 -0.30992263774E+03  0.22202547524E+03 -0.11585437965E+04  0.12196602362E+04  0.10100000352E+00 0. -1.
       -3    1    3    3    0  502  0.30992263774E+03 -0.22202547524E+03 -0.20333158935E+01  0.38124991490E+03  0.10100000352E+00 0.  1.
</event>
<event>
 5   0  0.1415400E-03  0.1094704E+04  0.7818609E-02  0.9210369E-01
       -1   -1    0    0    0  501  0.00000000000E+00  0.00000000000E+00  0.51094694697E+03  0.51094694699E+03  0.50400001928E-02 0. -1.
        1   -1    0    0  501    0  0.00000000000E+00  0.00000000000E+00 -0.58635110097E+03  0.58635110099E+03  0.50400001928E-02 0.  1.
    10030    2    1    2    0    0  0.00000000000E+00  0.00000000000E+00 -0.75404154003E+02  0.10972980480E+04  0.10947041699E+04 0.  0.
        2    1    3    3  502    0  0.37070621136E+03  0.16101682061E+03  0.33228605311E+03  0.52322417065E+03  0.25500000920E-02 0. -1.
       -2    1    3    3    0  502 -0.37070621136E+03 -0.16101682061E+03 -0.40769020711E+03  0.57407387733E+03  0.25500000920E-02 0.  1.
</event>
<event>
 5   0  0.2392585E-03  0.1088733E+04  0.7818609E-02  0.9216243E-01
        2   -1    0    0  501    0  0.00000000000E+00  0.00000000000E+00  0.99916996967E+03  0.99916996968E+03  0.25500000920E-02 0.  1.
       -2   -1    0    0    0  501  0.00000000000E+00  0.00000000000E+00 -0.29658132287E+03  0.29658132288E+03  0.25500000920E-02 0. -1.
    10030    2    1    2    0    0  0.00000000000E+00  0.00000000000E+00  0.70258864680E+03  0.12957512926E+04  0.10887334869E+04 0.  0.
        5    1    3    3  502    0 -0.21831558964E+03 -0.48443421020E+03  0.21060089473E+03  0.57158816254E+03  0.46999998093E+01 0. -1.
       -5    1    3    3    0  502  0.21831558964E+03  0.48443421020E+03  0.49198775207E+03  0.72416313002E+03  0.46999998093E+01 0.  1.
</event>
<event>
 5   0  0.2392585E-03  0.1106427E+04  0.7818609E-02  0.9198950E-01
        2   -1    0    0  501    0  0.00000000000E+00  0.00000000000E+00  0.66467034692E+03  0.66467034693E+03  0.25500000920E-02 0.  1.
       -2   -1    0    0    0  501  0.00000000000E+00  0.00000000000E+00 -0.46044694564E+03  0.46044694564E+03  0.25500000920E-02 0. -1.
    10030    2    1    2    0    0  0.00000000000E+00  0.00000000000E+00  0.20422340129E+03  0.11251172926E+04  0.11064274601E+04 0.  0.
        5    1    3    3  502    0 -0.24386486184E+03  0.49647386371E+03  0.93789762926E+02  0.56104810651E+03  0.46999998093E+01 0. -1.
       -5    1    3    3    0  502  0.24386486184E+03 -0.49647386371E+03  0.11043363836E+03  0.56406918607E+03  0.46999998093E+01 0.  1.
</event>
<event>
 5   0  0.2438115E-03  0.1101026E+04  0.7818609E-02  0.9204192E-01
        2   -1    0    0  501    0  0.00000000000E+00  0.00000000000E+00  0.80345976500E+03  0.80345976501E+03  0.25500000920E-02 0.  1.
       -2   -1    0    0    0  501  0.00000000000E+00  0.00000000000E+00 -0.37719974243E+03  0.37719974244E+03  0.25500000920E-02 0. -1.
    10030    2    1    2    0    0  0.00000000000E+00  0.00000000000E+00  0.42626002258E+03  0.11806595074E+04  0.11010264600E+04 0.  0.
        4    1    3    3  502    0 -0.21767551677E+03 -0.29354027645E+03 -0.22836984686E+03  0.43093262160E+03  0.12699999809E+01 0. -1.
       -4    1    3    3    0  502  0.21767551677E+03  0.29354027645E+03  0.65462986944E+03  0.74972688585E+03  0.12699999809E+01 0.  1.
</event>
<event>
 5   0  0.2438115E-03  0.1107800E+04  0.7818609E-02  0.9197623E-01
       -2   -1    0    0    0  501  0.00000000000E+00  0.00000000000E+00  0.18086296835E+03  0.18086296837E+03  0.25500000920E-02 0.  1.
        2   -1    0    0  501    0  0.00000000000E+00  0.00000000000E+00 -0.16963395602E+04  0.16963395602E+04  0.25500000920E-02 0. -1.
    10030    2    1    2    0    0  0.00000000000E+00  0.00000000000E+00 -0.15154765918E+04  0.18772025285E+04  0.11077996357E+04 0.  0.
        4    1    3    3  502    0  0.29488826831E+03  0.44761825805E+03 -0.52121773159E+03  0.74765682793E+03  0.12699999809E+01 0.  1.
       -4    1    3    3    0  502 -0.29488826831E+03 -0.44761825805E+03 -0.99425886023E+03  0.11295457006E+04  0.12699999809E+01 0. -1.
</event>
<event>
 5   0  0.1415400E-03  0.1103936E+04  0.7818609E-02  0.9201364E-01
       -1   -1    0    0    0  501  0.00000000000E+00  0.00000000000E+00  0.33460495838E+03  0.33460495842E+03  0.50400001928E-02 0. -1.
        1   -1    0    0  501    0  0.00000000000E+00  0.00000000000E+00 -0.91053270094E+03  0.91053270095E+03  0.50400001928E-02 0.  1.
    10030    2    1    2    0    0  0.00000000000E+00  0.00000000000E+00 -0.57592774255E+03  0.12451376594E+04  0.11039361513E+04 0.  0.
        2    1    3    3  502    0  0.36058766391E+03  0.19255258221E+03  0.13037997162E+03  0.42906747405E+03  0.25500000920E-02 0. -1.
       -2    1    3    3    0  502 -0.36058766391E+03 -0.19255258221E+03 -0.70630771417E+03  0.81607018533E+03  0.25500000920E-02 0.  1.
</event>
<event>
 5   0  0.2483036E-03  0.1097538E+04  0.7818609E-02  0.9207594E-01
        2   -1    0    0  501    0  0.00000000000E+00  0.00000000000E+00  0.11831312869E+04  0.11831312869E+04  0.25500000920E-02 0. -1.
       -2   -1    0    0    0  501  0.00000000000E+00  0.00000000000E+00 -0.25453439910E+03  0.25453439912E+03  0.25500000920E-02 0.  1.
    10030    2    1    2    0    0  0.00000000000E+00  0.00000000000E+00  0.92859688782E+03  0.14376656860E+04  0.10975383569E+04 0.  0.
        3    1    3    3  502    0 -0.22586377489E+03  0.33362173828E+03  0.95236537179E+03  0.10340781985E+04  0.10100000352E+00 0. -1.
       -3    1    3    3    0  502  0.22586377489E+03 -0.33362173828E+03 -0.23768483964E+02  0.40358748753E+03  0.10100000352E+00 0.  1.
</event>
<event>
 5   0  0.1479573E-03  0.1099533E+04  0.7818609E-02  0.9205647E-01
       -1   -1    0    0    0  501  0.00000000000E+00  0.00000000000E+00  0.44316820799E+03  0.44316820802E+03  0.50400001928E-02 0.  1.
        1   -1    0    0  501    0  0.00000000000E+00  0.00000000000E+00 -0.68200576192E+03  0.68200576194E+03  0.50400001928E-02 0. -1.
    10030    2    1    2    0    0  0.00000000000E+00  0.00000000000E+00 -0.23883755393E+03  0.11251739700E+04  0.10995331216E+04 0.  0.
        4    1    3    3  502    0  0.37363856521E+03  0.10473810467E+03  0.27910588805E+03  0.47799326106E+03  0.12699999809E+01 0.  1.
       -4    1    3    3    0  502 -0.37363856521E+03 -0.10473810467E+03 -0.51794344197E+03  0.64718070889E+03  0.12699999809E+01 0. -1.
</event>
<event>
 5   0  0.2467448E-03  0.1101454E+04  0.7818609E-02  0.9203776E-01
        2   -1    0    0  501    0  0.00000000000E+00  0.00000000000E+00  0.21857381226E+04  0.21857381226E+04  0.25500000920E-02 0. -1.
       -2   -1    0    0    0  501  0.00000000000E+00  0.00000000000E+00 -0.13876337396E+03  0.13876337398E+03  0.25500000920E-02 0.  1.
    10030    2    1    2    0    0  0.00000000000E+00  0.00000000000E+00  0.20469747486E+04  0.23245014966E+04  0.11014543050E+04 0.  0.
        1    1    3    3  502    0  0.23507195885E+03  0.33127735381E+03  0.23866830784E+03  0.47113275430E+03  0.50400001928E-02 0.  1.
       -1    1    3    3    0  502 -0.23507195885E+03 -0.33127735381E+03  0.18083064408E+04  0.18533687422E+04  0.50400001928E-02 0. -1.
</event>
<event>
 5   0  0.2488472E-03  0.1109838E+04  0.7818609E-02  0.9195655E-01
        2   -1    0    0  501    0  0.00000000000E+00  0.00000000000E+00  0.20819947240E+04  0.20819947240E+04  0.25500000920E-02 0.  1.
       -2   -1    0    0    0  501  0.00000000000E+00  0.00000000000E+00 -0.14790397167E+03  0.14790397169E+03  0.25500000920E-02 0. -1.
    10030    2    1    2    0    0  0.00000000000E+00  0.00000000000E+00  0.19340907524E+04  0.22298986957E+04  0.11098383463E+04 0.  0.
        2    1    3    3  502    0 -0.10644376501E+03  0.10161308092E+03 -0.10798505081E+03  0.18252743500E+03  0.25500000920E-02 0. -1.
       -2    1    3    3    0  502  0.10644376501E+03 -0.10161308092E+03  0.20420758032E+04  0.20473712607E+04  0.25500000920E-02 0.  1.
</event>
<event>
 5   0  0.1479573E-03  0.1104399E+04  0.7818609E-02  0.9200915E-01
        1   -1    0    0  501    0  0.00000000000E+00  0.00000000000E+00  0.39962623552E+03  0.39962623555E+03  0.50400001928E-02 0.  1.
       -1   -1    0    0    0  501  0.00000000000E+00  0.00000000000E+00 -0.76302318319E+03  0.76302318321E+03  0.50400001928E-02 0. -1.
    10030    2    1    2    0    0  0.00000000000E+00  0.00000000000E+00 -0.36339694767E+03  0.11626494188E+04  0.11043986279E+04 0.  0.
        4    1    3    3  502    0  0.51376155566E+03 -0.20018248115E+03 -0.15014233924E+03  0.57146154443E+03  0.12699999809E+01 0. -1.
       -4    1    3    3    0  502 -0.51376155566E+03  0.20018248115E+03 -0.21325460844E+03  0.59118787433E+03  0.12699999809E+01 0.  1.
</event>
<event>
 5   0  0.1415400E-03  0.1103441E+04  0.7818609E-02  0.9201844E-01
        1   -1    0    0  501    0  0.00000000000E+00  0.00000000000E+00  0.50887724982E+03  0.50887724984E+03  0.50400001928E-02 0.  1.
       -1   -1    0    0    0  501  0.00000000000E+00  0.00000000000E+00 -0.59817082009E+03  0.59817082011E+03  0.50400001928E-02 0. -1.
    10030    2    1    2    0    0  0.00000000000E+00  0.00000000000E+00 -0.89293570274E+02  0.11070480700E+04  0.11034410213E+04 0.  0.
        2    1    3    3  502    0 -0.18199607090E+03 -0.38248882548E+03 -0.39932079237E+03  0.58213174340E+03  0.25500000920E-02 0. -1.
       -2    1    3    3    0  502  0.18199607090E+03  0.38248882548E+03  0.31002722210E+03  0.52491632656E+03  0.25500000920E-02 0.  1.
</event>
<event>
 5   0  0.2438115E-03  0.1099417E+04  0.7818609E-02  0.9205761E-01
        2   -1    0    0  501    0  0.00000000000E+00  0.00000000000E+00  0.13077494966E+04  0.13077494966E+04  0.25500000920E-02 0.  1.
       -2   -1    0    0    0  501  0.00000000000E+00  0.00000000000E+00 -0.23106819008E+03  0.23106819009E+03  0.25500000920E-02 0. -1.
    10030    2    1    2    0    0  0.00000000000E+00  0.00000000000E+00  0.10766813065E+04  0.15388176867E+04  0.10994167713E+04 0.  0.
        4    1    3    3  502    0  0.37562266086E+03  0.20689398461E+03  0.10197126502E+04  0.11062156237E+04  0.12699999809E+01 0.  1.
       -4    1    3    3    0  502 -0.37562266086E+03 -0.20689398461E+03  0.56968656325E+02  0.43260206301E+03  0.12699999809E+01 0. -1.
</event>
<event>
 5   0  0.2438115E-03  0.1088158E+04  0.7818609E-02  0.9216812E-01
       -2   -1    0    0    0  501  0.00000000000E+00  0.00000000000E+00  0.41267965971E+03  0.41267965971E+03  0.25500000920E-02 0. -1.
        2   -1    0    0  501    0  0.00000000000E+00  0.00000000000E+00 -0.71731620749E+03  0.71731620749E+03  0.25500000920E-02 0.  1.
    10030    2    1    2    0    0  0.00000000000E+00  0.00000000000E+00 -0.30463654778E+03  0.11299958672E+04  0.10881577246E+04 0.  0.
        4    1    3    3  502    0  0.50971755862E+03  0.17854599155E+03 -0.22064736215E+03  0.58341883067E+03  0.12699999809E+01 0.  1.
       -4    1    3    3    0  502 -0.50971755862E+03 -0.17854599155E+03 -0.83989185637E+02  0.54657703653E+03  0.12699999809E+01 0. -1.
</event>
<event>
 5   0  0.1479573E-03  0.1074825E+04  0.7818609E-02  0.9230083E-01
       -1   -1    0    0    0  501  0.00000000000E+00  0.00000000000E+00  0.81291563753E+03  0.81291563755E+03  0.50400001928E-02 0.  1.
        1   -1    0    0  501    0  0.00000000000E+00  0.00000000000E+00 -0.35527909894E+03  0.35527909898E+03  0.50400001928E-02 0. -1.
    10030    2    1    2    0    0  0.00000000000E+00  0.00000000000E+00  0.45763653859E+03  0.11681947365E+04  0.10748245164E+04 0.  0.
        4    1    3    3  502    0  0.92600950720E+02  0.44212919910E+03  0.54523968772E+03  0.70805444334E+03  0.12699999809E+01 0.  1.
       -4    1    3    3    0  502 -0.92600950720E+02 -0.44212919910E+03 -0.87603149128E+02  0.46014029318E+03  0.12699999809E+01 0. -1.
</event>
<event>
 5   0  0.1415400E-03  0.1101575E+04  0.7818609E-02  0.9203658E-01
        1   -1    0    0  501    0  0.00000000000E+00  0.00000000000E+00  0.12442424144E+04  0.12442424144E+04  0.50400001928E-02 0. -1.
       -1   -1    0    0    0  501  0.00000000000E+00  0.00000000000E+00 -0.24381654895E+03  0.24381654900E+03  0.50400001928E-02 0.  1.
    10030    2    1    2    0    0  0.00000000000E+00  0.00000000000E+00  0.10004258655E+04  0.14880589634E+04  0.11015750389E+04 0.  0.
        2    1    3    3  502    0 -0.40525629847E+03 -0.10757504887E+02  0.10038786061E+04  0.10826452084E+04  0.25500000920E-02 0.  1.
       -2    1    3    3    0  502  0.40525629847E+03  0.10757504887E+02 -0.34527406635E+01  0.40541375505E+03  0.25500000920E-02 0. -1.
</event>
<event>
 5   0  0.2392585E-03  0.9701179E+03  0.7818609E-02  0.9341940E-01
       -2   -1    0    0    0  501  0.00000000000E+00  0.00000000000E+00  0.28013663658E+03  0.28013663660E+03  0.25500000920E-02 0. -1.
        2   -1    0    0  501    0  0.00000000000E+00  0.00000000000E+00 -0.83988366563E+03  0.83988366563E+03  0.25500000920E-02 0.  1.
    10030    2    1    2    0    0  0.00000000000E+00  0.00000000000E+00 -0.55974702905E+03  0.11200203022E+04  0.97011790051E+03 0.  0.
        5    1    3    3  502    0  0.71554661906E+02  0.45106824709E+03 -0.91303066786E+02  0.46576922738E+03  0.46999998093E+01 0. -1.
       -5    1    3    3    0  502 -0.71554661906E+02 -0.45106824709E+03 -0.46844396226E+03  0.65425107485E+03  0.46999998093E+01 0.  1.
</event>
<event>
 5   0  0.2392585E-03  0.1101453E+04  0.7818609E-02  0.9203777E-01
       -2   -1    0    0    0  501  0.00000000000E+00  0.00000000000E+00  0.26573505783E+03  0.26573505784E+03  0.25500000920E-02 0.  1.
        2   -1    0    0  501    0  0.00000000000E+00  0.00000000000E+00 -0.11413617443E+04  0.11413617443E+04  0.25500000920E-02 0. -1.
    10030    2    1    2    0    0  0.00000000000E+00  0.00000000000E+00 -0.87562668642E+03  0.14070968021E+04  0.11014532748E+04 0.  0.
        5    1    3    3  502    0 -0.13954519249E+03  0.44593873843E+03 -0.81013905148E+03  0.93524413493E+03  0.46999998093E+01 0. -1.
       -5    1    3    3    0  502  0.13954519249E+03 -0.44593873843E+03 -0.65487634940E+02  0.47185266716E+03  0.46999998093E+01 0.  1.
</event>
<event>
 5   0  0.1468556E-03  0.1103281E+04  0.7818609E-02  0.9202000E-01
       -1   -1    0    0    0  501  0.00000000000E+00  0.00000000000E+00  0.26789172274E+03  0.26789172279E+03  0.50400001928E-02 0. -1.
        1   -1    0    0  501    0  0.00000000000E+00  0.00000000000E+00 -0.11359344567E+04  0.11359344567E+04  0.50400001928E-02 0.  1.
    10030    2    1    2    0    0  0.00000000000E+00  0.00000000000E+00 -0.86804273391E+03  0.14038261795E+04  0.11032813577E+04 0.  0.
        5    1    3    3  502    0  0.52307173443E+03 -0.16240032368E+03 -0.51753105876E+03  0.75355052336E+03  0.46999998093E+01 0. -1.
       -5    1    3    3    0  502 -0.52307173443E+03  0.16240032368E+03 -0.35051167516E+03  0.65027565609E+03  0.46999998093E+01 0.  1.
</event>
<event>
 5   0  0.2488472E-03  0.1095840E+04  0.7818609E-02  0.9209256E-01
        2   -1    0    0  501    0  0.00000000000E+00  0.00000000000E+00  0.37126339947E+03  0.37126339948E+03  0.25500000920E-02 0. -1.
       -2   -1    0    0    0  501  0.00000000000E+00  0.00000000000E+00 -0.80863402604E+03  0.80863402605E+03  0.25500000920E-02 0.  1.
    10030    2    1    2    0    0  0.00000000000E+00  0.00000000000E+00 -0.43737062658E+03  0.11798974255E+04  0.10958398011E+04 0.  0.
        2    1    3    3  502    0 -0.27327787732E+03 -0.41295933519E+03  0.33824670834E+02  0.49634697452E+03  0.25500000920E-02 0. -1.
       -2    1    3    3    0  502  0.27327787732E+03  0.41295933519E+03 -0.47119529741E+03  0.68355045100E+03  0.25500000920E-02 0.  1.
</event>
<event>
 5   0  0.1479573E-03  0.1092973E+04  0.7818609E-02  0.9212068E-01
       -1   -1    0    0    0  501  0.00000000000E+00  0.00000000000E+00  0.86614419234E+03  0.86614419236E+03  0.50400001928E-02 0.  1.
        1   -1    0    0  501    0  0.00000000000E+00  0.00000000000E+00 -0.34480107687E+03  0.34480107690E+03  0.50400001928E-02 0. -1.
    10030    2    1    2    0    0  0.00000000000E+00  0.00000000000E+00  0.52134311548E+03  0.12109452693E+04  0.10929729187E+04 0.  0.
        4    1    3    3  502    0  0.21724231782E+02  0.11321768728E+02 -0.34419079317E+03  0.34506381975E+03  0.12699999809E+01 0. -1.
       -4    1    3    3    0  502 -0.21724231782E+02 -0.11321768728E+02  0.86553390865E+03  0.86588144952E+03  0.12699999809E+01 0.  1.
</event>
<event>
 5   0  0.2483036E-03  0.1085631E+04  0.7818609E-02  0.9219311E-01
       -2   -1    0    0    0  501  0.00000000000E+00  0.00000000000E+00  0.16827388432E+03  0.16827388434E+03  0.25500000920E-02 0. -1.
        2   -1    0    0  501    0  0.00000000000E+00  0.00000000000E+00 -0.17510077069E+04  0.17510077069E+04  0.25500000920E-02 0.  1.
    10030    2    1    2    0    0  0.00000000000E+00  0.00000000000E+00 -0.15827338226E+04  0.19192815913E+04  0.10856313708E+04 0.  0.
        3    1    3    3  502    0  0.17285046171E+03  0.24853133843E+03 -0.15879082938E+04  0.16165079239E+04  0.10100000352E+00 0.  1.
       -3    1    3    3    0  502 -0.17285046171E+03 -0.24853133843E+03  0.51744712129E+01  0.30277366736E+03  0.10100000352E+00 0. -1.
</event>
<event>
 5   0  0.2392585E-03  0.1108707E+04  0.7818609E-02  0.9196747E-01
        2   -1    0    0  501    0  0.00000000000E+00  0.00000000000E+00  0.10161143639E+04  0.10161143639E+04  0.25500000920E-02 0. -1.
       -2   -1    0    0    0  501  0.00000000000E+00  0.00000000000E+00 -0.30243407967E+03  0.30243407968E+03  0.25500000920E-02 0.  1.
    10030    2    1    2    0    0  0.00000000000E+00  0.00000000000E+00  0.71368028426E+03  0.13185484436E+04  0.11087066564E+04 0.  0.
        5    1    3    3  502    0 -0.25797031869E+02 -0.34308731169E+03 -0.16006185599E+03  0.37949476681E+03  0.46999998093E+01 0.  1.
       -5    1    3    3    0  502  0.25797031869E+02  0.34308731169E+03  0.87374214025E+03  0.93905367682E+03  0.46999998093E+01 0. -1.
</event>
<event>
 5   0  0.2488472E-03  0.1090263E+04  0.7818609E-02  0.9214734E-01
       -2   -1    0    0    0  501  0.00000000000E+00  0.00000000000E+00  0.25219656824E+03  0.25219656825E+03  0.25500000920E-02 0.  1.
        2   -1    0    0  501    0  0.00000000000E+00  0.00000000000E+00 -0.11783210238E+04  0.11783210238E+04  0.25500000920E-02 0. -1.
    10030    2    1    2    0    0  0.00000000000E+00  0.00000000000E+00 -0.92612445556E+03  0.14305175921E+04  0.10902633049E+04 0.  0.
        2    1    3    3  502    0 -0.41484745000E+03  0.35022471256E+03 -0.39861279652E+03  0.67353390235E+03  0.25500000920E-02 0. -1.
       -2    1    3    3    0  502  0.41484745000E+03 -0.35022471256E+03 -0.52751165904E+03  0.75698368971E+03  0.25500000920E-02 0.  1.
</event>
<event>
 5   0  0.1509004E-03  0.1089292E+04  0.7818609E-02  0.9215692E-01
       -1   -1    0    0    0  501  0.00000000000E+00  0.00000000000E+00  0.10436072880E+04  0.10436072880E+04  0.50400001928E-02 0.  1.
        1   -1    0    0  501    0  0.00000000000E+00  0.00000000000E+00 -0.28424395122E+03  0.28424395126E+03  0.50400001928E-02 0. -1.
    10030    2    1    2    0    0  0.00000000000E+00  0.00000000000E+00  0.75936333676E+03  0.13278512393E+04  0.10892916214E+04 0.  0.
        3    1    3    3  502    0  0.31466398060E+03 -0.19299927110E+03  0.86785739383E+03  0.94310052781E+03  0.10100000352E+00 0.  1.
       -3    1    3    3    0  502 -0.31466398060E+03  0.19299927110E+03 -0.10849405707E+03  0.38475071144E+03  0.10100000352E+00 0. -1.
</event>
<event>
 5   0  0.2488472E-03  0.1094560E+04  0.7818609E-02  0.9210511E-01
        2   -1    0    0  501    0  0.00000000000E+00  0.00000000000E+00  0.75487387903E+03  0.75487387904E+03  0.25500000920E-02 0. -1.
       -2   -1    0    0    0  501  0.00000000000E+00  0.00000000000E+00 -0.39677512593E+03  0.39677512594E+03  0.25500000920E-02 0.  1.
    10030    2    1    2    0    0  0.00000000000E+00  0.00000000000E+00  0.35809875310E+03  0.11516490050E+04  0.10945595980E+04 0.  0.
        2    1    3    3  502    0 -0.23843465500E+03 -0.26533986757E+03  0.61573761283E+03  0.71161024296E+03  0.25500000920E-02 0. -1.
       -2    1    3    3    0  502  0.23843465500E+03  0.26533986757E+03 -0.25763885973E+03  0.44003876201E+03  0.25500000920E-02 0.  1.
</event>
<event>
 5   0  0.1468556E-03  0.1103707E+04  0.7818609E-02  0.9201586E-01
        1   -1    0    0  501    0  0.00000000000E+00  0.00000000000E+00  0.66762165152E+03  0.66762165154E+03  0.50400001928E-02 0. -1.
       -1   -1    0    0    0  501  0.00000000000E+00  0.00000000000E+00 -0.45616020580E+03  0.45616020582E+03  0.50400001928E-02 0.  1.
    10030    2    1    2    0    0  0.00000000000E+00  0.00000000000E+00  0.21146144572E+03  0.11237818574E+04  0.11037072619E+04 0.  0.
        5    1    3    3  502    0  0.19517068530E+03 -0.51415941414E+03  0.15204251782E+03  0.57060539497E+03  0.46999998093E+01 0.  1.
       -5    1    3    3    0  502 -0.19517068530E+03  0.51415941414E+03  0.59418927900E+02  0.55317646239E+03  0.46999998093E+01 0. -1.
</event>
<event>
 5   0  0.1479573E-03  0.1092174E+04  0.7818609E-02  0.9212854E-01
       -1   -1    0    0    0  501  0.00000000000E+00  0.00000000000E+00  0.33505029496E+03  0.33505029500E+03  0.50400001928E-02 0.  1.
        1   -1    0    0  501    0  0.00000000000E+00  0.00000000000E+00 -0.89004796481E+03  0.89004796483E+03  0.50400001928E-02 0. -1.
    10030    2    1    2    0    0  0.00000000000E+00  0.00000000000E+00 -0.55499766985E+03  0.12250982598E+04  0.10921736733E+04 0.  0.
        4    1    3    3  502    0  0.87043140920E+02  0.35274745419E+03  0.17979702628E+03  0.40538359411E+03  0.12699999809E+01 0.  1.
       -4    1    3    3    0  502 -0.87043140920E+02 -0.35274745419E+03 -0.73479469613E+03  0.81971466571E+03  0.12699999809E+01 0. -1.
</event>
<event>
 5   0  0.2483036E-03  0.1209605E+04  0.7818609E-02  0.9104491E-01
       -2   -1    0    0    0  501  0.00000000000E+00  0.00000000000E+00  0.22700664535E+03  0.22700664536E+03  0.25500000920E-02 0.  1.
        2   -1    0    0  501    0  0.00000000000E+00  0.00000000000E+00 -0.16113449008E+04  0.16113449008E+04  0.25500000920E-02 0. -1.
    10030    2    1    2    0    0  0.00000000000E+00  0.00000000000E+00 -0.13843382554E+04  0.18383515461E+04  0.12096048949E+04 0.  0.
        3    1    3    3  502    0  0.34077842031E+02  0.34963531329E+03 -0.14403959542E+04  0.14826148072E+04  0.10100000352E+00 0. -1.
       -3    1    3    3    0  502 -0.34077842031E+02 -0.34963531329E+03  0.56057698751E+02  0.35573673890E+03  0.10100000352E+00 0.  1.
</event>
<event>
 5   0  0.1480937E-03  0.1098803E+04  0.7818609E-02  0.9206359E-01
       -1   -1    0    0    0  501  0.00000000000E+00  0.00000000000E+00  0.13477485515E+04  0.13477485515E+04  0.50400001928E-02 0.  1.
        1   -1    0    0  501    0  0.00000000000E+00  0.00000000000E+00 -0.22396038349E+03  0.22396038355E+03  0.50400001928E-02 0. -1.
    10030    2    1    2    0    0  0.00000000000E+00  0.00000000000E+00  0.11237881680E+04  0.15717089351E+04  0.10988034993E+04 0.  0.
        1    1    3    3  502    0 -0.45775666515E+03  0.24522180519E+03  0.81843696150E+03  0.96928528216E+03  0.50400001928E-02 0.  1.
       -1    1    3    3    0  502  0.45775666515E+03 -0.24522180519E+03  0.30535120652E+03  0.60242365291E+03  0.50400001928E-02 0. -1.
</event>
<event>
 5   0  0.1415400E-03  0.1089690E+04  0.7818609E-02  0.9215299E-01
       -1   -1    0    0    0  501  0.00000000000E+00  0.00000000000E+00  0.19033896725E+04  0.19033896725E+04  0.50400001928E-02 0. -1.
        1   -1    0    0  501    0  0.00000000000E+00  0.00000000000E+00 -0.15596180784E+03  0.15596180792E+03  0.50400001928E-02 0.  1.
    10030    2    1    2    0    0  0.00000000000E+00  0.00000000000E+00  0.17474278646E+04  0.20593514804E+04  0.10896900375E+04 0.  0.
        2    1    3    3  502    0 -0.22686598330E+03  0.87772533998E+02 -0.47641881259E+02  0.24787484939E+03  0.25500000920E-02 0.  1.
       -2    1    3    3    0  502  0.22686598330E+03 -0.87772533998E+02  0.17950697459E+04  0.18114766310E+04  0.25500000920E-02 0. -1.
</event>
<event>
 5   0  0.1415400E-03  0.1105433E+04  0.7818609E-02  0.9199913E-01
        1   -1    0    0  501    0  0.00000000000E+00  0.00000000000E+00  0.97032830991E+03  0.97032830992E+03  0.50400001928E-02 0. -1.
       -1   -1    0    0    0  501  0.00000000000E+00  0.00000000000E+00 -0.31483700941E+03  0.31483700945E+03  0.50400001928E-02 0.  1.
    10030    2    1    2    0    0  0.00000000000E+00  0.00000000000E+00  0.65549130050E+03  0.12851653194E+04  0.11054325186E+04 0.  0.
        2    1    3    3  502    0 -0.27172127834E+03 -0.18023423374E+03  0.84660293070E+03  0.90722288021E+03  0.25500000920E-02 0. -1.
       -2    1    3    3    0  502  0.27172127834E+03  0.18023423374E+03 -0.19111163020E+03  0.37794243916E+03  0.25500000920E-02 0.  1.
</event>
<event>
 5   0  0.2438115E-03  0.1103353E+04  0.7818609E-02  0.9201930E-01
       -2   -1    0    0    0  501  0.00000000000E+00  0.00000000000E+00  0.78401650001E+03  0.78401650001E+03  0.25500000920E-02 0. -1.
        2   -1    0    0  501    0  0.00000000000E+00  0.00000000000E+00 -0.38818938881E+03  0.38818938882E+03  0.25500000920E-02 0.  1.
    10030    2    1    2    0    0  0.00000000000E+00  0.00000000000E+00  0.39582711120E+03  0.11722058888E+04  0.11033528646E+04 0.  0.
        4    1    3    3  502    0  0.67697176491E+02 -0.44009525256E+03  0.54393516884E+03  0.70294652700E+03  0.12699999809E+01 0. -1.
       -4    1    3    3    0  502 -0.67697176491E+02  0.44009525256E+03 -0.14810805764E+03  0.46925936183E+03  0.12699999809E+01 0.  1.
</event>
<event>
 5   0  0.1479573E-03  0.1100877E+04  0.7818609E-02  0.9204337E-01
        1   -1    0    0  501    0  0.00000000000E+00  0.00000000000E+00  0.65804417417E+03  0.65804417419E+03  0.50400001928E-02 0. -1.
       -1   -1    0    0    0  501  0.00000000000E+00  0.00000000000E+00 -0.46042917677E+03  0.46042917680E+03  0.50400001928E-02 0.  1.
    10030    2    1    2    0    0  0.00000000000E+00  0.00000000000E+00  0.19761499740E+03  0.11184733510E+04  0.11008773545E+04 0.  0.
        4    1    3    3  502    0 -0.39036647044E+03  0.38792956566E+03  0.88357409210E+02  0.55739032448E+03  0.12699999809E+01 0.  1.
       -4    1    3    3    0  502  0.39036647044E+03 -0.38792956566E+03  0.10925758819E+03  0.56108302651E+03  0.12699999809E+01 0. -1.
</event>
<event>
 5   0  0.1480937E-03  0.1102232E+04  0.7818609E-02  0.9203019E-01
        1   -1    0    0  501    0  0.00000000000E+00  0.00000000000E+00  0.12328770781E+04  0.12328770781E+04  0.50400001928E-02 0.  1.
       -1   -1    0    0    0  501  0.00000000000E+00  0.00000000000E+00 -0.24635793426E+03  0.24635793432E+03  0.50400001928E-02 0. -1.
    10030    2    1    2    0    0  0.00000000000E+00  0.00000000000E+00  0.98651914379E+03  0.14792350124E+04  0.11022323715E+04 0.  0.
        1    1    3    3  502    0  0.75099897011E+02  0.25774149750E+03  0.11391933856E+04  0.11703983270E+04  0.50400001928E-02 0.  1.
       -1    1    3    3    0  502 -0.75099897011E+02 -0.25774149750E+03 -0.15267424183E+03  0.30883668534E+03  0.50400001928E-02 0. -1.
</event>
<event>
 5   0  0.2392585E-03  0.1089304E+04  0.7818609E-02  0.9215680E-01
        2   -1    0    0  501    0  0.00000000000E+00  0.00000000000E+00  0.12401064467E+04  0.12401064467E+04  0.25500000920E-02 0.  1.
       -2   -1    0    0    0  501  0.00000000000E+00  0.00000000000E+00 -0.23921009660E+03  0.23921009662E+03  0.25500000920E-02 0. -1.
    10030    2    1    2    0    0  0.00000000000E+00  0.00000000000E+00  0.10008963501E+04  0.14793165433E+04  0.10893043338E+04 0.  0.
        5    1    3    3  502    0  0.30813753830E+02  0.35150116702E+03  0.10638642523E+04  0.11208620768E+04  0.46999998093E+01 0.  1.
       -5    1    3    3    0  502 -0.30813753830E+02 -0.35150116702E+03 -0.62967902250E+02  0.35845446650E+03  0.46999998093E+01 0. -1.
</event>
<event>
 5   0  0.2467448E-03  0.1099024E+04  0.7818609E-02  0.9206144E-01
        2   -1    0    0  501    0  0.00000000000E+00  0.00000000000E+00  0.85336584333E+03  0.85336584334E+03  0.25500000920E-02 0. -1.
       -2   -1    0    0    0  501  0.00000000000E+00  0.00000000000E+00 -0.35384964444E+03  0.35384964445E+03  0.25500000920E-02 0.  1.
    10030    2    1    2    0    0  0.00000000000E+00  0.00000000000E+00  0.49951619890E+03  0.12072154878E+04  0.10990235671E+04 0.  0.
        1    1    3    3  502    0  0.78019138288E+02 -0.98753917724E+02 -0.33780544831E+03  0.36048833981E+03  0.50400001928E-02 0.  1.
       -1    1    3    3    0  502 -0.78019138288E+02  0.98753917724E+02  0.83732164721E+03  0.84672714797E+03  0.50400001928E-02 0. -1.
</event>
<event>
 5   0  0.2467448E-03  0.1094941E+04  0.7818609E-02  0.9210137E-01
       -2   -1    0    0    0  501  0.00000000000E+00  0.00000000000E+00  0.18662217966E+03  0.18662217968E+03  0.25500000920E-02 0. -1.
        2   -1    0    0  501    0  0.00000000000E+00  0.00000000000E+00 -0.16060462975E+04  0.16060462975E+04  0.25500000920E-02 0.  1.
    10030    2    1    2    0    0  0.00000000000E+00  0.00000000000E+00 -0.14194241178E+04  0.17926684772E+04  0.10949408398E+04 0.  0.
        1    1    3    3  502    0  0.20031244126E+03  0.15744870950E+03  0.83640835082E+02  0.26816218892E+03  0.50400001928E-02 0. -1.
       -1    1    3    3    0  502 -0.20031244126E+03 -0.15744870950E+03 -0.15030649529E+04  0.15245062882E+04  0.50400001928E-02 0.  1.
</event>
<event>
 5   0  0.1509004E-03  0.1117439E+04  0.7818609E-02  0.9188359E-01
       -1   -1    0    0    0  501  0.00000000000E+00  0.00000000000E+00  0.72956174954E+03  0.72956174955E+03  0.50400001928E-02 0. -1.
        1   -1    0    0  501    0  0.00000000000E+00  0.00000000000E+00 -0.42788372459E+03  0.42788372462E+03  0.50400001928E-02 0.  1.
    10030    2    1    2    0    0  0.00000000000E+00  0.00000000000E+00  0.30167802495E+03  0.11574454742E+04  0.11174392131E+04 0.  0.
        3    1    3    3  502    0  0.28113790396E+03  0.95736517350E+02 -0.33935199580E+03  0.45095874429E+03  0.10100000352E+00 0.  1.
       -3    1    3    3    0  502 -0.28113790396E+03 -0.95736517350E+02  0.64103002075E+03  0.70648672988E+03  0.10100000352E+00 0. -1.
</event>
<event>
 5   0  0.2392585E-03  0.1099733E+04  0.7818609E-02  0.9205452E-01
       -2   -1    0    0    0  501  0.00000000000E+00  0.00000000000E+00  0.29182881881E+03  0.29182881882E+03  0.25500000920E-02 0. -1.
        2   -1    0    0  501    0  0.00000000000E+00  0.00000000000E+00 -0.10360635345E+04  0.10360635345E+04  0.25500000920E-02 0.  1.
    10030    2    1    2    0    0  0.00000000000E+00  0.00000000000E+00 -0.74423471567E+03  0.13278923533E+04  0.10997330540E+04 0.  0.
        5    1    3    3  502    0  0.83171420093E+02 -0.26047216406E+03 -0.94812874318E+03  0.98677932539E+03  0.46999998093E+01 0.  1.
       -5    1    3    3    0  502 -0.83171420093E+02  0.26047216406E+03  0.20389402751E+03  0.34111302792E+03  0.46999998093E+01 0. -1.
</event>
<event>
 5   0  0.2488472E-03  0.1094123E+04  0.7818609E-02  0.9210939E-01
        2   -1    0    0  501    0  0.00000000000E+00  0.00000000000E+00  0.21201569047E+03  0.21201569049E+03  0.25500000920E-02 0. -1.
       -2   -1    0    0    0  501  0.00000000000E+00  0.00000000000E+00 -0.14115754601E+04  0.14115754601E+04  0.25500000920E-02 0.  1.
    10030    2    1    2    0    0  0.00000000000E+00  0.00000000000E+00 -0.11995597696E+04  0.16235911506E+04  0.10941227460E+04 0.  0.
        2    1    3    3  502    0 -0.10421653465E+03  0.48147942984E+03 -0.95279274155E+03  0.10726124817E+04  0.25500000920E-02 0.  1.
       -2    1    3    3    0  502  0.10421653465E+03 -0.48147942984E+03 -0.24676702806E+03  0.55097866892E+03  0.25500000920E-02 0. -1.
</event>
<event>
 5   0  0.1468556E-03  0.1104560E+04  0.7818609E-02  0.9200759E-01
       -1   -1    0    0    0  501  0.00000000000E+00  0.00000000000E+00  0.24931434229E+03  0.24931434234E+03  0.50400001928E-02 0. -1.
        1   -1    0    0  501    0  0.00000000000E+00  0.00000000000E+00 -0.12234086755E+04  0.12234086755E+04  0.50400001928E-02 0.  1.
    10030    2    1    2    0    0  0.00000000000E+00  0.00000000000E+00 -0.97409433319E+03  0.14727230178E+04  0.11045602371E+04 0.  0.
        5    1    3    3  502    0 -0.46698802813E+03  0.82340557163E+02 -0.86447906342E+03  0.98600401970E+03  0.46999998093E+01 0.  1.
       -5    1    3    3    0  502  0.46698802813E+03 -0.82340557163E+02 -0.10961526977E+03  0.48671899813E+03  0.46999998093E+01 0. -1.
</event>
<event>
 5   0  0.2467448E-03  0.1101003E+04  0.7818609E-02  0.9204215E-01
       -2   -1    0    0    0  501  0.00000000000E+00  0.00000000000E+00  0.39203476420E+03  0.39203476421E+03  0.25500000920E-02 0.  1.
        2   -1    0    0  501    0  0.00000000000E+00  0.00000000000E+00 -0.77302282270E+03  0.77302282271E+03  0.25500000920E-02 0. -1.
    10030    2    1    2    0    0  0.00000000000E+00  0.00000000000E+00 -0.38098805850E+03  0.11650575869E+04  0.11010028520E+04 0.  0.
        1    1    3    3  502    0  0.42039895415E+03  0.35511623326E+03 -0.17519611144E+03  0.57752618751E+03  0.50400001928E-02 0.  1.
       -1    1    3    3    0  502 -0.42039895415E+03 -0.35511623326E+03 -0.20579194707E+03  0.58753139940E+03  0.50400001928E-02 0. -1.
</event>
<event>
 5   0  0.2438115E-03  0.1106128E+04  0.7818609E-02  0.9199239E-01
       -2   -1    0    0    0  501  0.00000000000E+00  0.00000000000E+00  0.45070923757E+03  0.45070923757E+03  0.25500000920E-02 0. -1.
        2   -1    0    0  501    0  0.00000000000E+00  0.00000000000E+00 -0.67866376652E+03  0.67866376652E+03  0.25500000920E-02 0.  1.
    10030    2    1    2    0    0  0.00000000000E+00  0.00000000000E+00 -0.22795452895E+03  0.11293730041E+04  0.11061284352E+04 0.  0.
        4    1    3    3  502    0  0.20367688970E+03 -0.14011797600E+03 -0.61910711959E+03  0.66664275367E+03  0.12699999809E+01 0.  1.
       -4    1    3    3    0  502 -0.20367688970E+03  0.14011797600E+03  0.39115259064E+03  0.46273025042E+03  0.12699999809E+01 0. -1.
</event>
<event>
 5   0  0.2467448E-03  0.1112747E+04  0.7818609E-02  0.9192856E-01
       -2   -1    0    0    0  501  0.00000000000E+00  0.00000000000E+00  0.23122174535E+03  0.23122174536E+03  0.25500000920E-02 0. -1.
        2   -1    0    0  501    0  0.00000000000E+00  0.00000000000E+00 -0.13387654735E+04  0.13387654735E+04  0.25500000920E-02 0.  1.
    10030    2    1    2    0    0  0.00000000000E+00  0.00000000000E+00 -0.11075437281E+04  0.15699872188E+04  0.11127473916E+04 0.  0.
        1    1    3    3  502    0 -0.28869034813E+03  0.24928658060E+03 -0.11252617206E+04  0.11881497617E+04  0.50400001928E-02 0.  1.
       -1    1    3    3    0  502  0.28869034813E+03 -0.24928658060E+03  0.17717992499E+02  0.38183745711E+03  0.50400001928E-02 0. -1.
</event>
<event>
 5   0  0.2488472E-03  0.1104898E+04  0.7818609E-02  0.9200431E-01
        2   -1    0    0  501    0  0.00000000000E+00  0.00000000000E+00  0.34010050260E+03  0.34010050261E+03  0.25500000920E-02 0. -1.
       -2   -1    0    0    0  501  0.00000000000E+00  0.00000000000E+00 -0.89738102132E+03  0.89738102132E+03  0.25500000920E-02 0.  1.
    10030    2    1    2    0    0  0.00000000000E+00  0.00000000000E+00 -0.55728051872E+03  0.12374815239E+04  0.11048977082E+04 0.  0.
        2    1    3    3  502    0 -0.48688673725E+03  0.14000136198E+03 -0.31883254723E+02  0.50761759052E+03  0.25500000920E-02 0. -1.
       -2    1    3    3    0  502  0.48688673725E+03 -0.14000136198E+03 -0.52539726400E+03  0.72986393341E+03  0.25500000920E-02 0.  1.
</event>
<event>
 5   0  0.1415400E-03  0.1074074E+04  0.7818609E-02  0.9230836E-01
        1   -1    0    0  501    0  0.00000000000E+00  0.00000000000E+00  0.32680255343E+03  0.32680255347E+03  0.50400001928E-02 0. -1.
       -1   -1    0    0    0  501  0.00000000000E+00  0.00000000000E+00 -0.88251678843E+03  0.88251678844E+03  0.50400001928E-02 0.  1.
    10030    2    1    2    0    0  0.00000000000E+00  0.00000000000E+00 -0.55571423500E+03  0.12093193419E+04  0.10740740011E+04 0.  0.
        2    1    3    3  502    0 -0.75989159455E+02 -0.36234991130E+03 -0.71586230467E+03  0.80593464364E+03  0.25500000920E-02 0.  1.
       -2    1    3    3    0  502  0.75989159455E+02  0.36234991130E+03  0.16014806966E+03  0.40338469827E+03  0.25500000920E-02 0. -1.
</event>
<event>
 5   0  0.1415400E-03  0.1024828E+04  0.7818609E-02  0.9281726E-01
        1   -1    0    0  501    0  0.00000000000E+00  0.00000000000E+00  0.72559255125E+03  0.72559255126E+03  0.50400001928E-02 0.  1.
       -1   -1    0    0    0  501  0.00000000000E+00  0.00000000000E+00 -0.36186702349E+03  0.36186702352E+03  0.50400001928E-02 0. -1.
    10030    2    1    2    0    0  0.00000000000E+00  0.00000000000E+00  0.36372552776E+03  0.10874595748E+04  0.10248278232E+04 0.  0.
        2    1    3    3  502    0  0.33518399837E+03 -0.64808173341E+02  0.58734123290E+03  0.67935126111E+03  0.25500000920E-02 0.  1.
       -2    1    3    3    0  502 -0.33518399837E+03  0.64808173341E+02 -0.22361570515E+03  0.40810831368E+03  0.25500000920E-02 0. -1.
</event>
<event>
 5   0  0.2467448E-03  0.1092748E+04  0.7818609E-02  0.9212289E-01
        2   -1    0    0  501    0  0.00000000000E+00  0.00000000000E+00  0.60205707210E+03  0.60205707211E+03  0.25500000920E-02 0. -1.
       -2   -1    0    0    0  501  0.00000000000E+00  0.00000000000E+00 -0.49584103904E+03  0.49584103905E+03  0.25500000920E-02 0.  1.
    10030    2    1    2    0    0  0.00000000000E+00  0.00000000000E+00  0.10621603306E+03  0.10978981112E+04  0.10927481031E+04 0.  0.
        1    1    3    3  502    0 -0.45443479760E+03  0.18201286600E+03 -0.19069780902E+03  0.52536208757E+03  0.50400001928E-02 0.  1.
       -1    1    3    3    0  502  0.45443479760E+03 -0.18201286600E+03  0.29691384209E+03  0.57253602359E+03  0.50400001928E-02 0. -1.
</event>
<event>
 5   0  0.1480937E-03  0.1092477E+04  0.7818609E-02  0.9212556E-01
       -1   -1    0    0    0  501  0.00000000000E+00  0.00000000000E+00  0.52074786567E+03  0.52074786570E+03  0.50400001928E-02 0.  1.
        1   -1    0    0  501    0  0.00000000000E+00  0.00000000000E+00 -0.57297638149E+03  0.57297638152E+03  0.50400001928E-02 0. -1.
    10030    2    1    2    0    0  0.00000000000E+00  0.00000000000E+00 -0.52228515821E+02  0.10937242472E+04  0.10924765037E+04 0.  0.
        1    1    3    3  502    0 -0.28625905337E+03 -0.37194978306E+03 -0.30587095419E+03  0.56022132002E+03  0.50400001928E-02 0. -1.
       -1    1    3    3    0  502  0.28625905337E+03  0.37194978306E+03  0.25364243837E+03  0.53350292720E+03  0.50400001928E-02 0.  1.
</event>
<event>
 5   0  0.1468556E-03  0.1030375E+04  0.7818609E-02  0.9275843E-01
       -1   -1    0    0    0  501  0.00000000000E+00  0.00000000000E+00  0.50955370514E+03  0.50955370517E+03  0.50400001928E-02 0.  1.
        1   -1    0    0  501    0  0.00000000000E+00  0.00000000000E+00 -0.52088377286E+03  0.52088377288E+03  0.50400001928E-02 0. -1.
    10030    2    1    2    0    0  0.00000000000E+00  0.00000000000E+00 -0.11330067714E+02  0.10304374781E+04  0.10303751869E+04 0.  0.
        5    1    3    3  502    0 -0.49161909868E+03 -0.12111105736E+03  0.89414054070E+02  0.51417330684E+03  0.46999998093E+01 0. -1.
       -5    1    3    3    0  502  0.49161909868E+03  0.12111105736E+03 -0.10074412178E+03  0.51626417121E+03  0.46999998093E+01 0.  1.
</event>
<event>
 5   0  0.2467448E-03  0.1102738E+04  0.7818609E-02  0.9202527E-01
       -2   -1    0    0    0  501  0.00000000000E+00  0.00000000000E+00  0.13232377764E+04  0.13232377764E+04  0.25500000920E-02 0.  1.
        2   -1    0    0  501    0  0.00000000000E+00  0.00000000000E+00 -0.22974538239E+03  0.22974538240E+03  0.25500000920E-02 0. -1.
    10030    2    1    2    0    0  0.00000000000E+00  0.00000000000E+00  0.10934923940E+04  0.15529831588E+04  0.11027379905E+04 0.  0.
        1    1    3    3  502    0 -0.23218355121E+03 -0.44000317804E+03  0.88148216335E+03  0.10121871381E+04  0.50400001928E-02 0.  1.
       -1    1    3    3    0  502  0.23218355121E+03  0.44000317804E+03  0.21201023069E+03  0.54079602076E+03  0.50400001928E-02 0. -1.
</event>
<event>
 5   0  0.1479573E-03  0.1097354E+04  0.7818609E-02  0.9207775E-01
       -1   -1    0    0    0  501  0.00000000000E+00  0.00000000000E+00  0.35793802970E+03  0.35793802973E+03  0.50400001928E-02 0.  1.
        1   -1    0    0  501    0  0.00000000000E+00  0.00000000000E+00 -0.84105710034E+03  0.84105710035E+03  0.50400001928E-02 0. -1.
    10030    2    1    2    0    0  0.00000000000E+00  0.00000000000E+00 -0.48311907064E+03  0.11989951301E+04  0.10973537650E+04 0.  0.
        4    1    3    3  502    0 -0.48479349709E+03 -0.10723881888E+03 -0.49668154395E+03  0.70229557032E+03  0.12699999809E+01 0. -1.
       -4    1    3    3    0  502  0.48479349709E+03  0.10723881888E+03  0.13562473309E+02  0.49669955977E+03  0.12699999809E+01 0.  1.
</event>
<event>
 5   0  0.2488472E-03  0.1079907E+04  0.7818609E-02  0.9225000E-01
        2   -1    0    0  501    0  0.00000000000E+00  0.00000000000E+00  0.17732270382E+04  0.17732270382E+04  0.25500000920E-02 0. -1.
       -2   -1    0    0    0  501  0.00000000000E+00  0.00000000000E+00 -0.16441760963E+03  0.16441760965E+03  0.25500000920E-02 0.  1.
    10030    2    1    2    0    0  0.00000000000E+00  0.00000000000E+00  0.16088094285E+04  0.19376446478E+04  0.10799069422E+04 0.  0.
        2    1    3    3  502    0 -0.55255519844E+02 -0.38993607763E+03  0.14671839513E+04  0.15191221360E+04  0.25500000920E-02 0. -1.
       -2    1    3    3    0  502  0.55255519844E+02  0.38993607763E+03  0.14162547725E+03  0.41852251184E+03  0.25500000920E-02 0.  1.
</event>
<event>
 5   0  0.1479573E-03  0.1091371E+04  0.7818609E-02  0.9213644E-01
        1   -1    0    0  501    0  0.00000000000E+00  0.00000000000E+00  0.71463782001E+03  0.71463782003E+03  0.50400001928E-02 0.  1.
       -1   -1    0    0    0  501  0.00000000000E+00  0.00000000000E+00 -0.41667615507E+03  0.41667615511E+03  0.50400001928E-02 0. -1.
    10030    2    1    2    0    0  0.00000000000E+00  0.00000000000E+00  0.29796166494E+03  0.11313139751E+04  0.10913707695E+04 0.  0.
        4    1    3    3  502    0  0.43880423593E+02 -0.53750257340E+03  0.62647506847E+02  0.54291880700E+03  0.12699999809E+01 0. -1.
       -4    1    3    3    0  502 -0.43880423593E+02  0.53750257340E+03  0.23531415809E+03  0.58839516813E+03  0.12699999809E+01 0.  1.
</event>
<event>
 5   0  0.1480937E-03  0.1102595E+04  0.7818609E-02  0.9202666E-01
       -1   -1    0    0    0  501  0.00000000000E+00  0.00000000000E+00  0.25248839158E+03  0.25248839163E+03  0.50400001928E-02 0. -1.
        1   -1    0    0  501    0  0.00000000000E+00  0.00000000000E+00 -0.12037351157E+04  0.12037351157E+04  0.50400001928E-02 0.  1.
    10030    2    1    2    0    0  0.00000000000E+00  0.00000000000E+00 -0.95124672415E+03  0.14562235074E+04  0.11025953805E+04 0.  0.
        1    1    3    3  502    0  0.38075940130E+03 -0.36961998913E+03 -0.67299302372E+03  0.85703924533E+03  0.50400001928E-02 0.  1.
       -1    1    3    3    0  502 -0.38075940130E+03  0.36961998913E+03 -0.27825370044E+03  0.59918426204E+03  0.50400001928E-02 0. -1.
</event>
<event>
 5   0  0.2392585E-03  0.1101187E+04  0.7818609E-02  0.9204036E-01
       -2   -1    0    0    0  501  0.00000000000E+00  0.00000000000E+00  0.97462515118E+03  0.97462515118E+03  0.25500000920E-02 0. -1.
        2   -1    0    0  501    0  0.00000000000E+00  0.00000000000E+00 -0.31104575322E+03  0.31104575323E+03  0.25500000920E-02 0.  1.
    10030    2    1    2    0    0  0.00000000000E+00  0.00000000000E+00  0.66357939796E+03  0.12856709044E+04  0.11011866586E+04 0.  0.
        5    1    3    3  502    0 -0.29938544558E+03 -0.96883409326E+02 -0.19568797739E+03  0.37058590707E+03  0.46999998093E+01 0.  1.
       -5    1    3    3    0  502  0.29938544558E+03  0.96883409326E+02  0.85926737535E+03  0.91508499734E+03  0.46999998093E+01 0. -1.
</event>
<event>
 5   0  0.1509004E-03  0.1099757E+04  0.7818609E-02  0.9205429E-01
        1   -1    0    0  501    0  0.00000000000E+00  0.00000000000E+00  0.22271482870E+04  0.22271482870E+04  0.50400001928E-02 0. -1.
       -1   -1    0    0    0  501  0.00000000000E+00  0.00000000000E+00 -0.13576389451E+03  0.13576389461E+03  0.50400001928E-02 0.  1.
    10030    2    1    2    0    0  0.00000000000E+00  0.00000000000E+00  0.20913843924E+04  0.23629121816E+04  0.10997569281E+04 0.  0.
        3    1    3    3  502    0  0.21512474631E+03  0.17829613211E+02  0.21323066450E+04  0.21432051208E+04  0.10100000352E+00 0. -1.
       -3    1    3    3    0  502 -0.21512474631E+03 -0.17829613211E+02 -0.40922252531E+02  0.21970706073E+03  0.10100000352E+00 0.  1.
</event>
<event>
 5   0  0.1509004E-03  0.1096865E+04  0.7818609E-02  0.9208253E-01
        1   -1    0    0  501    0  0.00000000000E+00  0.00000000000E+00  0.77566890374E+03  0.77566890376E+03  0.50400001928E-02 0.  1.
       -1   -1    0    0    0  501  0.00000000000E+00  0.00000000000E+00 -0.38776611780E+03  0.38776611784E+03  0.50400001928E-02 0. -1.
    10030    2    1    2    0    0  0.00000000000E+00  0.00000000000E+00  0.38790278594E+03  0.11634350216E+04  0.10968648404E+04 0.  0.
        3    1    3    3  502    0  0.15191032979E+03 -0.51162161181E+03  0.32788729943E+03  0.62637330187E+03  0.10100000352E+00 0.  1.
       -3    1    3    3    0  502 -0.15191032979E+03  0.51162161181E+03  0.60015486511E+02  0.53706171972E+03  0.10100000352E+00 0. -1.
</event>
<event>
 5   0  0.2488472E-03  0.1096564E+04  0.7818609E-02  0.9208548E-01
        2   -1    0    0  501    0  0.00000000000E+00  0.00000000000E+00  0.41449995527E+03  0.41449995528E+03  0.25500000920E-02 0.  1.
       -2   -1    0    0    0  501  0.00000000000E+00  0.00000000000E+00 -0.72524236600E+03  0.72524236601E+03  0.25500000920E-02 0. -1.
    10030    2    1    2    0    0  0.00000000000E+00  0.00000000000E+00 -0.31074241073E+03  0.11397423213E+04  0.10965635928E+04 0.  0.
        2    1    3    3  502    0 -0.46307386494E+03  0.18450591644E+03 -0.39268860912E+03  0.63457401564E+03  0.25500000920E-02 0. -1.
       -2    1    3    3    0  502  0.46307386494E+03 -0.18450591644E+03  0.81946198382E+02  0.50516830564E+03  0.25500000920E-02 0.  1.
</event>
<event>
 5   0  0.2438115E-03  0.1101592E+04  0.7818609E-02  0.9203641E-01
        2   -1    0    0  501    0  0.00000000000E+00  0.00000000000E+00  0.10687987047E+04  0.10687987047E+04  0.25500000920E-02 0. -1.
       -2   -1    0    0    0  501  0.00000000000E+00  0.00000000000E+00 -0.28384798214E+03  0.28384798215E+03  0.25500000920E-02 0.  1.
    10030    2    1    2    0    0  0.00000000000E+00  0.00000000000E+00  0.78495072251E+03  0.13526466868E+04  0.11015922215E+04 0.  0.
        4    1    3    3  502    0 -0.31456351564E+03  0.38423364367E+03  0.68508982751E+03  0.84612964903E+03  0.12699999809E+01 0. -1.
       -4    1    3    3    0  502  0.31456351564E+03 -0.38423364367E+03  0.99860895003E+02  0.50651703777E+03  0.12699999809E+01 0.  1.
</event>
<event>
 5   0  0.1509004E-03  0.1096422E+04  0.7818609E-02  0.9208687E-01
        1   -1    0    0  501    0  0.00000000000E+00  0.00000000000E+00  0.85128702535E+03  0.85128702537E+03  0.50400001928E-02 0.  1.
       -1   -1    0    0    0  501  0.00000000000E+00  0.00000000000E+00 -0.35303620911E+03  0.35303620914E+03  0.50400001928E-02 0. -1.
    10030    2    1    2    0    0  0.00000000000E+00  0.00000000000E+00  0.49825081625E+03  0.12043232345E+04  0.10964217151E+04 0.  0.
        3    1    3    3  502    0 -0.54785945367E+03 -0.13278309459E+01  0.22761811109E+03  0.59326365033E+03  0.10100000352E+00 0. -1.
       -3    1    3    3    0  502  0.54785945367E+03  0.13278309459E+01  0.27063270516E+03  0.61105958418E+03  0.10100000352E+00 0.  1.
</event>
<event>
 5   0  0.2488472E-03  0.1107914E+04  0.7818609E-02  0.9197512E-01
        2   -1    0    0  501    0  0.00000000000E+00  0.00000000000E+00  0.11771064184E+04  0.11771064184E+04  0.25500000920E-02 0.  1.
       -2   -1    0    0    0  501  0.00000000000E+00  0.00000000000E+00 -0.26069728787E+03  0.26069728788E+03  0.25500000920E-02 0. -1.
    10030    2    1    2    0    0  0.00000000000E+00  0.00000000000E+00  0.91640913051E+03  0.14378037063E+04  0.11079141678E+04 0.  0.
        2    1    3    3  502    0 -0.57635207511E+02 -0.46015165053E+03  0.85142094349E+03  0.96952513204E+03  0.25500000920E-02 0.  1.
       -2    1    3    3    0  502  0.57635207511E+02  0.46015165053E+03  0.64988187019E+02  0.46827857423E+03  0.25500000920E-02 0. -1.
</event>
<event>
 5   0  0.2438115E-03  0.1118108E+04  0.7818609E-02  0.9187720E-01
       -2   -1    0    0    0  501  0.00000000000E+00  0.00000000000E+00  0.19611328413E+03  0.19611328414E+03  0.25500000920E-02 0.  1.
        2   -1    0    0  501    0  0.00000000000E+00  0.00000000000E+00 -0.15936782770E+04  0.15936782770E+04  0.25500000920E-02 0. -1.
    10030    2    1    2    0    0  0.00000000000E+00  0.00000000000E+00 -0.13975649929E+04  0.17897915612E+04  0.11181081893E+04 0.  0.
        4    1    3    3  502    0 -0.52678840237E+03  0.18629585113E+03 -0.66980514179E+03  0.87226871198E+03  0.12699999809E+01 0.  1.
       -4    1    3    3    0  502  0.52678840237E+03 -0.18629585113E+03 -0.72775985112E+03  0.91752284921E+03  0.12699999809E+01 0. -1.
</event>
<event>
 5   0  0.2483036E-03  0.1095094E+04  0.7818609E-02  0.9209987E-01
        2   -1    0    0  501    0  0.00000000000E+00  0.00000000000E+00  0.46251235422E+03  0.46251235422E+03  0.25500000920E-02 0. -1.
       -2   -1    0    0    0  501  0.00000000000E+00  0.00000000000E+00 -0.64821556595E+03  0.64821556596E+03  0.25500000920E-02 0.  1.
    10030    2    1    2    0    0  0.00000000000E+00  0.00000000000E+00 -0.18570321174E+03  0.11107279202E+04  0.10950939822E+04 0.  0.
        3    1    3    3  502    0 -0.17416508984E+03 -0.16828429118E+03 -0.59093732048E+03  0.63863918460E+03  0.10100000352E+00 0.  1.
       -3    1    3    3    0  502  0.17416508984E+03  0.16828429118E+03  0.40523410874E+03  0.47208873558E+03  0.10100000352E+00 0. -1.
</event>
<event>
 5   0  0.1509004E-03  0.1098274E+04  0.7818609E-02  0.9206876E-01
       -1   -1    0    0    0  501  0.00000000000E+00  0.00000000000E+00  0.52334273606E+03  0.52334273609E+03  0.50400001928E-02 0. -1.
        1   -1    0    0  501    0  0.00000000000E+00  0.00000000000E+00 -0.57620225127E+03  0.57620225129E+03  0.50400001928E-02 0.  1.
    10030    2    1    2    0    0  0.00000000000E+00  0.00000000000E+00 -0.52859515204E+02  0.10995449874E+04  0.10982736685E+04 0.  0.
        3    1    3    3  502    0  0.85388909213E+02 -0.46088037082E+02 -0.56755137171E+03  0.57578636899E+03  0.10100000352E+00 0.  1.
       -3    1    3    3    0  502 -0.85388909213E+02  0.46088037082E+02  0.51469185651E+03  0.52375861839E+03  0.10100000352E+00 0. -1.
</event>
<event>
 5   0  0.2488472E-03  0.1092039E+04  0.7818609E-02  0.9212986E-01
        2   -1    0    0  501    0  0.00000000000E+00  0.00000000000E+00  0.42725200707E+03  0.42725200708E+03  0.25500000920E-02 0. -1.
       -2   -1    0    0    0  501  0.00000000000E+00  0.00000000000E+00 -0.69780222572E+03  0.69780222572E+03  0.25500000920E-02 0.  1.
    10030    2    1    2    0    0  0.00000000000E+00  0.00000000000E+00 -0.27055021865E+03  0.11250542328E+04  0.10920391962E+04 0.  0.
        2    1    3    3  502    0  0.28481926769E+03  0.15553746075E+00  0.34465773298E+03  0.44711407085E+03  0.25500000920E-02 0. -1.
       -2    1    3    3    0  502 -0.28481926769E+03 -0.15553746075E+00 -0.61520795163E+03  0.67794016195E+03  0.25500000920E-02 0.  1.
</event>
<event>
 5   0  0.1468556E-03  0.1097107E+04  0.7818609E-02  0.9208016E-01
       -1   -1    0    0    0  501  0.00000000000E+00  0.00000000000E+00  0.42945186845E+03  0.42945186848E+03  0.50400001928E-02 0.  1.
        1   -1    0    0  501    0  0.00000000000E+00  0.00000000000E+00 -0.70068617269E+03  0.70068617271E+03  0.50400001928E-02 0. -1.
    10030    2    1    2    0    0  0.00000000000E+00  0.00000000000E+00 -0.27123430424E+03  0.11301380412E+04  0.10971070797E+04 0.  0.
        5    1    3    3  502    0 -0.62958039173E+02 -0.41592073197E+03  0.22702616845E+03  0.47803424683E+03  0.46999998093E+01 0.  1.
       -5    1    3    3    0  502  0.62958039173E+02  0.41592073197E+03 -0.49826047269E+03  0.65210379436E+03  0.46999998093E+01 0. -1.
</event>
<event>
 5   0  0.1479573E-03  0.1144638E+04  0.7818609E-02  0.9162744E-01
       -1   -1    0    0    0  501  0.00000000000E+00  0.00000000000E+00  0.22131548512E+03  0.22131548518E+03  0.50400001928E-02 0. -1.
        1   -1    0    0  501    0  0.00000000000E+00  0.00000000000E+00 -0.14800104177E+04  0.14800104177E+04  0.50400001928E-02 0.  1.
    10030    2    1    2    0    0  0.00000000000E+00  0.00000000000E+00 -0.12586949326E+04  0.17013259029E+04  0.11446383248E+04 0.  0.
        4    1    3    3  502    0  0.18807022790E+03 -0.29641229940E+03 -0.13011960850E+04  0.13477178957E+04  0.12699999809E+01 0.  1.
       -4    1    3    3    0  502 -0.18807022790E+03  0.29641229940E+03  0.42501152458E+02  0.35360800715E+03  0.12699999809E+01 0. -1.
</event>
<event>
 5   0  0.2488472E-03  0.1105864E+04  0.7818609E-02  0.9199495E-01
        2   -1    0    0  501    0  0.00000000000E+00  0.00000000000E+00  0.24683988430E+03  0.24683988431E+03  0.25500000920E-02 0. -1.
       -2   -1    0    0    0  501  0.00000000000E+00  0.00000000000E+00 -0.12385912654E+04  0.12385912654E+04  0.25500000920E-02 0.  1.
    10030    2    1    2    0    0  0.00000000000E+00  0.00000000000E+00 -0.99175138109E+03  0.14854311497E+04  0.11058638698E+04 0.  0.
        2    1    3    3  502    0 -0.86507931510E+02  0.20803657555E+03 -0.11741356099E+04  0.11955573049E+04  0.25500000920E-02 0.  1.
       -2    1    3    3    0  502  0.86507931510E+02 -0.20803657555E+03  0.18238422877E+03  0.28987384479E+03  0.25500000920E-02 0. -1.
</event>
<event>
 5   0  0.1468556E-03  0.1104990E+04  0.7818609E-02  0.9200342E-01
        1   -1    0    0  501    0  0.00000000000E+00  0.00000000000E+00  0.18055736644E+04  0.18055736644E+04  0.50400001928E-02 0. -1.
       -1   -1    0    0    0  501  0.00000000000E+00  0.00000000000E+00 -0.16906019656E+03  0.16906019663E+03  0.50400001928E-02 0.  1.
    10030    2    1    2    0    0  0.00000000000E+00  0.00000000000E+00  0.16365134679E+04  0.19746338611E+04  0.11049898437E+04 0.  0.
        5    1    3    3  502    0 -0.36966945273E+03 -0.27110978432E+03  0.13692620864E+04  0.14439725657E+04  0.46999998093E+01 0. -1.
       -5    1    3    3    0  502  0.36966945273E+03  0.27110978432E+03  0.26725138148E+03  0.53066129531E+03  0.46999998093E+01 0.  1.
</event>
<event>
 5   0  0.1509004E-03  0.1101604E+04  0.7818609E-02  0.9203630E-01
        1   -1    0    0  501    0  0.00000000000E+00  0.00000000000E+00  0.87617277717E+03  0.87617277718E+03  0.50400001928E-02 0. -1.
       -1   -1    0    0    0  501  0.00000000000E+00  0.00000000000E+00 -0.34625933963E+03  0.34625933967E+03  0.50400001928E-02 0.  1.
    10030    2    1    2    0    0  0.00000000000E+00  0.00000000000E+00  0.52991343754E+03  0.12224321168E+04  0.11016042978E+04 0.  0.
        3    1    3    3  502    0  0.33257865225E+03  0.40285412634E+03  0.45870056262E+03  0.69520228955E+03  0.10100000352E+00 0. -1.
       -3    1    3    3    0  502 -0.33257865225E+03 -0.40285412634E+03  0.71212874917E+02  0.52722982730E+03  0.10100000352E+00 0.  1.
</event>
<event>
 5   0  0.1509004E-03  0.1089747E+04  0.7818609E-02  0.9215243E-01
       -1   -1    0    0    0  501  0.00000000000E+00  0.00000000000E+00  0.13925729217E+04  0.13925729218E+04  0.50400001928E-02 0. -1.
        1   -1    0    0  501    0  0.00000000000E+00  0.00000000000E+00 -0.21319312447E+03  0.21319312453E+03  0.50400001928E-02 0.  1.
    10030    2    1    2    0    0  0.00000000000E+00  0.00000000000E+00  0.11793797973E+04  0.16057660463E+04  0.10897467087E+04 0.  0.
        3    1    3    3  502    0  0.37851024347E+03  0.69641665164E+02  0.21347571057E+02  0.38545517889E+03  0.10100000352E+00 0.  1.
       -3    1    3    3    0  502 -0.37851024347E+03 -0.69641665164E+02  0.11580322262E+04  0.12203108674E+04  0.10100000352E+00 0. -1.
</event>
<event>
 5   0  0.1415400E-03  0.1102971E+04  0.7818609E-02  0.9202301E-01
       -1   -1    0    0    0  501  0.00000000000E+00  0.00000000000E+00  0.40732182501E+03  0.40732182504E+03  0.50400001928E-02 0. -1.
        1   -1    0    0  501    0  0.00000000000E+00  0.00000000000E+00 -0.74667270075E+03  0.74667270076E+03  0.50400001928E-02 0.  1.
    10030    2    1    2    0    0  0.00000000000E+00  0.00000000000E+00 -0.33935087574E+03  0.11539945258E+04  0.11029706926E+04 0.  0.
        2    1    3    3  502    0 -0.26233729227E+03 -0.34225824935E+03  0.18999248339E+03  0.47123105576E+03  0.25500000920E-02 0. -1.
       -2    1    3    3    0  502  0.26233729227E+03  0.34225824935E+03 -0.52934335913E+03  0.68276347004E+03  0.25500000920E-02 0.  1.
</event>
<event>
 5   0  0.2392585E-03  0.1101502E+04  0.7818609E-02  0.9203729E-01
       -2   -1    0    0    0  501  0.00000000000E+00  0.00000000000E+00  0.25260053645E+03  0.25260053646E+03  0.25500000920E-02 0.  1.
        2   -1    0    0  501    0  0.00000000000E+00  0.00000000000E+00 -0.12008164997E+04  0.12008164997E+04  0.25500000920E-02 0. -1.
    10030    2    1    2    0    0  0.00000000000E+00  0.00000000000E+00 -0.94821596322E+03  0.14534170361E+04  0.11015024140E+04 0.  0.
        5    1    3    3  502    0  0.36892061499E+02  0.50033872163E+03 -0.77385193981E+03  0.92226285586E+03  0.46999998093E+01 0. -1.
       -5    1    3    3    0  502 -0.36892061499E+02 -0.50033872163E+03 -0.17436402341E+03  0.53115418027E+03  0.46999998093E+01 0.  1.
</event>
<event>
 5   0  0.1479573E-03  0.1105647E+04  0.7818609E-02  0.9199705E-01
        1   -1    0    0  501    0  0.00000000000E+00  0.00000000000E+00  0.84878132253E+03  0.84878132254E+03  0.50400001928E-02 0.  1.
       -1   -1    0    0    0  501  0.00000000000E+00  0.00000000000E+00 -0.36006195827E+03  0.36006195831E+03  0.50400001928E-02 0. -1.
    10030    2    1    2    0    0  0.00000000000E+00  0.00000000000E+00  0.48871936425E+03  0.12088432808E+04  0.11056470778E+04 0.  0.
        4    1    3    3  502    0 -0.84375547271E+02 -0.45941314929E+03 -0.78928715997E+02  0.47372041314E+03  0.12699999809E+01 0. -1.
       -4    1    3    3    0  502  0.84375547271E+02  0.45941314929E+03  0.56764808025E+03  0.73512286771E+03  0.12699999809E+01 0.  1.
</event>
<event>
 5   0  0.1509004E-03  0.1082553E+04  0.7818609E-02  0.9222366E-01
        1   -1    0    0  501    0  0.00000000000E+00  0.00000000000E+00  0.77207412861E+03  0.77207412862E+03  0.50400001928E-02 0. -1.
       -1   -1    0    0    0  501  0.00000000000E+00  0.00000000000E+00 -0.37947162102E+03  0.37947162105E+03  0.50400001928E-02 0.  1.
    10030    2    1    2    0    0  0.00000000000E+00  0.00000000000E+00  0.39260250759E+03  0.11515457497E+04  0.10825529477E+04 0.  0.
        3    1    3    3  502    0  0.34834727784E+03 -0.30956938195E+03 -0.96565478016E+02  0.47592429016E+03  0.10100000352E+00 0.  1.
       -3    1    3    3    0  502 -0.34834727784E+03  0.30956938195E+03  0.48916798560E+03  0.67562145952E+03  0.10100000352E+00 0. -1.
</event>
<event>
 5   0  0.2488472E-03  0.1085371E+04  0.7818609E-02  0.9219569E-01
       -2   -1    0    0    0  501  0.00000000000E+00  0.00000000000E+00  0.65594947154E+03  0.65594947154E+03  0.25500000920E-02 0. -1.
        2   -1    0    0  501    0  0.00000000000E+00  0.00000000000E+00 -0.44897917832E+03  0.44897917833E+03  0.25500000920E-02 0.  1.
    10030    2    1    2    0    0  0.00000000000E+00  0.00000000000E+00  0.20697029322E+03  0.11049286499E+04  0.10853711895E+04 0.  0.
        2    1    3    3  502    0  0.30737804059E+03 -0.15857759801E+03 -0.32223621922E+03  0.47272010261E+03  0.25500000920E-02 0. -1.
       -2    1    3    3    0  502 -0.30737804059E+03  0.15857759801E+03  0.52920651244E+03  0.63220854727E+03  0.25500000920E-02 0.  1.
</event>
<event>
 5   0  0.9631750E-04  0.1067552E+04  0.7818609E-02  0.9237408E-01
       -4   -1    0    0    0  501  0.00000000000E+00  0.00000000000E+00  0.25733299992E+03  0.25733613378E+03  0.12699999809E+01 0.  1.
        4   -1    0    0  501    0  0.00000000000E+00  0.00000000000E+00 -0.11071807802E+04  0.11071815086E+04  0.12699999809E+01 0. -1.
    10030    2    1    2    0    0  0.00000000000E+00  0.00000000000E+00 -0.84984778033E+03  0.13645176424E+04  0.10675519410E+04 0.  0.
        1    1    3    3  502    0 -0.37852096459E+03 -0.25940813543E+03 -0.76410720850E+02  0.46519812946E+03  0.50400001928E-02 0.  1.
       -1    1    3    3    0  502  0.37852096459E+03  0.25940813543E+03 -0.77343705948E+03  0.89931951294E+03  0.50400001928E-02 0. -1.
</event>
<event>
 5   0  0.2392585E-03  0.1103266E+04  0.7818609E-02  0.9202015E-01
        2   -1    0    0  501    0  0.00000000000E+00  0.00000000000E+00  0.13763841014E+04  0.13763841014E+04  0.25500000920E-02 0. -1.
       -2   -1    0    0    0  501  0.00000000000E+00  0.00000000000E+00 -0.22108559106E+03  0.22108559107E+03  0.25500000920E-02 0.  1.
    10030    2    1    2    0    0  0.00000000000E+00  0.00000000000E+00  0.11552985103E+04  0.15974696925E+04  0.11032655031E+04 0.  0.
        5    1    3    3  502    0  0.35531668081E+03 -0.20075887582E+03  0.11149965772E+04  0.11873472648E+04  0.46999998093E+01 0. -1.
       -5    1    3    3    0  502 -0.35531668081E+03  0.20075887582E+03  0.40301933081E+02  0.41012242769E+03  0.46999998093E+01 0.  1.
</event>
<event>
 5   0  0.1480937E-03  0.1102695E+04  0.7818609E-02  0.9202569E-01
       -1   -1    0    0    0  501  0.00000000000E+00  0.00000000000E+00  0.50942976792E+03  0.50942976794E+03  0.50400001928E-02 0. -1.
        1   -1    0    0  501    0  0.00000000000E+00  0.00000000000E+00 -0.59671449385E+03  0.59671449387E+03  0.50400001928E-02 0.  1.
    10030    2    1    2    0    0  0.00000000000E+00  0.00000000000E+00 -0.87284725930E+02  0.11061442618E+04  0.11026951095E+04 0.  0.
        1    1    3    3  502    0 -0.51933285733E+03  0.18500124142E+03 -0.50879504371E+02  0.55364320642E+03  0.50400001928E-02 0.  1.
       -1    1    3    3    0  502  0.51933285733E+03 -0.18500124142E+03 -0.36405221559E+02  0.55250105539E+03  0.50400001928E-02 0. -1.
</event>
<event>
 5   0  0.2483036E-03  0.1015756E+04  0.7818609E-02  0.9291430E-01
       -2   -1    0    0    0  501  0.00000000000E+00  0.00000000000E+00  0.32636670667E+03  0.32636670668E+03  0.25500000920E-02 0.  1.
        2   -1    0    0  501    0  0.00000000000E+00  0.00000000000E+00 -0.79033869051E+03  0.79033869051E+03  0.25500000920E-02 0. -1.
    10030    2    1    2    0    0  0.00000000000E+00  0.00000000000E+00 -0.46397198383E+03  0.11167053972E+04  0.10157563400E+04 0.  0.
        3    1    3    3  502    0  0.13276357913E+03  0.46248418145E+03 -0.53281475648E+02  0.48410403002E+03  0.10100000352E+00 0. -1.
       -3    1    3    3    0  502 -0.13276357913E+03 -0.46248418145E+03 -0.41069050819E+03  0.63260136717E+03  0.10100000352E+00 0.  1.
</event>
<event>
 5   0  0.2392585E-03  0.1103708E+04  0.7818609E-02  0.9201586E-01
       -2   -1    0    0    0  501  0.00000000000E+00  0.00000000000E+00  0.25550377558E+03  0.25550377559E+03  0.25500000920E-02 0.  1.
        2   -1    0    0  501    0  0.00000000000E+00  0.00000000000E+00 -0.11919304258E+04  0.11919304258E+04  0.25500000920E-02 0. -1.
    10030    2    1    2    0    0  0.00000000000E+00  0.00000000000E+00 -0.93642665027E+03  0.14474342014E+04  0.11037077947E+04 0.  0.
        5    1    3    3  502    0  0.18956385785E+03 -0.46100499260E+03 -0.15770482515E+03  0.52283167586E+03  0.46999998093E+01 0.  1.
       -5    1    3    3    0  502 -0.18956385785E+03  0.46100499260E+03 -0.77872182512E+03  0.92460252558E+03  0.46999998093E+01 0. -1.
</event>
<event>
 5   0  0.1480937E-03  0.1095764E+04  0.7818609E-02  0.9209330E-01
       -1   -1    0    0    0  501  0.00000000000E+00  0.00000000000E+00  0.44077124476E+03  0.44077124479E+03  0.50400001928E-02 0. -1.
        1   -1    0    0  501    0  0.00000000000E+00  0.00000000000E+00 -0.68102153865E+03  0.68102153866E+03  0.50400001928E-02 0.  1.
    10030    2    1    2    0    0  0.00000000000E+00  0.00000000000E+00 -0.24025029389E+03  0.11217927835E+04  0.10957640464E+04 0.  0.
        1    1    3    3  502    0  0.17538857049E+03  0.50187864639E+03 -0.25567645356E+03  0.58992692368E+03  0.50400001928E-02 0. -1.
       -1    1    3    3    0  502 -0.17538857049E+03 -0.50187864639E+03  0.15426159668E+02  0.53186585977E+03  0.50400001928E-02 0.  1.
</event>
<event>
 5   0  0.2488472E-03  0.1104771E+04  0.7818609E-02  0.9200555E-01
       -2   -1    0    0    0  501  0.00000000000E+00  0.00000000000E+00  0.64763536307E+03  0.64763536308E+03  0.25500000920E-02 0. -1.
        2   -1    0    0  501    0  0.00000000000E+00  0.00000000000E+00 -0.47114402827E+03  0.47114402827E+03  0.25500000920E-02 0.  1.
    10030    2    1    2    0    0  0.00000000000E+00  0.00000000000E+00  0.17649133480E+03  0.11187793914E+04  0.11047706256E+04 0.  0.
        2    1    3    3  502    0  0.33273948383E+03  0.21272909686E+03 -0.30286437289E+03  0.49769072839E+03  0.25500000920E-02 0.  1.
       -2    1    3    3    0  502 -0.33273948383E+03 -0.21272909686E+03  0.47935570770E+03  0.62108866296E+03  0.25500000920E-02 0. -1.
</event>
<event>
 5   0  0.2392585E-03  0.1103697E+04  0.7818609E-02  0.9201596E-01
       -2   -1    0    0    0  501  0.00000000000E+00  0.00000000000E+00  0.23757080960E+03  0.23757080962E+03  0.25500000920E-02 0.  1.
        2   -1    0    0  501    0  0.00000000000E+00  0.00000000000E+00 -0.12818778879E+04  0.12818778879E+04  0.25500000920E-02 0. -1.
    10030    2    1    2    0    0  0.00000000000E+00  0.00000000000E+00 -0.10443070783E+04  0.15194486976E+04  0.11036970013E+04 0.  0.
        5    1    3    3  502    0  0.27563598825E+03  0.47380045569E+03 -0.60979376102E+03  0.81995889580E+03  0.46999998093E+01 0. -1.
       -5    1    3    3    0  502 -0.27563598825E+03 -0.47380045569E+03 -0.43451331732E+03  0.69948980175E+03  0.46999998093E+01 0.  1.
</event>
<event>
 5   0  0.1415400E-03  0.1102123E+04  0.7818609E-02  0.9203125E-01
        1   -1    0    0  501    0  0.00000000000E+00  0.00000000000E+00  0.13281649520E+04  0.13281649520E+04  0.50400001928E-02 0.  1.
       -1   -1    0    0    0  501  0.00000000000E+00  0.00000000000E+00 -0.22863803566E+03  0.22863803572E+03  0.50400001928E-02 0. -1.
    10030    2    1    2    0    0  0.00000000000E+00  0.00000000000E+00  0.10995269164E+04  0.15568029878E+04  0.11021234517E+04 0.  0.
        2    1    3    3  502    0 -0.28475252554E+03  0.31187314666E+03  0.10498139885E+04  0.11315733608E+04  0.25500000920E-02 0.  1.
       -2    1    3    3    0  502  0.28475252554E+03 -0.31187314666E+03  0.49712927816E+02  0.42522962691E+03  0.25500000920E-02 0. -1.
</event>
<event>
 5   0  0.2392585E-03  0.1128773E+04  0.7818609E-02  0.9177593E-01
        2   -1    0    0  501    0  0.00000000000E+00  0.00000000000E+00  0.33881631937E+03  0.33881631938E+03  0.25500000920E-02 0.  1.
       -2   -1    0    0    0  501  0.00000000000E+00  0.00000000000E+00 -0.94013257486E+03  0.94013257486E+03  0.25500000920E-02 0. -1.
    10030    2    1    2    0    0  0.00000000000E+00  0.00000000000E+00 -0.60131625549E+03  0.12789488942E+04  0.11287732434E+04 0.  0.
        5    1    3    3  502    0  0.14916867208E+03 -0.25941695956E+03 -0.84281868773E+03  0.89437904829E+03  0.46999998093E+01 0. -1.
       -5    1    3    3    0  502 -0.14916867208E+03  0.25941695956E+03  0.24150243224E+03  0.38456984595E+03  0.46999998093E+01 0.  1.
</event>
<event>
 5   0  0.1479573E-03  0.1084061E+04  0.7818609E-02  0.9220867E-01
       -1   -1    0    0    0  501  0.00000000000E+00  0.00000000000E+00  0.95544314820E+03  0.95544314822E+03  0.50400001928E-02 0.  1.
        1   -1    0    0  501    0  0.00000000000E+00  0.00000000000E+00 -0.30749841876E+03  0.30749841880E+03  0.50400001928E-02 0. -1.
    10030    2    1    2    0    0  0.00000000000E+00  0.00000000000E+00  0.64794472945E+03  0.12629415670E+04  0.10840613586E+04 0.  0.
        4    1    3    3  502    0 -0.19567176314E+03 -0.11469598889E+03 -0.24955431440E+03  0.33722630012E+03  0.12699999809E+01 0. -1.
       -4    1    3    3    0  502  0.19567176314E+03  0.11469598889E+03  0.89749904384E+03  0.92571526689E+03  0.12699999809E+01 0.  1.
</event>
<event>
 5   0  0.1468556E-03  0.1105192E+04  0.7818609E-02  0.9200146E-01
       -1   -1    0    0    0  501  0.00000000000E+00  0.00000000000E+00  0.67966032595E+03  0.67966032597E+03  0.50400001928E-02 0. -1.
        1   -1    0    0  501    0  0.00000000000E+00  0.00000000000E+00 -0.44928701112E+03  0.44928701115E+03  0.50400001928E-02 0.  1.
    10030    2    1    2    0    0  0.00000000000E+00  0.00000000000E+00  0.23037331482E+03  0.11289473371E+04  0.11051923931E+04 0.  0.
        5    1    3    3  502    0  0.33852843721E+02  0.27071330958E+03  0.60604479665E+03  0.66463832011E+03  0.46999998093E+01 0. -1.
       -5    1    3    3    0  502 -0.33852843721E+02 -0.27071330958E+03 -0.37567148183E+03  0.46430901700E+03  0.46999998093E+01 0.  1.
</event>
<event>
 5   0  0.1468556E-03  0.1112893E+04  0.7818609E-02  0.9192716E-01
        1   -1    0    0  501    0  0.00000000000E+00  0.00000000000E+00  0.89119122231E+03  0.89119122232E+03  0.50400001928E-02 0.  1.
       -1   -1    0    0    0  501  0.00000000000E+00  0.00000000000E+00 -0.34743660746E+03  0.34743660750E+03  0.50400001928E-02 0. -1.
    10030    2    1    2    0    0  0.00000000000E+00  0.00000000000E+00  0.54375461485E+03  0.12386278298E+04  0.11128925463E+04 0.  0.
        5    1    3    3  502    0  0.18415957243E+03  0.27255582444E+03 -0.22761289183E+03  0.40003892821E+03  0.46999998093E+01 0. -1.
       -5    1    3    3    0  502 -0.18415957243E+03 -0.27255582444E+03  0.77136750668E+03  0.83858890161E+03  0.46999998093E+01 0.  1.
</event>
<event>
 5   0  0.1468556E-03  0.1103527E+04  0.7818609E-02  0.9201761E-01
        1   -1    0    0  501    0  0.00000000000E+00  0.00000000000E+00  0.86147414366E+03  0.86147414368E+03  0.50400001928E-02 0. -1.
       -1   -1    0    0    0  501  0.00000000000E+00  0.00000000000E+00 -0.35339789272E+03  0.35339789276E+03  0.50400001928E-02 0.  1.
    10030    2    1    2    0    0  0.00000000000E+00  0.00000000000E+00  0.50807625094E+03  0.12148720364E+04  0.11035273391E+04 0.  0.
        5    1    3    3  502    0  0.10309654562E+03 -0.94855832727E+02 -0.33346916581E+03  0.36173236137E+03  0.46999998093E+01 0.  1.
       -5    1    3    3    0  502 -0.10309654562E+03  0.94855832727E+02  0.84154541675E+03  0.85313967507E+03  0.46999998093E+01 0. -1.
</event>
<event>
 5   0  0.2483036E-03  0.1110739E+04  0.7818609E-02  0.9194788E-01
        2   -1    0    0  501    0  0.00000000000E+00  0.00000000000E+00  0.48015311808E+03  0.48015311809E+03  0.25500000920E-02 0. -1.
       -2   -1    0    0    0  501  0.00000000000E+00  0.00000000000E+00 -0.64236849415E+03  0.64236849416E+03  0.25500000920E-02 0.  1.
    10030    2    1    2    0    0  0.00000000000E+00  0.00000000000E+00 -0.16221537607E+03  0.11225216122E+04  0.11107389170E+04 0.  0.
        3    1    3    3  502    0 -0.22509840621E+03  0.35480545864E+03  0.28589612568E+03  0.50822515762E+03  0.10100000352E+00 0. -1.
       -3    1    3    3    0  502  0.22509840621E+03 -0.35480545864E+03 -0.44811150175E+03  0.61429645462E+03  0.10100000352E+00 0.  1.
</event>
<event>
 5   0  0.1468556E-03  0.1100143E+04  0.7818609E-02  0.9205052E-01
       -1   -1    0    0    0  501  0.00000000000E+00  0.00000000000E+00  0.60039692287E+03  0.60039692289E+03  0.50400001928E-02 0.  1.
        1   -1    0    0  501    0  0.00000000000E+00  0.00000000000E+00 -0.50396451666E+03  0.50396451668E+03  0.50400001928E-02 0. -1.
    10030    2    1    2    0    0  0.00000000000E+00  0.00000000000E+00  0.96432406209E+02  0.11043614396E+04  0.11001431635E+04 0.  0.
        5    1    3    3  502    0  0.16988378883E+03 -0.40054509978E+03 -0.28961509334E+03  0.52268142396E+03  0.46999998093E+01 0. -1.
       -5    1    3    3    0  502 -0.16988378883E+03  0.40054509978E+03  0.38604749955E+03  0.58168001562E+03  0.46999998093E+01 0.  1.
</event>
<event>
 5   0  0.1468556E-03  0.1136616E+04  0.7818609E-02  0.9170221E-01
       -1   -1    0    0    0  501  0.00000000000E+00  0.00000000000E+00  0.48362571657E+03  0.48362571659E+03  0.50400001928E-02 0.  1.
        1   -1    0    0  501    0  0.00000000000E+00  0.00000000000E+00 -0.66781782781E+03  0.66781782783E+03  0.50400001928E-02 0. -1.
    10030    2    1    2    0    0  0.00000000000E+00  0.00000000000E+00 -0.18419211124E+03  0.11514435444E+04  0.11366158111E+04 0.  0.
        5    1    3    3  502    0  0.30069306622E+03  0.28198335319E+03 -0.48837798323E+03  0.63911350795E+03  0.46999998093E+01 0. -1.
       -5    1    3    3    0  502 -0.30069306622E+03 -0.28198335319E+03  0.30418587199E+03  0.51233003647E+03  0.46999998093E+01 0.  1.
</event>
<event>
 5   0  0.2483036E-03  0.1102651E+04  0.7818609E-02  0.9202612E-01
        2   -1    0    0  501    0  0.00000000000E+00  0.00000000000E+00  0.12986417635E+04  0.12986417635E+04  0.25500000920E-02 0. -1.
       -2   -1    0    0    0  501  0.00000000000E+00  0.00000000000E+00 -0.23405965756E+03  0.23405965758E+03  0.25500000920E-02 0.  1.
    10030    2    1    2    0    0  0.00000000000E+00  0.00000000000E+00  0.10645821060E+04  0.15327014211E+04  0.11026507089E+04 0.  0.
        3    1    3    3  502    0  0.14433484062E+03  0.41242404381E+03  0.99962053862E+03  0.10909479225E+04  0.10100000352E+00 0. -1.
       -3    1    3    3    0  502 -0.14433484062E+03 -0.41242404381E+03  0.64961567355E+02  0.44175349864E+03  0.10100000352E+00 0.  1.
</event>
<event>
 5   0  0.2467448E-03  0.1089653E+04  0.7818609E-02  0.9215336E-01
        2   -1    0    0  501    0  0.00000000000E+00  0.00000000000E+00  0.14964051370E+04  0.14964051370E+04  0.25500000920E-02 0. -1.
       -2   -1    0    0    0  501  0.00000000000E+00  0.00000000000E+00 -0.19836598851E+03  0.19836598852E+03  0.25500000920E-02 0.  1.
    10030    2    1    2    0    0  0.00000000000E+00  0.00000000000E+00  0.12980391485E+04  0.16947711255E+04  0.10896529433E+04 0.  0.
        1    1    3    3  502    0  0.28854228941E+03  0.36868691890E+01  0.13677872683E+04  0.13978956532E+04  0.50400001928E-02 0. -1.
       -1    1    3    3    0  502 -0.28854228941E+03 -0.36868691890E+01 -0.69748119893E+02  0.29687547227E+03  0.50400001928E-02 0.  1.
</event>
<event>
 5   0  0.2438115E-03  0.1107651E+04  0.7818609E-02  0.9197767E-01
       -2   -1    0    0    0  501  0.00000000000E+00  0.00000000000E+00  0.44136610896E+03  0.44136610897E+03  0.25500000920E-02 0.  1.
        2   -1    0    0  501    0  0.00000000000E+00  0.00000000000E+00 -0.69493928989E+03  0.69493928990E+03  0.25500000920E-02 0. -1.
    10030    2    1    2    0    0  0.00000000000E+00  0.00000000000E+00 -0.25357318093E+03  0.11363053989E+04  0.11076509384E+04 0.  0.
        4    1    3    3  502    0  0.10887114130E+03  0.53274721409E+03 -0.18955458958E+02  0.54408955316E+03  0.12699999809E+01 0.  1.
       -4    1    3    3    0  502 -0.10887114130E+03 -0.53274721409E+03 -0.23461772198E+03  0.59221584570E+03  0.12699999809E+01 0. -1.
</event>
<event>
 5   0  0.1415400E-03  0.1102622E+04  0.7818609E-02  0.9202640E-01
        1   -1    0    0  501    0  0.00000000000E+00  0.00000000000E+00  0.12109012054E+04  0.12109012054E+04  0.50400001928E-02 0. -1.
       -1   -1    0    0    0  501  0.00000000000E+00  0.00000000000E+00 -0.25100637650E+03  0.25100637655E+03  0.50400001928E-02 0.  1.
    10030    2    1    2    0    0  0.00000000000E+00  0.00000000000E+00  0.95989482886E+03  0.14619075819E+04  0.11026221908E+04 0.  0.
        2    1    3    3  502    0  0.43682304897E+03 -0.26635514399E+02  0.35402989560E+02  0.43906400264E+03  0.25500000920E-02 0.  1.
       -2    1    3    3    0  502 -0.43682304897E+03  0.26635514399E+02  0.92449183930E+03  0.10228435793E+04  0.25500000920E-02 0. -1.
</event>
<event>
 5   0  0.2392585E-03  0.1100792E+04  0.7818609E-02  0.9204420E-01
        2   -1    0    0  501    0  0.00000000000E+00  0.00000000000E+00  0.40353477111E+03  0.40353477112E+03  0.25500000920E-02 0.  1.
       -2   -1    0    0    0  501  0.00000000000E+00  0.00000000000E+00 -0.75070516710E+03  0.75070516711E+03  0.25500000920E-02 0. -1.
    10030    2    1    2    0    0  0.00000000000E+00  0.00000000000E+00 -0.34717039599E+03  0.11542399382E+04  0.11007917837E+04 0.  0.
        5    1    3    3  502    0  0.36912363700E+03 -0.73700005267E+02  0.24744505506E+03  0.45048317997E+03  0.46999998093E+01 0.  1.
       -5    1    3    3    0  502 -0.36912363700E+03  0.73700005267E+02 -0.59461545104E+03  0.70375675825E+03  0.46999998093E+01 0. -1.
</event>
<event>
 5   0  0.1479573E-03  0.1104812E+04  0.7818609E-02  0.9200514E-01
       -1   -1    0    0    0  501  0.00000000000E+00  0.00000000000E+00  0.14983114283E+03  0.14983114291E+03  0.50400001928E-02 0. -1.
        1   -1    0    0  501    0  0.00000000000E+00  0.00000000000E+00 -0.20366421943E+04  0.20366421943E+04  0.50400001928E-02 0.  1.
    10030    2    1    2    0    0  0.00000000000E+00  0.00000000000E+00 -0.18868110514E+04  0.21864733372E+04  0.11048120702E+04 0.  0.
        4    1    3    3  502    0  0.47040055946E+03  0.24188369896E+03 -0.62820623433E+03  0.82123632160E+03  0.12699999809E+01 0.  1.
       -4    1    3    3    0  502 -0.47040055946E+03 -0.24188369896E+03 -0.12586048171E+04  0.13652370156E+04  0.12699999809E+01 0. -1.
</event>
<event>
 5   0  0.2467448E-03  0.1127149E+04  0.7818609E-02  0.9179128E-01
        2   -1    0    0  501    0  0.00000000000E+00  0.00000000000E+00  0.12010053310E+04  0.12010053310E+04  0.25500000920E-02 0. -1.
       -2   -1    0    0    0  501  0.00000000000E+00  0.00000000000E+00 -0.26445844947E+03  0.26445844948E+03  0.25500000920E-02 0.  1.
    10030    2    1    2    0    0  0.00000000000E+00  0.00000000000E+00  0.93654688157E+03  0.14654637805E+04  0.11271486285E+04 0.  0.
        1    1    3    3  502    0 -0.24840925686E+03 -0.34245914662E+03  0.95236044633E+03  0.10421016485E+04  0.50400001928E-02 0. -1.
       -1    1    3    3    0  502  0.24840925686E+03  0.34245914662E+03 -0.15813564761E+02  0.42336213205E+03  0.50400001928E-02 0.  1.
</event>
<event>
 5   0  0.2392585E-03  0.1153926E+04  0.7818609E-02  0.9154169E-01
        2   -1    0    0  501    0  0.00000000000E+00  0.00000000000E+00  0.24956544551E+04  0.24956544551E+04  0.25500000920E-02 0. -1.
       -2   -1    0    0    0  501  0.00000000000E+00  0.00000000000E+00 -0.13338632841E+03  0.13338632843E+03  0.25500000920E-02 0.  1.
    10030    2    1    2    0    0  0.00000000000E+00  0.00000000000E+00  0.23622681267E+04  0.26290407835E+04  0.11539257944E+04 0.  0.
        5    1    3    3  502    0 -0.49949168035E+03 -0.12573688721E+03  0.17733388969E+04  0.18466333249E+04  0.46999998093E+01 0. -1.
       -5    1    3    3    0  502  0.49949168035E+03  0.12573688721E+03  0.58892922977E+03  0.78240745857E+03  0.46999998093E+01 0.  1.
</event>
<event>
 5   0  0.2488472E-03  0.1101915E+04  0.7818609E-02  0.9203327E-01
       -2   -1    0    0    0  501  0.00000000000E+00  0.00000000000E+00  0.30554195391E+03  0.30554195392E+03  0.25500000920E-02 0. -1.
        2   -1    0    0  501    0  0.00000000000E+00  0.00000000000E+00 -0.99349502161E+03  0.99349502161E+03  0.25500000920E-02 0.  1.
    10030    2    1    2    0    0  0.00000000000E+00  0.00000000000E+00 -0.68795306769E+03  0.12990369755E+04  0.11019154416E+04 0.  0.
        2    1    3    3  502    0 -0.91441336737E+02 -0.21981045260E+03  0.24177428711E+03  0.33931247995E+03  0.25500000920E-02 0. -1.
       -2    1    3    3    0  502  0.91441336737E+02  0.21981045260E+03 -0.92972735480E+03  0.95972449558E+03  0.25500000920E-02 0.  1.
</event>
<event>
 5   0  0.1480937E-03  0.1095724E+04  0.7818609E-02  0.9209369E-01
       -1   -1    0    0    0  501  0.00000000000E+00  0.00000000000E+00  0.19704114246E+04  0.19704114246E+04  0.50400001928E-02 0. -1.
        1   -1    0    0  501    0  0.00000000000E+00  0.00000000000E+00 -0.15233007265E+03  0.15233007273E+03  0.50400001928E-02 0.  1.
    10030    2    1    2    0    0  0.00000000000E+00  0.00000000000E+00  0.18180813519E+04  0.21227414973E+04  0.10957242638E+04 0.  0.
        1    1    3    3  502    0 -0.18491585186E+03  0.19956948487E+03 -0.12206022064E+02  0.27234323667E+03  0.50400001928E-02 0.  1.
       -1    1    3    3    0  502  0.18491585186E+03 -0.19956948487E+03  0.18302873740E+04  0.18503982606E+04  0.50400001928E-02 0. -1.
</event>
<event>
 5   0  0.1479573E-03  0.1105393E+04  0.7818609E-02  0.9199952E-01
        1   -1    0    0  501    0  0.00000000000E+00  0.00000000000E+00  0.84640526109E+03  0.84640526110E+03  0.50400001928E-02 0. -1.
       -1   -1    0    0    0  501  0.00000000000E+00  0.00000000000E+00 -0.36090667868E+03  0.36090667872E+03  0.50400001928E-02 0.  1.
    10030    2    1    2    0    0  0.00000000000E+00  0.00000000000E+00  0.48549858240E+03  0.12073119398E+04  0.11053928019E+04 0.  0.
        4    1    3    3  502    0 -0.23594903558E+03  0.36259788659E+02  0.78719293734E+03  0.82259409988E+03  0.12699999809E+01 0. -1.
       -4    1    3    3    0  502  0.23594903558E+03 -0.36259788659E+02 -0.30169435493E+03  0.38471783993E+03  0.12699999809E+01 0.  1.
</event>
<event>
 5   0  0.2488472E-03  0.1099152E+04  0.7818609E-02  0.9206018E-01
        2   -1    0    0  501    0  0.00000000000E+00  0.00000000000E+00  0.25224514066E+04  0.25224514066E+04  0.25500000920E-02 0.  1.
       -2   -1    0    0    0  501  0.00000000000E+00  0.00000000000E+00 -0.11973829849E+03  0.11973829852E+03  0.25500000920E-02 0. -1.
    10030    2    1    2    0    0  0.00000000000E+00  0.00000000000E+00  0.24027131081E+04  0.26421897051E+04  0.10991524726E+04 0.  0.
        2    1    3    3  502    0  0.21701366175E+02  0.64024800019E+02  0.25124184629E+04  0.25133278053E+04  0.25500000920E-02 0.  1.
       -2    1    3    3    0  502 -0.21701366175E+02 -0.64024800019E+02 -0.10970535485E+03  0.12886189973E+03  0.25500000920E-02 0. -1.
</event>
<event>
 5   0  0.2392585E-03  0.1097776E+04  0.7818609E-02  0.9207362E-01
       -2   -1    0    0    0  501  0.00000000000E+00  0.00000000000E+00  0.33181074403E+03  0.33181074404E+03  0.25500000920E-02 0. -1.
        2   -1    0    0  501    0  0.00000000000E+00  0.00000000000E+00 -0.90798201783E+03  0.90798201784E+03  0.25500000920E-02 0.  1.
    10030    2    1    2    0    0  0.00000000000E+00  0.00000000000E+00 -0.57617127380E+03  0.12397927619E+04  0.10977762776E+04 0.  0.
        5    1    3    3  502    0 -0.37057635545E+03  0.50151653859E+01 -0.74531085868E+03  0.83238353730E+03  0.46999998093E+01 0.  1.
       -5    1    3    3    0  502  0.37057635545E+03 -0.50151653859E+01  0.16913958488E+03  0.40740922458E+03  0.46999998093E+01 0. -1.
</event>
<event>
 5   0  0.1479573E-03  0.1101182E+04  0.7818609E-02  0.9204040E-01
       -1   -1    0    0    0  501  0.00000000000E+00  0.00000000000E+00  0.88893831603E+03  0.88893831604E+03  0.50400001928E-02 0.  1.
        1   -1    0    0  501    0  0.00000000000E+00  0.00000000000E+00 -0.34102556847E+03  0.34102556851E+03  0.50400001928E-02 0. -1.
    10030    2    1    2    0    0  0.00000000000E+00  0.00000000000E+00  0.54791274756E+03  0.12299638845E+04  0.11011824455E+04 0.  0.
        4    1    3    3  502    0  0.24584527933E+03  0.21181330134E+03  0.77077155422E+03  0.83629849796E+03  0.12699999809E+01 0.  1.
       -4    1    3    3    0  502 -0.24584527933E+03 -0.21181330134E+03 -0.22285880666E+03  0.39366538659E+03  0.12699999809E+01 0. -1.
</event>
<event>
 5   0  0.1415400E-03  0.1098568E+04  0.7818609E-02  0.9206589E-01
        1   -1    0    0  501    0  0.00000000000E+00  0.00000000000E+00  0.61420603059E+03  0.61420603061E+03  0.50400001928E-02 0. -1.
       -1   -1    0    0    0  501  0.00000000000E+00  0.00000000000E+00 -0.49122406499E+03  0.49122406502E+03  0.50400001928E-02 0.  1.
    10030    2    1    2    0    0  0.00000000000E+00  0.00000000000E+00  0.12298196560E+03  0.11054300956E+04  0.10985677642E+04 0.  0.
        2    1    3    3  502    0  0.31123717548E+03 -0.20143495400E+03  0.46932282709E+03  0.59808739840E+03  0.25500000920E-02 0. -1.
       -2    1    3    3    0  502 -0.31123717548E+03  0.20143495400E+03 -0.34634086149E+03  0.50734269723E+03  0.25500000920E-02 0.  1.
</event>
<event>
 5   0  0.2438115E-03  0.1103711E+04  0.7818609E-02  0.9201582E-01
       -2   -1    0    0    0  501  0.00000000000E+00  0.00000000000E+00  0.18661237637E+03  0.18661237639E+03  0.25500000920E-02 0. -1.
        2   -1    0    0  501    0  0.00000000000E+00  0.00000000000E+00 -0.16319629503E+04  0.16319629503E+04  0.25500000920E-02 0.  1.
    10030    2    1    2    0    0  0.00000000000E+00  0.00000000000E+00 -0.14453505739E+04  0.18185753267E+04  0.11037109845E+04 0.  0.
        4    1    3    3  502    0  0.52042334793E+03  0.92603575360E+02 -0.46149154032E+03  0.70170644712E+03  0.12699999809E+01 0.  1.
       -4    1    3    3    0  502 -0.52042334793E+03 -0.92603575360E+02 -0.98385903360E+03  0.11168688796E+04  0.12699999809E+01 0. -1.
</event>
<event>
 5   0  0.1468556E-03  0.1171615E+04  0.7818609E-02  0.9138071E-01
       -1   -1    0    0    0  501  0.00000000000E+00  0.00000000000E+00  0.17196704777E+03  0.17196704784E+03  0.50400001928E-02 0.  1.
        1   -1    0    0  501    0  0.00000000000E+00  0.00000000000E+00 -0.19955609106E+04  0.19955609106E+04  0.50400001928E-02 0. -1.
    10030    2    1    2    0    0  0.00000000000E+00  0.00000000000E+00 -0.18235938628E+04  0.21675279584E+04  0.11716154975E+04 0.  0.
        5    1    3    3  502    0  0.98798269055E+02  0.13038899436E+03  0.12881402571E+03  0.20827273234E+03  0.46999998093E+01 0.  1.
       -5    1    3    3    0  502 -0.98798269055E+02 -0.13038899436E+03 -0.19524078885E+04  0.19592552261E+04  0.46999998093E+01 0. -1.
</event>
<event>
 5   0  0.2438115E-03  0.1097077E+04  0.7818609E-02  0.9208045E-01
        2   -1    0    0  501    0  0.00000000000E+00  0.00000000000E+00  0.29484444144E+03  0.29484444145E+03  0.25500000920E-02 0.  1.
       -2   -1    0    0    0  501  0.00000000000E+00  0.00000000000E+00 -0.10205195896E+04  0.10205195896E+04  0.25500000920E-02 0. -1.
    10030    2    1    2    0    0  0.00000000000E+00  0.00000000000E+00 -0.72567514819E+03  0.13153640311E+04  0.10970770773E+04 0.  0.
        4    1    3    3  502    0 -0.30634540548E+03  0.36781504216E+03 -0.41662022070E+02  0.48049219524E+03  0.12699999809E+01 0.  1.
       -4    1    3    3    0  502  0.30634540548E+03 -0.36781504216E+03 -0.68401312612E+03  0.83487183585E+03  0.12699999809E+01 0. -1.
</event>
<event>
 5   0  0.2438115E-03  0.1103087E+04  0.7818609E-02  0.9202188E-01
        2   -1    0    0  501    0  0.00000000000E+00  0.00000000000E+00  0.43376241713E+03  0.43376241713E+03  0.25500000920E-02 0. -1.
       -2   -1    0    0    0  501  0.00000000000E+00  0.00000000000E+00 -0.70130597555E+03  0.70130597555E+03  0.25500000920E-02 0.  1.
    10030    2    1    2    0    0  0.00000000000E+00  0.00000000000E+00 -0.26754355842E+03  0.11350683927E+04  0.11030868961E+04 0.  0.
        4    1    3    3  502    0  0.33517664847E+02 -0.40937830513E+03 -0.51252572161E+03  0.65680914944E+03  0.12699999809E+01 0.  1.
       -4    1    3    3    0  502 -0.33517664847E+02  0.40937830513E+03  0.24498216319E+03  0.47825924325E+03  0.12699999809E+01 0. -1.
</event>
<event>
 5   0  0.2483036E-03  0.1088977E+04  0.7818609E-02  0.9216002E-01
       -2   -1    0    0    0  501  0.00000000000E+00  0.00000000000E+00  0.12266271073E+04  0.12266271073E+04  0.25500000920E-02 0.  1.
        2   -1    0    0  501    0  0.00000000000E+00  0.00000000000E+00 -0.24169354150E+03  0.24169354151E+03  0.25500000920E-02 0. -1.
    10030    2    1    2    0    0  0.00000000000E+00  0.00000000000E+00  0.98493356581E+03  0.14683206488E+04  0.10889772260E+04 0.  0.
        3    1    3    3  502    0 -0.90685644271E+02 -0.11996696244E+02  0.12161920958E+04  0.12196274147E+04  0.10100000352E+00 0.  1.
       -3    1    3    3    0  502  0.90685644271E+02  0.11996696244E+02 -0.23125852995E+03  0.24869323408E+03  0.10100000352E+00 0. -1.
</event>
<event>
 5   0  0.1415400E-03  0.1090625E+04  0.7818609E-02  0.9214377E-01
       -1   -1    0    0    0  501  0.00000000000E+00  0.00000000000E+00  0.58074403705E+03  0.58074403707E+03  0.50400001928E-02 0.  1.
        1   -1    0    0  501    0  0.00000000000E+00  0.00000000000E+00 -0.51204302611E+03  0.51204302613E+03  0.50400001928E-02 0. -1.
    10030    2    1    2    0    0  0.00000000000E+00  0.00000000000E+00  0.68701010939E+02  0.10927870632E+04  0.10906253878E+04 0.  0.
        2    1    3    3  502    0 -0.16251442037E+03 -0.50008868343E+03  0.17908855908E+03  0.55549288036E+03  0.25500000920E-02 0. -1.
       -2    1    3    3    0  502  0.16251442037E+03  0.50008868343E+03 -0.11038754814E+03  0.53729418284E+03  0.25500000920E-02 0.  1.
</event>
<event>
 5   0  0.1479573E-03  0.1107912E+04  0.7818609E-02  0.9197515E-01
       -1   -1    0    0    0  501  0.00000000000E+00  0.00000000000E+00  0.20120727247E+03  0.20120727253E+03  0.50400001928E-02 0. -1.
        1   -1    0    0  501    0  0.00000000000E+00  0.00000000000E+00 -0.15251294674E+04  0.15251294674E+04  0.50400001928E-02 0.  1.
    10030    2    1    2    0    0  0.00000000000E+00  0.00000000000E+00 -0.13239221949E+04  0.17263367399E+04  0.11079118022E+04 0.  0.
        4    1    3    3  502    0 -0.25939936409E+02  0.49618586411E+03 -0.10436133649E+04  0.11558562888E+04  0.12699999809E+01 0.  1.
       -4    1    3    3    0  502  0.25939936409E+02 -0.49618586411E+03 -0.28030883001E+03  0.57048045113E+03  0.12699999809E+01 0. -1.
</event>
<event>
 5   0  0.1468556E-03  0.1098967E+04  0.7818609E-02  0.9206199E-01
       -1   -1    0    0    0  501  0.00000000000E+00  0.00000000000E+00  0.29016402754E+03  0.29016402759E+03  0.50400001928E-02 0. -1.
        1   -1    0    0  501    0  0.00000000000E+00  0.00000000000E+00 -0.10405563712E+04  0.10405563712E+04  0.50400001928E-02 0.  1.
    10030    2    1    2    0    0  0.00000000000E+00  0.00000000000E+00 -0.75039234361E+03  0.13307203988E+04  0.10989668377E+04 0.  0.
        5    1    3    3  502    0 -0.30622807313E+03 -0.39912326863E+02  0.17511165737E+03  0.35504198224E+03  0.46999998093E+01 0. -1.
       -5    1    3    3    0  502  0.30622807313E+03  0.39912326863E+02 -0.92550400098E+03  0.97567841651E+03  0.46999998093E+01 0.  1.
</event>
<event>
 5   0  0.2467448E-03  0.1098703E+04  0.7818609E-02  0.9206457E-01
        2   -1    0    0  501    0  0.00000000000E+00  0.00000000000E+00  0.53265133007E+03  0.53265133007E+03  0.25500000920E-02 0.  1.
       -2   -1    0    0    0  501  0.00000000000E+00  0.00000000000E+00 -0.56657511034E+03  0.56657511034E+03  0.25500000920E-02 0. -1.
    10030    2    1    2    0    0  0.00000000000E+00  0.00000000000E+00 -0.33923780271E+02  0.10992264404E+04  0.10987028463E+04 0.  0.
        1    1    3    3  502    0  0.34008476592E+03 -0.21652741421E+03 -0.39029547428E+03  0.56113485580E+03  0.50400001928E-02 0. -1.
       -1    1    3    3    0  502 -0.34008476592E+03  0.21652741421E+03  0.35637169401E+03  0.53809158462E+03  0.50400001928E-02 0.  1.
</event>
<event>
 5   0  0.2392585E-03  0.1085823E+04  0.7818609E-02  0.9219121E-01
        2   -1    0    0  501    0  0.00000000000E+00  0.00000000000E+00  0.10884990607E+04  0.10884990607E+04  0.25500000920E-02 0.  1.
       -2   -1    0    0    0  501  0.00000000000E+00  0.00000000000E+00 -0.27078853984E+03  0.27078853985E+03  0.25500000920E-02 0. -1.
    10030    2    1    2    0    0  0.00000000000E+00  0.00000000000E+00  0.81771052083E+03  0.13592876005E+04  0.10858233213E+04 0.  0.
        5    1    3    3  502    0 -0.12681294788E+03 -0.11164578783E+02  0.10695245706E+04  0.10770845225E+04  0.46999998093E+01 0.  1.
       -5    1    3    3    0  502  0.12681294788E+03  0.11164578783E+02 -0.25181404977E+03  0.28220307799E+03  0.46999998093E+01 0. -1.
</event>
<event>
 5   0  0.2438115E-03  0.1095021E+04  0.7818609E-02  0.9210058E-01
        2   -1    0    0  501    0  0.00000000000E+00  0.00000000000E+00  0.10721091463E+04  0.10721091463E+04  0.25500000920E-02 0. -1.
       -2   -1    0    0    0  501  0.00000000000E+00  0.00000000000E+00 -0.27960583240E+03  0.27960583241E+03  0.25500000920E-02 0.  1.
    10030    2    1    2    0    0  0.00000000000E+00  0.00000000000E+00  0.79250331386E+03  0.13517149787E+04  0.10950214067E+04 0.  0.
        4    1    3    3  502    0 -0.24342475819E+03  0.38880472765E+03  0.27283022772E+02  0.45953313850E+03  0.12699999809E+01 0.  1.
       -4    1    3    3    0  502  0.24342475819E+03 -0.38880472765E+03  0.76522029108E+03  0.89218184017E+03  0.12699999809E+01 0. -1.
</event>
<event>
 5   0  0.1468556E-03  0.1069490E+04  0.7818609E-02  0.9235450E-01
        1   -1    0    0  501    0  0.00000000000E+00  0.00000000000E+00  0.13269551799E+04  0.13269551799E+04  0.50400001928E-02 0.  1.
       -1   -1    0    0    0  501  0.00000000000E+00  0.00000000000E+00 -0.21549493017E+03  0.21549493023E+03  0.50400001928E-02 0. -1.
    10030    2    1    2    0    0  0.00000000000E+00  0.00000000000E+00  0.11114602497E+04  0.15424501101E+04  0.10694898109E+04 0.  0.
        5    1    3    3  502    0  0.50253340880E+03  0.13680125578E+03  0.73044609536E+03  0.89712206458E+03  0.46999998093E+01 0.  1.
       -5    1    3    3    0  502 -0.50253340880E+03 -0.13680125578E+03  0.38101415437E+03  0.64532804555E+03  0.46999998093E+01 0. -1.
</event>
<event>
 5   0  0.1480937E-03  0.1101158E+04  0.7818609E-02  0.9204064E-01
       -1   -1    0    0    0  501  0.00000000000E+00  0.00000000000E+00  0.15813869035E+04  0.15813869035E+04  0.50400001928E-02 0. -1.
        1   -1    0    0  501    0  0.00000000000E+00  0.00000000000E+00 -0.19169072549E+03  0.19169072556E+03  0.50400001928E-02 0.  1.
    10030    2    1    2    0    0  0.00000000000E+00  0.00000000000E+00  0.13896961780E+04  0.17730776291E+04  0.11011579412E+04 0.  0.
        1    1    3    3  502    0  0.40079225391E+03  0.94616506384E+02  0.12832863131E+04  0.13477427335E+04  0.50400001928E-02 0. -1.
       -1    1    3    3    0  502 -0.40079225391E+03 -0.94616506384E+02  0.10640986491E+03  0.42533489564E+03  0.50400001928E-02 0.  1.
</event>
<event>
 5   0  0.9631750E-04  0.1121929E+04  0.7818609E-02  0.9184078E-01
        4   -1    0    0  501    0  0.00000000000E+00  0.00000000000E+00  0.51046486260E+03  0.51046644243E+03  0.12699999809E+01 0. -1.
       -4   -1    0    0    0  501  0.00000000000E+00  0.00000000000E+00 -0.61645659413E+03  0.61645790233E+03  0.12699999809E+01 0.  1.
    10030    2    1    2    0    0  0.00000000000E+00  0.00000000000E+00 -0.10599173153E+03  0.11269243448E+04  0.11219287997E+04 0.  0.
        3    1    3    3  502    0 -0.44676208721E+03  0.21790723407E+03  0.20816398886E+03  0.53889904592E+03  0.10100000352E+00 0.  1.
       -3    1    3    3    0  502  0.44676208721E+03 -0.21790723407E+03 -0.31415572039E+03  0.58802529885E+03  0.10100000352E+00 0. -1.
</event>
<event>
 5   0  0.1415400E-03  0.1042435E+04  0.7818609E-02  0.9263190E-01
       -1   -1    0    0    0  501  0.00000000000E+00  0.00000000000E+00  0.36722261991E+03  0.36722261994E+03  0.50400001928E-02 0. -1.
        1   -1    0    0  501    0  0.00000000000E+00  0.00000000000E+00 -0.73978998813E+03  0.73978998815E+03  0.50400001928E-02 0.  1.
    10030    2    1    2    0    0  0.00000000000E+00  0.00000000000E+00 -0.37256736822E+03  0.11070126081E+04  0.10424348760E+04 0.  0.
        2    1    3    3  502    0  0.36343572940E+02 -0.24151385409E+03  0.30269487607E+03  0.38893956474E+03  0.25500000920E-02 0. -1.
       -2    1    3    3    0  502 -0.36343572940E+02  0.24151385409E+03 -0.67526224430E+03  0.71807304335E+03  0.25500000920E-02 0.  1.
</event>
<event>
 5   0  0.1509004E-03  0.1094888E+04  0.7818609E-02  0.9210189E-01
        1   -1    0    0  501    0  0.00000000000E+00  0.00000000000E+00  0.12399666579E+04  0.12399666579E+04  0.50400001928E-02 0. -1.
       -1   -1    0    0    0  501  0.00000000000E+00  0.00000000000E+00 -0.24169579135E+03  0.24169579140E+03  0.50400001928E-02 0.  1.
    10030    2    1    2    0    0  0.00000000000E+00  0.00000000000E+00  0.99827086655E+03  0.14816624493E+04  0.10948876155E+04 0.  0.
        3    1    3    3  502    0 -0.15177862524E+03 -0.55133884946E+02  0.12070033593E+04  0.12177576178E+04  0.10100000352E+00 0. -1.
       -3    1    3    3    0  502  0.15177862524E+03  0.55133884946E+02 -0.20873249272E+03  0.26390483146E+03  0.10100000352E+00 0.  1.
</event>
<event>
 5   0  0.2467448E-03  0.1100516E+04  0.7818609E-02  0.9204689E-01
       -2   -1    0    0    0  501  0.00000000000E+00  0.00000000000E+00  0.52714057523E+03  0.52714057523E+03  0.25500000920E-02 0.  1.
        2   -1    0    0  501    0  0.00000000000E+00  0.00000000000E+00 -0.57438911840E+03  0.57438911840E+03  0.25500000920E-02 0. -1.
    10030    2    1    2    0    0  0.00000000000E+00  0.00000000000E+00 -0.47248543170E+02  0.11015296936E+04  0.11005158977E+04 0.  0.
        1    1    3    3  502    0  0.93986730049E+02 -0.53837153074E+03  0.40515956352E+02  0.54801364333E+03  0.50400001928E-02 0. -1.
       -1    1    3    3    0  502 -0.93986730049E+02  0.53837153074E+03 -0.87764499521E+02  0.55351605030E+03  0.50400001928E-02 0.  1.
</event>
<event>
 5   0  0.1415400E-03  0.1100341E+04  0.7818609E-02  0.9204860E-01
       -1   -1    0    0    0  501  0.00000000000E+00  0.00000000000E+00  0.29718046022E+03  0.29718046026E+03  0.50400001928E-02 0. -1.
        1   -1    0    0  501    0  0.00000000000E+00  0.00000000000E+00 -0.10185308802E+04  0.10185308802E+04  0.50400001928E-02 0.  1.
    10030    2    1    2    0    0  0.00000000000E+00  0.00000000000E+00 -0.72135041993E+03  0.13157113404E+04  0.11003408122E+04 0.  0.
        2    1    3    3  502    0  0.37027706925E+03 -0.33690901785E+03 -0.63353950281E+03  0.80745594056E+03  0.25500000920E-02 0. -1.
       -2    1    3    3    0  502 -0.37027706925E+03  0.33690901785E+03 -0.87810917118E+02  0.50825539987E+03  0.25500000920E-02 0.  1.
</event>
<event>
 5   0  0.1479573E-03  0.1097061E+04  0.7818609E-02  0.9208061E-01
        1   -1    0    0  501    0  0.00000000000E+00  0.00000000000E+00  0.13344384676E+04  0.13344384676E+04  0.50400001928E-02 0.  1.
       -1   -1    0    0    0  501  0.00000000000E+00  0.00000000000E+00 -0.22547758193E+03  0.22547758198E+03  0.50400001928E-02 0. -1.
    10030    2    1    2    0    0  0.00000000000E+00  0.00000000000E+00  0.11089608857E+04  0.15599160496E+04  0.10970614549E+04 0.  0.
        4    1    3    3  502    0  0.25532643281E+03 -0.38858458150E+03  0.96828817058E+03  0.10741383330E+04  0.12699999809E+01 0. -1.
       -4    1    3    3    0  502 -0.25532643281E+03  0.38858458150E+03  0.14067271512E+03  0.48577771660E+03  0.12699999809E+01 0.  1.
</event>
<event>
 5   0  0.2438115E-03  0.1101697E+04  0.7818609E-02  0.9203540E-01
        2   -1    0    0  501    0  0.00000000000E+00  0.00000000000E+00  0.12575523450E+03  0.12575523453E+03  0.25500000920E-02 0.  1.
       -2   -1    0    0    0  501  0.00000000000E+00  0.00000000000E+00 -0.24128921091E+04  0.24128921091E+04  0.25500000920E-02 0. -1.
    10030    2    1    2    0    0  0.00000000000E+00  0.00000000000E+00 -0.22871368746E+04  0.25386473436E+04  0.11016965336E+04 0.  0.
        4    1    3    3  502    0  0.14890508473E+03 -0.13185407146E+03 -0.23272603369E+04  0.23357441018E+04  0.12699999809E+01 0. -1.
       -4    1    3    3    0  502 -0.14890508473E+03  0.13185407146E+03  0.40123462312E+02  0.20290324184E+03  0.12699999809E+01 0.  1.
</event>
<event>
 5   0  0.1468556E-03  0.1065918E+04  0.7818609E-02  0.9239063E-01
       -1   -1    0    0    0  501  0.00000000000E+00  0.00000000000E+00  0.21411146968E+03  0.21411146974E+03  0.50400001928E-02 0. -1.
        1   -1    0    0  501    0  0.00000000000E+00  0.00000000000E+00 -0.13266226269E+04  0.13266226269E+04  0.50400001928E-02 0.  1.
    10030    2    1    2    0    0  0.00000000000E+00  0.00000000000E+00 -0.11125111572E+04  0.15407340967E+04  0.10659176711E+04 0.  0.
        5    1    3    3  502    0 -0.14434414765E+03 -0.43757856461E+03 -0.16917412521E+03  0.49086882953E+03  0.46999998093E+01 0. -1.
       -5    1    3    3    0  502  0.14434414765E+03  0.43757856461E+03 -0.94333703201E+03  0.10498652671E+04  0.46999998093E+01 0.  1.
</event>
<event>
 5   0  0.1468556E-03  0.1098221E+04  0.7818609E-02  0.9206927E-01
       -1   -1    0    0    0  501  0.00000000000E+00  0.00000000000E+00  0.24711558991E+03  0.24711558997E+03  0.50400001928E-02 0.  1.
        1   -1    0    0  501    0  0.00000000000E+00  0.00000000000E+00 -0.12201678281E+04  0.12201678281E+04  0.50400001928E-02 0. -1.
    10030    2    1    2    0    0  0.00000000000E+00  0.00000000000E+00 -0.97305223814E+03  0.14672834180E+04  0.10982212758E+04 0.  0.
        5    1    3    3  502    0  0.34723651348E+03 -0.30762377282E+03 -0.87900520739E+03  0.99392043269E+03  0.46999998093E+01 0. -1.
       -5    1    3    3    0  502 -0.34723651348E+03  0.30762377282E+03 -0.94047030749E+02  0.47336298534E+03  0.46999998093E+01 0.  1.
</event>
<event>
 5   0  0.1415400E-03  0.1097157E+04  0.7818609E-02  0.9207967E-01
        1   -1    0    0  501    0  0.00000000000E+00  0.00000000000E+00  0.10716740323E+04  0.10716740324E+04  0.50400001928E-02 0. -1.
       -1   -1    0    0    0  501  0.00000000000E+00  0.00000000000E+00 -0.28081136702E+03  0.28081136706E+03  0.50400001928E-02 0.  1.
    10030    2    1    2    0    0  0.00000000000E+00  0.00000000000E+00  0.79086266532E+03  0.13524853994E+04  0.10971567802E+04 0.  0.
        2    1    3    3  502    0 -0.10108751205E+03 -0.10299533755E+03  0.10478545137E+04  0.10577456247E+04  0.25500000920E-02 0. -1.
       -2    1    3    3    0  502  0.10108751205E+03  0.10299533755E+03 -0.25699184840E+03  0.29473977471E+03  0.25500000920E-02 0.  1.
</event>
<event>
 5   0  0.2467448E-03  0.1077035E+04  0.7818609E-02  0.9227869E-01
        2   -1    0    0  501    0  0.00000000000E+00  0.00000000000E+00  0.20913917299E+04  0.20913917300E+04  0.25500000920E-02 0.  1.
       -2   -1    0    0    0  501  0.00000000000E+00  0.00000000000E+00 -0.13866416897E+03  0.13866416899E+03  0.25500000920E-02 0. -1.
    10030    2    1    2    0    0  0.00000000000E+00  0.00000000000E+00  0.19527275610E+04  0.22300558989E+04  0.10770349971E+04 0.  0.
        1    1    3    3  502    0 -0.23344459385E+03 -0.46875782038E+03  0.71633996802E+03  0.88734053349E+03  0.50400001928E-02 0. -1.
       -1    1    3    3    0  502  0.23344459385E+03  0.46875782038E+03  0.12363875930E+04  0.13427153655E+04  0.50400001928E-02 0.  1.
</event>
<event>
 5   0  0.1415400E-03  0.1101161E+04  0.7818609E-02  0.9204061E-01
        1   -1    0    0  501    0  0.00000000000E+00  0.00000000000E+00  0.13545819593E+04  0.13545819593E+04  0.50400001928E-02 0.  1.
       -1   -1    0    0    0  501  0.00000000000E+00  0.00000000000E+00 -0.22378769413E+03  0.22378769418E+03  0.50400001928E-02 0. -1.
    10030    2    1    2    0    0  0.00000000000E+00  0.00000000000E+00  0.11307942652E+04  0.15783696535E+04  0.11011607934E+04 0.  0.
        2    1    3    3  502    0  0.29720724926E+03 -0.39172985942E+03  0.21035439642E+03  0.53482090822E+03  0.25500000920E-02 0. -1.
       -2    1    3    3    0  502 -0.29720724926E+03  0.39172985942E+03  0.92043986879E+03  0.10435487453E+04  0.25500000920E-02 0.  1.
</event>
<event>
 5   0  0.2467448E-03  0.1095097E+04  0.7818609E-02  0.9209984E-01
       -2   -1    0    0    0  501  0.00000000000E+00  0.00000000000E+00  0.69915893465E+03  0.69915893465E+03  0.25500000920E-02 0.  1.
        2   -1    0    0  501    0  0.00000000000E+00  0.00000000000E+00 -0.42881400478E+03  0.42881400478E+03  0.25500000920E-02 0. -1.
    10030    2    1    2    0    0  0.00000000000E+00  0.00000000000E+00  0.27034492987E+03  0.11279729394E+04  0.10950966035E+04 0.  0.
        1    1    3    3  502    0  0.21906539957E+03 -0.35007144505E+03 -0.23516209647E+03  0.47522718522E+03  0.50400001928E-02 0. -1.
       -1    1    3    3    0  502 -0.21906539957E+03  0.35007144505E+03  0.50550702634E+03  0.65274575421E+03  0.50400001928E-02 0.  1.
</event>
<event>
 5   0  0.2483036E-03  0.1100070E+04  0.7818609E-02  0.9205124E-01
        2   -1    0    0  501    0  0.00000000000E+00  0.00000000000E+00  0.19086112751E+04  0.19086112751E+04  0.25500000920E-02 0.  1.
       -2   -1    0    0    0  501  0.00000000000E+00  0.00000000000E+00 -0.15851236482E+03  0.15851236484E+03  0.25500000920E-02 0. -1.
    10030    2    1    2    0    0  0.00000000000E+00  0.00000000000E+00  0.17500989103E+04  0.20671236400E+04  0.11000699737E+04 0.  0.
        3    1    3    3  502    0 -0.51091443649E+03  0.12208152434E+03  0.11815246006E+04  0.12930343584E+04  0.10100000352E+00 0.  1.
       -3    1    3    3    0  502  0.51091443649E+03 -0.12208152434E+03  0.56857430976E+03  0.77408928162E+03  0.10100000352E+00 0. -1.
</event>
<event>
 5   0  0.2483036E-03  0.1099685E+04  0.7818609E-02  0.9205499E-01
        2   -1    0    0  501    0  0.00000000000E+00  0.00000000000E+00  0.18085461656E+04  0.18085461656E+04  0.25500000920E-02 0.  1.
       -2   -1    0    0    0  501  0.00000000000E+00  0.00000000000E+00 -0.16716574444E+03  0.16716574446E+03  0.25500000920E-02 0. -1.
    10030    2    1    2    0    0  0.00000000000E+00  0.00000000000E+00  0.16413804211E+04  0.19757119101E+04  0.10996853480E+04 0.  0.
        3    1    3    3  502    0 -0.58220522692E+02 -0.40123285085E+03  0.15339918249E+03  0.43348442792E+03  0.10100000352E+00 0. -1.
       -3    1    3    3    0  502  0.58220522692E+02  0.40123285085E+03  0.14879812387E+04  0.15422274821E+04  0.10100000352E+00 0.  1.
</event>
<event>
 5   0  0.1480937E-03  0.1102713E+04  0.7818609E-02  0.9202551E-01
       -1   -1    0    0    0  501  0.00000000000E+00  0.00000000000E+00  0.81588448337E+03  0.81588448339E+03  0.50400001928E-02 0. -1.
        1   -1    0    0  501    0  0.00000000000E+00  0.00000000000E+00 -0.37259462760E+03  0.37259462764E+03  0.50400001928E-02 0.  1.
    10030    2    1    2    0    0  0.00000000000E+00  0.00000000000E+00  0.44328985577E+03  0.11884791110E+04  0.11027133359E+04 0.  0.
        1    1    3    3  502    0 -0.29399103280E+03 -0.45897257714E+03  0.31122124170E+03  0.62765055185E+03  0.50400001928E-02 0.  1.
       -1    1    3    3    0  502  0.29399103280E+03  0.45897257714E+03  0.13206861407E+03  0.56082855917E+03  0.50400001928E-02 0. -1.
</event>
<event>
 5   0  0.1468556E-03  0.1084973E+04  0.7818609E-02  0.9219964E-01
       -1   -1    0    0    0  501  0.00000000000E+00  0.00000000000E+00  0.23967946067E+03  0.23967946073E+03  0.50400001928E-02 0.  1.
        1   -1    0    0  501    0  0.00000000000E+00  0.00000000000E+00 -0.12278540986E+04  0.12278540986E+04  0.50400001928E-02 0. -1.
    10030    2    1    2    0    0  0.00000000000E+00  0.00000000000E+00 -0.98817463796E+03  0.14675335594E+04  0.10849726415E+04 0.  0.
        5    1    3    3  502    0  0.42696467111E+03  0.26157287396E+03 -0.21181783498E+03  0.54369852306E+03  0.46999998093E+01 0. -1.
       -5    1    3    3    0  502 -0.42696467111E+03 -0.26157287396E+03 -0.77635680298E+03  0.92383503630E+03  0.46999998093E+01 0.  1.
</event>
<event>
 5   0  0.2483036E-03  0.1093081E+04  0.7818609E-02  0.9211962E-01
       -2   -1    0    0    0  501  0.00000000000E+00  0.00000000000E+00  0.30801583094E+03  0.30801583095E+03  0.25500000920E-02 0.  1.
        2   -1    0    0  501    0  0.00000000000E+00  0.00000000000E+00 -0.96977571397E+03  0.96977571397E+03  0.25500000920E-02 0. -1.
    10030    2    1    2    0    0  0.00000000000E+00  0.00000000000E+00 -0.66175988303E+03  0.12777915449E+04  0.10930805503E+04 0.  0.
        3    1    3    3  502    0 -0.10941891219E+03  0.42263711929E+03  0.53485248902E+02  0.43983555449E+03  0.10100000352E+00 0.  1.
       -3    1    3    3    0  502  0.10941891219E+03 -0.42263711929E+03 -0.71524513193E+03  0.83795599043E+03  0.10100000352E+00 0. -1.
</event>
<event>
 5   0  0.1468556E-03  0.1107509E+04  0.7818609E-02  0.9197904E-01
       -1   -1    0    0    0  501  0.00000000000E+00  0.00000000000E+00  0.24014276266E+03  0.24014276271E+03  0.50400001928E-02 0. -1.
        1   -1    0    0  501    0  0.00000000000E+00  0.00000000000E+00 -0.12769239460E+04  0.12769239460E+04  0.50400001928E-02 0.  1.
    10030    2    1    2    0    0  0.00000000000E+00  0.00000000000E+00 -0.10367811833E+04  0.15170667087E+04  0.11075089961E+04 0.  0.
        5    1    3    3  502    0 -0.15357254487E+03  0.85146546586E+02  0.20096678111E+03  0.26691608802E+03  0.46999998093E+01 0. -1.
       -5    1    3    3    0  502  0.15357254487E+03 -0.85146546586E+02 -0.12377479644E+04  0.12501506207E+04  0.46999998093E+01 0.  1.
</event>
<event>
 5   0  0.2488472E-03  0.1107335E+04  0.7818609E-02  0.9198072E-01
        2   -1    0    0  501    0  0.00000000000E+00  0.00000000000E+00  0.97162452447E+03  0.97162452448E+03  0.25500000920E-02 0. -1.
       -2   -1    0    0    0  501  0.00000000000E+00  0.00000000000E+00 -0.31549992658E+03  0.31549992659E+03  0.25500000920E-02 0.  1.
    10030    2    1    2    0    0  0.00000000000E+00  0.00000000000E+00  0.65612459789E+03  0.12871244511E+04  0.11073345766E+04 0.  0.
        2    1    3    3  502    0  0.12684547338E+03 -0.27991933594E+03  0.86338411072E+03  0.91644788799E+03  0.25500000920E-02 0. -1.
       -2    1    3    3    0  502 -0.12684547338E+03  0.27991933594E+03 -0.20725951283E+03  0.37067656308E+03  0.25500000920E-02 0.  1.
</event>
<event>
 5   0  0.1480937E-03  0.1088718E+04  0.7818609E-02  0.9216258E-01
       -1   -1    0    0    0  501  0.00000000000E+00  0.00000000000E+00  0.61636373198E+03  0.61636373200E+03  0.50400001928E-02 0. -1.
        1   -1    0    0  501    0  0.00000000000E+00  0.00000000000E+00 -0.48076639481E+03  0.48076639484E+03  0.50400001928E-02 0.  1.
    10030    2    1    2    0    0  0.00000000000E+00  0.00000000000E+00  0.13559733717E+03  0.10971301268E+04  0.10887184564E+04 0.  0.
        1    1    3    3  502    0 -0.53782830880E+03 -0.63316538268E+02  0.12353144532E+03  0.55545323095E+03  0.50400001928E-02 0. -1.
       -1    1    3    3    0  502  0.53782830880E+03  0.63316538268E+02  0.12065891850E+02  0.54167689589E+03  0.50400001928E-02 0.  1.
</event>
<event>
 5   0  0.1480937E-03  0.1158783E+04  0.7818609E-02  0.9149719E-01
       -1   -1    0    0    0  501  0.00000000000E+00  0.00000000000E+00  0.56691951016E+03  0.56691951018E+03  0.50400001928E-02 0.  1.
        1   -1    0    0  501    0  0.00000000000E+00  0.00000000000E+00 -0.59213767210E+03  0.59213767212E+03  0.50400001928E-02 0. -1.
    10030    2    1    2    0    0  0.00000000000E+00  0.00000000000E+00 -0.25218161936E+02  0.11590571823E+04  0.11587828080E+04 0.  0.
        1    1    3    3  502    0  0.27929166934E+03 -0.50181846496E+03  0.64017090822E+02  0.57786139885E+03  0.50400001928E-02 0.  1.
       -1    1    3    3    0  502 -0.27929166934E+03  0.50181846496E+03 -0.89235252757E+02  0.58119578345E+03  0.50400001928E-02 0. -1.
</event>
<event>
 5   0  0.1415400E-03  0.1092856E+04  0.7818609E-02  0.9212183E-01
       -1   -1    0    0    0  501  0.00000000000E+00  0.00000000000E+00  0.85984366350E+03  0.85984366352E+03  0.50400001928E-02 0. -1.
        1   -1    0    0  501    0  0.00000000000E+00  0.00000000000E+00 -0.34725304369E+03  0.34725304372E+03  0.50400001928E-02 0.  1.
    10030    2    1    2    0    0  0.00000000000E+00  0.00000000000E+00  0.51259061982E+03  0.12070967072E+04  0.10928555793E+04 0.  0.
        2    1    3    3  502    0 -0.12664498917E+03 -0.53141401306E+03  0.24306287997E+03  0.59792923510E+03  0.25500000920E-02 0. -1.
       -2    1    3    3    0  502  0.12664498917E+03  0.53141401306E+03  0.26952773984E+03  0.60916747214E+03  0.25500000920E-02 0.  1.
</event>
<event>
 5   0  0.2438115E-03  0.1045650E+04  0.7818609E-02  0.9259847E-01
        2   -1    0    0  501    0  0.00000000000E+00  0.00000000000E+00  0.15481977646E+04  0.15481977646E+04  0.25500000920E-02 0.  1.
       -2   -1    0    0    0  501  0.00000000000E+00  0.00000000000E+00 -0.17655755257E+03  0.17655755259E+03  0.25500000920E-02 0. -1.
    10030    2    1    2    0    0  0.00000000000E+00  0.00000000000E+00  0.13716402120E+04  0.17247553172E+04  0.10456500528E+04 0.  0.
        4    1    3    3  502    0 -0.36969759066E+03  0.18965252998E+03  0.16239340374E+03  0.44611391050E+03  0.12699999809E+01 0. -1.
       -4    1    3    3    0  502  0.36969759066E+03 -0.18965252998E+03  0.12092468083E+04  0.12786414067E+04  0.12699999809E+01 0.  1.
</event>
<event>
 5   0  0.1509004E-03  0.1100488E+04  0.7818609E-02  0.9204716E-01
       -1   -1    0    0    0  501  0.00000000000E+00  0.00000000000E+00  0.23659002067E+03  0.23659002072E+03  0.50400001928E-02 0. -1.
        1   -1    0    0  501    0  0.00000000000E+00  0.00000000000E+00 -0.12797181186E+04  0.12797181186E+04  0.50400001928E-02 0.  1.
    10030    2    1    2    0    0  0.00000000000E+00  0.00000000000E+00 -0.10431280979E+04  0.15163081393E+04  0.11004881393E+04 0.  0.
        3    1    3    3  502    0 -0.44475229067E+03  0.61860136368E+02 -0.83378885038E+02  0.45670923485E+03  0.10100000352E+00 0.  1.
       -3    1    3    3    0  502  0.44475229067E+03 -0.61860136368E+02 -0.95974921290E+03  0.10595989045E+04  0.10100000352E+00 0. -1.
</event>
<event>
 5   0  0.1468556E-03  0.1097856E+04  0.7818609E-02  0.9207284E-01
        1   -1    0    0  501    0  0.00000000000E+00  0.00000000000E+00  0.17820256603E+04  0.17820256604E+04  0.50400001928E-02 0. -1.
       -1   -1    0    0    0  501  0.00000000000E+00  0.00000000000E+00 -0.16908964381E+03  0.16908964388E+03  0.50400001928E-02 0.  1.
    10030    2    1    2    0    0  0.00000000000E+00  0.00000000000E+00  0.16129360165E+04  0.19511153042E+04  0.10978562460E+04 0.  0.
        5    1    3    3  502    0  0.99610369030E+02 -0.51026748615E+03  0.49353429448E+03  0.71686353155E+03  0.46999998093E+01 0. -1.
       -5    1    3    3    0  502 -0.99610369030E+02  0.51026748615E+03  0.11194017221E+04  0.12342517727E+04  0.46999998093E+01 0.  1.
</event>
<event>
 5   0  0.1415400E-03  0.1102508E+04  0.7818609E-02  0.9202751E-01
       -1   -1    0    0    0  501  0.00000000000E+00  0.00000000000E+00  0.28693414625E+03  0.28693414630E+03  0.50400001928E-02 0. -1.
        1   -1    0    0  501    0  0.00000000000E+00  0.00000000000E+00 -0.10590621953E+04  0.10590621953E+04  0.50400001928E-02 0.  1.
    10030    2    1    2    0    0  0.00000000000E+00  0.00000000000E+00 -0.77212804907E+03  0.13459963416E+04  0.11025082437E+04 0.  0.
        2    1    3    3  502    0  0.32356509215E+03  0.44399987230E+03 -0.44135180199E+03  0.70471389130E+03  0.25500000920E-02 0.  1.
       -2    1    3    3    0  502 -0.32356509215E+03 -0.44399987230E+03 -0.33077624708E+03  0.64128245033E+03  0.25500000920E-02 0. -1.
</event>
<event>
 5   0  0.2488472E-03  0.1104169E+04  0.7818609E-02  0.9201138E-01
        2   -1    0    0  501    0  0.00000000000E+00  0.00000000000E+00  0.62840776175E+03  0.62840776175E+03  0.25500000920E-02 0.  1.
       -2   -1    0    0    0  501  0.00000000000E+00  0.00000000000E+00 -0.48503150374E+03  0.48503150375E+03  0.25500000920E-02 0. -1.
    10030    2    1    2    0    0  0.00000000000E+00  0.00000000000E+00  0.14337625801E+03  0.11134392655E+04  0.11041694827E+04 0.  0.
        2    1    3    3  502    0  0.50760840997E+03 -0.12400004750E+03 -0.10800793910E+03  0.53358038248E+03  0.25500000920E-02 0. -1.
       -2    1    3    3    0  502 -0.50760840997E+03  0.12400004750E+03  0.25138419711E+03  0.57985888302E+03  0.25500000920E-02 0.  1.
</event>
<event>
 5   0  0.9631750E-04  0.1098213E+04  0.7818609E-02  0.9206935E-01
       -3   -1    0    0    0  501  0.00000000000E+00  0.00000000000E+00  0.78642818993E+03  0.78642819641E+03  0.10100000352E+00 0. -1.
        3   -1    0    0  501    0  0.00000000000E+00  0.00000000000E+00 -0.38340180017E+03  0.38340181348E+03  0.10100000352E+00 0.  1.
    10030    2    1    2    0    0  0.00000000000E+00  0.00000000000E+00  0.40302638975E+03  0.11698300099E+04  0.10982130855E+04 0.  0.
        3    1    3    3  502    0  0.35440075261E+03  0.34140239397E+03 -0.58019588591E+02  0.49550153473E+03  0.10100000352E+00 0.  1.
       -3    1    3    3    0  502 -0.35440075261E+03 -0.34140239397E+03  0.46104597834E+03  0.67432847516E+03  0.10100000352E+00 0. -1.
</event>
<event>
 5   0  0.2438115E-03  0.1098491E+04  0.7818609E-02  0.9206664E-01
       -2   -1    0    0    0  501  0.00000000000E+00  0.00000000000E+00  0.32614737536E+03  0.32614737537E+03  0.25500000920E-02 0.  1.
        2   -1    0    0  501    0  0.00000000000E+00  0.00000000000E+00 -0.92495184355E+03  0.92495184355E+03  0.25500000920E-02 0. -1.
    10030    2    1    2    0    0  0.00000000000E+00  0.00000000000E+00 -0.59880446819E+03  0.12510992189E+04  0.10984909943E+04 0.  0.
        4    1    3    3  502    0 -0.80680664498E+02 -0.25415812536E+02 -0.91748691666E+03  0.92137896020E+03  0.12699999809E+01 0. -1.
       -4    1    3    3    0  502  0.80680664498E+02  0.25415812536E+02  0.31868244847E+03  0.32972025872E+03  0.12699999809E+01 0.  1.
</event>
<event>
 5   0  0.2438115E-03  0.1108042E+04  0.7818609E-02  0.9197389E-01
        2   -1    0    0  501    0  0.00000000000E+00  0.00000000000E+00  0.11210990744E+04  0.11210990744E+04  0.25500000920E-02 0. -1.
       -2   -1    0    0    0  501  0.00000000000E+00  0.00000000000E+00 -0.27378417642E+03  0.27378417643E+03  0.25500000920E-02 0.  1.
    10030    2    1    2    0    0  0.00000000000E+00  0.00000000000E+00  0.84731489800E+03  0.13948832509E+04  0.11080418526E+04 0.  0.
        4    1    3    3  502    0  0.21094568364E+03  0.14917248839E+02 -0.22097489258E+03  0.30586291343E+03  0.12699999809E+01 0.  1.
       -4    1    3    3    0  502 -0.21094568364E+03 -0.14917248839E+02  0.10682897906E+04  0.10890203374E+04  0.12699999809E+01 0. -1.
</event>
<event>
 5   0  0.1479573E-03  0.1097987E+04  0.7818609E-02  0.9207156E-01
        1   -1    0    0  501    0  0.00000000000E+00  0.00000000000E+00  0.82434307749E+03  0.82434307751E+03  0.50400001928E-02 0. -1.
       -1   -1    0    0    0  501  0.00000000000E+00  0.00000000000E+00 -0.36561721240E+03  0.36561721243E+03  0.50400001928E-02 0.  1.
    10030    2    1    2    0    0  0.00000000000E+00  0.00000000000E+00  0.45872586510E+03  0.11899602899E+04  0.10979872824E+04 0.  0.
        4    1    3    3  502    0 -0.24993795642E+03  0.45301659731E+03  0.42831394380E+03  0.67167512002E+03  0.12699999809E+01 0.  1.
       -4    1    3    3    0  502  0.24993795642E+03 -0.45301659731E+03  0.30411921293E+02  0.51828516992E+03  0.12699999809E+01 0. -1.
</event>
<event>
 5   0  0.2488472E-03  0.1099276E+04  0.7818609E-02  0.9205898E-01
       -2   -1    0    0    0  501  0.00000000000E+00  0.00000000000E+00  0.42494238465E+03  0.42494238466E+03  0.25500000920E-02 0.  1.
        2   -1    0    0  501    0  0.00000000000E+00  0.00000000000E+00 -0.71092432341E+03  0.71092432341E+03  0.25500000920E-02 0. -1.
    10030    2    1    2    0    0  0.00000000000E+00  0.00000000000E+00 -0.28598193875E+03  0.11358667081E+04  0.10992759022E+04 0.  0.
        2    1    3    3  502    0 -0.45317917975E+03  0.29676932811E+03 -0.46842727502E+02  0.54372570676E+03  0.25500000920E-02 0.  1.
       -2    1    3    3    0  502  0.45317917975E+03 -0.29676932811E+03 -0.23913921125E+03  0.59214100131E+03  0.25500000920E-02 0. -1.
</event>
<event>
 5   0  0.2438115E-03  0.1095481E+04  0.7818609E-02  0.9209608E-01
       -2   -1    0    0    0  501  0.00000000000E+00  0.00000000000E+00  0.28928434724E+03  0.28928434725E+03  0.25500000920E-02 0.  1.
        2   -1    0    0  501    0  0.00000000000E+00  0.00000000000E+00 -0.10371089742E+04  0.10371089742E+04  0.25500000920E-02 0. -1.
    10030    2    1    2    0    0  0.00000000000E+00  0.00000000000E+00 -0.74782462698E+03  0.13263933215E+04  0.10954805204E+04 0.  0.
        4    1    3    3  502    0 -0.25012012282E+03  0.34454431580E+03 -0.79114549644E+03  0.89843401028E+03  0.12699999809E+01 0. -1.
       -4    1    3    3    0  502  0.25012012282E+03 -0.34454431580E+03  0.43320869469E+02  0.42795931118E+03  0.12699999809E+01 0.  1.
</event>
<event>
 5   0  0.2392585E-03  0.1092722E+04  0.7818609E-02  0.9212315E-01
        2   -1    0    0  501    0  0.00000000000E+00  0.00000000000E+00  0.38039163815E+03  0.38039163816E+03  0.25500000920E-02 0. -1.
       -2   -1    0    0    0  501  0.00000000000E+00  0.00000000000E+00 -0.78474452893E+03  0.78474452893E+03  0.25500000920E-02 0.  1.
    10030    2    1    2    0    0  0.00000000000E+00  0.00000000000E+00 -0.40435289078E+03  0.11651361671E+04  0.10927218436E+04 0.  0.
        5    1    3    3  502    0 -0.67880021926E+02  0.12540580545E+03  0.36017730928E+03  0.38740688886E+03  0.46999998093E+01 0. -1.
       -5    1    3    3    0  502  0.67880021926E+02 -0.12540580545E+03 -0.76453020006E+03  0.77772927823E+03  0.46999998093E+01 0.  1.
</event>
<event>
 5   0  0.9631750E-04  0.1102473E+04  0.7818609E-02  0.9202785E-01
       -4   -1    0    0    0  501  0.00000000000E+00  0.00000000000E+00  0.55186093103E+03  0.55186239236E+03  0.12699999809E+01 0. -1.
        4   -1    0    0  501    0  0.00000000000E+00  0.00000000000E+00 -0.55061017520E+03  0.55061163985E+03  0.12699999809E+01 0.  1.
    10030    2    1    2    0    0  0.00000000000E+00  0.00000000000E+00  0.12507558296E+01  0.11024740322E+04  0.11024733227E+04 0.  0.
        2    1    3    3  502    0 -0.20126684609E+03 -0.51314607087E+03  0.65095495197E+01  0.55124369169E+03  0.25500000920E-02 0.  1.
       -2    1    3    3    0  502  0.20126684609E+03  0.51314607087E+03 -0.52587936901E+01  0.55123034051E+03  0.25500000920E-02 0. -1.
</event>
<event>
 5   0  0.2392585E-03  0.1102647E+04  0.7818609E-02  0.9202615E-01
       -2   -1    0    0    0  501  0.00000000000E+00  0.00000000000E+00  0.45600637368E+03  0.45600637368E+03  0.25500000920E-02 0. -1.
        2   -1    0    0  501    0  0.00000000000E+00  0.00000000000E+00 -0.66656481641E+03  0.66656481641E+03  0.25500000920E-02 0.  1.
    10030    2    1    2    0    0  0.00000000000E+00  0.00000000000E+00 -0.21055844273E+03  0.11225711901E+04  0.11026473684E+04 0.  0.
        5    1    3    3  502    0  0.20812895693E+03  0.37513841533E+03 -0.45778587333E+03  0.62740456581E+03  0.46999998093E+01 0.  1.
       -5    1    3    3    0  502 -0.20812895693E+03 -0.37513841533E+03  0.24722743060E+03  0.49516662429E+03  0.46999998093E+01 0. -1.
</event>
<event>
 5   0  0.1468556E-03  0.1059299E+04  0.7818609E-02  0.9245796E-01
       -1   -1    0    0    0  501  0.00000000000E+00  0.00000000000E+00  0.46250934528E+03  0.46250934530E+03  0.50400001928E-02 0.  1.
        1   -1    0    0  501    0  0.00000000000E+00  0.00000000000E+00 -0.60653614752E+03  0.60653614754E+03  0.50400001928E-02 0. -1.
    10030    2    1    2    0    0  0.00000000000E+00  0.00000000000E+00 -0.14402680224E+03  0.10690454928E+04  0.10592990824E+04 0.  0.
        5    1    3    3  502    0  0.25531665818E+03 -0.20118331449E+03  0.34997885200E+03  0.47766997898E+03  0.46999998093E+01 0.  1.
       -5    1    3    3    0  502 -0.25531665818E+03  0.20118331449E+03 -0.49400565424E+03  0.59137551386E+03  0.46999998093E+01 0. -1.
</event>
<event>
 5   0  0.1415400E-03  0.1093125E+04  0.7818609E-02  0.9211919E-01
       -1   -1    0    0    0  501  0.00000000000E+00  0.00000000000E+00  0.28467110557E+03  0.28467110561E+03  0.50400001928E-02 0.  1.
        1   -1    0    0  501    0  0.00000000000E+00  0.00000000000E+00 -0.10493883528E+04  0.10493883528E+04  0.50400001928E-02 0. -1.
    10030    2    1    2    0    0  0.00000000000E+00  0.00000000000E+00 -0.76471724724E+03  0.13340594584E+04  0.10931249564E+04 0.  0.
        2    1    3    3  502    0 -0.12296632139E+03 -0.37736445503E+02  0.26593678327E+03  0.29541010175E+03  0.25500000920E-02 0.  1.
       -2    1    3    3    0  502  0.12296632139E+03  0.37736445503E+02 -0.10306540305E+04  0.10386493567E+04  0.25500000920E-02 0. -1.
</event>
<event>
 5   0  0.2467448E-03  0.1075114E+04  0.7818609E-02  0.9229793E-01
        2   -1    0    0  501    0  0.00000000000E+00  0.00000000000E+00  0.82115663938E+03  0.82115663938E+03  0.25500000920E-02 0.  1.
       -2   -1    0    0    0  501  0.00000000000E+00  0.00000000000E+00 -0.35190291338E+03  0.35190291338E+03  0.25500000920E-02 0. -1.
    10030    2    1    2    0    0  0.00000000000E+00  0.00000000000E+00  0.46925372600E+03  0.11730595528E+04  0.10751137870E+04 0.  0.
        1    1    3    3  502    0 -0.59492458177E+01 -0.30003625498E+03 -0.25199792588E+03  0.39186745527E+03  0.50400001928E-02 0. -1.
       -1    1    3    3    0  502  0.59492458177E+01  0.30003625498E+03  0.72125165188E+03  0.78119209750E+03  0.50400001928E-02 0.  1.
</event>
<event>
 5   0  0.1479573E-03  0.1099901E+04  0.7818609E-02  0.9205288E-01
       -1   -1    0    0    0  501  0.00000000000E+00  0.00000000000E+00  0.23229882621E+03  0.23229882627E+03  0.50400001928E-02 0.  1.
        1   -1    0    0  501    0  0.00000000000E+00  0.00000000000E+00 -0.13019679328E+04  0.13019679328E+04  0.50400001928E-02 0. -1.
    10030    2    1    2    0    0  0.00000000000E+00  0.00000000000E+00 -0.10696691066E+04  0.15342667591E+04  0.10999011276E+04 0.  0.
        4    1    3    3  502    0 -0.12585342587E+03  0.23665704932E+03  0.13501202200E+03  0.30012581158E+03  0.12699999809E+01 0.  1.
       -4    1    3    3    0  502  0.12585342587E+03 -0.23665704932E+03 -0.12046811286E+04  0.12341409475E+04  0.12699999809E+01 0. -1.
</event>
<event>
 5   0  0.2483036E-03  0.1096849E+04  0.7818609E-02  0.9208269E-01
        2   -1    0    0  501    0  0.00000000000E+00  0.00000000000E+00  0.96183276247E+03  0.96183276247E+03  0.25500000920E-02 0.  1.
       -2   -1    0    0    0  501  0.00000000000E+00  0.00000000000E+00 -0.31270426713E+03  0.31270426714E+03  0.25500000920E-02 0. -1.
    10030    2    1    2    0    0  0.00000000000E+00  0.00000000000E+00  0.64912849534E+03  0.12745370296E+04  0.10968485932E+04 0.  0.
        3    1    3    3  502    0 -0.42308605441E+03 -0.19170351654E+03  0.66337645489E+03  0.80982737592E+03  0.10100000352E+00 0.  1.
       -3    1    3    3    0  502  0.42308605441E+03  0.19170351654E+03 -0.14247959555E+02  0.46470965370E+03  0.10100000352E+00 0. -1.
</event>
<event>
 5   0  0.1468556E-03  0.1097616E+04  0.7818609E-02  0.9207518E-01
        1   -1    0    0  501    0  0.00000000000E+00  0.00000000000E+00  0.51677703430E+03  0.51677703432E+03  0.50400001928E-02 0. -1.
       -1   -1    0    0    0  501  0.00000000000E+00  0.00000000000E+00 -0.58282441508E+03  0.58282441510E+03  0.50400001928E-02 0.  1.
    10030    2    1    2    0    0  0.00000000000E+00  0.00000000000E+00 -0.66047380777E+02  0.10996014494E+04  0.10976160946E+04 0.  0.
        5    1    3    3  502    0 -0.35467017106E+03  0.27887656522E+03 -0.34600696016E+03  0.56860001350E+03  0.46999998093E+01 0.  1.
       -5    1    3    3    0  502  0.35467017106E+03 -0.27887656522E+03  0.27995957938E+03  0.53100143593E+03  0.46999998093E+01 0. -1.
</event>
<event>
 5   0  0.1509004E-03  0.1076708E+04  0.7818609E-02  0.9228196E-01
        1   -1    0    0  501    0  0.00000000000E+00  0.00000000000E+00  0.69157953808E+03  0.69157953810E+03  0.50400001928E-02 0.  1.
       -1   -1    0    0    0  501  0.00000000000E+00  0.00000000000E+00 -0.41907683599E+03  0.41907683602E+03  0.50400001928E-02 0. -1.
    10030    2    1    2    0    0  0.00000000000E+00  0.00000000000E+00  0.27250270210E+03  0.11106563741E+04  0.10767078799E+04 0.  0.
        3    1    3    3  502    0 -0.94321399525E+02  0.22306781257E+03 -0.35970880421E+03  0.43364295156E+03  0.10100000352E+00 0. -1.
       -3    1    3    3    0  502  0.94321399525E+02 -0.22306781257E+03  0.63221150631E+03  0.67701342256E+03  0.10100000352E+00 0.  1.
</event>
<event>
 5   0  0.9631750E-04  0.9802875E+03  0.7818609E-02  0.9330433E-01
        3   -1    0    0  501    0  0.00000000000E+00  0.00000000000E+00  0.41078004850E+03  0.41078006092E+03  0.10100000352E+00 0. -1.
       -3   -1    0    0    0  501  0.00000000000E+00  0.00000000000E+00 -0.58484069887E+03  0.58484070759E+03  0.10100000352E+00 0.  1.
    10030    2    1    2    0    0  0.00000000000E+00  0.00000000000E+00 -0.17406065037E+03  0.99562076851E+03  0.98028751123E+03 0.  0.
        2    1    3    3  502    0  0.23363782004E+02  0.48814167301E+03 -0.48855953837E+02  0.49113650187E+03  0.25500000920E-02 0.  1.
       -2    1    3    3    0  502 -0.23363782004E+02 -0.48814167301E+03 -0.12520469653E+03  0.50448426663E+03  0.25500000920E-02 0. -1.
</event>
<event>
 5   0  0.2488472E-03  0.1114225E+04  0.7818609E-02  0.9191437E-01
        2   -1    0    0  501    0  0.00000000000E+00  0.00000000000E+00  0.66735714465E+03  0.66735714465E+03  0.25500000920E-02 0. -1.
       -2   -1    0    0    0  501  0.00000000000E+00  0.00000000000E+00 -0.46508020269E+03  0.46508020269E+03  0.25500000920E-02 0.  1.
    10030    2    1    2    0    0  0.00000000000E+00  0.00000000000E+00  0.20227694196E+03  0.11324373473E+04  0.11142254639E+04 0.  0.
        2    1    3    3  502    0 -0.63890515520E+02  0.34320199253E+03  0.54240656872E+03  0.64503836432E+03  0.25500000920E-02 0. -1.
       -2    1    3    3    0  502  0.63890515520E+02 -0.34320199253E+03 -0.34012962676E+03  0.48739898302E+03  0.25500000920E-02 0.  1.
</event>
<event>
 5   0  0.2392585E-03  0.1091603E+04  0.7818609E-02  0.9213415E-01
       -2   -1    0    0    0  501  0.00000000000E+00  0.00000000000E+00  0.52029590606E+03  0.52029590606E+03  0.25500000920E-02 0.  1.
        2   -1    0    0  501    0  0.00000000000E+00  0.00000000000E+00 -0.57255777552E+03  0.57255777552E+03  0.25500000920E-02 0. -1.
    10030    2    1    2    0    0  0.00000000000E+00  0.00000000000E+00 -0.52261869460E+02  0.10928536816E+04  0.10916033466E+04 0.  0.
        5    1    3    3  502    0  0.53933658671E+03  0.39156957735E+02 -0.10010843738E+03  0.54996455371E+03  0.46999998093E+01 0. -1.
       -5    1    3    3    0  502 -0.53933658671E+03 -0.39156957735E+02  0.47846567920E+02  0.54288912788E+03  0.46999998093E+01 0.  1.
</event>
<event>
 5   0  0.1479573E-03  0.1076018E+04  0.7818609E-02  0.9228886E-01
       -1   -1    0    0    0  501  0.00000000000E+00  0.00000000000E+00  0.36544459278E+03  0.36544459282E+03  0.50400001928E-02 0.  1.
        1   -1    0    0  501    0  0.00000000000E+00  0.00000000000E+00 -0.79205946865E+03  0.79205946867E+03  0.50400001928E-02 0. -1.
    10030    2    1    2    0    0  0.00000000000E+00  0.00000000000E+00 -0.42661487587E+03  0.11575040615E+04  0.10760183084E+04 0.  0.
        4    1    3    3  502    0  0.70168067480E-01 -0.53089056273E+03 -0.11948165342E+03  0.54417117980E+03  0.12699999809E+01 0.  1.
       -4    1    3    3    0  502 -0.70168067480E-01  0.53089056273E+03 -0.30713322245E+03  0.61333288168E+03  0.12699999809E+01 0. -1.
</event>
<event>
 5   0  0.2438115E-03  0.1100360E+04  0.7818609E-02  0.9204841E-01
       -2   -1    0    0    0  501  0.00000000000E+00  0.00000000000E+00  0.35932186856E+03  0.35932186857E+03  0.25500000920E-02 0.  1.
        2   -1    0    0  501    0  0.00000000000E+00  0.00000000000E+00 -0.84241473021E+03  0.84241473021E+03  0.25500000920E-02 0. -1.
    10030    2    1    2    0    0  0.00000000000E+00  0.00000000000E+00 -0.48309286164E+03  0.12017365988E+04  0.11003600047E+04 0.  0.
        4    1    3    3  502    0  0.53180038326E+03  0.11802796750E+03 -0.15727405695E+03  0.56699117333E+03  0.12699999809E+01 0. -1.
       -4    1    3    3    0  502 -0.53180038326E+03 -0.11802796750E+03 -0.32581880469E+03  0.63474542545E+03  0.12699999809E+01 0.  1.
</event>
<event>
 5   0  0.1468556E-03  0.1102642E+04  0.7818609E-02  0.9202620E-01
       -1   -1    0    0    0  501  0.00000000000E+00  0.00000000000E+00  0.10669140048E+04  0.10669140048E+04  0.50400001928E-02 0. -1.
        1   -1    0    0  501    0  0.00000000000E+00  0.00000000000E+00 -0.28489184798E+03  0.28489184802E+03  0.50400001928E-02 0.  1.
    10030    2    1    2    0    0  0.00000000000E+00  0.00000000000E+00  0.78202215680E+03  0.13518058528E+04  0.11026424670E+04 0.  0.
        5    1    3    3  502    0 -0.50581626130E+03  0.36924654756E+02  0.65600057759E+03  0.82919983606E+03  0.46999998093E+01 0. -1.
       -5    1    3    3    0  502  0.50581626130E+03 -0.36924654756E+02  0.12602157922E+03  0.52260601676E+03  0.46999998093E+01 0.  1.
</event>
<event>
 5   0  0.2488472E-03  0.1124457E+04  0.7818609E-02  0.9181677E-01
        2   -1    0    0  501    0  0.00000000000E+00  0.00000000000E+00  0.77102165022E+03  0.77102165023E+03  0.25500000920E-02 0. -1.
       -2   -1    0    0    0  501  0.00000000000E+00  0.00000000000E+00 -0.40997663676E+03  0.40997663677E+03  0.25500000920E-02 0.  1.
    10030    2    1    2    0    0  0.00000000000E+00  0.00000000000E+00  0.36104501346E+03  0.11809982870E+04  0.11244569588E+04 0.  0.
        2    1    3    3  502    0 -0.41299002079E+03 -0.29405282994E+03  0.43579327644E+03  0.66853840867E+03  0.25500000920E-02 0.  1.
       -2    1    3    3    0  502  0.41299002079E+03  0.29405282994E+03 -0.74748262978E+02  0.51245987833E+03  0.25500000920E-02 0. -1.
</event>
<event>
 5   0  0.2483036E-03  0.1034845E+04  0.7818609E-02  0.9271132E-01
        2   -1    0    0  501    0  0.00000000000E+00  0.00000000000E+00  0.11884782144E+04  0.11884782144E+04  0.25500000920E-02 0.  1.
       -2   -1    0    0    0  501  0.00000000000E+00  0.00000000000E+00 -0.22526774966E+03  0.22526774967E+03  0.25500000920E-02 0. -1.
    10030    2    1    2    0    0  0.00000000000E+00  0.00000000000E+00  0.96321046471E+03  0.14137459640E+04  0.10348445543E+04 0.  0.
        3    1    3    3  502    0  0.84143266502E+02 -0.24093769188E+03 -0.13330305245E+03  0.28792494622E+03  0.10100000352E+00 0. -1.
       -3    1    3    3    0  502 -0.84143266502E+02  0.24093769188E+03  0.10965135172E+04  0.11258210178E+04  0.10100000352E+00 0.  1.
</event>
<event>
 5   0  0.1415400E-03  0.1101754E+04  0.7818609E-02  0.9203484E-01
       -1   -1    0    0    0  501  0.00000000000E+00  0.00000000000E+00  0.51351820212E+03  0.51351820215E+03  0.50400001928E-02 0. -1.
        1   -1    0    0  501    0  0.00000000000E+00  0.00000000000E+00 -0.59095359864E+03  0.59095359866E+03  0.50400001928E-02 0.  1.
    10030    2    1    2    0    0  0.00000000000E+00  0.00000000000E+00 -0.77435396515E+02  0.11044718008E+04  0.11017539281E+04 0.  0.
        2    1    3    3  502    0  0.32130565318E+00 -0.54112706463E+03 -0.14215569641E+03  0.55948802073E+03  0.25500000920E-02 0.  1.
       -2    1    3    3    0  502 -0.32130565318E+00  0.54112706463E+03  0.64720299895E+02  0.54498378007E+03  0.25500000920E-02 0. -1.
</event>
<event>
 5   0  0.1468556E-03  0.1101299E+04  0.7818609E-02  0.9203927E-01
        1   -1    0    0  501    0  0.00000000000E+00  0.00000000000E+00  0.68276614559E+03  0.68276614561E+03  0.50400001928E-02 0.  1.
       -1   -1    0    0    0  501  0.00000000000E+00  0.00000000000E+00 -0.44409740400E+03  0.44409740403E+03  0.50400001928E-02 0. -1.
    10030    2    1    2    0    0  0.00000000000E+00  0.00000000000E+00  0.23866874160E+03  0.11268635496E+04  0.11012986386E+04 0.  0.
        5    1    3    3  502    0 -0.10111402732E+03  0.44015293286E+03 -0.20299236399E+03  0.49516324648E+03  0.46999998093E+01 0. -1.
       -5    1    3    3    0  502  0.10111402732E+03 -0.44015293286E+03  0.44166110559E+03  0.63170030316E+03  0.46999998093E+01 0.  1.
</event>
<event>
 5   0  0.2483036E-03  0.1107725E+04  0.7818609E-02  0.9197695E-01
        2   -1    0    0  501    0  0.00000000000E+00  0.00000000000E+00  0.97393832974E+03  0.97393832974E+03  0.25500000920E-02 0. -1.
       -2   -1    0    0    0  501  0.00000000000E+00  0.00000000000E+00 -0.31497235339E+03  0.31497235340E+03  0.25500000920E-02 0.  1.
    10030    2    1    2    0    0  0.00000000000E+00  0.00000000000E+00  0.65896597634E+03  0.12889106831E+04  0.11077249619E+04 0.  0.
        3    1    3    3  502    0 -0.48045535331E+03 -0.27514634143E+03  0.31219388077E+03  0.63561614605E+03  0.10100000352E+00 0.  1.
       -3    1    3    3    0  502  0.48045535331E+03  0.27514634143E+03  0.34677209557E+03  0.65329453710E+03  0.10100000352E+00 0. -1.
</event>
<event>
 5   0  0.2483036E-03  0.1123499E+04  0.7818609E-02  0.9182586E-01
       -2   -1    0    0    0  501  0.00000000000E+00  0.00000000000E+00  0.24401049623E+03  0.24401049624E+03  0.25500000920E-02 0.  1.
        2   -1    0    0  501    0  0.00000000000E+00  0.00000000000E+00 -0.12932339080E+04  0.12932339080E+04  0.25500000920E-02 0. -1.
    10030    2    1    2    0    0  0.00000000000E+00  0.00000000000E+00 -0.10492234118E+04  0.15372444043E+04  0.11234992615E+04 0.  0.
        3    1    3    3  502    0  0.83818196158E+02  0.37476954181E+03  0.36351696665E+02  0.38574493584E+03  0.10100000352E+00 0.  1.
       -3    1    3    3    0  502 -0.83818196158E+02 -0.37476954181E+03 -0.10855751085E+04  0.11514994684E+04  0.10100000352E+00 0. -1.
</event>
<event>
 5   0  0.2488472E-03  0.1097105E+04  0.7818609E-02  0.9208018E-01
       -2   -1    0    0    0  501  0.00000000000E+00  0.00000000000E+00  0.24435164921E+03  0.24435164922E+03  0.25500000920E-02 0. -1.
        2   -1    0    0  501    0  0.00000000000E+00  0.00000000000E+00 -0.12314615193E+04  0.12314615193E+04  0.25500000920E-02 0.  1.
    10030    2    1    2    0    0  0.00000000000E+00  0.00000000000E+00 -0.98710987011E+03  0.14758131685E+04  0.10971046499E+04 0.  0.
        2    1    3    3  502    0 -0.26931446998E+03 -0.17911719386E+03  0.10243577908E+03  0.33927325524E+03  0.25500000920E-02 0. -1.
       -2    1    3    3    0  502  0.26931446998E+03  0.17911719386E+03 -0.10895456492E+04  0.11365399133E+04  0.25500000920E-02 0.  1.
</event>
<event>
 5   0  0.1480937E-03  0.1099500E+04  0.7818609E-02  0.9205679E-01
        1   -1    0    0  501    0  0.00000000000E+00  0.00000000000E+00  0.50653256361E+03  0.50653256363E+03  0.50400001928E-02 0.  1.
       -1   -1    0    0    0  501  0.00000000000E+00  0.00000000000E+00 -0.59665471856E+03  0.59665471858E+03  0.50400001928E-02 0. -1.
    10030    2    1    2    0    0  0.00000000000E+00  0.00000000000E+00 -0.90122154949E+02  0.11031872822E+04  0.10994999667E+04 0.  0.
        1    1    3    3  502    0  0.32814922480E+03  0.28773035143E+03 -0.38047902231E+03  0.57899478004E+03  0.50400001928E-02 0. -1.
       -1    1    3    3    0  502 -0.32814922480E+03 -0.28773035143E+03  0.29035686737E+03  0.52419250216E+03  0.50400001928E-02 0.  1.
</event>
<event>
 5   0  0.2438115E-03  0.1100140E+04  0.7818609E-02  0.9205056E-01
        2   -1    0    0  501    0  0.00000000000E+00  0.00000000000E+00  0.18801574862E+04  0.18801574862E+04  0.25500000920E-02 0. -1.
       -2   -1    0    0    0  501  0.00000000000E+00  0.00000000000E+00 -0.16093160071E+03  0.16093160073E+03  0.25500000920E-02 0.  1.
    10030    2    1    2    0    0  0.00000000000E+00  0.00000000000E+00  0.17192258855E+04  0.20410890869E+04  0.11001395436E+04 0.  0.
        4    1    3    3  502    0 -0.52818374765E+03 -0.10449229144E+03  0.65070885603E+03  0.84458293759E+03  0.12699999809E+01 0.  1.
       -4    1    3    3    0  502  0.52818374765E+03  0.10449229144E+03  0.10685170294E+04  0.11965061493E+04  0.12699999809E+01 0. -1.
</event>
<event>
 5   0  0.2483036E-03  0.1097640E+04  0.7818609E-02  0.9207495E-01
       -2   -1    0    0    0  501  0.00000000000E+00  0.00000000000E+00  0.30043948175E+03  0.30043948176E+03  0.25500000920E-02 0.  1.
        2   -1    0    0  501    0  0.00000000000E+00  0.00000000000E+00 -0.10025433205E+04  0.10025433205E+04  0.25500000920E-02 0. -1.
    10030    2    1    2    0    0  0.00000000000E+00  0.00000000000E+00 -0.70210383877E+03  0.13029828023E+04  0.10976403704E+04 0.  0.
        3    1    3    3  502    0  0.52872026889E+03  0.11645220912E+03 -0.45787127479E+03  0.70905031854E+03  0.10100000352E+00 0.  1.
       -3    1    3    3    0  502 -0.52872026889E+03 -0.11645220912E+03 -0.24423256398E+03  0.59393248375E+03  0.10100000352E+00 0. -1.
</event>
<event>
 5   0  0.9631750E-04  0.1099915E+04  0.7818609E-02  0.9205275E-01
       -4   -1    0    0    0  501  0.00000000000E+00  0.00000000000E+00  0.55239799713E+03  0.55239945704E+03  0.12699999809E+01 0. -1.
        4   -1    0    0  501    0  0.00000000000E+00  0.00000000000E+00 -0.54752503198E+03  0.54752650487E+03  0.12699999809E+01 0.  1.
    10030    2    1    2    0    0  0.00000000000E+00  0.00000000000E+00  0.48729651556E+01  0.10999259619E+04  0.10999151676E+04 0.  0.
        3    1    3    3  502    0 -0.58904029035E+02 -0.25878465259E+03 -0.47924671893E+03  0.54782899600E+03  0.10100000352E+00 0.  1.
       -3    1    3    3    0  502  0.58904029035E+02  0.25878465259E+03  0.48411968408E+03  0.55209696591E+03  0.10100000352E+00 0. -1.
</event>
<event>
 5   0  0.1480937E-03  0.1092916E+04  0.7818609E-02  0.9212125E-01
       -1   -1    0    0    0  501  0.00000000000E+00  0.00000000000E+00  0.61732168058E+03  0.61732168060E+03  0.50400001928E-02 0. -1.
        1   -1    0    0  501    0  0.00000000000E+00  0.00000000000E+00 -0.48372848245E+03  0.48372848248E+03  0.50400001928E-02 0.  1.
    10030    2    1    2    0    0  0.00000000000E+00  0.00000000000E+00  0.13359319812E+03  0.11010501631E+04  0.10929155132E+04 0.  0.
        1    1    3    3  502    0 -0.21307015148E+03 -0.20015892851E+03  0.53191855905E+03  0.60695950409E+03  0.50400001928E-02 0. -1.
       -1    1    3    3    0  502  0.21307015148E+03  0.20015892851E+03 -0.39832536093E+03  0.49409065899E+03  0.50400001928E-02 0.  1.
</event>
<event>
 5   0  0.2467448E-03  0.1103966E+04  0.7818609E-02  0.9201335E-01
        2   -1    0    0  501    0  0.00000000000E+00  0.00000000000E+00  0.11538445250E+04  0.11538445250E+04  0.25500000920E-02 0.  1.
       -2   -1    0    0    0  501  0.00000000000E+00  0.00000000000E+00 -0.26406083296E+03  0.26406083297E+03  0.25500000920E-02 0. -1.
    10030    2    1    2    0    0  0.00000000000E+00  0.00000000000E+00  0.88978369204E+03  0.14179053580E+04  0.11039658444E+04 0.  0.
        1    1    3    3  502    0 -0.13854702606E+03  0.52296506577E+03  0.58557280475E+03  0.79723475095E+03  0.50400001928E-02 0. -1.
       -1    1    3    3    0  502  0.13854702606E+03 -0.52296506577E+03  0.30421088730E+03  0.62067060702E+03  0.50400001928E-02 0.  1.
</event>
<event>
 5   0  0.1468556E-03  0.1110781E+04  0.7818609E-02  0.9194748E-01
        1   -1    0    0  501    0  0.00000000000E+00  0.00000000000E+00  0.42981884020E+03  0.42981884023E+03  0.50400001928E-02 0.  1.
       -1   -1    0    0    0  501  0.00000000000E+00  0.00000000000E+00 -0.71764732994E+03  0.71764732996E+03  0.50400001928E-02 0. -1.
    10030    2    1    2    0    0  0.00000000000E+00  0.00000000000E+00 -0.28782848973E+03  0.11474661702E+04  0.11107805239E+04 0.  0.
        5    1    3    3  502    0 -0.48473305415E+03 -0.21759993153E+03 -0.31087002335E+03  0.61561199257E+03  0.46999998093E+01 0. -1.
       -5    1    3    3    0  502  0.48473305415E+03  0.21759993153E+03  0.23041533612E+02  0.53185417762E+03  0.46999998093E+01 0.  1.
</event>
<event>
 5   0  0.1479573E-03  0.1121767E+04  0.7818609E-02  0.9184232E-01
        1   -1    0    0  501    0  0.00000000000E+00  0.00000000000E+00  0.13647660901E+04  0.13647660901E+04  0.50400001928E-02 0. -1.
       -1   -1    0    0    0  501  0.00000000000E+00  0.00000000000E+00 -0.23050869839E+03  0.23050869844E+03  0.50400001928E-02 0.  1.
    10030    2    1    2    0    0  0.00000000000E+00  0.00000000000E+00  0.11342573917E+04  0.15952747886E+04  0.11217672755E+04 0.  0.
        4    1    3    3  502    0  0.15422245512E+03 -0.26803006041E+03 -0.98327167771E+02  0.32449117672E+03  0.12699999809E+01 0.  1.
       -4    1    3    3    0  502 -0.15422245512E+03  0.26803006041E+03  0.12325845595E+04  0.12707836119E+04  0.12699999809E+01 0. -1.
</event>
<event>
 5   0  0.2483036E-03  0.1097303E+04  0.7818609E-02  0.9207824E-01
        2   -1    0    0  501    0  0.00000000000E+00  0.00000000000E+00  0.93752102120E+03  0.93752102121E+03  0.25500000920E-02 0.  1.
       -2   -1    0    0    0  501  0.00000000000E+00  0.00000000000E+00 -0.32107930064E+03  0.32107930065E+03  0.25500000920E-02 0. -1.
    10030    2    1    2    0    0  0.00000000000E+00  0.00000000000E+00  0.61644172057E+03  0.12586003219E+04  0.10973032285E+04 0.  0.
        3    1    3    3  502    0 -0.18605538244E+03 -0.60836728000E+02 -0.27966354203E+03  0.34136405749E+03  0.10100000352E+00 0. -1.
       -3    1    3    3    0  502  0.18605538244E+03  0.60836728000E+02  0.89610526259E+03  0.91723626436E+03  0.10100000352E+00 0.  1.
</event>
<event>
 5   0  0.1479573E-03  0.1098139E+04  0.7818609E-02  0.9207007E-01
       -1   -1    0    0    0  501  0.00000000000E+00  0.00000000000E+00  0.78724058789E+03  0.78724058791E+03  0.50400001928E-02 0. -1.
        1   -1    0    0  501    0  0.00000000000E+00  0.00000000000E+00 -0.38295460374E+03  0.38295460378E+03  0.50400001928E-02 0.  1.
    10030    2    1    2    0    0  0.00000000000E+00  0.00000000000E+00  0.40428598415E+03  0.11701951917E+04  0.10981391668E+04 0.  0.
        4    1    3    3  502    0  0.36117362379E+03 -0.33901732241E+03 -0.50245437708E+02  0.49790094229E+03  0.12699999809E+01 0.  1.
       -4    1    3    3    0  502 -0.36117362379E+03  0.33901732241E+03  0.45453142185E+03  0.67229424940E+03  0.12699999809E+01 0. -1.
</event>
<event>
 5   0  0.1480937E-03  0.1097521E+04  0.7818609E-02  0.9207611E-01
        1   -1    0    0  501    0  0.00000000000E+00  0.00000000000E+00  0.51838688962E+03  0.51838688964E+03  0.50400001928E-02 0.  1.
       -1   -1    0    0    0  501  0.00000000000E+00  0.00000000000E+00 -0.58091392707E+03  0.58091392709E+03  0.50400001928E-02 0. -1.
    10030    2    1    2    0    0  0.00000000000E+00  0.00000000000E+00 -0.62527037453E+02  0.10993008167E+04  0.10975211412E+04 0.  0.
        1    1    3    3  502    0  0.31819320467E+03 -0.34817992013E+03  0.24965872255E+03  0.53367185615E+03  0.50400001928E-02 0.  1.
       -1    1    3    3    0  502 -0.31819320467E+03  0.34817992013E+03 -0.31218576000E+03  0.56562896059E+03  0.50400001928E-02 0. -1.
</event>
<event>
 5   0  0.1415400E-03  0.1095344E+04  0.7818609E-02  0.9209742E-01
        1   -1    0    0  501    0  0.00000000000E+00  0.00000000000E+00  0.14768288026E+04  0.14768288026E+04  0.50400001928E-02 0.  1.
       -1   -1    0    0    0  501  0.00000000000E+00  0.00000000000E+00 -0.20310040110E+03  0.20310040116E+03  0.50400001928E-02 0. -1.
    10030    2    1    2    0    0  0.00000000000E+00  0.00000000000E+00  0.12737284015E+04  0.16799292038E+04  0.10953438222E+04 0.  0.
        2    1    3    3  502    0  0.41824511895E+03  0.25075470321E+03  0.10191761123E+04  0.11298348767E+04  0.25500000920E-02 0.  1.
       -2    1    3    3    0  502 -0.41824511895E+03 -0.25075470321E+03  0.25455228914E+03  0.55009432702E+03  0.25500000920E-02 0. -1.
</event>
<event>
 5   0  0.2467448E-03  0.1102094E+04  0.7818609E-02  0.9203153E-01
        2   -1    0    0  501    0  0.00000000000E+00  0.00000000000E+00  0.11990075039E+04  0.11990075039E+04  0.25500000920E-02 0.  1.
       -2   -1    0    0    0  501  0.00000000000E+00  0.00000000000E+00 -0.25325339333E+03  0.25325339335E+03  0.25500000920E-02 0. -1.
    10030    2    1    2    0    0  0.00000000000E+00  0.00000000000E+00  0.94575411055E+03  0.14522608972E+04  0.11020938599E+04 0.  0.
        1    1    3    3  502    0 -0.44538594773E+02 -0.22405240530E+03 -0.18792101399E+03  0.29579971986E+03  0.50400001928E-02 0. -1.
       -1    1    3    3    0  502  0.44538594773E+02  0.22405240530E+03  0.11336751245E+04  0.11564611774E+04  0.50400001928E-02 0.  1.
</event>
<event>
 5   0  0.9631750E-04  0.1097341E+04  0.7818609E-02  0.9207787E-01
        3   -1    0    0  501    0  0.00000000000E+00  0.00000000000E+00  0.95335543993E+03  0.95335544528E+03  0.10100000352E+00 0.  1.
       -3   -1    0    0    0  501  0.00000000000E+00  0.00000000000E+00 -0.31576832662E+03  0.31576834277E+03  0.10100000352E+00 0. -1.
    10030    2    1    2    0    0  0.00000000000E+00  0.00000000000E+00  0.63758711331E+03  0.12691237881E+04  0.10973412698E+04 0.  0.
        2    1    3    3  502    0 -0.58073389072E+02  0.34018260682E+03  0.81211459654E+03  0.88239834680E+03  0.25500000920E-02 0.  1.
       -2    1    3    3    0  502  0.58073389072E+02 -0.34018260682E+03 -0.17452748323E+03  0.38672544126E+03  0.25500000920E-02 0. -1.
</event>
<event>
 5   0  0.2483036E-03  0.1089277E+04  0.7818609E-02  0.9215707E-01
       -2   -1    0    0    0  501  0.00000000000E+00  0.00000000000E+00  0.25593628510E+03  0.25593628511E+03  0.25500000920E-02 0. -1.
        2   -1    0    0  501    0  0.00000000000E+00  0.00000000000E+00 -0.11590028615E+04  0.11590028615E+04  0.25500000920E-02 0.  1.
    10030    2    1    2    0    0  0.00000000000E+00  0.00000000000E+00 -0.90306657639E+03  0.14149391466E+04  0.10892766165E+04 0.  0.
        3    1    3    3  502    0 -0.17297595032E+03  0.50961987916E+03 -0.56019576471E+03  0.77682199095E+03  0.10100000352E+00 0.  1.
       -3    1    3    3    0  502  0.17297595032E+03 -0.50961987916E+03 -0.34287081169E+03  0.63811715565E+03  0.10100000352E+00 0. -1.
</event>
<event>
 5   0  0.2488472E-03  0.1135629E+04  0.7818609E-02  0.9171145E-01
       -2   -1    0    0    0  501  0.00000000000E+00  0.00000000000E+00  0.11262059518E+04  0.11262059518E+04  0.25500000920E-02 0. -1.
        2   -1    0    0  501    0  0.00000000000E+00  0.00000000000E+00 -0.28628269333E+03  0.28628269334E+03  0.25500000920E-02 0.  1.
    10030    2    1    2    0    0  0.00000000000E+00  0.00000000000E+00  0.83992325847E+03  0.14124886452E+04  0.11356289414E+04 0.  0.
        2    1    3    3  502    0  0.20859242261E+03  0.52462732020E+03  0.34462579360E+03  0.66144656738E+03  0.25500000920E-02 0.  1.
       -2    1    3    3    0  502 -0.20859242261E+03 -0.52462732020E+03  0.49529746487E+03  0.75104207777E+03  0.25500000920E-02 0. -1.
</event>
<event>
 5   0  0.2438115E-03  0.1108551E+04  0.7818609E-02  0.9196897E-01
        2   -1    0    0  501    0  0.00000000000E+00  0.00000000000E+00  0.26842280648E+04  0.26842280648E+04  0.25500000920E-02 0. -1.
       -2   -1    0    0    0  501  0.00000000000E+00  0.00000000000E+00 -0.11445427987E+03  0.11445427990E+03  0.25500000920E-02 0.  1.
    10030    2    1    2    0    0  0.00000000000E+00  0.00000000000E+00  0.25697737850E+04  0.27986823447E+04  0.11085511088E+04 0.  0.
        4    1    3    3  502    0 -0.50830811745E+03 -0.15832518094E+03  0.16741696808E+04  0.17567839191E+04  0.12699999809E+01 0. -1.
       -4    1    3    3    0  502  0.50830811745E+03  0.15832518094E+03  0.89560410414E+03  0.10418984257E+04  0.12699999809E+01 0.  1.
</event>
<event>
 5   0  0.2483036E-03  0.1098418E+04  0.7818609E-02  0.9206736E-01
       -2   -1    0    0    0  501  0.00000000000E+00  0.00000000000E+00  0.46586521635E+03  0.46586521635E+03  0.25500000920E-02 0.  1.
        2   -1    0    0  501    0  0.00000000000E+00  0.00000000000E+00 -0.64746261067E+03  0.64746261068E+03  0.25500000920E-02 0. -1.
    10030    2    1    2    0    0  0.00000000000E+00  0.00000000000E+00 -0.18159739433E+03  0.11133278270E+04  0.10984176058E+04 0.  0.
        3    1    3    3  502    0  0.13208407259E+03 -0.75936806323E+02  0.44401681848E+03  0.46942895744E+03  0.10100000352E+00 0.  1.
       -3    1    3    3    0  502 -0.13208407259E+03  0.75936806323E+02 -0.62561421281E+03  0.64389886959E+03  0.10100000352E+00 0. -1.
</event>
<event>
 5   0  0.1480937E-03  0.1094281E+04  0.7818609E-02  0.9210784E-01
       -1   -1    0    0    0  501  0.00000000000E+00  0.00000000000E+00  0.26308993792E+03  0.26308993797E+03  0.50400001928E-02 0.  1.
        1   -1    0    0  501    0  0.00000000000E+00  0.00000000000E+00 -0.11378723151E+04  0.11378723152E+04  0.50400001928E-02 0. -1.
    10030    2    1    2    0    0  0.00000000000E+00  0.00000000000E+00 -0.87478237722E+03  0.14009622531E+04  0.10942810549E+04 0.  0.
        1    1    3    3  502    0  0.51661255882E+03  0.92666566311E+02 -0.63526099324E+03  0.82403407575E+03  0.50400001928E-02 0. -1.
       -1    1    3    3    0  502 -0.51661255882E+03 -0.92666566311E+02 -0.23952138399E+03  0.57692817738E+03  0.50400001928E-02 0.  1.
</event>
<event>
 5   0  0.1468556E-03  0.1062046E+04  0.7818609E-02  0.9242995E-01
       -1   -1    0    0    0  501  0.00000000000E+00  0.00000000000E+00  0.20372171839E+03  0.20372171845E+03  0.50400001928E-02 0. -1.
        1   -1    0    0  501    0  0.00000000000E+00  0.00000000000E+00 -0.13841700901E+04  0.13841700901E+04  0.50400001928E-02 0.  1.
    10030    2    1    2    0    0  0.00000000000E+00  0.00000000000E+00 -0.11804483717E+04  0.15878918085E+04  0.10620461560E+04 0.  0.
        5    1    3    3  502    0  0.50539720880E+03 -0.75420443878E+01 -0.34692641318E+03  0.61307686896E+03  0.46999998093E+01 0. -1.
       -5    1    3    3    0  502 -0.50539720880E+03  0.75420443878E+01 -0.83352195850E+03  0.97481493957E+03  0.46999998093E+01 0.  1.
</event>
<event>
 5   0  0.9631750E-04  0.1107253E+04  0.7818609E-02  0.9198151E-01
        3   -1    0    0  501    0  0.00000000000E+00  0.00000000000E+00  0.91421404053E+03  0.91421404611E+03  0.10100000352E+00 0. -1.
       -3   -1    0    0    0  501  0.00000000000E+00  0.00000000000E+00 -0.33526304042E+03  0.33526305563E+03  0.10100000352E+00 0.  1.
    10030    2    1    2    0    0  0.00000000000E+00  0.00000000000E+00  0.57895100011E+03  0.12494771017E+04  0.11072528019E+04 0.  0.
        4    1    3    3  502    0  0.31379529952E+03 -0.28335011236E+03  0.69280021307E+03  0.81162092402E+03  0.12699999809E+01 0. -1.
       -4    1    3    3    0  502 -0.31379529952E+03  0.28335011236E+03 -0.11384921296E+03  0.43785617772E+03  0.12699999809E+01 0.  1.
</event>
<event>
 5   0  0.2438115E-03  0.1108273E+04  0.7818609E-02  0.9197166E-01
        2   -1    0    0  501    0  0.00000000000E+00  0.00000000000E+00  0.39731706190E+03  0.39731706191E+03  0.25500000920E-02 0. -1.
       -2   -1    0    0    0  501  0.00000000000E+00  0.00000000000E+00 -0.77285168536E+03  0.77285168536E+03  0.25500000920E-02 0.  1.
    10030    2    1    2    0    0  0.00000000000E+00  0.00000000000E+00 -0.37553462346E+03  0.11701687473E+04  0.11082728201E+04 0.  0.
        4    1    3    3  502    0 -0.92021546332E+02  0.13704632059E+03 -0.74628637154E+03  0.76432625247E+03  0.12699999809E+01 0.  1.
       -4    1    3    3    0  502  0.92021546332E+02 -0.13704632059E+03  0.37075174808E+03  0.40584249479E+03  0.12699999809E+01 0. -1.
</event>
<event>
 5   0  0.2488472E-03  0.1108326E+04  0.7818609E-02  0.9197115E-01
       -2   -1    0    0    0  501  0.00000000000E+00  0.00000000000E+00  0.28152169327E+03  0.28152169328E+03  0.25500000920E-02 0.  1.
        2   -1    0    0  501    0  0.00000000000E+00  0.00000000000E+00 -0.10908450517E+04  0.10908450517E+04  0.25500000920E-02 0. -1.
    10030    2    1    2    0    0  0.00000000000E+00  0.00000000000E+00 -0.80932335841E+03  0.13723667450E+04  0.11083258475E+04 0.  0.
        2    1    3    3  502    0  0.29883416917E+03  0.37258223622E+03 -0.56682317090E+02  0.48097013263E+03  0.25500000920E-02 0.  1.
       -2    1    3    3    0  502 -0.29883416917E+03 -0.37258223622E+03 -0.75264104132E+03  0.89139661234E+03  0.25500000920E-02 0. -1.
</event>
<event>
 5   0  0.1415400E-03  0.1103432E+04  0.7818609E-02  0.9201854E-01
        1   -1    0    0  501    0  0.00000000000E+00  0.00000000000E+00  0.50439872580E+03  0.50439872583E+03  0.50400001928E-02 0. -1.
       -1   -1    0    0    0  501  0.00000000000E+00  0.00000000000E+00 -0.60347175837E+03  0.60347175839E+03  0.50400001928E-02 0.  1.
    10030    2    1    2    0    0  0.00000000000E+00  0.00000000000E+00 -0.99073032570E+02  0.11078704842E+04  0.11034317124E+04 0.  0.
        2    1    3    3  502    0 -0.24189983966E+03  0.49438964231E+03 -0.87817772099E+02  0.55735860266E+03  0.25500000920E-02 0.  1.
       -2    1    3    3    0  502  0.24189983966E+03 -0.49438964231E+03 -0.11255260471E+02  0.55051188157E+03  0.25500000920E-02 0. -1.
</event>
<event>
 5   0  0.9631750E-04  0.1097279E+04  0.7818609E-02  0.9207848E-01
        4   -1    0    0  501    0  0.00000000000E+00  0.00000000000E+00  0.48646424278E+03  0.48646590056E+03  0.12699999809E+01 0.  1.
       -4   -1    0    0    0  501  0.00000000000E+00  0.00000000000E+00 -0.61875782264E+03  0.61875912598E+03  0.12699999809E+01 0. -1.
    10030    2    1    2    0    0  0.00000000000E+00  0.00000000000E+00 -0.13229357986E+03  0.11052250265E+04  0.10972788014E+04 0.  0.
        2    1    3    3  502    0 -0.19581944382E+02 -0.36688140991E+03  0.34425913883E+03  0.50348761272E+03  0.25500000920E-02 0.  1.
       -2    1    3    3    0  502  0.19581944382E+02  0.36688140991E+03 -0.47655271869E+03  0.60173741382E+03  0.25500000920E-02 0. -1.
</event>
<event>
 5   0  0.2467448E-03  0.1077831E+04  0.7818609E-02  0.9227072E-01
        2   -1    0    0  501    0  0.00000000000E+00  0.00000000000E+00  0.82158911508E+03  0.82158911508E+03  0.25500000920E-02 0. -1.
       -2   -1    0    0    0  501  0.00000000000E+00  0.00000000000E+00 -0.35349805169E+03  0.35349805170E+03  0.25500000920E-02 0.  1.
    10030    2    1    2    0    0  0.00000000000E+00  0.00000000000E+00  0.46809106339E+03  0.11750871668E+04  0.10778314367E+04 0.  0.
        1    1    3    3  502    0 -0.10518279511E+03 -0.38019650799E+03  0.63435155447E+03  0.74700381509E+03  0.50400001928E-02 0. -1.
       -1    1    3    3    0  502  0.10518279511E+03  0.38019650799E+03 -0.16626049108E+03  0.42808335169E+03  0.50400001928E-02 0.  1.
</event>
<event>
 5   0  0.1479573E-03  0.1096094E+04  0.7818609E-02  0.9209007E-01
       -1   -1    0    0    0  501  0.00000000000E+00  0.00000000000E+00  0.91530619626E+03  0.91530619627E+03  0.50400001928E-02 0.  1.
        1   -1    0    0  501    0  0.00000000000E+00  0.00000000000E+00 -0.32814764146E+03  0.32814764150E+03  0.50400001928E-02 0. -1.
    10030    2    1    2    0    0  0.00000000000E+00  0.00000000000E+00  0.58715855479E+03  0.12434538378E+04  0.10960941010E+04 0.  0.
        4    1    3    3  502    0 -0.49183684127E+03  0.17354890583E+03  0.10263144310E+03  0.53156140488E+03  0.12699999809E+01 0. -1.
       -4    1    3    3    0  502  0.49183684127E+03 -0.17354890583E+03  0.48452711170E+03  0.71189243290E+03  0.12699999809E+01 0.  1.
</event>
<event>
 5   0  0.1468556E-03  0.1101623E+04  0.7818609E-02  0.9203611E-01
        1   -1    0    0  501    0  0.00000000000E+00  0.00000000000E+00  0.13845003745E+04  0.13845003745E+04  0.50400001928E-02 0. -1.
       -1   -1    0    0    0  501  0.00000000000E+00  0.00000000000E+00 -0.21913571105E+03  0.21913571111E+03  0.50400001928E-02 0.  1.
    10030    2    1    2    0    0  0.00000000000E+00  0.00000000000E+00  0.11653646635E+04  0.16036360857E+04  0.11016233005E+04 0.  0.
        5    1    3    3  502    0  0.21303095948E+03 -0.27308699280E+03  0.12061118995E+04  0.12548652116E+04  0.46999998093E+01 0. -1.
       -5    1    3    3    0  502 -0.21303095948E+03  0.27308699280E+03 -0.40747235976E+02  0.34877087403E+03  0.46999998093E+01 0.  1.
</event>
<event>
 5   0  0.1480937E-03  0.1099250E+04  0.7818609E-02  0.9205923E-01
       -1   -1    0    0    0  501  0.00000000000E+00  0.00000000000E+00  0.33334352720E+03  0.33334352723E+03  0.50400001928E-02 0. -1.
        1   -1    0    0  501    0  0.00000000000E+00  0.00000000000E+00 -0.90623511489E+03  0.90623511490E+03  0.50400001928E-02 0.  1.
    10030    2    1    2    0    0  0.00000000000E+00  0.00000000000E+00 -0.57289158769E+03  0.12395786421E+04  0.10992499437E+04 0.  0.
        1    1    3    3  502    0  0.27746841638E+03  0.47444583764E+03 -0.28623563661E+03  0.61969219346E+03  0.50400001928E-02 0. -1.
       -1    1    3    3    0  502 -0.27746841638E+03 -0.47444583764E+03 -0.28665595108E+03  0.61988644868E+03  0.50400001928E-02 0.  1.
</event>
<event>
 5   0  0.1509004E-03  0.1100985E+04  0.7818609E-02  0.9204232E-01
       -1   -1    0    0    0  501  0.00000000000E+00  0.00000000000E+00  0.65561037936E+03  0.65561037938E+03  0.50400001928E-02 0. -1.
        1   -1    0    0  501    0  0.00000000000E+00  0.00000000000E+00 -0.46222867944E+03  0.46222867946E+03  0.50400001928E-02 0.  1.
    10030    2    1    2    0    0  0.00000000000E+00  0.00000000000E+00  0.19338169993E+03  0.11178390588E+04  0.11009848680E+04 0.  0.
        3    1    3    3  502    0  0.53319872328E+03  0.17243587455E+02 -0.41195678016E+02  0.53506570989E+03  0.10100000352E+00 0.  1.
       -3    1    3    3    0  502 -0.53319872328E+03 -0.17243587455E+02  0.23457737794E+03  0.58277334896E+03  0.10100000352E+00 0. -1.
</event>
<event>
 5   0  0.2483036E-03  0.1100259E+04  0.7818609E-02  0.9204939E-01
        2   -1    0    0  501    0  0.00000000000E+00  0.00000000000E+00  0.27254325904E+03  0.27254325905E+03  0.25500000920E-02 0.  1.
       -2   -1    0    0    0  501  0.00000000000E+00  0.00000000000E+00 -0.11104391413E+04  0.11104391413E+04  0.25500000920E-02 0. -1.
    10030    2    1    2    0    0  0.00000000000E+00  0.00000000000E+00 -0.83789588228E+03  0.13829824004E+04  0.11002594286E+04 0.  0.
        3    1    3    3  502    0 -0.89958887397E+02  0.23973783129E+03 -0.10309673918E+04  0.10622902627E+04  0.10100000352E+00 0. -1.
       -3    1    3    3    0  502  0.89958887397E+02 -0.23973783129E+03  0.19307150949E+03  0.32069213765E+03  0.10100000352E+00 0.  1.
</event>
<event>
 5   0  0.2467448E-03  0.1098805E+04  0.7818609E-02  0.9206358E-01
        2   -1    0    0  501    0  0.00000000000E+00  0.00000000000E+00  0.42381038432E+03  0.42381038433E+03  0.25500000920E-02 0. -1.
       -2   -1    0    0    0  501  0.00000000000E+00  0.00000000000E+00 -0.71221207117E+03  0.71221207117E+03  0.25500000920E-02 0.  1.
    10030    2    1    2    0    0  0.00000000000E+00  0.00000000000E+00 -0.28840168684E+03  0.11360224555E+04  0.10988045715E+04 0.  0.
        1    1    3    3  502    0 -0.93436702197E+02 -0.32248803423E+03 -0.59380281729E+03  0.68215154870E+03  0.50400001928E-02 0.  1.
       -1    1    3    3    0  502  0.93436702197E+02  0.32248803423E+03  0.30540113045E+03  0.45387090681E+03  0.50400001928E-02 0. -1.
</event>
<event>
 5   0  0.9631750E-04  0.1084347E+04  0.7818609E-02  0.9220584E-01
       -3   -1    0    0    0  501  0.00000000000E+00  0.00000000000E+00  0.79643580649E+03  0.79643581289E+03  0.10100000352E+00 0. -1.
        3   -1    0    0  501    0  0.00000000000E+00  0.00000000000E+00 -0.36908428869E+03  0.36908430251E+03  0.10100000352E+00 0.  1.
    10030    2    1    2    0    0  0.00000000000E+00  0.00000000000E+00  0.42735151780E+03  0.11655201154E+04  0.10843467248E+04 0.  0.
        2    1    3    3  502    0 -0.34942019493E+03  0.23207249462E+03 -0.15555027016E+03  0.44737903609E+03  0.25500000920E-02 0.  1.
       -2    1    3    3    0  502  0.34942019493E+03 -0.23207249462E+03  0.58290178795E+03  0.71814107931E+03  0.25500000920E-02 0. -1.
</event>
<event>
 5   0  0.2438115E-03  0.1101860E+04  0.7818609E-02  0.9203381E-01
       -2   -1    0    0    0  501  0.00000000000E+00  0.00000000000E+00  0.23031921595E+03  0.23031921597E+03  0.25500000920E-02 0. -1.
        2   -1    0    0  501    0  0.00000000000E+00  0.00000000000E+00 -0.13178394907E+04  0.13178394907E+04  0.25500000920E-02 0.  1.
    10030    2    1    2    0    0  0.00000000000E+00  0.00000000000E+00 -0.10875202748E+04  0.15481587067E+04  0.11018598064E+04 0.  0.
        4    1    3    3  502    0 -0.29080679629E+02 -0.60859669373E+02  0.22449381548E+03  0.23441132945E+03  0.12699999809E+01 0. -1.
       -4    1    3    3    0  502  0.29080679629E+02  0.60859669373E+02 -0.13120140903E+04  0.13137473772E+04  0.12699999809E+01 0.  1.
</event>
<event>
 5   0  0.1415400E-03  0.1100505E+04  0.7818609E-02  0.9204699E-01
       -1   -1    0    0    0  501  0.00000000000E+00  0.00000000000E+00  0.24942311154E+03  0.24942311159E+03  0.50400001928E-02 0. -1.
        1   -1    0    0  501    0  0.00000000000E+00  0.00000000000E+00 -0.12139133399E+04  0.12139133399E+04  0.50400001928E-02 0.  1.
    10030    2    1    2    0    0  0.00000000000E+00  0.00000000000E+00 -0.96449022836E+03  0.14633364515E+04  0.11005054156E+04 0.  0.
        2    1    3    3  502    0 -0.23533971007E+03  0.46248995235E+03 -0.72560582917E+03  0.89206813333E+03  0.25500000920E-02 0.  1.
       -2    1    3    3    0  502  0.23533971007E+03 -0.46248995235E+03 -0.23888439919E+03  0.57126831817E+03  0.25500000920E-02 0. -1.
</event>
<event>
 5   0  0.2392585E-03  0.1103299E+04  0.7818609E-02  0.9201982E-01
        2   -1    0    0  501    0  0.00000000000E+00  0.00000000000E+00  0.78177456400E+03  0.78177456401E+03  0.25500000920E-02 0.  1.
       -2   -1    0    0    0  501  0.00000000000E+00  0.00000000000E+00 -0.38926492002E+03  0.38926492002E+03  0.25500000920E-02 0. -1.
    10030    2    1    2    0    0  0.00000000000E+00  0.00000000000E+00  0.39250964399E+03  0.11710394840E+04  0.11032994392E+04 0.  0.
        5    1    3    3  502    0  0.46459147239E+03  0.26005999585E+03  0.34940125260E+03  0.63685144498E+03  0.46999998093E+01 0.  1.
       -5    1    3    3    0  502 -0.46459147239E+03 -0.26005999585E+03  0.43108391388E+02  0.53418803905E+03  0.46999998093E+01 0. -1.
</event>
<event>
 5   0  0.2392585E-03  0.1093472E+04  0.7818609E-02  0.9211578E-01
       -2   -1    0    0    0  501  0.00000000000E+00  0.00000000000E+00  0.43792296082E+03  0.43792296083E+03  0.25500000920E-02 0.  1.
        2   -1    0    0  501    0  0.00000000000E+00  0.00000000000E+00 -0.68258624797E+03  0.68258624797E+03  0.25500000920E-02 0. -1.
    10030    2    1    2    0    0  0.00000000000E+00  0.00000000000E+00 -0.24466328715E+03  0.11205092088E+04  0.10934718848E+04 0.  0.
        5    1    3    3  502    0  0.19988517318E+02  0.24623376306E+03 -0.62210759836E+03  0.66938072936E+03  0.46999998093E+01 0. -1.
       -5    1    3    3    0  502 -0.19988517318E+02 -0.24623376306E+03  0.37744431122E+03  0.45112847944E+03  0.46999998093E+01 0.  1.
</event>
<event>
 5   0  0.2483036E-03  0.1107248E+04  0.7818609E-02  0.9198156E-01
       -2   -1    0    0    0  501  0.00000000000E+00  0.00000000000E+00  0.35812014042E+03  0.35812014043E+03  0.25500000920E-02 0. -1.
        2   -1    0    0  501    0  0.00000000000E+00  0.00000000000E+00 -0.85585739371E+03  0.85585739372E+03  0.25500000920E-02 0.  1.
    10030    2    1    2    0    0  0.00000000000E+00  0.00000000000E+00 -0.49773725329E+03  0.12139775341E+04  0.11072484275E+04 0.  0.
        3    1    3    3  502    0 -0.28966881926E+03 -0.45609306653E+03 -0.38121377217E+03  0.66125098146E+03  0.10100000352E+00 0. -1.
       -3    1    3    3    0  502  0.28966881926E+03  0.45609306653E+03 -0.11652348112E+03  0.55272655269E+03  0.10100000352E+00 0.  1.
</event>
<event>
 5   0  0.2392585E-03  0.1096786E+04  0.7818609E-02  0.9208330E-01
       -2   -1    0    0    0  501  0.00000000000E+00  0.00000000000E+00  0.27229088332E+03  0.27229088333E+03  0.25500000920E-02 0. -1.
        2   -1    0    0  501    0  0.00000000000E+00  0.00000000000E+00 -0.11044621618E+04  0.11044621618E+04  0.25500000920E-02 0.  1.
    10030    2    1    2    0    0  0.00000000000E+00  0.00000000000E+00 -0.83217127851E+03  0.13767530452E+04  0.10967861736E+04 0.  0.
        5    1    3    3  502    0 -0.33937339639E+03 -0.40325497421E+03 -0.60614067671E+03  0.80325430990E+03  0.46999998093E+01 0.  1.
       -5    1    3    3    0  502  0.33937339639E+03  0.40325497421E+03 -0.22603060180E+03  0.57349873527E+03  0.46999998093E+01 0. -1.
</event>
<event>
 5   0  0.2488472E-03  0.1101579E+04  0.7818609E-02  0.9203654E-01
       -2   -1    0    0    0  501  0.00000000000E+00  0.00000000000E+00  0.27135426642E+03  0.27135426643E+03  0.25500000920E-02 0.  1.
        2   -1    0    0  501    0  0.00000000000E+00  0.00000000000E+00 -0.11179813071E+04  0.11179813071E+04  0.25500000920E-02 0. -1.
    10030    2    1    2    0    0  0.00000000000E+00  0.00000000000E+00 -0.84662704069E+03  0.13893355735E+04  0.11015788623E+04 0.  0.
        2    1    3    3  502    0 -0.34072942949E+03 -0.34767164433E+03 -0.98326959766E+02  0.49662894339E+03  0.25500000920E-02 0. -1.
       -2    1    3    3    0  502  0.34072942949E+03  0.34767164433E+03 -0.74830008092E+03  0.89270663015E+03  0.25500000920E-02 0.  1.
</event>
<event>
 5   0  0.2392585E-03  0.1099804E+04  0.7818609E-02  0.9205383E-01
        2   -1    0    0  501    0  0.00000000000E+00  0.00000000000E+00  0.73632241973E+03  0.73632241973E+03  0.25500000920E-02 0. -1.
       -2   -1    0    0    0  501  0.00000000000E+00  0.00000000000E+00 -0.41067872031E+03  0.41067872031E+03  0.25500000920E-02 0.  1.
    10030    2    1    2    0    0  0.00000000000E+00  0.00000000000E+00  0.32564369942E+03  0.11470011400E+04  0.10998035262E+04 0.  0.
        5    1    3    3  502    0 -0.19603928155E+03  0.37942827706E+03  0.52405687492E+03  0.67605836693E+03  0.46999998093E+01 0. -1.
       -5    1    3    3    0  502  0.19603928155E+03 -0.37942827706E+03 -0.19841317550E+03  0.47094277312E+03  0.46999998093E+01 0.  1.
</event>
<event>
 5   0  0.2488472E-03  0.1103996E+04  0.7818609E-02  0.9201306E-01
       -2   -1    0    0    0  501  0.00000000000E+00  0.00000000000E+00  0.24649450249E+03  0.24649450250E+03  0.25500000920E-02 0. -1.
        2   -1    0    0  501    0  0.00000000000E+00  0.00000000000E+00 -0.12361397904E+04  0.12361397904E+04  0.25500000920E-02 0.  1.
    10030    2    1    2    0    0  0.00000000000E+00  0.00000000000E+00 -0.98964528794E+03  0.14826342929E+04  0.11039957657E+04 0.  0.
        2    1    3    3  502    0 -0.66568524856E+02 -0.30113284392E+03  0.12000189323E+03  0.33092720132E+03  0.25500000920E-02 0. -1.
       -2    1    3    3    0  502  0.66568524856E+02  0.30113284392E+03 -0.11096471812E+04  0.11517070916E+04  0.25500000920E-02 0.  1.
</event>
<event>
 5   0  0.2438115E-03  0.1096834E+04  0.7818609E-02  0.9208283E-01
       -2   -1    0    0    0  501  0.00000000000E+00  0.00000000000E+00  0.18224174469E+03  0.18224174471E+03  0.25500000920E-02 0. -1.
        2   -1    0    0  501    0  0.00000000000E+00  0.00000000000E+00 -0.16503429316E+04  0.16503429316E+04  0.25500000920E-02 0.  1.
    10030    2    1    2    0    0  0.00000000000E+00  0.00000000000E+00 -0.14681011869E+04  0.18325846763E+04  0.10968343087E+04 0.  0.
        4    1    3    3  502    0  0.16968468564E+03 -0.37114663696E+03 -0.12194428082E+03  0.42592809157E+03  0.12699999809E+01 0. -1.
       -4    1    3    3    0  502 -0.16968468564E+03  0.37114663696E+03 -0.13461569061E+04  0.14066565847E+04  0.12699999809E+01 0.  1.
</event>
<event>
 5   0  0.2467448E-03  0.1136702E+04  0.7818609E-02  0.9170140E-01
        2   -1    0    0  501    0  0.00000000000E+00  0.00000000000E+00  0.61446398959E+03  0.61446398959E+03  0.25500000920E-02 0.  1.
       -2   -1    0    0    0  501  0.00000000000E+00  0.00000000000E+00 -0.52569890613E+03  0.52569890614E+03  0.25500000920E-02 0. -1.
    10030    2    1    2    0    0  0.00000000000E+00  0.00000000000E+00  0.88765083453E+02  0.11401628957E+04  0.11367023308E+04 0.  0.
        1    1    3    3  502    0 -0.34709122076E+03  0.61428686780E+01  0.49576700176E+03  0.60522307492E+03  0.50400001928E-02 0.  1.
       -1    1    3    3    0  502  0.34709122076E+03 -0.61428686780E+01 -0.40700191830E+03  0.53493982081E+03  0.50400001928E-02 0. -1.
</event>
<event>
 5   0  0.1480937E-03  0.1081949E+04  0.7818609E-02  0.9222967E-01
       -1   -1    0    0    0  501  0.00000000000E+00  0.00000000000E+00  0.69037486475E+03  0.69037486477E+03  0.50400001928E-02 0. -1.
        1   -1    0    0  501    0  0.00000000000E+00  0.00000000000E+00 -0.42390478237E+03  0.42390478240E+03  0.50400001928E-02 0.  1.
    10030    2    1    2    0    0  0.00000000000E+00  0.00000000000E+00  0.26647008239E+03  0.11142796472E+04  0.10819486251E+04 0.  0.
        1    1    3    3  502    0 -0.32679888185E+03  0.31634012030E+03  0.43487737309E+03  0.62927490856E+03  0.50400001928E-02 0. -1.
       -1    1    3    3    0  502  0.32679888185E+03 -0.31634012030E+03 -0.16840729070E+03  0.48500473861E+03  0.50400001928E-02 0.  1.
</event>
<event>
 5   0  0.1468556E-03  0.1099307E+04  0.7818609E-02  0.9205868E-01
        1   -1    0    0  501    0  0.00000000000E+00  0.00000000000E+00  0.47375112237E+03  0.47375112240E+03  0.50400001928E-02 0. -1.
       -1   -1    0    0    0  501  0.00000000000E+00  0.00000000000E+00 -0.63771613893E+03  0.63771613895E+03  0.50400001928E-02 0.  1.
    10030    2    1    2    0    0  0.00000000000E+00  0.00000000000E+00 -0.16396501656E+03  0.11114672613E+04  0.10993065752E+04 0.  0.
        5    1    3    3  502    0  0.30743473947E+03 -0.56185512886E+01 -0.54259756425E+03  0.62368412990E+03  0.46999998093E+01 0.  1.
       -5    1    3    3    0  502 -0.30743473947E+03  0.56185512886E+01  0.37863254769E+03  0.48778313145E+03  0.46999998093E+01 0. -1.
</event>
<event>
 5   0  0.1415400E-03  0.1094609E+04  0.7818609E-02  0.9210462E-01
       -1   -1    0    0    0  501  0.00000000000E+00  0.00000000000E+00  0.44218163226E+03  0.44218163229E+03  0.50400001928E-02 0.  1.
        1   -1    0    0  501    0  0.00000000000E+00  0.00000000000E+00 -0.67741939962E+03  0.67741939964E+03  0.50400001928E-02 0. -1.
    10030    2    1    2    0    0  0.00000000000E+00  0.00000000000E+00 -0.23523776736E+03  0.11196010319E+04  0.10946093657E+04 0.  0.
        2    1    3    3  502    0 -0.37942231058E+03  0.78730420830E+02 -0.51294381631E+03  0.64286167068E+03  0.25500000920E-02 0. -1.
       -2    1    3    3    0  502  0.37942231058E+03 -0.78730420830E+02  0.27770604895E+03  0.47673936125E+03  0.25500000920E-02 0.  1.
</event>
<event>
 5   0  0.1468556E-03  0.1087632E+04  0.7818609E-02  0.9217331E-01
        1   -1    0    0  501    0  0.00000000000E+00  0.00000000000E+00  0.60314274960E+03  0.60314274962E+03  0.50400001928E-02 0. -1.
       -1   -1    0    0    0  501  0.00000000000E+00  0.00000000000E+00 -0.49032464408E+03  0.49032464411E+03  0.50400001928E-02 0.  1.
    10030    2    1    2    0    0  0.00000000000E+00  0.00000000000E+00  0.11281810552E+03  0.10934673937E+04  0.10876318385E+04 0.  0.
        5    1    3    3  502    0  0.39283273079E+03 -0.30759305321E+03 -0.16104435118E+03  0.52429802003E+03  0.46999998093E+01 0.  1.
       -5    1    3    3    0  502 -0.39283273079E+03  0.30759305321E+03  0.27386245670E+03  0.56916937370E+03  0.46999998093E+01 0. -1.
</event>
<event>
 5   0  0.2467448E-03  0.1105096E+04  0.7818609E-02  0.9200239E-01
       -2   -1    0    0    0  501  0.00000000000E+00  0.00000000000E+00  0.25719725684E+03  0.25719725686E+03  0.25500000920E-02 0.  1.
        2   -1    0    0  501    0  0.00000000000E+00  0.00000000000E+00 -0.11870627218E+04  0.11870627218E+04  0.25500000920E-02 0. -1.
    10030    2    1    2    0    0  0.00000000000E+00  0.00000000000E+00 -0.92986546493E+03  0.14442599786E+04  0.11050959700E+04 0.  0.
        1    1    3    3  502    0  0.54903567812E+03  0.88751543954E+01 -0.54539346459E+03  0.77393344381E+03  0.50400001928E-02 0. -1.
       -1    1    3    3    0  502 -0.54903567812E+03 -0.88751543954E+01 -0.38447200034E+03  0.67032653482E+03  0.50400001928E-02 0.  1.
</event>
<event>
 5   0  0.2438115E-03  0.1102614E+04  0.7818609E-02  0.9202648E-01
        2   -1    0    0  501    0  0.00000000000E+00  0.00000000000E+00  0.11177104150E+04  0.11177104150E+04  0.25500000920E-02 0.  1.
       -2   -1    0    0    0  501  0.00000000000E+00  0.00000000000E+00 -0.27193028687E+03  0.27193028688E+03  0.25500000920E-02 0. -1.
    10030    2    1    2    0    0  0.00000000000E+00  0.00000000000E+00  0.84578012810E+03  0.13896407019E+04  0.11026138287E+04 0.  0.
        4    1    3    3  502    0  0.45764531295E+03  0.18221311697E+01  0.81031167826E+03  0.93061763440E+03  0.12699999809E+01 0.  1.
       -4    1    3    3    0  502 -0.45764531295E+03 -0.18221311697E+01  0.35468449840E+02  0.45902306746E+03  0.12699999809E+01 0. -1.
</event>
<event>
 5   0  0.1479573E-03  0.1099128E+04  0.7818609E-02  0.9206042E-01
        1   -1    0    0  501    0  0.00000000000E+00  0.00000000000E+00  0.41599084773E+03  0.41599084776E+03  0.50400001928E-02 0. -1.
       -1   -1    0    0    0  501  0.00000000000E+00  0.00000000000E+00 -0.72602720870E+03  0.72602720871E+03  0.50400001928E-02 0.  1.
    10030    2    1    2    0    0  0.00000000000E+00  0.00000000000E+00 -0.31003636097E+03  0.11420180565E+04  0.10991281528E+04 0.  0.
        4    1    3    3  502    0  0.12134537814E+03  0.32020465720E+03  0.29159603100E+03  0.44976169410E+03  0.12699999809E+01 0. -1.
       -4    1    3    3    0  502 -0.12134537814E+03 -0.32020465720E+03 -0.60163239196E+03  0.69225636237E+03  0.12699999809E+01 0.  1.
</event>
<event>
 5   0  0.1415400E-03  0.1094456E+04  0.7818609E-02  0.9210613E-01
       -1   -1    0    0    0  501  0.00000000000E+00  0.00000000000E+00  0.43662337708E+03  0.43662337711E+03  0.50400001928E-02 0.  1.
        1   -1    0    0  501    0  0.00000000000E+00  0.00000000000E+00 -0.68585034447E+03  0.68585034449E+03  0.50400001928E-02 0. -1.
    10030    2    1    2    0    0  0.00000000000E+00  0.00000000000E+00 -0.24922696740E+03  0.11224737216E+04  0.10944556521E+04 0.  0.
        2    1    3    3  502    0 -0.48854639212E+02  0.17414047205E+03 -0.65431043282E+03  0.67884742195E+03  0.25500000920E-02 0. -1.
       -2    1    3    3    0  502  0.48854639212E+02 -0.17414047205E+03  0.40508346542E+03  0.44362629965E+03  0.25500000920E-02 0.  1.
</event>
<event>
 5   0  0.1415400E-03  0.1108123E+04  0.7818609E-02  0.9197311E-01
        1   -1    0    0  501    0  0.00000000000E+00  0.00000000000E+00  0.11014091499E+04  0.11014091499E+04  0.50400001928E-02 0. -1.
       -1   -1    0    0    0  501  0.00000000000E+00  0.00000000000E+00 -0.27871927170E+03  0.27871927175E+03  0.50400001928E-02 0.  1.
    10030    2    1    2    0    0  0.00000000000E+00  0.00000000000E+00  0.82268987817E+03  0.13801284216E+04  0.11081226577E+04 0.  0.
        2    1    3    3  502    0 -0.29898305513E+03  0.31820389044E+03 -0.13465347117E+02  0.43683623788E+03  0.25500000920E-02 0. -1.
       -2    1    3    3    0  502  0.29898305513E+03 -0.31820389044E+03  0.83615522529E+03  0.94329218375E+03  0.25500000920E-02 0.  1.
</event>
<event>
 5   0  0.2488472E-03  0.1101648E+04  0.7818609E-02  0.9203587E-01
       -2   -1    0    0    0  501  0.00000000000E+00  0.00000000000E+00  0.43270696089E+03  0.43270696090E+03  0.25500000920E-02 0. -1.
        2   -1    0    0  501    0  0.00000000000E+00  0.00000000000E+00 -0.70118424615E+03  0.70118424616E+03  0.25500000920E-02 0.  1.
    10030    2    1    2    0    0  0.00000000000E+00  0.00000000000E+00 -0.26847728526E+03  0.11338912071E+04  0.11016484089E+04 0.  0.
        2    1    3    3  502    0 -0.37316731615E+03  0.31236603802E+03 -0.39982347022E+03  0.62982949669E+03  0.25500000920E-02 0.  1.
       -2    1    3    3    0  502  0.37316731615E+03 -0.31236603802E+03  0.13134618496E+03  0.50406171037E+03  0.25500000920E-02 0. -1.
</event>
<event>
 5   0  0.1479573E-03  0.1046934E+04  0.7818609E-02  0.9258516E-01
        1   -1    0    0  501    0  0.00000000000E+00  0.00000000000E+00  0.85831898247E+03  0.85831898248E+03  0.50400001928E-02 0.  1.
       -1   -1    0    0    0  501  0.00000000000E+00  0.00000000000E+00 -0.31924903857E+03  0.31924903861E+03  0.50400001928E-02 0. -1.
    10030    2    1    2    0    0  0.00000000000E+00  0.00000000000E+00  0.53906994389E+03  0.11775680211E+04  0.10469336368E+04 0.  0.
        4    1    3    3  502    0  0.47698542887E+02 -0.36672639581E+03  0.68623830701E+03  0.77954347364E+03  0.12699999809E+01 0.  1.
       -4    1    3    3    0  502 -0.47698542887E+02  0.36672639581E+03 -0.14716836312E+03  0.39802454746E+03  0.12699999809E+01 0. -1.
</event>
<event>
 5   0  0.1415400E-03  0.1093541E+04  0.7818609E-02  0.9211510E-01
       -1   -1    0    0    0  501  0.00000000000E+00  0.00000000000E+00  0.91575216400E+03  0.91575216402E+03  0.50400001928E-02 0. -1.
        1   -1    0    0  501    0  0.00000000000E+00  0.00000000000E+00 -0.32646189789E+03  0.32646189792E+03  0.50400001928E-02 0.  1.
    10030    2    1    2    0    0  0.00000000000E+00  0.00000000000E+00  0.58929026612E+03  0.12422140619E+04  0.10935413837E+04 0.  0.
        2    1    3    3  502    0 -0.30834727429E+03 -0.29417839732E+02  0.80647426639E+03  0.86391214438E+03  0.25500000920E-02 0. -1.
       -2    1    3    3    0  502  0.30834727429E+03  0.29417839732E+02 -0.21718400027E+03  0.37830191756E+03  0.25500000920E-02 0.  1.
</event>
<event>
 5   0  0.1509004E-03  0.1084300E+04  0.7818609E-02  0.9220630E-01
       -1   -1    0    0    0  501  0.00000000000E+00  0.00000000000E+00  0.21090522354E+03  0.21090522360E+03  0.50400001928E-02 0. -1.
        1   -1    0    0  501    0  0.00000000000E+00  0.00000000000E+00 -0.13936440852E+04  0.13936440852E+04  0.50400001928E-02 0.  1.
    10030    2    1    2    0    0  0.00000000000E+00  0.00000000000E+00 -0.11827388617E+04  0.16045493088E+04  0.10843003595E+04 0.  0.
        3    1    3    3  502    0 -0.28158491136E+02  0.53021405564E+03 -0.42921828211E+03  0.68275045904E+03  0.10100000352E+00 0.  1.
       -3    1    3    3    0  502  0.28158491136E+02 -0.53021405564E+03 -0.75352057959E+03  0.92179884980E+03  0.10100000352E+00 0. -1.
</event>
<event>
 5   0  0.1479573E-03  0.1100982E+04  0.7818609E-02  0.9204235E-01
        1   -1    0    0  501    0  0.00000000000E+00  0.00000000000E+00  0.54198191632E+03  0.54198191634E+03  0.50400001928E-02 0. -1.
       -1   -1    0    0    0  501  0.00000000000E+00  0.00000000000E+00 -0.55913392687E+03  0.55913392689E+03  0.50400001928E-02 0.  1.
    10030    2    1    2    0    0  0.00000000000E+00  0.00000000000E+00 -0.17152010549E+02  0.11011158432E+04  0.11009822473E+04 0.  0.
        4    1    3    3  502    0  0.29086678275E+03  0.39570736241E+03 -0.25730492108E+03  0.55443235591E+03  0.12699999809E+01 0.  1.
       -4    1    3    3    0  502 -0.29086678275E+03 -0.39570736241E+03  0.24015291053E+03  0.54668348732E+03  0.12699999809E+01 0. -1.
</event>
<event>
 5   0  0.2438115E-03  0.1102096E+04  0.7818609E-02  0.9203151E-01
        2   -1    0    0  501    0  0.00000000000E+00  0.00000000000E+00  0.61971875668E+03  0.61971875669E+03  0.25500000920E-02 0. -1.
       -2   -1    0    0    0  501  0.00000000000E+00  0.00000000000E+00 -0.48998658215E+03  0.48998658216E+03  0.25500000920E-02 0.  1.
    10030    2    1    2    0    0  0.00000000000E+00  0.00000000000E+00  0.12973217453E+03  0.11097053388E+04  0.11020959586E+04 0.  0.
        4    1    3    3  502    0 -0.39108554207E+03  0.37683228299E+03  0.15879355443E+03  0.56583343534E+03  0.12699999809E+01 0. -1.
       -4    1    3    3    0  502  0.39108554207E+03 -0.37683228299E+03 -0.29061379895E+02  0.54387190351E+03  0.12699999809E+01 0.  1.
</event>
<event>
 5   0  0.2488472E-03  0.1100132E+04  0.7818609E-02  0.9205063E-01
        2   -1    0    0  501    0  0.00000000000E+00  0.00000000000E+00  0.77041294537E+03  0.77041294537E+03  0.25500000920E-02 0.  1.
       -2   -1    0    0    0  501  0.00000000000E+00  0.00000000000E+00 -0.39274096195E+03  0.39274096196E+03  0.25500000920E-02 0. -1.
    10030    2    1    2    0    0  0.00000000000E+00  0.00000000000E+00  0.37767198342E+03  0.11631539073E+04  0.11001322125E+04 0.  0.
        2    1    3    3  502    0 -0.46255315222E+03 -0.74194857369E+02  0.49364323399E+03  0.68054679336E+03  0.25500000920E-02 0.  1.
       -2    1    3    3    0  502  0.46255315222E+03  0.74194857369E+02 -0.11597125057E+03  0.48260711397E+03  0.25500000920E-02 0. -1.
</event>
<event>
 5   0  0.2392585E-03  0.1106205E+04  0.7818609E-02  0.9199165E-01
       -2   -1    0    0    0  501  0.00000000000E+00  0.00000000000E+00  0.42382717406E+03  0.42382717407E+03  0.25500000920E-02 0.  1.
        2   -1    0    0  501    0  0.00000000000E+00  0.00000000000E+00 -0.72180878472E+03  0.72180878473E+03  0.25500000920E-02 0. -1.
    10030    2    1    2    0    0  0.00000000000E+00  0.00000000000E+00 -0.29798161066E+03  0.11456359588E+04  0.11062046419E+04 0.  0.
        5    1    3    3  502    0  0.64423910094E+02 -0.44997246757E+03  0.17731879533E+03  0.48794436869E+03  0.46999998093E+01 0.  1.
       -5    1    3    3    0  502 -0.64423910094E+02  0.44997246757E+03 -0.47530040599E+03  0.65769159011E+03  0.46999998093E+01 0. -1.
</event>
<event>
 5   0  0.2483036E-03  0.1095776E+04  0.7818609E-02  0.9209319E-01
        2   -1    0    0  501    0  0.00000000000E+00  0.00000000000E+00  0.10981647333E+04  0.10981647333E+04  0.25500000920E-02 0. -1.
       -2   -1    0    0    0  501  0.00000000000E+00  0.00000000000E+00 -0.27334811379E+03  0.27334811381E+03  0.25500000920E-02 0.  1.
    10030    2    1    2    0    0  0.00000000000E+00  0.00000000000E+00  0.82481661953E+03  0.13715128471E+04  0.10957759963E+04 0.  0.
        3    1    3    3  502    0  0.46135529289E+03 -0.28918132791E+03  0.48861128197E+03  0.73158426839E+03  0.10100000352E+00 0. -1.
       -3    1    3    3    0  502 -0.46135529289E+03  0.28918132791E+03  0.33620533757E+03  0.63992857875E+03  0.10100000352E+00 0.  1.
</event>
<event>
 5   0  0.2467448E-03  0.1112998E+04  0.7818609E-02  0.9192614E-01
        2   -1    0    0  501    0  0.00000000000E+00  0.00000000000E+00  0.92712087150E+03  0.92712087150E+03  0.25500000920E-02 0.  1.
       -2   -1    0    0    0  501  0.00000000000E+00  0.00000000000E+00 -0.33403562271E+03  0.33403562272E+03  0.25500000920E-02 0. -1.
    10030    2    1    2    0    0  0.00000000000E+00  0.00000000000E+00  0.59308524879E+03  0.12611564942E+04  0.11129984684E+04 0.  0.
        1    1    3    3  502    0  0.25412233030E+03 -0.36964041477E+03 -0.76662549617E+02  0.45507069948E+03  0.50400001928E-02 0. -1.
       -1    1    3    3    0  502 -0.25412233030E+03  0.36964041477E+03  0.66974779841E+03  0.80608579474E+03  0.50400001928E-02 0.  1.
</event>
<event>
 5   0  0.1509004E-03  0.1101447E+04  0.7818609E-02  0.9203783E-01
       -1   -1    0    0    0  501  0.00000000000E+00  0.00000000000E+00  0.17061712822E+03  0.17061712829E+03  0.50400001928E-02 0.  1.
        1   -1    0    0  501    0  0.00000000000E+00  0.00000000000E+00 -0.17776417196E+04  0.17776417196E+04  0.50400001928E-02 0. -1.
    10030    2    1    2    0    0  0.00000000000E+00  0.00000000000E+00 -0.16070245914E+04  0.19482588479E+04  0.11014465494E+04 0.  0.
        3    1    3    3  502    0 -0.93271926241E+02  0.49596761359E+03 -0.41351858196E+03  0.65244245247E+03  0.10100000352E+00 0.  1.
       -3    1    3    3    0  502  0.93271926241E+02 -0.49596761359E+03 -0.11935060094E+04  0.12958163954E+04  0.10100000352E+00 0. -1.
</event>
<event>
 5   0  0.1509004E-03  0.1087777E+04  0.7818609E-02  0.9217188E-01
        1   -1    0    0  501    0  0.00000000000E+00  0.00000000000E+00  0.43545859705E+03  0.43545859708E+03  0.50400001928E-02 0. -1.
       -1   -1    0    0    0  501  0.00000000000E+00  0.00000000000E+00 -0.67931767517E+03  0.67931767519E+03  0.50400001928E-02 0.  1.
    10030    2    1    2    0    0  0.00000000000E+00  0.00000000000E+00 -0.24385907812E+03  0.11147762723E+04  0.10877770393E+04 0.  0.
        3    1    3    3  502    0  0.48755648847E+03  0.12186076466E+03 -0.33506594307E+03  0.60401206264E+03  0.10100000352E+00 0.  1.
       -3    1    3    3    0  502 -0.48755648847E+03 -0.12186076466E+03  0.91206864946E+02  0.51076420962E+03  0.10100000352E+00 0. -1.
</event>
<event>
 5   0  0.2392585E-03  0.1100564E+04  0.7818609E-02  0.9204642E-01
       -2   -1    0    0    0  501  0.00000000000E+00  0.00000000000E+00  0.15041459942E+03  0.15041459944E+03  0.25500000920E-02 0. -1.
        2   -1    0    0  501    0  0.00000000000E+00  0.00000000000E+00 -0.20131709379E+04  0.20131709379E+04  0.25500000920E-02 0.  1.
    10030    2    1    2    0    0  0.00000000000E+00  0.00000000000E+00 -0.18627563385E+04  0.21635855373E+04  0.11005640376E+04 0.  0.
        5    1    3    3  502    0  0.30417429710E+03  0.45026909364E+03 -0.11019006796E+04  0.12286054929E+04  0.46999998093E+01 0.  1.
       -5    1    3    3    0  502 -0.30417429710E+03 -0.45026909364E+03 -0.76085565893E+03  0.93498004440E+03  0.46999998093E+01 0. -1.
</event>
<event>
 5   0  0.1415400E-03  0.1101121E+04  0.7818609E-02  0.9204100E-01
        1   -1    0    0  501    0  0.00000000000E+00  0.00000000000E+00  0.11608306887E+04  0.11608306887E+04  0.50400001928E-02 0.  1.
       -1   -1    0    0    0  501  0.00000000000E+00  0.00000000000E+00 -0.26112052321E+03  0.26112052326E+03  0.50400001928E-02 0. -1.
    10030    2    1    2    0    0  0.00000000000E+00  0.00000000000E+00  0.89971016548E+03  0.14219512120E+04  0.11011207324E+04 0.  0.
        2    1    3    3  502    0 -0.42253375221E+02  0.79974061303E+01 -0.25894838444E+03  0.26249489906E+03  0.25500000920E-02 0. -1.
       -2    1    3    3    0  502  0.42253375221E+02 -0.79974061303E+01  0.11586585499E+04  0.11594563129E+04  0.25500000920E-02 0.  1.
</event>
<event>
 5   0  0.2467448E-03  0.1100428E+04  0.7818609E-02  0.9204775E-01
        2   -1    0    0  501    0  0.00000000000E+00  0.00000000000E+00  0.11050783940E+04  0.11050783940E+04  0.25500000920E-02 0.  1.
       -2   -1    0    0    0  501  0.00000000000E+00  0.00000000000E+00 -0.27394918547E+03  0.27394918548E+03  0.25500000920E-02 0. -1.
    10030    2    1    2    0    0  0.00000000000E+00  0.00000000000E+00  0.83112920858E+03  0.13790275795E+04  0.11004277822E+04 0.  0.
        1    1    3    3  502    0  0.31199064608E+03  0.86843429361E+02  0.97298818792E+03  0.10254686530E+04  0.50400001928E-02 0.  1.
       -1    1    3    3    0  502 -0.31199064608E+03 -0.86843429361E+02 -0.14185897935E+03  0.35355892651E+03  0.50400001928E-02 0. -1.
</event>
<event>
 5   0  0.2483036E-03  0.1101930E+04  0.7818609E-02  0.9203313E-01
        2   -1    0    0  501    0  0.00000000000E+00  0.00000000000E+00  0.16664355864E+04  0.16664355864E+04  0.25500000920E-02 0.  1.
       -2   -1    0    0    0  501  0.00000000000E+00  0.00000000000E+00 -0.18216276946E+03  0.18216276948E+03  0.25500000920E-02 0. -1.
    10030    2    1    2    0    0  0.00000000000E+00  0.00000000000E+00  0.14842728169E+04  0.18485983558E+04  0.11019301640E+04 0.  0.
        3    1    3    3  502    0 -0.38771445947E+03  0.18780803209E+03  0.13183332584E+04  0.13869379760E+04  0.10100000352E+00 0.  1.
       -3    1    3    3    0  502  0.38771445947E+03 -0.18780803209E+03  0.16593955851E+03  0.46166037981E+03  0.10100000352E+00 0. -1.
</event>
<event>
 5   0  0.1480937E-03  0.1103729E+04  0.7818609E-02  0.9201565E-01
       -1   -1    0    0    0  501  0.00000000000E+00  0.00000000000E+00  0.17231824302E+03  0.17231824309E+03  0.50400001928E-02 0. -1.
        1   -1    0    0  501    0  0.00000000000E+00  0.00000000000E+00 -0.17673960502E+04  0.17673960502E+04  0.50400001928E-02 0.  1.
    10030    2    1    2    0    0  0.00000000000E+00  0.00000000000E+00 -0.15950778072E+04  0.19397142933E+04  0.11037292823E+04 0.  0.
        1    1    3    3  502    0 -0.23187257624E+03  0.35947875917E+03 -0.14102827586E+04  0.14737324483E+04  0.50400001928E-02 0.  1.
       -1    1    3    3    0  502  0.23187257624E+03 -0.35947875917E+03 -0.18479504863E+03  0.46598184506E+03  0.50400001928E-02 0. -1.
</event>
<event>
 5   0  0.2483036E-03  0.1094069E+04  0.7818609E-02  0.9210992E-01
       -2   -1    0    0    0  501  0.00000000000E+00  0.00000000000E+00  0.45549030806E+03  0.45549030807E+03  0.25500000920E-02 0. -1.
        2   -1    0    0  501    0  0.00000000000E+00  0.00000000000E+00 -0.65697722167E+03  0.65697722168E+03  0.25500000920E-02 0.  1.
    10030    2    1    2    0    0  0.00000000000E+00  0.00000000000E+00 -0.20148691362E+03  0.11124675297E+04  0.10940690236E+04 0.  0.
        3    1    3    3  502    0 -0.52543933787E+03 -0.13529698439E+03 -0.29894065023E+02  0.54340172717E+03  0.10100000352E+00 0.  1.
       -3    1    3    3    0  502  0.52543933787E+03  0.13529698439E+03 -0.17159284859E+03  0.56906580257E+03  0.10100000352E+00 0. -1.
</event>
<event>
 5   0  0.2467448E-03  0.1099302E+04  0.7818609E-02  0.9205872E-01
        2   -1    0    0  501    0  0.00000000000E+00  0.00000000000E+00  0.38591875118E+03  0.38591875119E+03  0.25500000920E-02 0. -1.
       -2   -1    0    0    0  501  0.00000000000E+00  0.00000000000E+00 -0.78284952028E+03  0.78284952028E+03  0.25500000920E-02 0.  1.
    10030    2    1    2    0    0  0.00000000000E+00  0.00000000000E+00 -0.39693076910E+03  0.11687682715E+04  0.10993021591E+04 0.  0.
        1    1    3    3  502    0  0.10565692884E+03  0.63241386696E+01  0.37498103175E+03  0.38963336040E+03  0.50400001928E-02 0. -1.
       -1    1    3    3    0  502 -0.10565692884E+03 -0.63241386696E+01 -0.77191180084E+03  0.77913491107E+03  0.50400001928E-02 0.  1.
</event>
<event>
 5   0  0.1415400E-03  0.1059643E+04  0.7818609E-02  0.9245445E-01
       -1   -1    0    0    0  501  0.00000000000E+00  0.00000000000E+00  0.35085548699E+03  0.35085548703E+03  0.50400001928E-02 0.  1.
        1   -1    0    0  501    0  0.00000000000E+00  0.00000000000E+00 -0.80007470106E+03  0.80007470107E+03  0.50400001928E-02 0. -1.
    10030    2    1    2    0    0  0.00000000000E+00  0.00000000000E+00 -0.44921921407E+03  0.11509301881E+04  0.10596425792E+04 0.  0.
        2    1    3    3  502    0  0.94956490001E+02  0.34829459813E+03 -0.64581261158E+03  0.73986471152E+03  0.25500000920E-02 0. -1.
       -2    1    3    3    0  502 -0.94956490001E+02 -0.34829459813E+03  0.19659339751E+03  0.41106547658E+03  0.25500000920E-02 0.  1.
</event>
<event>
 5   0  0.2438115E-03  0.1095074E+04  0.7818609E-02  0.9210006E-01
        2   -1    0    0  501    0  0.00000000000E+00  0.00000000000E+00  0.74190897943E+03  0.74190897943E+03  0.25500000920E-02 0.  1.
       -2   -1    0    0    0  501  0.00000000000E+00  0.00000000000E+00 -0.40408865743E+03  0.40408865744E+03  0.25500000920E-02 0. -1.
    10030    2    1    2    0    0  0.00000000000E+00  0.00000000000E+00  0.33782032200E+03  0.11459976369E+04  0.10950744330E+04 0.  0.
        4    1    3    3  502    0 -0.37566874388E+02  0.43014239049E+03 -0.18343892651E+03  0.46913238942E+03  0.12699999809E+01 0. -1.
       -4    1    3    3    0  502  0.37566874388E+02 -0.43014239049E+03  0.52125924851E+03  0.67686524745E+03  0.12699999809E+01 0.  1.
</event>
<event>
 5   0  0.2488472E-03  0.1098846E+04  0.7818609E-02  0.9206318E-01
       -2   -1    0    0    0  501  0.00000000000E+00  0.00000000000E+00  0.14522308021E+03  0.14522308024E+03  0.25500000920E-02 0.  1.
        2   -1    0    0  501    0  0.00000000000E+00  0.00000000000E+00 -0.20786323209E+04  0.20786323209E+04  0.25500000920E-02 0. -1.
    10030    2    1    2    0    0  0.00000000000E+00  0.00000000000E+00 -0.19334092407E+04  0.22238554011E+04  0.10988455547E+04 0.  0.
        2    1    3    3  502    0  0.21907469167E+03  0.50385101980E+03 -0.96182324525E+03  0.11076838564E+04  0.25500000920E-02 0.  1.
       -2    1    3    3    0  502 -0.21907469167E+03 -0.50385101980E+03 -0.97158599541E+03  0.11161715447E+04  0.25500000920E-02 0. -1.
</event>
<event>
 5   0  0.1509004E-03  0.1090523E+04  0.7818609E-02  0.9214478E-01
        1   -1    0    0  501    0  0.00000000000E+00  0.00000000000E+00  0.11774719094E+04  0.11774719094E+04  0.50400001928E-02 0.  1.
       -1   -1    0    0    0  501  0.00000000000E+00  0.00000000000E+00 -0.25249890991E+03  0.25249890996E+03  0.50400001928E-02 0. -1.
    10030    2    1    2    0    0  0.00000000000E+00  0.00000000000E+00  0.92497299948E+03  0.14299708194E+04  0.10905234956E+04 0.  0.
        3    1    3    3  502    0 -0.42476787885E+03  0.22086309429E+03  0.12029247674E+03  0.49363807338E+03  0.10100000352E+00 0. -1.
       -3    1    3    3    0  502  0.42476787885E+03 -0.22086309429E+03  0.80468052274E+03  0.93633274598E+03  0.10100000352E+00 0.  1.
</event>
<event>
 5   0  0.1479573E-03  0.1096774E+04  0.7818609E-02  0.9208342E-01
        1   -1    0    0  501    0  0.00000000000E+00  0.00000000000E+00  0.81796834246E+03  0.81796834247E+03  0.50400001928E-02 0.  1.
       -1   -1    0    0    0  501  0.00000000000E+00  0.00000000000E+00 -0.36765292695E+03  0.36765292698E+03  0.50400001928E-02 0. -1.
    10030    2    1    2    0    0  0.00000000000E+00  0.00000000000E+00  0.45031541551E+03  0.11856212695E+04  0.10967742799E+04 0.  0.
        4    1    3    3  502    0 -0.25944488801E+03  0.17314082341E+03 -0.26242037315E+03  0.40762171163E+03  0.12699999809E+01 0. -1.
       -4    1    3    3    0  502  0.25944488801E+03 -0.17314082341E+03  0.71273578866E+03  0.77799955783E+03  0.12699999809E+01 0.  1.
</event>
<event>
 5   0  0.1468556E-03  0.1096586E+04  0.7818609E-02  0.9208525E-01
        1   -1    0    0  501    0  0.00000000000E+00  0.00000000000E+00  0.18662109054E+04  0.18662109054E+04  0.50400001928E-02 0. -1.
       -1   -1    0    0    0  501  0.00000000000E+00  0.00000000000E+00 -0.16108868984E+03  0.16108868992E+03  0.50400001928E-02 0.  1.
    10030    2    1    2    0    0  0.00000000000E+00  0.00000000000E+00  0.17051222155E+04  0.20272995953E+04  0.10965864668E+04 0.  0.
        5    1    3    3  502    0  0.25511665069E+03 -0.30452578818E+03  0.15398588252E+03  0.42609177784E+03  0.46999998093E+01 0.  1.
       -5    1    3    3    0  502 -0.25511665069E+03  0.30452578818E+03  0.15511363330E+04  0.16012078175E+04  0.46999998093E+01 0. -1.
</event>
<event>
 5   0  0.1479573E-03  0.1089210E+04  0.7818609E-02  0.9215773E-01
       -1   -1    0    0    0  501  0.00000000000E+00  0.00000000000E+00  0.45990873735E+03  0.45990873737E+03  0.50400001928E-02 0. -1.
        1   -1    0    0  501    0  0.00000000000E+00  0.00000000000E+00 -0.64489834698E+03  0.64489834700E+03  0.50400001928E-02 0.  1.
    10030    2    1    2    0    0  0.00000000000E+00  0.00000000000E+00 -0.18498960964E+03  0.11048070844E+04  0.10892095932E+04 0.  0.
        4    1    3    3  502    0 -0.43696728866E+03  0.25800005384E+03 -0.29303367527E+03  0.58598189979E+03  0.12699999809E+01 0. -1.
       -4    1    3    3    0  502  0.43696728866E+03 -0.25800005384E+03  0.10804406563E+03  0.51882518458E+03  0.12699999809E+01 0.  1.
</event>
<event>
 5   0  0.1480937E-03  0.1099095E+04  0.7818609E-02  0.9206075E-01
        1   -1    0    0  501    0  0.00000000000E+00  0.00000000000E+00  0.44900530078E+03  0.44900530081E+03  0.50400001928E-02 0.  1.
       -1   -1    0    0    0  501  0.00000000000E+00  0.00000000000E+00 -0.67260288152E+03  0.67260288154E+03  0.50400001928E-02 0. -1.
    10030    2    1    2    0    0  0.00000000000E+00  0.00000000000E+00 -0.22359758074E+03  0.11216081824E+04  0.10990946441E+04 0.  0.
        1    1    3    3  502    0 -0.17589079998E+03 -0.36260304854E+03  0.26946314969E+03  0.48479782734E+03  0.50400001928E-02 0.  1.
       -1    1    3    3    0  502  0.17589079998E+03  0.36260304854E+03 -0.49306073043E+03  0.63681035501E+03  0.50400001928E-02 0. -1.
</event>
<event>
 5   0  0.2392585E-03  0.1084210E+04  0.7818609E-02  0.9220720E-01
       -2   -1    0    0    0  501  0.00000000000E+00  0.00000000000E+00  0.31412357724E+03  0.31412357725E+03  0.25500000920E-02 0.  1.
        2   -1    0    0  501    0  0.00000000000E+00  0.00000000000E+00 -0.93554875837E+03  0.93554875837E+03  0.25500000920E-02 0. -1.
    10030    2    1    2    0    0  0.00000000000E+00  0.00000000000E+00 -0.62142518113E+03  0.12496723356E+04  0.10842101690E+04 0.  0.
        5    1    3    3  502    0  0.50493511028E+03 -0.88033021995E+02 -0.51412979539E+03  0.72598954198E+03  0.46999998093E+01 0. -1.
       -5    1    3    3    0  502 -0.50493511028E+03  0.88033021995E+02 -0.10729538574E+03  0.52368279364E+03  0.46999998093E+01 0.  1.
</event>
<event>
 5   0  0.1479573E-03  0.1099144E+04  0.7818609E-02  0.9206026E-01
       -1   -1    0    0    0  501  0.00000000000E+00  0.00000000000E+00  0.29192333481E+03  0.29192333485E+03  0.50400001928E-02 0.  1.
        1   -1    0    0  501    0  0.00000000000E+00  0.00000000000E+00 -0.10346193715E+04  0.10346193715E+04  0.50400001928E-02 0. -1.
    10030    2    1    2    0    0  0.00000000000E+00  0.00000000000E+00 -0.74269603670E+03  0.13265427064E+04  0.10991442803E+04 0.  0.
        4    1    3    3  502    0 -0.28078135813E+03  0.25575222470E+02  0.19798495894E+03  0.34451693709E+03  0.12699999809E+01 0.  1.
       -4    1    3    3    0  502  0.28078135813E+03 -0.25575222470E+02 -0.94068099564E+03  0.98202576929E+03  0.12699999809E+01 0. -1.
</event>
<event>
 5   0  0.2392585E-03  0.1090391E+04  0.7818609E-02  0.9214608E-01
        2   -1    0    0  501    0  0.00000000000E+00  0.00000000000E+00  0.62677862404E+03  0.62677862404E+03  0.25500000920E-02 0.  1.
       -2   -1    0    0    0  501  0.00000000000E+00  0.00000000000E+00 -0.47423159364E+03  0.47423159365E+03  0.25500000920E-02 0. -1.
    10030    2    1    2    0    0  0.00000000000E+00  0.00000000000E+00  0.15254703039E+03  0.11010102177E+04  0.10903911697E+04 0.  0.
        5    1    3    3  502    0  0.17534629617E+03 -0.49340418549E+03  0.22948160513E+03  0.57173237702E+03  0.46999998093E+01 0. -1.
       -5    1    3    3    0  502 -0.17534629617E+03  0.49340418549E+03 -0.76934574738E+02  0.52927784067E+03  0.46999998093E+01 0.  1.
</event>
<event>
 5   0  0.2483036E-03  0.1098420E+04  0.7818609E-02  0.9206733E-01
        2   -1    0    0  501    0  0.00000000000E+00  0.00000000000E+00  0.82968281835E+03  0.82968281835E+03  0.25500000920E-02 0.  1.
       -2   -1    0    0    0  501  0.00000000000E+00  0.00000000000E+00 -0.36355077806E+03  0.36355077807E+03  0.25500000920E-02 0. -1.
    10030    2    1    2    0    0  0.00000000000E+00  0.00000000000E+00  0.46613204029E+03  0.11932335964E+04  0.10984203825E+04 0.  0.
        3    1    3    3  502    0 -0.37589129254E+03 -0.12395150585E+03  0.64668582742E+03  0.75819575915E+03  0.10100000352E+00 0.  1.
       -3    1    3    3    0  502  0.37589129254E+03  0.12395150585E+03 -0.18055378714E+03  0.43503783727E+03  0.10100000352E+00 0. -1.
</event>
<event>
 5   0  0.2483036E-03  0.1139252E+04  0.7818609E-02  0.9167757E-01
       -2   -1    0    0    0  501  0.00000000000E+00  0.00000000000E+00  0.46116020762E+03  0.46116020763E+03  0.25500000920E-02 0. -1.
        2   -1    0    0  501    0  0.00000000000E+00  0.00000000000E+00 -0.70360304086E+03  0.70360304087E+03  0.25500000920E-02 0.  1.
    10030    2    1    2    0    0  0.00000000000E+00  0.00000000000E+00 -0.24244283324E+03  0.11647632485E+04  0.11392519026E+04 0.  0.
        3    1    3    3  502    0 -0.20848180415E+03 -0.44738991233E+03 -0.41193240532E+03  0.64289245840E+03  0.10100000352E+00 0.  1.
       -3    1    3    3    0  502  0.20848180415E+03  0.44738991233E+03  0.16948957208E+03  0.52187079010E+03  0.10100000352E+00 0. -1.
</event>
<event>
 5   0  0.1468556E-03  0.1117306E+04  0.7818609E-02  0.9188486E-01
        1   -1    0    0  501    0  0.00000000000E+00  0.00000000000E+00  0.87699129572E+03  0.87699129573E+03  0.50400001928E-02 0. -1.
       -1   -1    0    0    0  501  0.00000000000E+00  0.00000000000E+00 -0.35586835583E+03  0.35586835586E+03  0.50400001928E-02 0.  1.
    10030    2    1    2    0    0  0.00000000000E+00  0.00000000000E+00  0.52112293989E+03  0.12328596516E+04  0.11173064942E+04 0.  0.
        5    1    3    3  502    0 -0.76079780917E+02 -0.28891215427E+01 -0.35009506051E+03  0.35830869579E+03  0.46999998093E+01 0.  1.
       -5    1    3    3    0  502  0.76079780917E+02  0.28891215427E+01  0.87121800040E+03  0.87455095581E+03  0.46999998093E+01 0. -1.
</event>
<event>
 5   0  0.2392585E-03  0.1094895E+04  0.7818609E-02  0.9210182E-01
        2   -1    0    0  501    0  0.00000000000E+00  0.00000000000E+00  0.28930591341E+04  0.28930591341E+04  0.25500000920E-02 0.  1.
       -2   -1    0    0    0  501  0.00000000000E+00  0.00000000000E+00 -0.10359234422E+03  0.10359234425E+03  0.25500000920E-02 0. -1.
    10030    2    1    2    0    0  0.00000000000E+00  0.00000000000E+00  0.27894667899E+04  0.29966514783E+04  0.10948950227E+04 0.  0.
        5    1    3    3  502    0 -0.34929044572E+03  0.37132643852E+03  0.84878919215E+03  0.99012742722E+03  0.46999998093E+01 0. -1.
       -5    1    3    3    0  502  0.34929044572E+03 -0.37132643852E+03  0.19406775977E+04  0.20065240511E+04  0.46999998093E+01 0.  1.
</event>
<event>
 5   0  0.2483036E-03  0.1102626E+04  0.7818609E-02  0.9202636E-01
        2   -1    0    0  501    0  0.00000000000E+00  0.00000000000E+00  0.12041392640E+04  0.12041392640E+04  0.25500000920E-02 0. -1.
       -2   -1    0    0    0  501  0.00000000000E+00  0.00000000000E+00 -0.25241774334E+03  0.25241774335E+03  0.25500000920E-02 0.  1.
    10030    2    1    2    0    0  0.00000000000E+00  0.00000000000E+00  0.95172152061E+03  0.14565570073E+04  0.11026261664E+04 0.  0.
        3    1    3    3  502    0 -0.23022016840E+03  0.66230065721E+02  0.11317931201E+04  0.11568679373E+04  0.10100000352E+00 0. -1.
       -3    1    3    3    0  502  0.23022016840E+03 -0.66230065721E+02 -0.18007159946E+03  0.29968907000E+03  0.10100000352E+00 0.  1.
</event>
<event>
 5   0  0.1480937E-03  0.1126819E+04  0.7818609E-02  0.9179439E-01
       -1   -1    0    0    0  501  0.00000000000E+00  0.00000000000E+00  0.73622568520E+03  0.73622568521E+03  0.50400001928E-02 0.  1.
        1   -1    0    0  501    0  0.00000000000E+00  0.00000000000E+00 -0.43115910261E+03  0.43115910264E+03  0.50400001928E-02 0. -1.
    10030    2    1    2    0    0  0.00000000000E+00  0.00000000000E+00  0.30506658259E+03  0.11673847878E+04  0.11268192504E+04 0.  0.
        1    1    3    3  502    0  0.12378359526E+03 -0.31581829209E+01  0.72195462630E+03  0.73249630377E+03  0.50400001928E-02 0.  1.
       -1    1    3    3    0  502 -0.12378359526E+03  0.31581829209E+01 -0.41688804371E+03  0.43488848408E+03  0.50400001928E-02 0. -1.
</event>
<event>
 5   0  0.1509004E-03  0.1095965E+04  0.7818609E-02  0.9209134E-01
        1   -1    0    0  501    0  0.00000000000E+00  0.00000000000E+00  0.49837301731E+03  0.49837301734E+03  0.50400001928E-02 0.  1.
       -1   -1    0    0    0  501  0.00000000000E+00  0.00000000000E+00 -0.60252976277E+03  0.60252976279E+03  0.50400001928E-02 0. -1.
    10030    2    1    2    0    0  0.00000000000E+00  0.00000000000E+00 -0.10415674546E+03  0.11009027801E+04  0.10959645540E+04 0.  0.
        3    1    3    3  502    0 -0.27447949665E+03 -0.18546083671E+03  0.38640867091E+03  0.50896599806E+03  0.10100000352E+00 0.  1.
       -3    1    3    3    0  502  0.27447949665E+03  0.18546083671E+03 -0.49056541636E+03  0.59193678207E+03  0.10100000352E+00 0. -1.
</event>
<event>
 5   0  0.1479573E-03  0.1105187E+04  0.7818609E-02  0.9200151E-01
       -1   -1    0    0    0  501  0.00000000000E+00  0.00000000000E+00  0.82101690590E+03  0.82101690591E+03  0.50400001928E-02 0.  1.
        1   -1    0    0  501    0  0.00000000000E+00  0.00000000000E+00 -0.37192868929E+03  0.37192868933E+03  0.50400001928E-02 0. -1.
    10030    2    1    2    0    0  0.00000000000E+00  0.00000000000E+00  0.44908821660E+03  0.11929455952E+04  0.11051872995E+04 0.  0.
        4    1    3    3  502    0  0.43408037183E+03  0.27857065018E+03  0.43861167881E+03  0.67705922491E+03  0.12699999809E+01 0. -1.
       -4    1    3    3    0  502 -0.43408037183E+03 -0.27857065018E+03  0.10476537797E+02  0.51588637033E+03  0.12699999809E+01 0.  1.
</event>
<event>
 5   0  0.2467448E-03  0.1097161E+04  0.7818609E-02  0.9207963E-01
       -2   -1    0    0    0  501  0.00000000000E+00  0.00000000000E+00  0.24984861175E+03  0.24984861177E+03  0.25500000920E-02 0. -1.
        2   -1    0    0  501    0  0.00000000000E+00  0.00000000000E+00 -0.12044924170E+04  0.12044924170E+04  0.25500000920E-02 0.  1.
    10030    2    1    2    0    0  0.00000000000E+00  0.00000000000E+00 -0.95464380526E+03  0.14543410288E+04  0.10971613523E+04 0.  0.
        1    1    3    3  502    0  0.76599009060E+02  0.17152395494E+03  0.20588622129E+03  0.27870595876E+03  0.50400001928E-02 0. -1.
       -1    1    3    3    0  502 -0.76599009060E+02 -0.17152395494E+03 -0.11605300265E+04  0.11756350700E+04  0.50400001928E-02 0.  1.
</event>
<event>
 5   0  0.2392585E-03  0.1096838E+04  0.7818609E-02  0.9208280E-01
       -2   -1    0    0    0  501  0.00000000000E+00  0.00000000000E+00  0.25951029679E+03  0.25951029680E+03  0.25500000920E-02 0. -1.
        2   -1    0    0  501    0  0.00000000000E+00  0.00000000000E+00 -0.11589644057E+04  0.11589644057E+04  0.25500000920E-02 0.  1.
    10030    2    1    2    0    0  0.00000000000E+00  0.00000000000E+00 -0.89945410890E+03  0.14184747025E+04  0.10968376305E+04 0.  0.
        5    1    3    3  502    0 -0.21014326661E+03  0.38014732754E+02 -0.11029552909E+04  0.11234490536E+04  0.46999998093E+01 0.  1.
       -5    1    3    3    0  502  0.21014326661E+03 -0.38014732754E+02  0.20350118200E+03  0.29502564885E+03  0.46999998093E+01 0. -1.
</event>
<event>
 5   0  0.2488472E-03  0.1104572E+04  0.7818609E-02  0.9200747E-01
        2   -1    0    0  501    0  0.00000000000E+00  0.00000000000E+00  0.47372471959E+03  0.47372471959E+03  0.25500000920E-02 0.  1.
       -2   -1    0    0    0  501  0.00000000000E+00  0.00000000000E+00 -0.64387538115E+03  0.64387538116E+03  0.25500000920E-02 0. -1.
    10030    2    1    2    0    0  0.00000000000E+00  0.00000000000E+00 -0.17015066156E+03  0.11176001008E+04  0.11045717440E+04 0.  0.
        2    1    3    3  502    0  0.42590847542E+03  0.34153718392E+03 -0.57980923854E+00  0.54593590614E+03  0.25500000920E-02 0.  1.
       -2    1    3    3    0  502 -0.42590847542E+03 -0.34153718392E+03 -0.16957085233E+03  0.57166419461E+03  0.25500000920E-02 0. -1.
</event>
<event>
 5   0  0.2483036E-03  0.1101448E+04  0.7818609E-02  0.9203781E-01
        2   -1    0    0  501    0  0.00000000000E+00  0.00000000000E+00  0.91218941042E+03  0.91218941043E+03  0.25500000920E-02 0.  1.
       -2   -1    0    0    0  501  0.00000000000E+00  0.00000000000E+00 -0.33249364306E+03  0.33249364307E+03  0.25500000920E-02 0. -1.
    10030    2    1    2    0    0  0.00000000000E+00  0.00000000000E+00  0.57969576736E+03  0.12446830535E+04  0.11014484650E+04 0.  0.
        3    1    3    3  502    0 -0.30905223701E+03  0.37012756487E+03 -0.10814382619E+02  0.48231178770E+03  0.10100000352E+00 0. -1.
       -3    1    3    3    0  502  0.30905223701E+03 -0.37012756487E+03  0.59051014998E+03  0.76237126580E+03  0.10100000352E+00 0.  1.
</event>
<event>
 5   0  0.1415400E-03  0.1095939E+04  0.7818609E-02  0.9209159E-01
       -1   -1    0    0    0  501  0.00000000000E+00  0.00000000000E+00  0.25909084617E+04  0.25909084617E+04  0.50400001928E-02 0.  1.
        1   -1    0    0  501    0  0.00000000000E+00  0.00000000000E+00 -0.11589385732E+03  0.11589385743E+03  0.50400001928E-02 0. -1.
    10030    2    1    2    0    0  0.00000000000E+00  0.00000000000E+00  0.24750146044E+04  0.27068023191E+04  0.10959386402E+04 0.  0.
        2    1    3    3  502    0 -0.10634103514E+03 -0.39167022573E+02  0.25616499233E+04  0.25641553777E+04  0.25500000920E-02 0.  1.
       -2    1    3    3    0  502  0.10634103514E+03  0.39167022573E+02 -0.86635318919E+02  0.14264694144E+03  0.25500000920E-02 0. -1.
</event>
<event>
 5   0  0.1480937E-03  0.1093021E+04  0.7818609E-02  0.9212020E-01
       -1   -1    0    0    0  501  0.00000000000E+00  0.00000000000E+00  0.36553506867E+03  0.36553506871E+03  0.50400001928E-02 0.  1.
        1   -1    0    0  501    0  0.00000000000E+00  0.00000000000E+00 -0.81708712198E+03  0.81708712199E+03  0.50400001928E-02 0. -1.
    10030    2    1    2    0    0  0.00000000000E+00  0.00000000000E+00 -0.45155205331E+03  0.11826221907E+04  0.10930214953E+04 0.  0.
        1    1    3    3  502    0  0.33800492357E+03 -0.26725813239E+02  0.23797678550E+03  0.41423972277E+03  0.50400001928E-02 0.  1.
       -1    1    3    3    0  502 -0.33800492357E+03  0.26725813239E+02 -0.68952883881E+03  0.76838246793E+03  0.50400001928E-02 0. -1.
</event>
<event>
 5   0  0.2483036E-03  0.1095283E+04  0.7818609E-02  0.9209801E-01
        2   -1    0    0  501    0  0.00000000000E+00  0.00000000000E+00  0.12820364124E+04  0.12820364124E+04  0.25500000920E-02 0. -1.
       -2   -1    0    0    0  501  0.00000000000E+00  0.00000000000E+00 -0.23393364611E+03  0.23393364612E+03  0.25500000920E-02 0.  1.
    10030    2    1    2    0    0  0.00000000000E+00  0.00000000000E+00  0.10481027663E+04  0.15159700585E+04  0.10952834380E+04 0.  0.
        3    1    3    3  502    0  0.28063914848E+03  0.35998500683E+03  0.94287026898E+03  0.10475456511E+04  0.10100000352E+00 0. -1.
       -3    1    3    3    0  502 -0.28063914848E+03 -0.35998500683E+03  0.10523249734E+03  0.46842440745E+03  0.10100000352E+00 0.  1.
</event>
<event>
 5   0  0.2392585E-03  0.1096854E+04  0.7818609E-02  0.9208263E-01
        2   -1    0    0  501    0  0.00000000000E+00  0.00000000000E+00  0.17832018923E+04  0.17832018923E+04  0.25500000920E-02 0. -1.
       -2   -1    0    0    0  501  0.00000000000E+00  0.00000000000E+00 -0.16866982476E+03  0.16866982478E+03  0.25500000920E-02 0.  1.
    10030    2    1    2    0    0  0.00000000000E+00  0.00000000000E+00  0.16145320676E+04  0.19518717171E+04  0.10968543216E+04 0.  0.
        5    1    3    3  502    0  0.13053197358E+03  0.15674530586E+03 -0.98616120554E+02  0.22661623125E+03  0.46999998093E+01 0.  1.
       -5    1    3    3    0  502 -0.13053197358E+03 -0.15674530586E+03  0.17131481881E+04  0.17252554858E+04  0.46999998093E+01 0. -1.
</event>
<event>
 5   0  0.1509004E-03  0.1097377E+04  0.7818609E-02  0.9207752E-01
       -1   -1    0    0    0  501  0.00000000000E+00  0.00000000000E+00  0.38311428334E+03  0.38311428337E+03  0.50400001928E-02 0. -1.
        1   -1    0    0  501    0  0.00000000000E+00  0.00000000000E+00 -0.78582015296E+03  0.78582015298E+03  0.50400001928E-02 0.  1.
    10030    2    1    2    0    0  0.00000000000E+00  0.00000000000E+00 -0.40270586962E+03  0.11689344364E+04  0.10973767352E+04 0.  0.
        3    1    3    3  502    0 -0.16569365450E+03  0.41280172286E+03  0.14084131415E+03  0.46657897028E+03  0.10100000352E+00 0. -1.
       -3    1    3    3    0  502  0.16569365450E+03 -0.41280172286E+03 -0.54354718377E+03  0.70235546607E+03  0.10100000352E+00 0.  1.
</event>
<event>
 5   0  0.1415400E-03  0.1125569E+04  0.7818609E-02  0.9180623E-01
        1   -1    0    0  501    0  0.00000000000E+00  0.00000000000E+00  0.12099864280E+04  0.12099864280E+04  0.50400001928E-02 0.  1.
       -1   -1    0    0    0  501  0.00000000000E+00  0.00000000000E+00 -0.26176016092E+03  0.26176016097E+03  0.50400001928E-02 0. -1.
    10030    2    1    2    0    0  0.00000000000E+00  0.00000000000E+00  0.94822626705E+03  0.14717465890E+04  0.11255687312E+04 0.  0.
        2    1    3    3  502    0  0.15631572078E+02 -0.69327361555E+02  0.12040956009E+04  0.12061910484E+04  0.25500000920E-02 0.  1.
       -2    1    3    3    0  502 -0.15631572078E+02  0.69327361555E+02 -0.25586933386E+03  0.26555554056E+03  0.25500000920E-02 0. -1.
</event>
<event>
 5   0  0.1415400E-03  0.1107168E+04  0.7818609E-02  0.9198233E-01
       -1   -1    0    0    0  501  0.00000000000E+00  0.00000000000E+00  0.74666517671E+03  0.74666517672E+03  0.50400001928E-02 0. -1.
        1   -1    0    0  501    0  0.00000000000E+00  0.00000000000E+00 -0.41043211948E+03  0.41043211951E+03  0.50400001928E-02 0.  1.
    10030    2    1    2    0    0  0.00000000000E+00  0.00000000000E+00  0.33623305722E+03  0.11570972962E+04  0.11071682276E+04 0.  0.
        2    1    3    3  502    0  0.12787873647E+03  0.53228634682E+03  0.82102859563E+02  0.55355451927E+03  0.25500000920E-02 0.  1.
       -2    1    3    3    0  502 -0.12787873647E+03 -0.53228634682E+03  0.25413019766E+03  0.60354277696E+03  0.25500000920E-02 0. -1.
</event>
<event>
 5   0  0.2438115E-03  0.1097665E+04  0.7818609E-02  0.9207471E-01
        2   -1    0    0  501    0  0.00000000000E+00  0.00000000000E+00  0.16053130983E+04  0.16053130983E+04  0.25500000920E-02 0.  1.
       -2   -1    0    0    0  501  0.00000000000E+00  0.00000000000E+00 -0.18763750192E+03  0.18763750193E+03  0.25500000920E-02 0. -1.
    10030    2    1    2    0    0  0.00000000000E+00  0.00000000000E+00  0.14176755964E+04  0.17929506003E+04  0.10976646839E+04 0.  0.
        4    1    3    3  502    0  0.34660352523E+02  0.20563875602E+01 -0.18583930456E+03  0.18905932611E+03  0.12699999809E+01 0. -1.
       -4    1    3    3    0  502 -0.34660352523E+02 -0.20563875602E+01  0.16035149010E+04  0.16038912742E+04  0.12699999809E+01 0.  1.
</event>
<event>
 5   0  0.1468556E-03  0.1097834E+04  0.7818609E-02  0.9207306E-01
        1   -1    0    0  501    0  0.00000000000E+00  0.00000000000E+00  0.76260582243E+03  0.76260582245E+03  0.50400001928E-02 0. -1.
       -1   -1    0    0    0  501  0.00000000000E+00  0.00000000000E+00 -0.39510538259E+03  0.39510538263E+03  0.50400001928E-02 0.  1.
    10030    2    1    2    0    0  0.00000000000E+00  0.00000000000E+00  0.36750043984E+03  0.11577112051E+04  0.10978336218E+04 0.  0.
        5    1    3    3  502    0  0.41028337008E+03  0.11844727531E+03  0.54741477429E+03  0.69429620905E+03  0.46999998093E+01 0. -1.
       -5    1    3    3    0  502 -0.41028337008E+03 -0.11844727531E+03 -0.17991433445E+03  0.46341499602E+03  0.46999998093E+01 0.  1.
</event>
<event>
 5   0  0.2392585E-03  0.1120575E+04  0.7818609E-02  0.9185367E-01
       -2   -1    0    0    0  501  0.00000000000E+00  0.00000000000E+00  0.29084172921E+03  0.29084172922E+03  0.25500000920E-02 0.  1.
        2   -1    0    0  501    0  0.00000000000E+00  0.00000000000E+00 -0.10793569645E+04  0.10793569645E+04  0.25500000920E-02 0. -1.
    10030    2    1    2    0    0  0.00000000000E+00  0.00000000000E+00 -0.78851523532E+03  0.13701986938E+04  0.11205749346E+04 0.  0.
        5    1    3    3  502    0  0.11823835760E+03  0.24790987842E+03 -0.99136263966E+03  0.10287184213E+04  0.46999998093E+01 0. -1.
       -5    1    3    3    0  502 -0.11823835760E+03 -0.24790987842E+03  0.20284740434E+03  0.34148027245E+03  0.46999998093E+01 0.  1.
</event>
<event>
 5   0  0.1415400E-03  0.1016256E+04  0.7818609E-02  0.9290893E-01
        1   -1    0    0  501    0  0.00000000000E+00  0.00000000000E+00  0.18906665065E+04  0.18906665065E+04  0.50400001928E-02 0. -1.
       -1   -1    0    0    0  501  0.00000000000E+00  0.00000000000E+00 -0.13656257823E+03  0.13656257832E+03  0.50400001928E-02 0.  1.
    10030    2    1    2    0    0  0.00000000000E+00  0.00000000000E+00  0.17541039283E+04  0.20272290849E+04  0.10162564495E+04 0.  0.
        2    1    3    3  502    0 -0.43374909565E+03  0.25537488502E+03  0.10158259199E+04  0.11336917171E+04  0.25500000920E-02 0.  1.
       -2    1    3    3    0  502  0.43374909565E+03 -0.25537488502E+03  0.73827800836E+03  0.89353736772E+03  0.25500000920E-02 0. -1.
</event>
<event>
 5   0  0.2467448E-03  0.1093847E+04  0.7818609E-02  0.9211209E-01
       -2   -1    0    0    0  501  0.00000000000E+00  0.00000000000E+00  0.24575426192E+03  0.24575426193E+03  0.25500000920E-02 0. -1.
        2   -1    0    0  501    0  0.00000000000E+00  0.00000000000E+00 -0.12171732248E+04  0.12171732248E+04  0.25500000920E-02 0.  1.
    10030    2    1    2    0    0  0.00000000000E+00  0.00000000000E+00 -0.97141896292E+03  0.14629274868E+04  0.10938473523E+04 0.  0.
        1    1    3    3  502    0 -0.44968852365E+03  0.30867203645E+03 -0.53966074735E+03  0.76728867882E+03  0.50400001928E-02 0.  1.
       -1    1    3    3    0  502  0.44968852365E+03 -0.30867203645E+03 -0.43175821557E+03  0.69563880795E+03  0.50400001928E-02 0. -1.
</event>
<event>
 5   0  0.1468556E-03  0.1100654E+04  0.7818609E-02  0.9204554E-01
       -1   -1    0    0    0  501  0.00000000000E+00  0.00000000000E+00  0.62398254815E+03  0.62398254817E+03  0.50400001928E-02 0. -1.
        1   -1    0    0  501    0  0.00000000000E+00  0.00000000000E+00 -0.48536622527E+03  0.48536622529E+03  0.50400001928E-02 0.  1.
    10030    2    1    2    0    0  0.00000000000E+00  0.00000000000E+00  0.13861632288E+03  0.11093487735E+04  0.11006544491E+04 0.  0.
        5    1    3    3  502    0  0.14085827201E+03  0.40873609968E+03  0.41248521322E+03  0.59755534730E+03  0.46999998093E+01 0. -1.
       -5    1    3    3    0  502 -0.14085827201E+03 -0.40873609968E+03 -0.27386889033E+03  0.51179342616E+03  0.46999998093E+01 0.  1.
</event>
<event>
 5   0  0.9631750E-04  0.1098527E+04  0.7818609E-02  0.9206629E-01
       -4   -1    0    0    0  501  0.00000000000E+00  0.00000000000E+00  0.43595519750E+03  0.43595704734E+03  0.12699999809E+01 0.  1.
        4   -1    0    0  501    0  0.00000000000E+00  0.00000000000E+00 -0.69201762723E+03  0.69201879259E+03  0.12699999809E+01 0. -1.
    10030    2    1    2    0    0  0.00000000000E+00  0.00000000000E+00 -0.25606242973E+03  0.11279758399E+04  0.10985269808E+04 0.  0.
        4    1    3    3  502    0  0.12850041022E+03  0.26365560261E+03 -0.60487488449E+03  0.67223646956E+03  0.12699999809E+01 0. -1.
       -4    1    3    3    0  502 -0.12850041022E+03 -0.26365560261E+03  0.34881245476E+03  0.45573937038E+03  0.12699999809E+01 0.  1.
</event>
<event>
 5   0  0.2488472E-03  0.1101399E+04  0.7818609E-02  0.9203829E-01
        2   -1    0    0  501    0  0.00000000000E+00  0.00000000000E+00  0.26306995122E+03  0.26306995123E+03  0.25500000920E-02 0.  1.
       -2   -1    0    0    0  501  0.00000000000E+00  0.00000000000E+00 -0.11528111050E+04  0.11528111050E+04  0.25500000920E-02 0. -1.
    10030    2    1    2    0    0  0.00000000000E+00  0.00000000000E+00 -0.88974115379E+03  0.14158810562E+04  0.11013990397E+04 0.  0.
        2    1    3    3  502    0 -0.36960035309E+03 -0.21560774830E+03  0.78164875620E+00  0.42789219800E+03  0.25500000920E-02 0.  1.
       -2    1    3    3    0  502  0.36960035309E+03  0.21560774830E+03 -0.89052280254E+03  0.98798885823E+03  0.25500000920E-02 0. -1.
</event>
<event>
 5   0  0.2488472E-03  0.1074937E+04  0.7818609E-02  0.9229970E-01
       -2   -1    0    0    0  501  0.00000000000E+00  0.00000000000E+00  0.38916697728E+03  0.38916697729E+03  0.25500000920E-02 0. -1.
        2   -1    0    0  501    0  0.00000000000E+00  0.00000000000E+00 -0.74228393348E+03  0.74228393348E+03  0.25500000920E-02 0.  1.
    10030    2    1    2    0    0  0.00000000000E+00  0.00000000000E+00 -0.35311695620E+03  0.11314509108E+04  0.10749370115E+04 0.  0.
        2    1    3    3  502    0 -0.47277517884E+03 -0.13344591787E+03  0.52961130621E+02  0.49409418544E+03  0.25500000920E-02 0. -1.
       -2    1    3    3    0  502  0.47277517884E+03  0.13344591787E+03 -0.40607808682E+03  0.63735672533E+03  0.25500000920E-02 0.  1.
</event>
<event>
 5   0  0.2438115E-03  0.1003746E+04  0.7818609E-02  0.9304446E-01
       -2   -1    0    0    0  501  0.00000000000E+00  0.00000000000E+00  0.36754190605E+03  0.36754190606E+03  0.25500000920E-02 0.  1.
        2   -1    0    0  501    0  0.00000000000E+00  0.00000000000E+00 -0.68529955035E+03  0.68529955035E+03  0.25500000920E-02 0. -1.
    10030    2    1    2    0    0  0.00000000000E+00  0.00000000000E+00 -0.31775764429E+03  0.10528414564E+04  0.10037455912E+04 0.  0.
        4    1    3    3  502    0  0.59109922400E+02 -0.25782028964E+03 -0.60624886966E+03  0.66144129713E+03  0.12699999809E+01 0. -1.
       -4    1    3    3    0  502 -0.59109922400E+02  0.25782028964E+03  0.28849122537E+03  0.39140015929E+03  0.12699999809E+01 0.  1.
</event>
<event>
 5   0  0.2488472E-03  0.1100612E+04  0.7818609E-02  0.9204596E-01
       -2   -1    0    0    0  501  0.00000000000E+00  0.00000000000E+00  0.35997167727E+03  0.35997167728E+03  0.25500000920E-02 0.  1.
        2   -1    0    0  501    0  0.00000000000E+00  0.00000000000E+00 -0.84127848214E+03  0.84127848214E+03  0.25500000920E-02 0. -1.
    10030    2    1    2    0    0  0.00000000000E+00  0.00000000000E+00 -0.48130680486E+03  0.12012501594E+04  0.11006115142E+04 0.  0.
        2    1    3    3  502    0  0.19490723851E+03  0.12195581811E+03 -0.78634485382E+03  0.81926813823E+03  0.25500000920E-02 0. -1.
       -2    1    3    3    0  502 -0.19490723851E+03 -0.12195581811E+03  0.30503804895E+03  0.38198202119E+03  0.25500000920E-02 0.  1.
</event>
<event>
 5   0  0.2488472E-03  0.1092785E+04  0.7818609E-02  0.9212253E-01
       -2   -1    0    0    0  501  0.00000000000E+00  0.00000000000E+00  0.22634755614E+03  0.22634755615E+03  0.25500000920E-02 0. -1.
        2   -1    0    0  501    0  0.00000000000E+00  0.00000000000E+00 -0.13189667453E+04  0.13189667453E+04  0.25500000920E-02 0.  1.
    10030    2    1    2    0    0  0.00000000000E+00  0.00000000000E+00 -0.10926191892E+04  0.15453143015E+04  0.10927852478E+04 0.  0.
        2    1    3    3  502    0  0.18673140452E+03  0.18981970310E+03 -0.12210097832E+04  0.12497059766E+04  0.25500000920E-02 0.  1.
       -2    1    3    3    0  502 -0.18673140452E+03 -0.18981970310E+03  0.12839059404E+03  0.29560832492E+03  0.25500000920E-02 0. -1.
</event>
<event>
 5   0  0.2483036E-03  0.1097050E+04  0.7818609E-02  0.9208072E-01
       -2   -1    0    0    0  501  0.00000000000E+00  0.00000000000E+00  0.24724958825E+03  0.24724958827E+03  0.25500000920E-02 0.  1.
        2   -1    0    0  501    0  0.00000000000E+00  0.00000000000E+00 -0.12169065913E+04  0.12169065913E+04  0.25500000920E-02 0. -1.
    10030    2    1    2    0    0  0.00000000000E+00  0.00000000000E+00 -0.96965700301E+03  0.14641561795E+04  0.10970499599E+04 0.  0.
        3    1    3    3  502    0  0.60931765207E+02  0.47122773009E+03 -0.11905360348E+03  0.48983877380E+03  0.10100000352E+00 0.  1.
       -3    1    3    3    0  502 -0.60931765207E+02 -0.47122773009E+03 -0.85060339953E+03  0.97431740573E+03  0.10100000352E+00 0. -1.
</event>
<event>
 5   0  0.1415400E-03  0.1099166E+04  0.7818609E-02  0.9206006E-01
        1   -1    0    0  501    0  0.00000000000E+00  0.00000000000E+00  0.16106902088E+04  0.16106902088E+04  0.50400001928E-02 0.  1.
       -1   -1    0    0    0  501  0.00000000000E+00  0.00000000000E+00 -0.18752286713E+03  0.18752286720E+03  0.50400001928E-02 0. -1.
    10030    2    1    2    0    0  0.00000000000E+00  0.00000000000E+00  0.14231673416E+04  0.17982130760E+04  0.10991655855E+04 0.  0.
        2    1    3    3  502    0 -0.46720000762E+03  0.12395419861E+03  0.11394503621E+04  0.12377348739E+04  0.25500000920E-02 0. -1.
       -2    1    3    3    0  502  0.46720000762E+03 -0.12395419861E+03  0.28371697956E+03  0.56047820205E+03  0.25500000920E-02 0.  1.
</event>
<event>
 5   0  0.1480937E-03  0.1096593E+04  0.7818609E-02  0.9208518E-01
       -1   -1    0    0    0  501  0.00000000000E+00  0.00000000000E+00  0.52759565809E+03  0.52759565811E+03  0.50400001928E-02 0. -1.
        1   -1    0    0  501    0  0.00000000000E+00  0.00000000000E+00 -0.56981004504E+03  0.56981004506E+03  0.50400001928E-02 0.  1.
    10030    2    1    2    0    0  0.00000000000E+00  0.00000000000E+00 -0.42214386950E+02  0.10974057032E+04  0.10965934629E+04 0.  0.
        1    1    3    3  502    0  0.10738685061E+03  0.53763792178E+03 -0.14557494143E+02  0.54845090143E+03  0.50400001928E-02 0.  1.
       -1    1    3    3    0  502 -0.10738685061E+03 -0.53763792178E+03 -0.27656892807E+02  0.54895480174E+03  0.50400001928E-02 0. -1.
</event>
<event>
 5   0  0.1509004E-03  0.1098660E+04  0.7818609E-02  0.9206499E-01
        1   -1    0    0  501    0  0.00000000000E+00  0.00000000000E+00  0.40426444878E+03  0.40426444881E+03  0.50400001928E-02 0.  1.
       -1   -1    0    0    0  501  0.00000000000E+00  0.00000000000E+00 -0.74645041607E+03  0.74645041609E+03  0.50400001928E-02 0. -1.
    10030    2    1    2    0    0  0.00000000000E+00  0.00000000000E+00 -0.34218596729E+03  0.11507148649E+04  0.10986598491E+04 0.  0.
        3    1    3    3  502    0  0.39948775175E+03  0.29607684739E+03 -0.41563197017E+03  0.64807554203E+03  0.10100000352E+00 0. -1.
       -3    1    3    3    0  502 -0.39948775175E+03 -0.29607684739E+03  0.73446002877E+02  0.50263932287E+03  0.10100000352E+00 0.  1.
</event>
<event>
 5   0  0.1415400E-03  0.1064456E+04  0.7818609E-02  0.9240545E-01
        1   -1    0    0  501    0  0.00000000000E+00  0.00000000000E+00  0.64346468186E+03  0.64346468188E+03  0.50400001928E-02 0.  1.
       -1   -1    0    0    0  501  0.00000000000E+00  0.00000000000E+00 -0.44022118581E+03  0.44022118584E+03  0.50400001928E-02 0. -1.
    10030    2    1    2    0    0  0.00000000000E+00  0.00000000000E+00  0.20324349605E+03  0.10836858677E+04  0.10644562655E+04 0.  0.
        2    1    3    3  502    0 -0.34870827888E+01 -0.20428967212E+03 -0.39870354307E+03  0.44800775121E+03  0.25500000920E-02 0. -1.
       -2    1    3    3    0  502  0.34870827888E+01  0.20428967212E+03  0.60194703913E+03  0.63567811650E+03  0.25500000920E-02 0.  1.
</event>
<event>
 5   0  0.1480937E-03  0.1101538E+04  0.7818609E-02  0.9203694E-01
        1   -1    0    0  501    0  0.00000000000E+00  0.00000000000E+00  0.43903349755E+03  0.43903349758E+03  0.50400001928E-02 0. -1.
       -1   -1    0    0    0  501  0.00000000000E+00  0.00000000000E+00 -0.69094122721E+03  0.69094122723E+03  0.50400001928E-02 0.  1.
    10030    2    1    2    0    0  0.00000000000E+00  0.00000000000E+00 -0.25190772966E+03  0.11299747248E+04  0.11015377317E+04 0.  0.
        1    1    3    3  502    0  0.21546648202E+03  0.42638580547E+03  0.15519391829E+03  0.50231047399E+03  0.50400001928E-02 0. -1.
       -1    1    3    3    0  502 -0.21546648202E+03 -0.42638580547E+03 -0.40710164795E+03  0.62766425083E+03  0.50400001928E-02 0.  1.
</event>
<event>
 5   0  0.2438115E-03  0.1104579E+04  0.7818609E-02  0.9200741E-01
        2   -1    0    0  501    0  0.00000000000E+00  0.00000000000E+00  0.77829788805E+03  0.77829788805E+03  0.25500000920E-02 0. -1.
       -2   -1    0    0    0  501  0.00000000000E+00  0.00000000000E+00 -0.39191088819E+03  0.39191088820E+03  0.25500000920E-02 0.  1.
    10030    2    1    2    0    0  0.00000000000E+00  0.00000000000E+00  0.38638699986E+03  0.11702087763E+04  0.11045785017E+04 0.  0.
        4    1    3    3  502    0  0.31745392795E+03  0.19519690456E+03  0.62501847533E+03  0.72768711361E+03  0.12699999809E+01 0. -1.
       -4    1    3    3    0  502 -0.31745392795E+03 -0.19519690456E+03 -0.23863147547E+03  0.44252166264E+03  0.12699999809E+01 0.  1.
</event>
<event>
 5   0  0.2438115E-03  0.1099402E+04  0.7818609E-02  0.9205775E-01
        2   -1    0    0  501    0  0.00000000000E+00  0.00000000000E+00  0.25998138866E+03  0.25998138867E+03  0.25500000920E-02 0.  1.
       -2   -1    0    0    0  501  0.00000000000E+00  0.00000000000E+00 -0.11622795836E+04  0.11622795836E+04  0.25500000920E-02 0. -1.
    10030    2    1    2    0    0  0.00000000000E+00  0.00000000000E+00 -0.90229819497E+03  0.14222609723E+04  0.10994017649E+04 0.  0.
        4    1    3    3  502    0 -0.13794923287E+03 -0.24948945798E+01 -0.11395133142E+04  0.11478364088E+04  0.12699999809E+01 0. -1.
       -4    1    3    3    0  502  0.13794923287E+03  0.24948945798E+01  0.23721511922E+03  0.27442456347E+03  0.12699999809E+01 0.  1.
</event>
<event>
 5   0  0.2488472E-03  0.1099371E+04  0.7818609E-02  0.9205805E-01
       -2   -1    0    0    0  501  0.00000000000E+00  0.00000000000E+00  0.33474019278E+03  0.33474019279E+03  0.25500000920E-02 0. -1.
        2   -1    0    0  501    0  0.00000000000E+00  0.00000000000E+00 -0.90265313611E+03  0.90265313612E+03  0.25500000920E-02 0.  1.
    10030    2    1    2    0    0  0.00000000000E+00  0.00000000000E+00 -0.56791294333E+03  0.12373933289E+04  0.10993712472E+04 0.  0.
        2    1    3    3  502    0  0.35630424773E+03 -0.41672251581E+03 -0.23973076696E+03  0.59839887430E+03  0.25500000920E-02 0.  1.
       -2    1    3    3    0  502 -0.35630424773E+03  0.41672251581E+03 -0.32818217637E+03  0.63899445461E+03  0.25500000920E-02 0. -1.
</event>
<event>
 5   0  0.1468556E-03  0.1064256E+04  0.7818609E-02  0.9240748E-01
       -1   -1    0    0    0  501  0.00000000000E+00  0.00000000000E+00  0.19714560612E+03  0.19714560619E+03  0.50400001928E-02 0. -1.
        1   -1    0    0  501    0  0.00000000000E+00  0.00000000000E+00 -0.14362990873E+04  0.14362990874E+04  0.50400001928E-02 0.  1.
    10030    2    1    2    0    0  0.00000000000E+00  0.00000000000E+00 -0.12391534812E+04  0.16334446935E+04  0.10642557103E+04 0.  0.
        5    1    3    3  502    0 -0.16494273802E+03  0.18260678996E+02 -0.13955334899E+04  0.14053737477E+04  0.46999998093E+01 0.  1.
       -5    1    3    3    0  502  0.16494273802E+03 -0.18260678996E+02  0.15638000870E+03  0.22807094585E+03  0.46999998093E+01 0. -1.
</event>
<event>
 5   0  0.1479573E-03  0.1104720E+04  0.7818609E-02  0.9200604E-01
        1   -1    0    0  501    0  0.00000000000E+00  0.00000000000E+00  0.61763369695E+03  0.61763369697E+03  0.50400001928E-02 0.  1.
       -1   -1    0    0    0  501  0.00000000000E+00  0.00000000000E+00 -0.49398446081E+03  0.49398446083E+03  0.50400001928E-02 0. -1.
    10030    2    1    2    0    0  0.00000000000E+00  0.00000000000E+00  0.12364923615E+03  0.11116181578E+04  0.11047197813E+04 0.  0.
        4    1    3    3  502    0 -0.51484847610E+03  0.10919237268E+03 -0.10687642409E+03  0.53704386276E+03  0.12699999809E+01 0. -1.
       -4    1    3    3    0  502  0.51484847610E+03 -0.10919237268E+03  0.23052566024E+03  0.57457429505E+03  0.12699999809E+01 0.  1.
</event>
<event>
 5   0  0.1509004E-03  0.1102283E+04  0.7818609E-02  0.9202970E-01
       -1   -1    0    0    0  501  0.00000000000E+00  0.00000000000E+00  0.77019345844E+03  0.77019345846E+03  0.50400001928E-02 0.  1.
        1   -1    0    0  501    0  0.00000000000E+00  0.00000000000E+00 -0.39439019880E+03  0.39439019884E+03  0.50400001928E-02 0. -1.
    10030    2    1    2    0    0  0.00000000000E+00  0.00000000000E+00  0.37580325964E+03  0.11645836573E+04  0.11022826338E+04 0.  0.
        3    1    3    3  502    0 -0.48621375133E+03 -0.12830365756E+03  0.42624256949E+03  0.65920283583E+03  0.10100000352E+00 0.  1.
       -3    1    3    3    0  502  0.48621375133E+03  0.12830365756E+03 -0.50439309852E+02  0.50538082146E+03  0.10100000352E+00 0. -1.
</event>
<event>
 5   0  0.9631750E-04  0.1101010E+04  0.7818609E-02  0.9204208E-01
        3   -1    0    0  501    0  0.00000000000E+00  0.00000000000E+00  0.63296576364E+03  0.63296577170E+03  0.10100000352E+00 0. -1.
       -3   -1    0    0    0  501  0.00000000000E+00  0.00000000000E+00 -0.47878665838E+03  0.47878666903E+03  0.10100000352E+00 0.  1.
    10030    2    1    2    0    0  0.00000000000E+00  0.00000000000E+00  0.15417910526E+03  0.11117524407E+04  0.11010096698E+04 0.  0.
        3    1    3    3  502    0  0.34939490539E+03  0.11561154430E+03 -0.33631043883E+03  0.49854543479E+03  0.10100000352E+00 0.  1.
       -3    1    3    3    0  502 -0.34939490539E+03 -0.11561154430E+03  0.49048954409E+03  0.61320700595E+03  0.10100000352E+00 0. -1.
</event>
<event>
 5   0  0.1479573E-03  0.1096055E+04  0.7818609E-02  0.9209045E-01
        1   -1    0    0  501    0  0.00000000000E+00  0.00000000000E+00  0.64921348530E+03  0.64921348532E+03  0.50400001928E-02 0. -1.
       -1   -1    0    0    0  501  0.00000000000E+00  0.00000000000E+00 -0.46261245868E+03  0.46261245871E+03  0.50400001928E-02 0.  1.
    10030    2    1    2    0    0  0.00000000000E+00  0.00000000000E+00  0.18660102662E+03  0.11118259440E+04  0.10960551933E+04 0.  0.
        4    1    3    3  502    0  0.44901036738E+03  0.28089453885E+03  0.23611181539E+03  0.57988141394E+03  0.12699999809E+01 0. -1.
       -4    1    3    3    0  502 -0.44901036738E+03 -0.28089453885E+03 -0.49510788767E+02  0.53194453008E+03  0.12699999809E+01 0.  1.
</event>
<event>
 5   0  0.1415400E-03  0.1096102E+04  0.7818609E-02  0.9208999E-01
       -1   -1    0    0    0  501  0.00000000000E+00  0.00000000000E+00  0.16576884647E+04  0.16576884647E+04  0.50400001928E-02 0. -1.
        1   -1    0    0  501    0  0.00000000000E+00  0.00000000000E+00 -0.18119203913E+03  0.18119203920E+03  0.50400001928E-02 0.  1.
    10030    2    1    2    0    0  0.00000000000E+00  0.00000000000E+00  0.14764964256E+04  0.18388805039E+04  0.10961020997E+04 0.  0.
        2    1    3    3  502    0  0.41084448384E+03 -0.29998075854E+03  0.39616173786E+03  0.64476799544E+03  0.25500000920E-02 0.  1.
       -2    1    3    3    0  502 -0.41084448384E+03  0.29998075854E+03  0.10803346877E+04  0.11941125085E+04  0.25500000920E-02 0. -1.
</event>
<event>
 5   0  0.2467448E-03  0.1104604E+04  0.7818609E-02  0.9200716E-01
        2   -1    0    0  501    0  0.00000000000E+00  0.00000000000E+00  0.52518627938E+03  0.52518627939E+03  0.25500000920E-02 0.  1.
       -2   -1    0    0    0  501  0.00000000000E+00  0.00000000000E+00 -0.58081818528E+03  0.58081818529E+03  0.25500000920E-02 0. -1.
    10030    2    1    2    0    0  0.00000000000E+00  0.00000000000E+00 -0.55631905901E+02  0.11060044647E+04  0.11046044391E+04 0.  0.
        1    1    3    3  502    0 -0.26595808392E+03 -0.32807439564E+02  0.45573269252E+03  0.52867978735E+03  0.50400001928E-02 0.  1.
       -1    1    3    3    0  502  0.26595808392E+03  0.32807439564E+02 -0.51136459842E+03  0.57732467732E+03  0.50400001928E-02 0. -1.
</event>
<event>
 5   0  0.2488472E-03  0.1172953E+04  0.7818609E-02  0.9136866E-01
        2   -1    0    0  501    0  0.00000000000E+00  0.00000000000E+00  0.20280732969E+04  0.20280732969E+04  0.25500000920E-02 0.  1.
       -2   -1    0    0    0  501  0.00000000000E+00  0.00000000000E+00 -0.16959666446E+03  0.16959666447E+03  0.25500000920E-02 0. -1.
    10030    2    1    2    0    0  0.00000000000E+00  0.00000000000E+00  0.18584766324E+04  0.21976699613E+04  0.11729526272E+04 0.  0.
        2    1    3    3  502    0  0.19074757475E+03  0.40699320474E+03  0.22338650620E+03  0.50192592794E+03  0.25500000920E-02 0. -1.
       -2    1    3    3    0  502 -0.19074757475E+03 -0.40699320474E+03  0.16350901262E+04  0.16957440334E+04  0.25500000920E-02 0.  1.
</event>
<event>
 5   0  0.2483036E-03  0.1079141E+04  0.7818609E-02  0.9225765E-01
       -2   -1    0    0    0  501  0.00000000000E+00  0.00000000000E+00  0.17157503706E+03  0.17157503708E+03  0.25500000920E-02 0.  1.
        2   -1    0    0  501    0  0.00000000000E+00  0.00000000000E+00 -0.16968447767E+04  0.16968447767E+04  0.25500000920E-02 0. -1.
    10030    2    1    2    0    0  0.00000000000E+00  0.00000000000E+00 -0.15252697396E+04  0.18684198137E+04  0.10791407794E+04 0.  0.
        3    1    3    3  502    0 -0.46674083529E+03  0.67694312064E+02 -0.30880215013E+03  0.56372715505E+03  0.10100000352E+00 0.  1.
       -3    1    3    3    0  502  0.46674083529E+03 -0.67694312064E+02 -0.12164675895E+04  0.13046926587E+04  0.10100000352E+00 0. -1.
</event>
<event>
 5   0  0.2392585E-03  0.1104376E+04  0.7818609E-02  0.9200938E-01
        2   -1    0    0  501    0  0.00000000000E+00  0.00000000000E+00  0.76156921967E+03  0.76156921967E+03  0.25500000920E-02 0.  1.
       -2   -1    0    0    0  501  0.00000000000E+00  0.00000000000E+00 -0.40037248235E+03  0.40037248236E+03  0.25500000920E-02 0. -1.
    10030    2    1    2    0    0  0.00000000000E+00  0.00000000000E+00  0.36119673732E+03  0.11619417020E+04  0.11043755864E+04 0.  0.
        5    1    3    3  502    0 -0.34894213571E+03 -0.14558691032E+03  0.60398326873E+03  0.71258265587E+03  0.46999998093E+01 0.  1.
       -5    1    3    3    0  502  0.34894213571E+03  0.14558691032E+03 -0.24278653141E+03  0.44935904616E+03  0.46999998093E+01 0. -1.
</event>
<event>
 5   0  0.1468556E-03  0.1097514E+04  0.7818609E-02  0.9207618E-01
       -1   -1    0    0    0  501  0.00000000000E+00  0.00000000000E+00  0.27203049201E+03  0.27203049205E+03  0.50400001928E-02 0.  1.
        1   -1    0    0  501    0  0.00000000000E+00  0.00000000000E+00 -0.11069867822E+04  0.11069867822E+04  0.50400001928E-02 0. -1.
    10030    2    1    2    0    0  0.00000000000E+00  0.00000000000E+00 -0.83495629016E+03  0.13790172742E+04  0.10975138433E+04 0.  0.
        5    1    3    3  502    0  0.32709711502E+03 -0.42625645178E+03 -0.27742024408E+03  0.60470750546E+03  0.46999998093E+01 0.  1.
       -5    1    3    3    0  502 -0.32709711502E+03  0.42625645178E+03 -0.55753604608E+03  0.77430976877E+03  0.46999998093E+01 0. -1.
</event>
<event>
 5   0  0.1415400E-03  0.1095247E+04  0.7818609E-02  0.9209837E-01
        1   -1    0    0  501    0  0.00000000000E+00  0.00000000000E+00  0.14440147900E+04  0.14440147900E+04  0.50400001928E-02 0.  1.
       -1   -1    0    0    0  501  0.00000000000E+00  0.00000000000E+00 -0.20767895929E+03  0.20767895935E+03  0.50400001928E-02 0. -1.
    10030    2    1    2    0    0  0.00000000000E+00  0.00000000000E+00  0.12363358307E+04  0.16516937493E+04  0.10952469837E+04 0.  0.
        2    1    3    3  502    0 -0.93015797251E+02 -0.21697938769E+03  0.13633360396E+04  0.13836246420E+04  0.25500000920E-02 0.  1.
       -2    1    3    3    0  502  0.93015797251E+02  0.21697938769E+03 -0.12700020890E+03  0.26806910730E+03  0.25500000920E-02 0. -1.
</event>
<event>
 5   0  0.1468556E-03  0.1102629E+04  0.7818609E-02  0.9202633E-01
        1   -1    0    0  501    0  0.00000000000E+00  0.00000000000E+00  0.21219988450E+03  0.21219988456E+03  0.50400001928E-02 0.  1.
       -1   -1    0    0    0  501  0.00000000000E+00  0.00000000000E+00 -0.14323649670E+04  0.14323649670E+04  0.50400001928E-02 0. -1.
    10030    2    1    2    0    0  0.00000000000E+00  0.00000000000E+00 -0.12201650825E+04  0.16445648516E+04  0.11026290049E+04 0.  0.
        5    1    3    3  502    0 -0.37541675435E+03  0.13659187007E+03 -0.11767139812E+04  0.12426877975E+04  0.46999998093E+01 0. -1.
       -5    1    3    3    0  502  0.37541675435E+03 -0.13659187007E+03 -0.43451101292E+02  0.40187705411E+03  0.46999998093E+01 0.  1.
</event>
<event>
 5   0  0.2488472E-03  0.1109146E+04  0.7818609E-02  0.9196323E-01
        2   -1    0    0  501    0  0.00000000000E+00  0.00000000000E+00  0.20492955248E+03  0.20492955250E+03  0.25500000920E-02 0.  1.
       -2   -1    0    0    0  501  0.00000000000E+00  0.00000000000E+00 -0.15007664717E+04  0.15007664717E+04  0.25500000920E-02 0. -1.
    10030    2    1    2    0    0  0.00000000000E+00  0.00000000000E+00 -0.12958369192E+04  0.17056960242E+04  0.11091463410E+04 0.  0.
        2    1    3    3  502    0 -0.45400180696E+03 -0.14845788696E+03 -0.21460051646E+03  0.52365137887E+03  0.25500000920E-02 0. -1.
       -2    1    3    3    0  502  0.45400180696E+03  0.14845788696E+03 -0.10812364027E+04  0.11820446453E+04  0.25500000920E-02 0.  1.
</event>
<event>
 5   0  0.2467448E-03  0.1105427E+04  0.7818609E-02  0.9199919E-01
        2   -1    0    0  501    0  0.00000000000E+00  0.00000000000E+00  0.45613673016E+03  0.45613673017E+03  0.25500000920E-02 0.  1.
       -2   -1    0    0    0  501  0.00000000000E+00  0.00000000000E+00 -0.66973802594E+03  0.66973802594E+03  0.25500000920E-02 0. -1.
    10030    2    1    2    0    0  0.00000000000E+00  0.00000000000E+00 -0.21360129578E+03  0.11258747561E+04  0.11054268193E+04 0.  0.
        1    1    3    3  502    0 -0.17254463817E+03  0.47398791603E+03  0.12333459041E+03  0.51927605175E+03  0.50400001928E-02 0.  1.
       -1    1    3    3    0  502  0.17254463817E+03 -0.47398791603E+03 -0.33693588619E+03  0.60659870436E+03  0.50400001928E-02 0. -1.
</event>
<event>
 5   0  0.2467448E-03  0.1100063E+04  0.7818609E-02  0.9205131E-01
        2   -1    0    0  501    0  0.00000000000E+00  0.00000000000E+00  0.17567682571E+04  0.17567682571E+04  0.25500000920E-02 0. -1.
       -2   -1    0    0    0  501  0.00000000000E+00  0.00000000000E+00 -0.17221075555E+03  0.17221075557E+03  0.25500000920E-02 0.  1.
    10030    2    1    2    0    0  0.00000000000E+00  0.00000000000E+00  0.15845575015E+04  0.19289790126E+04  0.11000625235E+04 0.  0.
        1    1    3    3  502    0  0.45193606387E+03 -0.31314815230E+03  0.76589324816E+03  0.94281516679E+03  0.50400001928E-02 0. -1.
       -1    1    3    3    0  502 -0.45193606387E+03  0.31314815230E+03  0.81866425334E+03  0.98616384584E+03  0.50400001928E-02 0.  1.
</event>
<event>
 5   0  0.2483036E-03  0.1098140E+04  0.7818609E-02  0.9207006E-01
       -2   -1    0    0    0  501  0.00000000000E+00  0.00000000000E+00  0.34489074940E+03  0.34489074941E+03  0.25500000920E-02 0. -1.
        2   -1    0    0  501    0  0.00000000000E+00  0.00000000000E+00 -0.87412623145E+03  0.87412623146E+03  0.25500000920E-02 0.  1.
    10030    2    1    2    0    0  0.00000000000E+00  0.00000000000E+00 -0.52923548205E+03  0.12190169809E+04  0.10981403390E+04 0.  0.
        3    1    3    3  502    0 -0.15918910042E+03 -0.33602376012E+01  0.31870006104E+03  0.35626142087E+03  0.10100000352E+00 0. -1.
       -3    1    3    3    0  502  0.15918910042E+03  0.33602376012E+01 -0.84793554309E+03  0.86275556001E+03  0.10100000352E+00 0.  1.
</event>
<event>
 5   0  0.1479573E-03  0.1103446E+04  0.7818609E-02  0.9201839E-01
       -1   -1    0    0    0  501  0.00000000000E+00  0.00000000000E+00  0.53909500037E+03  0.53909500039E+03  0.50400001928E-02 0. -1.
        1   -1    0    0  501    0  0.00000000000E+00  0.00000000000E+00 -0.56464721517E+03  0.56464721519E+03  0.50400001928E-02 0.  1.
    10030    2    1    2    0    0  0.00000000000E+00  0.00000000000E+00 -0.25552214799E+02  0.11037422156E+04  0.11034464023E+04 0.  0.
        4    1    3    3  502    0  0.54817911913E+03  0.17190474495E+02 -0.72800683335E+02  0.55326070840E+03  0.12699999809E+01 0.  1.
       -4    1    3    3    0  502 -0.54817911913E+03 -0.17190474495E+02  0.47248468537E+02  0.55048150718E+03  0.12699999809E+01 0. -1.
</event>
<event>
 5   0  0.2483036E-03  0.1100847E+04  0.7818609E-02  0.9204367E-01
       -2   -1    0    0    0  501  0.00000000000E+00  0.00000000000E+00  0.46019814308E+03  0.46019814309E+03  0.25500000920E-02 0. -1.
        2   -1    0    0  501    0  0.00000000000E+00  0.00000000000E+00 -0.65833774687E+03  0.65833774688E+03  0.25500000920E-02 0.  1.
    10030    2    1    2    0    0  0.00000000000E+00  0.00000000000E+00 -0.19813960379E+03  0.11185358900E+04  0.11008465990E+04 0.  0.
        3    1    3    3  502    0 -0.22732029108E+03  0.38161302299E+03  0.23121161883E+03  0.50076125742E+03  0.10100000352E+00 0. -1.
       -3    1    3    3    0  502  0.22732029108E+03 -0.38161302299E+03 -0.42935122262E+03  0.61777463255E+03  0.10100000352E+00 0.  1.
</event>
<event>
 5   0  0.1415400E-03  0.1091353E+04  0.7818609E-02  0.9213661E-01
       -1   -1    0    0    0  501  0.00000000000E+00  0.00000000000E+00  0.31315414771E+03  0.31315414775E+03  0.50400001928E-02 0.  1.
        1   -1    0    0  501    0  0.00000000000E+00  0.00000000000E+00 -0.95085042334E+03  0.95085042335E+03  0.50400001928E-02 0. -1.
    10030    2    1    2    0    0  0.00000000000E+00  0.00000000000E+00 -0.63769627563E+03  0.12640045711E+04  0.10913528374E+04 0.  0.
        2    1    3    3  502    0  0.41686612864E+03 -0.19843837997E+03 -0.65573814985E+03  0.80196488765E+03  0.25500000920E-02 0. -1.
       -2    1    3    3    0  502 -0.41686612864E+03  0.19843837997E+03  0.18041874216E+02  0.46203968345E+03  0.25500000920E-02 0.  1.
</event>
<event>
 5   0  0.2392585E-03  0.1097750E+04  0.7818609E-02  0.9207387E-01
       -2   -1    0    0    0  501  0.00000000000E+00  0.00000000000E+00  0.22638028193E+03  0.22638028195E+03  0.25500000920E-02 0.  1.
        2   -1    0    0  501    0  0.00000000000E+00  0.00000000000E+00 -0.13307872044E+04  0.13307872044E+04  0.25500000920E-02 0. -1.
    10030    2    1    2    0    0  0.00000000000E+00  0.00000000000E+00 -0.11044069225E+04  0.15571674864E+04  0.10977503952E+04 0.  0.
        5    1    3    3  502    0 -0.13445949505E+03 -0.53197053851E+03 -0.53371475340E+03  0.76547079477E+03  0.46999998093E+01 0. -1.
       -5    1    3    3    0  502  0.13445949505E+03  0.53197053851E+03 -0.57069216910E+03  0.79169669162E+03  0.46999998093E+01 0.  1.
</event>
<event>
 5   0  0.2483036E-03  0.1101026E+04  0.7818609E-02  0.9204193E-01
       -2   -1    0    0    0  501  0.00000000000E+00  0.00000000000E+00  0.26992588000E+03  0.26992588001E+03  0.25500000920E-02 0.  1.
        2   -1    0    0  501    0  0.00000000000E+00  0.00000000000E+00 -0.11227689440E+04  0.11227689440E+04  0.25500000920E-02 0. -1.
    10030    2    1    2    0    0  0.00000000000E+00  0.00000000000E+00 -0.85284306396E+03  0.13926948240E+04  0.11010256950E+04 0.  0.
        3    1    3    3  502    0  0.79588840112E+02  0.11092459908E+03 -0.11010162736E+04  0.11094482841E+04  0.10100000352E+00 0. -1.
       -3    1    3    3    0  502 -0.79588840112E+02 -0.11092459908E+03  0.24817320966E+03  0.28324653986E+03  0.10100000352E+00 0.  1.
</event>
<event>
 5   0  0.1415400E-03  0.1102622E+04  0.7818609E-02  0.9202640E-01
       -1   -1    0    0    0  501  0.00000000000E+00  0.00000000000E+00  0.19921925044E+03  0.19921925050E+03  0.50400001928E-02 0. -1.
        1   -1    0    0  501    0  0.00000000000E+00  0.00000000000E+00 -0.15256758691E+04  0.15256758691E+04  0.50400001928E-02 0.  1.
    10030    2    1    2    0    0  0.00000000000E+00  0.00000000000E+00 -0.13264566187E+04  0.17248951196E+04  0.11026223345E+04 0.  0.
        2    1    3    3  502    0  0.27003342801E+03 -0.25741894426E+03 -0.12982136439E+04  0.13507557996E+04  0.25500000920E-02 0. -1.
       -2    1    3    3    0  502 -0.27003342801E+03  0.25741894426E+03 -0.28242974774E+02  0.37413931996E+03  0.25500000920E-02 0.  1.
</event>
<event>
 5   0  0.1415400E-03  0.1098945E+04  0.7818609E-02  0.9206221E-01
        1   -1    0    0  501    0  0.00000000000E+00  0.00000000000E+00  0.16733041234E+04  0.16733041234E+04  0.50400001928E-02 0.  1.
       -1   -1    0    0    0  501  0.00000000000E+00  0.00000000000E+00 -0.18043339208E+03  0.18043339215E+03  0.50400001928E-02 0. -1.
    10030    2    1    2    0    0  0.00000000000E+00  0.00000000000E+00  0.14928707313E+04  0.18537375156E+04  0.10989448376E+04 0.  0.
        2    1    3    3  502    0  0.49189546800E+02  0.98528878807E+01 -0.17656229376E+03  0.18355090438E+03  0.25500000920E-02 0. -1.
       -2    1    3    3    0  502 -0.49189546800E+02 -0.98528878807E+01  0.16694330251E+04  0.16701866112E+04  0.25500000920E-02 0.  1.
</event>
<event>
 5   0  0.1468556E-03  0.1094878E+04  0.7818609E-02  0.9210199E-01
        1   -1    0    0  501    0  0.00000000000E+00  0.00000000000E+00  0.10593737145E+04  0.10593737145E+04  0.50400001928E-02 0. -1.
       -1   -1    0    0    0  501  0.00000000000E+00  0.00000000000E+00 -0.28289281584E+03  0.28289281588E+03  0.50400001928E-02 0.  1.
    10030    2    1    2    0    0  0.00000000000E+00  0.00000000000E+00  0.77648089864E+03  0.13422665304E+04  0.10948775514E+04 0.  0.
        5    1    3    3  502    0  0.35550271026E+03  0.32537482051E+03  0.70655409398E+03  0.85527289712E+03  0.46999998093E+01 0.  1.
       -5    1    3    3    0  502 -0.35550271026E+03 -0.32537482051E+03  0.69926804655E+02  0.48699363325E+03  0.46999998093E+01 0. -1.
</event>
<event>
 5   0  0.2488472E-03  0.1164134E+04  0.7818609E-02  0.9144843E-01
        2   -1    0    0  501    0  0.00000000000E+00  0.00000000000E+00  0.87648908379E+03  0.87648908379E+03  0.25500000920E-02 0.  1.
       -2   -1    0    0    0  501  0.00000000000E+00  0.00000000000E+00 -0.38654424053E+03  0.38654424054E+03  0.25500000920E-02 0. -1.
    10030    2    1    2    0    0  0.00000000000E+00  0.00000000000E+00  0.48994484326E+03  0.12630333243E+04  0.11641336817E+04 0.  0.
        2    1    3    3  502    0  0.53606618391E+02 -0.45350506103E+03 -0.14660681379E+03  0.47961866912E+03  0.25500000920E-02 0. -1.
       -2    1    3    3    0  502 -0.53606618391E+02  0.45350506103E+03  0.63655165704E+03  0.78341465521E+03  0.25500000920E-02 0.  1.
</event>
<event>
 5   0  0.2488472E-03  0.1103077E+04  0.7818609E-02  0.9202198E-01
        2   -1    0    0  501    0  0.00000000000E+00  0.00000000000E+00  0.49422625475E+03  0.49422625475E+03  0.25500000920E-02 0. -1.
       -2   -1    0    0    0  501  0.00000000000E+00  0.00000000000E+00 -0.61549643172E+03  0.61549643173E+03  0.25500000920E-02 0.  1.
    10030    2    1    2    0    0  0.00000000000E+00  0.00000000000E+00 -0.12127017697E+03  0.11097226865E+04  0.11030765998E+04 0.  0.
        2    1    3    3  502    0  0.33532697958E+03  0.33142140067E+03  0.22728880182E+03  0.52339710307E+03  0.25500000920E-02 0. -1.
       -2    1    3    3    0  502 -0.33532697958E+03 -0.33142140067E+03 -0.34855897879E+03  0.58632558341E+03  0.25500000920E-02 0.  1.
</event>
<event>
 5   0  0.1509004E-03  0.1110216E+04  0.7818609E-02  0.9195291E-01
        1   -1    0    0  501    0  0.00000000000E+00  0.00000000000E+00  0.17256140583E+04  0.17256140583E+04  0.50400001928E-02 0. -1.
       -1   -1    0    0    0  501  0.00000000000E+00  0.00000000000E+00 -0.17857129277E+03  0.17857129284E+03  0.50400001928E-02 0.  1.
    10030    2    1    2    0    0  0.00000000000E+00  0.00000000000E+00  0.15470427655E+04  0.19041853511E+04  0.11102164353E+04 0.  0.
        3    1    3    3  502    0 -0.19112333475E+03  0.46536659189E+03  0.11759454020E+04  0.12790394023E+04  0.10100000352E+00 0. -1.
       -3    1    3    3    0  502  0.19112333475E+03 -0.46536659189E+03  0.37109736350E+03  0.62514594883E+03  0.10100000352E+00 0.  1.
</event>
<event>
 5   0  0.2438115E-03  0.1093387E+04  0.7818609E-02  0.9211662E-01
       -2   -1    0    0    0  501  0.00000000000E+00  0.00000000000E+00  0.38561768653E+03  0.38561768653E+03  0.25500000920E-02 0.  1.
        2   -1    0    0  501    0  0.00000000000E+00  0.00000000000E+00 -0.77505139109E+03  0.77505139109E+03  0.25500000920E-02 0. -1.
    10030    2    1    2    0    0  0.00000000000E+00  0.00000000000E+00 -0.38943370456E+03  0.11606690776E+04  0.10933865270E+04 0.  0.
        4    1    3    3  502    0  0.50477632657E+03 -0.12299260005E+03 -0.37532024886E+03  0.64093152648E+03  0.12699999809E+01 0. -1.
       -4    1    3    3    0  502 -0.50477632657E+03  0.12299260005E+03 -0.14113455697E+02  0.51973755114E+03  0.12699999809E+01 0.  1.
</event>
<event>
 5   0  0.1480937E-03  0.1107627E+04  0.7818609E-02  0.9197790E-01
        1   -1    0    0  501    0  0.00000000000E+00  0.00000000000E+00  0.46118874902E+03  0.46118874904E+03  0.50400001928E-02 0.  1.
       -1   -1    0    0    0  501  0.00000000000E+00  0.00000000000E+00 -0.66504112831E+03  0.66504112833E+03  0.50400001928E-02 0. -1.
    10030    2    1    2    0    0  0.00000000000E+00  0.00000000000E+00 -0.20385237930E+03  0.11262298774E+04  0.11076271684E+04 0.  0.
        1    1    3    3  502    0  0.33690489275E+03  0.42389491357E+03  0.16292066685E+02  0.54171693344E+03  0.50400001928E-02 0.  1.
       -1    1    3    3    0  502 -0.33690489275E+03 -0.42389491357E+03 -0.22014444598E+03  0.58451294394E+03  0.50400001928E-02 0. -1.
</event>
<event>
 5   0  0.2488472E-03  0.1099563E+04  0.7818609E-02  0.9205618E-01
        2   -1    0    0  501    0  0.00000000000E+00  0.00000000000E+00  0.82136380331E+03  0.82136380332E+03  0.25500000920E-02 0.  1.
       -2   -1    0    0    0  501  0.00000000000E+00  0.00000000000E+00 -0.36799717355E+03  0.36799717356E+03  0.25500000920E-02 0. -1.
    10030    2    1    2    0    0  0.00000000000E+00  0.00000000000E+00  0.45336662977E+03  0.11893609769E+04  0.10995627460E+04 0.  0.
        2    1    3    3  502    0  0.38824291894E+03  0.32823135306E+03  0.32994928005E+00  0.50839796825E+03  0.25500000920E-02 0. -1.
       -2    1    3    3    0  502 -0.38824291894E+03 -0.32823135306E+03  0.45303668049E+03  0.68096300863E+03  0.25500000920E-02 0.  1.
</event>
<event>
 5   0  0.1509004E-03  0.1118821E+04  0.7818609E-02  0.9187039E-01
        1   -1    0    0  501    0  0.00000000000E+00  0.00000000000E+00  0.55824006725E+03  0.55824006727E+03  0.50400001928E-02 0.  1.
       -1   -1    0    0    0  501  0.00000000000E+00  0.00000000000E+00 -0.56058373238E+03  0.56058373240E+03  0.50400001928E-02 0. -1.
    10030    2    1    2    0    0  0.00000000000E+00  0.00000000000E+00 -0.23436651336E+01  0.11188237997E+04  0.11188213450E+04 0.  0.
        3    1    3    3  502    0  0.37748289653E+03 -0.13367633782E+03  0.38944083919E+03  0.55859366081E+03  0.10100000352E+00 0.  1.
       -3    1    3    3    0  502 -0.37748289653E+03  0.13367633782E+03 -0.39178450432E+03  0.56023013887E+03  0.10100000352E+00 0. -1.
</event>
<event>
 5   0  0.2467448E-03  0.1092911E+04  0.7818609E-02  0.9212129E-01
        2   -1    0    0  501    0  0.00000000000E+00  0.00000000000E+00  0.37330887875E+03  0.37330887876E+03  0.25500000920E-02 0. -1.
       -2   -1    0    0    0  501  0.00000000000E+00  0.00000000000E+00 -0.79991001403E+03  0.79991001404E+03  0.25500000920E-02 0.  1.
    10030    2    1    2    0    0  0.00000000000E+00  0.00000000000E+00 -0.42660113528E+03  0.11732188928E+04  0.10929108115E+04 0.  0.
        1    1    3    3  502    0  0.30809523697E+03  0.15222860851E+03  0.24279276510E+03  0.42076662309E+03  0.50400001928E-02 0. -1.
       -1    1    3    3    0  502 -0.30809523697E+03 -0.15222860851E+03 -0.66939390038E+03  0.75245226971E+03  0.50400001928E-02 0.  1.
</event>
<event>
 5   0  0.2392585E-03  0.1114962E+04  0.7818609E-02  0.9190730E-01
        2   -1    0    0  501    0  0.00000000000E+00  0.00000000000E+00  0.11445272028E+04  0.11445272028E+04  0.25500000920E-02 0. -1.
       -2   -1    0    0    0  501  0.00000000000E+00  0.00000000000E+00 -0.27154014895E+03  0.27154014896E+03  0.25500000920E-02 0.  1.
    10030    2    1    2    0    0  0.00000000000E+00  0.00000000000E+00  0.87298705389E+03  0.14160673518E+04  0.11149620391E+04 0.  0.
        5    1    3    3  502    0  0.14064504915E+02 -0.12558821933E+02  0.11440969184E+04  0.11442619381E+04  0.46999998093E+01 0. -1.
       -5    1    3    3    0  502 -0.14064504915E+02  0.12558821933E+02 -0.27110986449E+03  0.27180541372E+03  0.46999998093E+01 0.  1.
</event>
<event>
 5   0  0.1480937E-03  0.1072563E+04  0.7818609E-02  0.9232354E-01
       -1   -1    0    0    0  501  0.00000000000E+00  0.00000000000E+00  0.18234650806E+03  0.18234650813E+03  0.50400001928E-02 0. -1.
        1   -1    0    0  501    0  0.00000000000E+00  0.00000000000E+00 -0.15772062710E+04  0.15772062710E+04  0.50400001928E-02 0.  1.
    10030    2    1    2    0    0  0.00000000000E+00  0.00000000000E+00 -0.13948597629E+04  0.17595527791E+04  0.10725633894E+04 0.  0.
        1    1    3    3  502    0 -0.28768385556E+03  0.19687706408E+03 -0.13659770961E+04  0.14097574281E+04  0.50400001928E-02 0.  1.
       -1    1    3    3    0  502  0.28768385556E+03 -0.19687706408E+03 -0.28882666852E+02  0.34979535100E+03  0.50400001928E-02 0. -1.
</event>
<event>
 5   0  0.1415400E-03  0.1094708E+04  0.7818609E-02  0.9210365E-01
       -1   -1    0    0    0  501  0.00000000000E+00  0.00000000000E+00  0.19731925155E+03  0.19731925162E+03  0.50400001928E-02 0. -1.
        1   -1    0    0  501    0  0.00000000000E+00  0.00000000000E+00 -0.15183340982E+04  0.15183340982E+04  0.50400001928E-02 0.  1.
    10030    2    1    2    0    0  0.00000000000E+00  0.00000000000E+00 -0.13210148466E+04  0.17156533498E+04  0.10947082679E+04 0.  0.
        2    1    3    3  502    0  0.20578239128E+03 -0.16662607398E+03  0.90266455944E+02  0.27974751860E+03  0.25500000920E-02 0. -1.
       -2    1    3    3    0  502 -0.20578239128E+03  0.16662607398E+03 -0.14112813026E+04  0.14359058312E+04  0.25500000920E-02 0.  1.
</event>
<event>
 5   0  0.1479573E-03  0.1098593E+04  0.7818609E-02  0.9206564E-01
        1   -1    0    0  501    0  0.00000000000E+00  0.00000000000E+00  0.15083118567E+04  0.15083118567E+04  0.50400001928E-02 0.  1.
       -1   -1    0    0    0  501  0.00000000000E+00  0.00000000000E+00 -0.20004270066E+03  0.20004270073E+03  0.50400001928E-02 0. -1.
    10030    2    1    2    0    0  0.00000000000E+00  0.00000000000E+00  0.13082691560E+04  0.17083545574E+04  0.10985932410E+04 0.  0.
        4    1    3    3  502    0 -0.47372053319E+03 -0.27351491101E+03  0.57632647993E+03  0.79459132545E+03  0.12699999809E+01 0. -1.
       -4    1    3    3    0  502  0.47372053319E+03  0.27351491101E+03  0.73194267610E+03  0.91376323198E+03  0.12699999809E+01 0.  1.
</event>
<event>
 5   0  0.2488472E-03  0.1091005E+04  0.7818609E-02  0.9214004E-01
        2   -1    0    0  501    0  0.00000000000E+00  0.00000000000E+00  0.12543379013E+04  0.12543379013E+04  0.25500000920E-02 0. -1.
       -2   -1    0    0    0  501  0.00000000000E+00  0.00000000000E+00 -0.23723494410E+03  0.23723494412E+03  0.25500000920E-02 0.  1.
    10030    2    1    2    0    0  0.00000000000E+00  0.00000000000E+00  0.10171029572E+04  0.14915728454E+04  0.10910046414E+04 0.  0.
        2    1    3    3  502    0 -0.15733851673E+03 -0.27435230551E+03  0.11162027244E+04  0.11601435766E+04  0.25500000920E-02 0. -1.
       -2    1    3    3    0  502  0.15733851673E+03  0.27435230551E+03 -0.99099767174E+02  0.33142926884E+03  0.25500000920E-02 0.  1.
</event>
<event>
 5   0  0.2488472E-03  0.1100006E+04  0.7818609E-02  0.9205186E-01
       -2   -1    0    0    0  501  0.00000000000E+00  0.00000000000E+00  0.27889551881E+03  0.27889551882E+03  0.25500000920E-02 0.  1.
        2   -1    0    0  501    0  0.00000000000E+00  0.00000000000E+00 -0.10846470881E+04  0.10846470881E+04  0.25500000920E-02 0. -1.
    10030    2    1    2    0    0  0.00000000000E+00  0.00000000000E+00 -0.80575156931E+03  0.13635426069E+04  0.11000058407E+04 0.  0.
        2    1    3    3  502    0 -0.19801148459E+03 -0.40985622175E+03 -0.78556722430E+03  0.90791328575E+03  0.25500000920E-02 0. -1.
       -2    1    3    3    0  502  0.19801148459E+03  0.40985622175E+03 -0.20184345013E+02  0.45562932119E+03  0.25500000920E-02 0.  1.
</event>
<event>
 5   0  0.2438115E-03  0.1101613E+04  0.7818609E-02  0.9203621E-01
       -2   -1    0    0    0  501  0.00000000000E+00  0.00000000000E+00  0.92014841791E+03  0.92014841791E+03  0.25500000920E-02 0.  1.
        2   -1    0    0  501    0  0.00000000000E+00  0.00000000000E+00 -0.32971605484E+03  0.32971605485E+03  0.25500000920E-02 0. -1.
    10030    2    1    2    0    0  0.00000000000E+00  0.00000000000E+00  0.59043236307E+03  0.12498644728E+04  0.11016128289E+04 0.  0.
        4    1    3    3  502    0  0.28718644396E+02  0.54293606745E+03  0.39530206788E+03  0.67221251970E+03  0.12699999809E+01 0. -1.
       -4    1    3    3    0  502 -0.28718644396E+02 -0.54293606745E+03  0.19513029519E+03  0.57765195306E+03  0.12699999809E+01 0.  1.
</event>
<event>
 5   0  0.2392585E-03  0.1100668E+04  0.7818609E-02  0.9204541E-01
        2   -1    0    0  501    0  0.00000000000E+00  0.00000000000E+00  0.22059027302E+04  0.22059027302E+04  0.25500000920E-02 0.  1.
       -2   -1    0    0    0  501  0.00000000000E+00  0.00000000000E+00 -0.13729856972E+03  0.13729856974E+03  0.25500000920E-02 0. -1.
    10030    2    1    2    0    0  0.00000000000E+00  0.00000000000E+00  0.20686041605E+04  0.23432013000E+04  0.11006675971E+04 0.  0.
        5    1    3    3  502    0  0.14416914366E+03 -0.17958376378E+03 -0.29739110818E+02  0.23225325596E+03  0.46999998093E+01 0. -1.
       -5    1    3    3    0  502 -0.14416914366E+03  0.17958376378E+03  0.20983432713E+04  0.21109480440E+04  0.46999998093E+01 0.  1.
</event>
<event>
 5   0  0.2488472E-03  0.1086374E+04  0.7818609E-02  0.9218575E-01
        2   -1    0    0  501    0  0.00000000000E+00  0.00000000000E+00  0.24935630131E+04  0.24935630131E+04  0.25500000920E-02 0. -1.
       -2   -1    0    0    0  501  0.00000000000E+00  0.00000000000E+00 -0.11832553959E+03  0.11832553962E+03  0.25500000920E-02 0.  1.
    10030    2    1    2    0    0  0.00000000000E+00  0.00000000000E+00  0.23752374735E+04  0.26118885527E+04  0.10863741327E+04 0.  0.
        2    1    3    3  502    0  0.18778264621E+03 -0.43043199207E+03  0.53131283795E+03  0.70910320391E+03  0.25500000920E-02 0.  1.
       -2    1    3    3    0  502 -0.18778264621E+03  0.43043199207E+03  0.18439246355E+04  0.19027853488E+04  0.25500000920E-02 0. -1.
</event>
<event>
 5   0  0.2467448E-03  0.1110445E+04  0.7818609E-02  0.9195071E-01
        2   -1    0    0  501    0  0.00000000000E+00  0.00000000000E+00  0.14274696556E+04  0.14274696556E+04  0.25500000920E-02 0. -1.
       -2   -1    0    0    0  501  0.00000000000E+00  0.00000000000E+00 -0.21595690028E+03  0.21595690030E+03  0.25500000920E-02 0.  1.
    10030    2    1    2    0    0  0.00000000000E+00  0.00000000000E+00  0.12115127553E+04  0.16434265559E+04  0.11104448155E+04 0.  0.
        1    1    3    3  502    0 -0.47695941901E+03  0.21579884927E+03  0.33201170902E+03  0.61991225643E+03  0.50400001928E-02 0.  1.
       -1    1    3    3    0  502  0.47695941901E+03 -0.21579884927E+03  0.87950104626E+03  0.10235142994E+04  0.50400001928E-02 0. -1.
</event>
<event>
 5   0  0.2438115E-03  0.1112597E+04  0.7818609E-02  0.9193000E-01
        2   -1    0    0  501    0  0.00000000000E+00  0.00000000000E+00  0.11688481517E+04  0.11688481517E+04  0.25500000920E-02 0.  1.
       -2   -1    0    0    0  501  0.00000000000E+00  0.00000000000E+00 -0.26476323854E+03  0.26476323855E+03  0.25500000920E-02 0. -1.
    10030    2    1    2    0    0  0.00000000000E+00  0.00000000000E+00  0.90408491321E+03  0.14336113903E+04  0.11125970017E+04 0.  0.
        4    1    3    3  502    0  0.44840104601E+03  0.96831273872E+01  0.27983610153E+02  0.44937952374E+03  0.12699999809E+01 0. -1.
       -4    1    3    3    0  502 -0.44840104601E+03 -0.96831273872E+01  0.87610130305E+03  0.98423186655E+03  0.12699999809E+01 0.  1.
</event>
<event>
 5   0  0.2438115E-03  0.1096199E+04  0.7818609E-02  0.9208904E-01
        2   -1    0    0  501    0  0.00000000000E+00  0.00000000000E+00  0.46070637624E+03  0.46070637625E+03  0.25500000920E-02 0.  1.
       -2   -1    0    0    0  501  0.00000000000E+00  0.00000000000E+00 -0.65207057789E+03  0.65207057789E+03  0.25500000920E-02 0. -1.
    10030    2    1    2    0    0  0.00000000000E+00  0.00000000000E+00 -0.19136420165E+03  0.11127769541E+04  0.10961990202E+04 0.  0.
        4    1    3    3  502    0 -0.41899503224E+03 -0.10837882166E+03 -0.43708454850E+03  0.61509944030E+03  0.12699999809E+01 0. -1.
       -4    1    3    3    0  502  0.41899503224E+03  0.10837882166E+03  0.24572034685E+03  0.49767751384E+03  0.12699999809E+01 0.  1.
</event>
<event>
 5   0  0.2392585E-03  0.1094949E+04  0.7818609E-02  0.9210129E-01
        2   -1    0    0  501    0  0.00000000000E+00  0.00000000000E+00  0.12832698611E+04  0.12832698611E+04  0.25500000920E-02 0.  1.
       -2   -1    0    0    0  501  0.00000000000E+00  0.00000000000E+00 -0.23356592622E+03  0.23356592624E+03  0.25500000920E-02 0. -1.
    10030    2    1    2    0    0  0.00000000000E+00  0.00000000000E+00  0.10497039349E+04  0.15168357874E+04  0.10949486083E+04 0.  0.
        5    1    3    3  502    0 -0.32319612946E+03  0.13258026457E+03 -0.59070591588E+02  0.35432286045E+03  0.46999998093E+01 0. -1.
       -5    1    3    3    0  502  0.32319612946E+03 -0.13258026457E+03  0.11087745265E+04  0.11625129269E+04  0.46999998093E+01 0.  1.
</event>
<event>
 5   0  0.1415400E-03  0.1097672E+04  0.7818609E-02  0.9207464E-01
        1   -1    0    0  501    0  0.00000000000E+00  0.00000000000E+00  0.11542111446E+04  0.11542111446E+04  0.50400001928E-02 0. -1.
       -1   -1    0    0    0  501  0.00000000000E+00  0.00000000000E+00 -0.26097547714E+03  0.26097547719E+03  0.50400001928E-02 0.  1.
    10030    2    1    2    0    0  0.00000000000E+00  0.00000000000E+00  0.89323566749E+03  0.14151866218E+04  0.10976717255E+04 0.  0.
        2    1    3    3  502    0 -0.13287736849E+03 -0.12665553926E+03 -0.22022213760E+03  0.28669811750E+03  0.25500000920E-02 0.  1.
       -2    1    3    3    0  502  0.13287736849E+03  0.12665553926E+03  0.11134578051E+04  0.11284885043E+04  0.25500000920E-02 0. -1.
</event>
<event>
 5   0  0.2392585E-03  0.1096886E+04  0.7818609E-02  0.9208232E-01
       -2   -1    0    0    0  501  0.00000000000E+00  0.00000000000E+00  0.64751235512E+03  0.64751235513E+03  0.25500000920E-02 0.  1.
        2   -1    0    0  501    0  0.00000000000E+00  0.00000000000E+00 -0.46453152572E+03  0.46453152573E+03  0.25500000920E-02 0. -1.
    10030    2    1    2    0    0  0.00000000000E+00  0.00000000000E+00  0.18298082940E+03  0.11120438809E+04  0.10968863246E+04 0.  0.
        5    1    3    3  502    0  0.44763870796E+03 -0.23971340194E+03 -0.11855580488E+03  0.52145996663E+03  0.46999998093E+01 0. -1.
       -5    1    3    3    0  502 -0.44763870796E+03  0.23971340194E+03  0.30153663427E+03  0.59058391422E+03  0.46999998093E+01 0.  1.
</event>
<event>
 5   0  0.2483036E-03  0.1091659E+04  0.7818609E-02  0.9213359E-01
        2   -1    0    0  501    0  0.00000000000E+00  0.00000000000E+00  0.59228064086E+03  0.59228064086E+03  0.25500000920E-02 0. -1.
       -2   -1    0    0    0  501  0.00000000000E+00  0.00000000000E+00 -0.50302183832E+03  0.50302183833E+03  0.25500000920E-02 0.  1.
    10030    2    1    2    0    0  0.00000000000E+00  0.00000000000E+00  0.89258802538E+02  0.10953024792E+04  0.10916594648E+04 0.  0.
        3    1    3    3  502    0 -0.31353777363E+03  0.24666297754E+03 -0.32914772129E+03  0.51719125342E+03  0.10100000352E+00 0.  1.
       -3    1    3    3    0  502  0.31353777363E+03 -0.24666297754E+03  0.41840652382E+03  0.57811122577E+03  0.10100000352E+00 0. -1.
</event>
<event>
 5   0  0.2392585E-03  0.1095799E+04  0.7818609E-02  0.9209296E-01
       -2   -1    0    0    0  501  0.00000000000E+00  0.00000000000E+00  0.43206737347E+03  0.43206737347E+03  0.25500000920E-02 0.  1.
        2   -1    0    0  501    0  0.00000000000E+00  0.00000000000E+00 -0.69478533451E+03  0.69478533451E+03  0.25500000920E-02 0. -1.
    10030    2    1    2    0    0  0.00000000000E+00  0.00000000000E+00 -0.26271796104E+03  0.11268527080E+04  0.10957993879E+04 0.  0.
        5    1    3    3  502    0 -0.48218336008E+03  0.25375252796E+03 -0.72457114915E+02  0.54969378901E+03  0.46999998093E+01 0. -1.
       -5    1    3    3    0  502  0.48218336008E+03 -0.25375252796E+03 -0.19026084612E+03  0.57715891897E+03  0.46999998093E+01 0.  1.
</event>
<event>
 5   0  0.1479573E-03  0.1104450E+04  0.7818609E-02  0.9200865E-01
        1   -1    0    0  501    0  0.00000000000E+00  0.00000000000E+00  0.83693776686E+03  0.83693776687E+03  0.50400001928E-02 0. -1.
       -1   -1    0    0    0  501  0.00000000000E+00  0.00000000000E+00 -0.36436715403E+03  0.36436715407E+03  0.50400001928E-02 0.  1.
    10030    2    1    2    0    0  0.00000000000E+00  0.00000000000E+00  0.47257061283E+03  0.12013049209E+04  0.11044503289E+04 0.  0.
        4    1    3    3  502    0  0.92348547567E+02  0.23165274154E+03 -0.29962909533E+03  0.38983388074E+03  0.12699999809E+01 0.  1.
       -4    1    3    3    0  502 -0.92348547567E+02 -0.23165274154E+03  0.77219970816E+03  0.81147104020E+03  0.12699999809E+01 0. -1.
</event>
<event>
 5   0  0.1468556E-03  0.1105961E+04  0.7818609E-02  0.9199401E-01
        1   -1    0    0  501    0  0.00000000000E+00  0.00000000000E+00  0.40922170341E+03  0.40922170344E+03  0.50400001928E-02 0. -1.
       -1   -1    0    0    0  501  0.00000000000E+00  0.00000000000E+00 -0.74724146370E+03  0.74724146372E+03  0.50400001928E-02 0.  1.
    10030    2    1    2    0    0  0.00000000000E+00  0.00000000000E+00 -0.33801976029E+03  0.11564631672E+04  0.11059609842E+04 0.  0.
        5    1    3    3  502    0 -0.30099159977E+03  0.78591092322E+02  0.30902291721E+03  0.43850855896E+03  0.46999998093E+01 0. -1.
       -5    1    3    3    0  502  0.30099159977E+03 -0.78591092322E+02 -0.64704267751E+03  0.71795460820E+03  0.46999998093E+01 0.  1.
</event>
<event>
 5   0  0.1468556E-03  0.1104342E+04  0.7818609E-02  0.9200970E-01
       -1   -1    0    0    0  501  0.00000000000E+00  0.00000000000E+00  0.15153552185E+03  0.15153552194E+03  0.50400001928E-02 0. -1.
        1   -1    0    0  501    0  0.00000000000E+00  0.00000000000E+00 -0.20120219829E+04  0.20120219829E+04  0.50400001928E-02 0.  1.
    10030    2    1    2    0    0  0.00000000000E+00  0.00000000000E+00 -0.18604864610E+04  0.21635575048E+04  0.11043419783E+04 0.  0.
        5    1    3    3  502    0  0.17115900903E+03 -0.92081039259E+02 -0.19427521753E+04  0.19524554871E+04  0.46999998093E+01 0.  1.
       -5    1    3    3    0  502 -0.17115900903E+03  0.92081039259E+02  0.82265714295E+02  0.21110201778E+03  0.46999998093E+01 0. -1.
</event>
<event>
 5   0  0.9631750E-04  0.1101314E+04  0.7818609E-02  0.9203912E-01
       -3   -1    0    0    0  501  0.00000000000E+00  0.00000000000E+00  0.86470360506E+03  0.86470361096E+03  0.10100000352E+00 0.  1.
        3   -1    0    0  501    0  0.00000000000E+00  0.00000000000E+00 -0.35066736436E+03  0.35066737891E+03  0.10100000352E+00 0. -1.
    10030    2    1    2    0    0  0.00000000000E+00  0.00000000000E+00  0.51403624070E+03  0.12153709899E+04  0.11013143903E+04 0.  0.
        5    1    3    3  502    0 -0.36592324639E+03 -0.41031298348E+03  0.22309918680E+03  0.59333961929E+03  0.46999998093E+01 0. -1.
       -5    1    3    3    0  502  0.36592324639E+03  0.41031298348E+03  0.29093705390E+03  0.62203137059E+03  0.46999998093E+01 0.  1.
</event>
<event>
 5   0  0.2467448E-03  0.1166576E+04  0.7818609E-02  0.9142626E-01
        2   -1    0    0  501    0  0.00000000000E+00  0.00000000000E+00  0.23848093705E+03  0.23848093706E+03  0.25500000920E-02 0. -1.
       -2   -1    0    0    0  501  0.00000000000E+00  0.00000000000E+00 -0.14266330908E+04  0.14266330908E+04  0.25500000920E-02 0.  1.
    10030    2    1    2    0    0  0.00000000000E+00  0.00000000000E+00 -0.11881521537E+04  0.16651140278E+04  0.11665758378E+04 0.  0.
        1    1    3    3  502    0 -0.41111014329E+03  0.37637767677E+03 -0.83945228828E+03  0.10076466890E+04  0.50400001928E-02 0.  1.
       -1    1    3    3    0  502  0.41111014329E+03 -0.37637767677E+03 -0.34869986545E+03  0.65746733887E+03  0.50400001928E-02 0. -1.
</event>
<event>
 5   0  0.2467448E-03  0.1102323E+04  0.7818609E-02  0.9202931E-01
        2   -1    0    0  501    0  0.00000000000E+00  0.00000000000E+00  0.49963560397E+03  0.49963560398E+03  0.25500000920E-02 0. -1.
       -2   -1    0    0    0  501  0.00000000000E+00  0.00000000000E+00 -0.60800105164E+03  0.60800105165E+03  0.25500000920E-02 0.  1.
    10030    2    1    2    0    0  0.00000000000E+00  0.00000000000E+00 -0.10836544767E+03  0.11076366556E+04  0.11023229521E+04 0.  0.
        1    1    3    3  502    0 -0.81548172958E+02  0.66987659722E+02 -0.59775392898E+03  0.60699852611E+03  0.50400001928E-02 0.  1.
       -1    1    3    3    0  502  0.81548172958E+02 -0.66987659722E+02  0.48938848130E+03  0.50063812951E+03  0.50400001928E-02 0. -1.
</event>
<event>
 5   0  0.1479573E-03  0.1197738E+04  0.7818609E-02  0.9114839E-01
        1   -1    0    0  501    0  0.00000000000E+00  0.00000000000E+00  0.95642621576E+03  0.95642621577E+03  0.50400001928E-02 0.  1.
       -1   -1    0    0    0  501  0.00000000000E+00  0.00000000000E+00 -0.37498339736E+03  0.37498339739E+03  0.50400001928E-02 0. -1.
    10030    2    1    2    0    0  0.00000000000E+00  0.00000000000E+00  0.58144281840E+03  0.13314096132E+04  0.11977377872E+04 0.  0.
        4    1    3    3  502    0 -0.56042398663E+03  0.10053805249E+02  0.52512540955E+03  0.76807189276E+03  0.12699999809E+01 0.  1.
       -4    1    3    3    0  502  0.56042398663E+03 -0.10053805249E+02  0.56317408847E+02  0.56333772040E+03  0.12699999809E+01 0. -1.
</event>
<event>
 5   0  0.2488472E-03  0.1096993E+04  0.7818609E-02  0.9208128E-01
        2   -1    0    0  501    0  0.00000000000E+00  0.00000000000E+00  0.14161230420E+04  0.14161230420E+04  0.25500000920E-02 0.  1.
       -2   -1    0    0    0  501  0.00000000000E+00  0.00000000000E+00 -0.21244494349E+03  0.21244494351E+03  0.25500000920E-02 0. -1.
    10030    2    1    2    0    0  0.00000000000E+00  0.00000000000E+00  0.12036780986E+04  0.16285679856E+04  0.10969925791E+04 0.  0.
        2    1    3    3  502    0  0.17995947582E+03 -0.23944171335E+03 -0.80307399066E+02  0.31010808661E+03  0.25500000920E-02 0. -1.
       -2    1    3    3    0  502 -0.17995947582E+03  0.23944171335E+03  0.12839854976E+04  0.13184598989E+04  0.25500000920E-02 0.  1.
</event>
<event>
 5   0  0.9631750E-04  0.1100498E+04  0.7818609E-02  0.9204706E-01
       -3   -1    0    0    0  501  0.00000000000E+00  0.00000000000E+00  0.85909419338E+03  0.85909419931E+03  0.10100000352E+00 0.  1.
        3   -1    0    0  501    0  0.00000000000E+00  0.00000000000E+00 -0.35243415959E+03  0.35243417406E+03  0.10100000352E+00 0. -1.
    10030    2    1    2    0    0  0.00000000000E+00  0.00000000000E+00  0.50666003379E+03  0.12115283734E+04  0.11004983460E+04 0.  0.
        2    1    3    3  502    0 -0.29002837685E+03 -0.22485782223E+02 -0.26086028012E+03  0.39073028489E+03  0.25500000920E-02 0. -1.
       -2    1    3    3    0  502  0.29002837685E+03  0.22485782223E+02  0.76752031391E+03  0.82079808848E+03  0.25500000920E-02 0.  1.
</event>
<event>
 5   0  0.2392585E-03  0.1099791E+04  0.7818609E-02  0.9205395E-01
        2   -1    0    0  501    0  0.00000000000E+00  0.00000000000E+00  0.56879750567E+03  0.56879750567E+03  0.25500000920E-02 0. -1.
       -2   -1    0    0    0  501  0.00000000000E+00  0.00000000000E+00 -0.53162185286E+03  0.53162185286E+03  0.25500000920E-02 0.  1.
    10030    2    1    2    0    0  0.00000000000E+00  0.00000000000E+00  0.37175652812E+02  0.11004193585E+04  0.10997912236E+04 0.  0.
        5    1    3    3  502    0 -0.52681953710E+03 -0.15423052652E+03 -0.13636372804E+02  0.54912104371E+03  0.46999998093E+01 0.  1.
       -5    1    3    3    0  502  0.52681953710E+03  0.15423052652E+03  0.50812025615E+02  0.55129831482E+03  0.46999998093E+01 0. -1.
</event>
<event>
 5   0  0.2392585E-03  0.1098630E+04  0.7818609E-02  0.9206529E-01
        2   -1    0    0  501    0  0.00000000000E+00  0.00000000000E+00  0.38327175075E+03  0.38327175076E+03  0.25500000920E-02 0. -1.
       -2   -1    0    0    0  501  0.00000000000E+00  0.00000000000E+00 -0.78729183483E+03  0.78729183483E+03  0.25500000920E-02 0.  1.
    10030    2    1    2    0    0  0.00000000000E+00  0.00000000000E+00 -0.40402008408E+03  0.11705635856E+04  0.10986295461E+04 0.  0.
        5    1    3    3  502    0  0.22429388208E+03  0.19314106158E+03  0.29101124832E+03  0.41511546810E+03  0.46999998093E+01 0. -1.
       -5    1    3    3    0  502 -0.22429388208E+03 -0.19314106158E+03 -0.69503133240E+03  0.75544811749E+03  0.46999998093E+01 0.  1.
</event>
<event>
 5   0  0.1480937E-03  0.1097957E+04  0.7818609E-02  0.9207186E-01
       -1   -1    0    0    0  501  0.00000000000E+00  0.00000000000E+00  0.42341448682E+03  0.42341448685E+03  0.50400001928E-02 0.  1.
        1   -1    0    0  501    0  0.00000000000E+00  0.00000000000E+00 -0.71177833185E+03  0.71177833187E+03  0.50400001928E-02 0. -1.
    10030    2    1    2    0    0  0.00000000000E+00  0.00000000000E+00 -0.28836384503E+03  0.11351928187E+04  0.10979567517E+04 0.  0.
        1    1    3    3  502    0  0.25184237376E+03  0.12310777612E+03 -0.63220371785E+03  0.69156463664E+03  0.50400001928E-02 0. -1.
       -1    1    3    3    0  502 -0.25184237376E+03 -0.12310777612E+03  0.34383987283E+03  0.44362818208E+03  0.50400001928E-02 0.  1.
</event>
<event>
 5   0  0.1479573E-03  0.1092118E+04  0.7818609E-02  0.9212909E-01
       -1   -1    0    0    0  501  0.00000000000E+00  0.00000000000E+00  0.13801509250E+03  0.13801509259E+03  0.50400001928E-02 0.  1.
        1   -1    0    0  501    0  0.00000000000E+00  0.00000000000E+00 -0.21604896491E+04  0.21604896491E+04  0.50400001928E-02 0. -1.
    10030    2    1    2    0    0  0.00000000000E+00  0.00000000000E+00 -0.20224745566E+04  0.22985047417E+04  0.10921175374E+04 0.  0.
        4    1    3    3  502    0  0.50876507576E+03 -0.11237849699E+03 -0.13551866885E+04  0.14518964848E+04  0.12699999809E+01 0.  1.
       -4    1    3    3    0  502 -0.50876507576E+03  0.11237849699E+03 -0.66728786812E+03  0.84660825695E+03  0.12699999809E+01 0. -1.
</event>
<event>
 5   0  0.2483036E-03  0.1049727E+04  0.7818609E-02  0.9255626E-01
       -2   -1    0    0    0  501  0.00000000000E+00  0.00000000000E+00  0.38179406465E+03  0.38179406466E+03  0.25500000920E-02 0.  1.
        2   -1    0    0  501    0  0.00000000000E+00  0.00000000000E+00 -0.72154523059E+03  0.72154523060E+03  0.25500000920E-02 0. -1.
    10030    2    1    2    0    0  0.00000000000E+00  0.00000000000E+00 -0.33975116594E+03  0.11033392953E+04  0.10497269863E+04 0.  0.
        3    1    3    3  502    0  0.23240547619E+03 -0.16971246708E+02  0.32444304135E+03  0.39945415990E+03  0.10100000352E+00 0.  1.
       -3    1    3    3    0  502 -0.23240547619E+03  0.16971246708E+02 -0.66419420729E+03  0.70388513536E+03  0.10100000352E+00 0. -1.
</event>
<event>
 5   0  0.2467448E-03  0.1108491E+04  0.7818609E-02  0.9196955E-01
        2   -1    0    0  501    0  0.00000000000E+00  0.00000000000E+00  0.75026886247E+03  0.75026886247E+03  0.25500000920E-02 0. -1.
       -2   -1    0    0    0  501  0.00000000000E+00  0.00000000000E+00 -0.40943766277E+03  0.40943766278E+03  0.25500000920E-02 0.  1.
    10030    2    1    2    0    0  0.00000000000E+00  0.00000000000E+00  0.34083119970E+03  0.11597065253E+04  0.11084914605E+04 0.  0.
        1    1    3    3  502    0  0.49269109368E+03  0.25257610425E+03  0.14376047817E+03  0.57201947287E+03  0.50400001928E-02 0.  1.
       -1    1    3    3    0  502 -0.49269109368E+03 -0.25257610425E+03  0.19707072153E+03  0.58768705238E+03  0.50400001928E-02 0. -1.
</event>
<event>
 5   0  0.2392585E-03  0.1100265E+04  0.7818609E-02  0.9204933E-01
       -2   -1    0    0    0  501  0.00000000000E+00  0.00000000000E+00  0.93005367087E+03  0.93005367087E+03  0.25500000920E-02 0. -1.
        2   -1    0    0  501    0  0.00000000000E+00  0.00000000000E+00 -0.32540696278E+03  0.32540696279E+03  0.25500000920E-02 0.  1.
    10030    2    1    2    0    0  0.00000000000E+00  0.00000000000E+00  0.60464670809E+03  0.12554606337E+04  0.11002653139E+04 0.  0.
        5    1    3    3  502    0 -0.39014109536E+03 -0.36585046896E+03  0.44919243274E+03  0.69846443829E+03  0.46999998093E+01 0.  1.
       -5    1    3    3    0  502  0.39014109536E+03  0.36585046896E+03  0.15545427535E+03  0.55699619536E+03  0.46999998093E+01 0. -1.
</event>
<event>
 5   0  0.2392585E-03  0.1095808E+04  0.7818609E-02  0.9209287E-01
        2   -1    0    0  501    0  0.00000000000E+00  0.00000000000E+00  0.23952881024E+04  0.23952881024E+04  0.25500000920E-02 0.  1.
       -2   -1    0    0    0  501  0.00000000000E+00  0.00000000000E+00 -0.12532891624E+03  0.12532891627E+03  0.25500000920E-02 0. -1.
    10030    2    1    2    0    0  0.00000000000E+00  0.00000000000E+00  0.22699591862E+04  0.25206170187E+04  0.10958081256E+04 0.  0.
        5    1    3    3  502    0 -0.50896747996E+03  0.54624816850E+02  0.68572638194E+03  0.85573040565E+03  0.46999998093E+01 0. -1.
       -5    1    3    3    0  502  0.50896747996E+03 -0.54624816850E+02  0.15842328043E+04  0.16648866131E+04  0.46999998093E+01 0.  1.
</event>
<event>
 5   0  0.2483036E-03  0.1095927E+04  0.7818609E-02  0.9209170E-01
        2   -1    0    0  501    0  0.00000000000E+00  0.00000000000E+00  0.60911472623E+03  0.60911472624E+03  0.25500000920E-02 0. -1.
       -2   -1    0    0    0  501  0.00000000000E+00  0.00000000000E+00 -0.49295184512E+03  0.49295184513E+03  0.25500000920E-02 0.  1.
    10030    2    1    2    0    0  0.00000000000E+00  0.00000000000E+00  0.11616288111E+03  0.11020665714E+04  0.10959274213E+04 0.  0.
        3    1    3    3  502    0  0.38379570428E+03  0.32341448941E+02  0.45003285296E+03  0.59234676574E+03  0.10100000352E+00 0. -1.
       -3    1    3    3    0  502 -0.38379570428E+03 -0.32341448941E+02 -0.33386997184E+03  0.50971980562E+03  0.10100000352E+00 0.  1.
</event>
<event>
 5   0  0.2438115E-03  0.1096593E+04  0.7818609E-02  0.9208519E-01
        2   -1    0    0  501    0  0.00000000000E+00  0.00000000000E+00  0.16257910639E+04  0.16257910639E+04  0.25500000920E-02 0.  1.
       -2   -1    0    0    0  501  0.00000000000E+00  0.00000000000E+00 -0.18491231722E+03  0.18491231724E+03  0.25500000920E-02 0. -1.
    10030    2    1    2    0    0  0.00000000000E+00  0.00000000000E+00  0.14408787467E+04  0.18107033811E+04  0.10965925277E+04 0.  0.
        4    1    3    3  502    0  0.27339600175E+03  0.44881777231E+03  0.46227765598E+03  0.69991785992E+03  0.12699999809E+01 0. -1.
       -4    1    3    3    0  502 -0.27339600175E+03 -0.44881777231E+03  0.97860109069E+03  0.11107855212E+04  0.12699999809E+01 0.  1.
</event>
<event>
 5   0  0.1468556E-03  0.1089632E+04  0.7818609E-02  0.9215356E-01
       -1   -1    0    0    0  501  0.00000000000E+00  0.00000000000E+00  0.21620289145E+03  0.21620289150E+03  0.50400001928E-02 0.  1.
        1   -1    0    0  501    0  0.00000000000E+00  0.00000000000E+00 -0.13728988331E+04  0.13728988331E+04  0.50400001928E-02 0. -1.
    10030    2    1    2    0    0  0.00000000000E+00  0.00000000000E+00 -0.11566959416E+04  0.15891017246E+04  0.10896324104E+04 0.  0.
        5    1    3    3  502    0 -0.36739444700E+03 -0.32320429553E+02  0.64243083422E+01  0.36889924314E+03  0.46999998093E+01 0.  1.
       -5    1    3    3    0  502  0.36739444700E+03  0.32320429553E+02 -0.11631202500E+04  0.12202024814E+04  0.46999998093E+01 0. -1.
</event>
<event>
 5   0  0.2483036E-03  0.1077488E+04  0.7818609E-02  0.9227415E-01
       -2   -1    0    0    0  501  0.00000000000E+00  0.00000000000E+00  0.20534572328E+03  0.20534572330E+03  0.25500000920E-02 0. -1.
        2   -1    0    0  501    0  0.00000000000E+00  0.00000000000E+00 -0.14134472425E+04  0.14134472426E+04  0.25500000920E-02 0.  1.
    10030    2    1    2    0    0  0.00000000000E+00  0.00000000000E+00 -0.12081015193E+04  0.16187929658E+04  0.10774884619E+04 0.  0.
        3    1    3    3  502    0  0.47155487959E+03  0.87921817006E+02 -0.23558221763E+03  0.53440924565E+03  0.10100000352E+00 0. -1.
       -3    1    3    3    0  502 -0.47155487959E+03 -0.87921817006E+02 -0.97251930164E+03  0.10843837202E+04  0.10100000352E+00 0.  1.
</event>
<event>
 5   0  0.2438115E-03  0.1098908E+04  0.7818609E-02  0.9206257E-01
        2   -1    0    0  501    0  0.00000000000E+00  0.00000000000E+00  0.20089568723E+03  0.20089568725E+03  0.25500000920E-02 0. -1.
       -2   -1    0    0    0  501  0.00000000000E+00  0.00000000000E+00 -0.15027690002E+04  0.15027690002E+04  0.25500000920E-02 0.  1.
    10030    2    1    2    0    0  0.00000000000E+00  0.00000000000E+00 -0.13018733130E+04  0.17036646874E+04  0.10989082056E+04 0.  0.
        4    1    3    3  502    0 -0.71581420250E+02 -0.52061912131E+03 -0.40225552028E+03  0.66180003452E+03  0.12699999809E+01 0.  1.
       -4    1    3    3    0  502  0.71581420250E+02  0.52061912131E+03 -0.89961779268E+03  0.10418646529E+04  0.12699999809E+01 0. -1.
</event>
<event>
 5   0  0.2467448E-03  0.1100557E+04  0.7818609E-02  0.9204649E-01
        2   -1    0    0  501    0  0.00000000000E+00  0.00000000000E+00  0.15116120186E+04  0.15116120186E+04  0.25500000920E-02 0.  1.
       -2   -1    0    0    0  501  0.00000000000E+00  0.00000000000E+00 -0.20032028683E+03  0.20032028685E+03  0.25500000920E-02 0. -1.
    10030    2    1    2    0    0  0.00000000000E+00  0.00000000000E+00  0.13112917318E+04  0.17119323055E+04  0.11005572282E+04 0.  0.
        1    1    3    3  502    0  0.52934770111E+03  0.64357398855E+02  0.44432659842E+03  0.69410157005E+03  0.50400001928E-02 0. -1.
       -1    1    3    3    0  502 -0.52934770111E+03 -0.64357398855E+02  0.86696513336E+03  0.10178307354E+04  0.50400001928E-02 0.  1.
</event>
<event>
 5   0  0.1479573E-03  0.1096448E+04  0.7818609E-02  0.9208661E-01
        1   -1    0    0  501    0  0.00000000000E+00  0.00000000000E+00  0.85166585447E+03  0.85166585449E+03  0.50400001928E-02 0. -1.
       -1   -1    0    0    0  501  0.00000000000E+00  0.00000000000E+00 -0.35289629502E+03  0.35289629505E+03  0.50400001928E-02 0.  1.
    10030    2    1    2    0    0  0.00000000000E+00  0.00000000000E+00  0.49876955945E+03  0.12045621495E+04  0.10964483110E+04 0.  0.
        4    1    3    3  502    0 -0.50084301583E+03 -0.21692986903E+03  0.30589421480E+03  0.62567977283E+03  0.12699999809E+01 0.  1.
       -4    1    3    3    0  502  0.50084301583E+03  0.21692986903E+03  0.19287534465E+03  0.57888237671E+03  0.12699999809E+01 0. -1.
</event>
<event>
 5   0  0.2483036E-03  0.1100798E+04  0.7818609E-02  0.9204415E-01
        2   -1    0    0  501    0  0.00000000000E+00  0.00000000000E+00  0.11575196310E+04  0.11575196310E+04  0.25500000920E-02 0.  1.
       -2   -1    0    0    0  501  0.00000000000E+00  0.00000000000E+00 -0.26171380375E+03  0.26171380376E+03  0.25500000920E-02 0. -1.
    10030    2    1    2    0    0  0.00000000000E+00  0.00000000000E+00  0.89580582720E+03  0.14192334347E+04  0.11007976481E+04 0.  0.
        3    1    3    3  502    0 -0.41124420021E+03 -0.32975962301E+02 -0.21807635342E+02  0.41314015716E+03  0.10100000352E+00 0. -1.
       -3    1    3    3    0  502  0.41124420021E+03  0.32975962301E+02  0.91761346254E+03  0.10060932776E+04  0.10100000352E+00 0.  1.
</event>
<event>
 5   0  0.2392585E-03  0.1100353E+04  0.7818609E-02  0.9204848E-01
       -2   -1    0    0    0  501  0.00000000000E+00  0.00000000000E+00  0.21790613919E+03  0.21790613920E+03  0.25500000920E-02 0. -1.
        2   -1    0    0  501    0  0.00000000000E+00  0.00000000000E+00 -0.13891025551E+04  0.13891025551E+04  0.25500000920E-02 0.  1.
    10030    2    1    2    0    0  0.00000000000E+00  0.00000000000E+00 -0.11711964159E+04  0.16070086943E+04  0.11003526248E+04 0.  0.
        5    1    3    3  502    0  0.53978142714E+03 -0.10633845633E+03 -0.58584416262E+03  0.80368360021E+03  0.46999998093E+01 0. -1.
       -5    1    3    3    0  502 -0.53978142714E+03  0.10633845633E+03 -0.58535225331E+03  0.80332509411E+03  0.46999998093E+01 0.  1.
</event>
<event>
 5   0  0.1509004E-03  0.1093836E+04  0.7818609E-02  0.9211220E-01
       -1   -1    0    0    0  501  0.00000000000E+00  0.00000000000E+00  0.35797751226E+03  0.35797751230E+03  0.50400001928E-02 0.  1.
        1   -1    0    0  501    0  0.00000000000E+00  0.00000000000E+00 -0.83558184640E+03  0.83558184641E+03  0.50400001928E-02 0. -1.
    10030    2    1    2    0    0  0.00000000000E+00  0.00000000000E+00 -0.47760433414E+03  0.11935593587E+04  0.10938363876E+04 0.  0.
        3    1    3    3  502    0 -0.27462036225E+03 -0.46503340431E+03 -0.14463815433E+03  0.55909982684E+03  0.10100000352E+00 0. -1.
       -3    1    3    3    0  502  0.27462036225E+03  0.46503340431E+03 -0.33296617981E+03  0.63445953187E+03  0.10100000352E+00 0.  1.
</event>
<event>
 5   0  0.9631750E-04  0.1086704E+04  0.7818609E-02  0.9218249E-01
        3   -1    0    0  501    0  0.00000000000E+00  0.00000000000E+00  0.36929172908E+03  0.36929174289E+03  0.10100000352E+00 0. -1.
       -3   -1    0    0    0  501  0.00000000000E+00  0.00000000000E+00 -0.79945302355E+03  0.79945302993E+03  0.10100000352E+00 0.  1.
    10030    2    1    2    0    0  0.00000000000E+00  0.00000000000E+00 -0.43016129447E+03  0.11687447728E+04  0.10867040097E+04 0.  0.
        1    1    3    3  502    0 -0.32419557965E+03 -0.18032936757E+02 -0.68363551298E+03  0.75682592140E+03  0.50400001928E-02 0.  1.
       -1    1    3    3    0  502  0.32419557965E+03  0.18032936757E+02  0.25347421851E+03  0.41191885141E+03  0.50400001928E-02 0. -1.
</event>
<event>
 5   0  0.1479573E-03  0.1102147E+04  0.7818609E-02  0.9203102E-01
       -1   -1    0    0    0  501  0.00000000000E+00  0.00000000000E+00  0.16099571376E+03  0.16099571384E+03  0.50400001928E-02 0. -1.
        1   -1    0    0  501    0  0.00000000000E+00  0.00000000000E+00 -0.18862723860E+04  0.18862723860E+04  0.50400001928E-02 0.  1.
    10030    2    1    2    0    0  0.00000000000E+00  0.00000000000E+00 -0.17252766722E+04  0.20472680998E+04  0.11021465769E+04 0.  0.
        4    1    3    3  502    0 -0.16617030490E+03 -0.18478071570E+03  0.51000490172E+02  0.25369104443E+03  0.12699999809E+01 0. -1.
       -4    1    3    3    0  502  0.16617030490E+03  0.18478071570E+03 -0.17762771624E+04  0.17935770554E+04  0.12699999809E+01 0.  1.
</event>
<event>
 5   0  0.2438115E-03  0.1105385E+04  0.7818609E-02  0.9199959E-01
       -2   -1    0    0    0  501  0.00000000000E+00  0.00000000000E+00  0.95237499042E+03  0.95237499042E+03  0.25500000920E-02 0.  1.
        2   -1    0    0  501    0  0.00000000000E+00  0.00000000000E+00 -0.32074449394E+03  0.32074449395E+03  0.25500000920E-02 0. -1.
    10030    2    1    2    0    0  0.00000000000E+00  0.00000000000E+00  0.63163049648E+03  0.12731194844E+04  0.11053850630E+04 0.  0.
        4    1    3    3  502    0  0.26043169653E+03 -0.22787494180E+03  0.81215602673E+03  0.88280840634E+03  0.12699999809E+01 0.  1.
       -4    1    3    3    0  502 -0.26043169653E+03  0.22787494180E+03 -0.18052553025E+03  0.39031107803E+03  0.12699999809E+01 0. -1.
</event>
<event>
 5   0  0.1509004E-03  0.1097958E+04  0.7818609E-02  0.9207185E-01
        1   -1    0    0  501    0  0.00000000000E+00  0.00000000000E+00  0.52653239100E+03  0.52653239103E+03  0.50400001928E-02 0. -1.
       -1   -1    0    0    0  501  0.00000000000E+00  0.00000000000E+00 -0.57238240289E+03  0.57238240291E+03  0.50400001928E-02 0.  1.
    10030    2    1    2    0    0  0.00000000000E+00  0.00000000000E+00 -0.45850011882E+02  0.10989147939E+04  0.10979578775E+04 0.  0.
        3    1    3    3  502    0 -0.12768836017E+03 -0.29113836397E+03 -0.47087736222E+03  0.56814730903E+03  0.10100000352E+00 0.  1.
       -3    1    3    3    0  502  0.12768836017E+03  0.29113836397E+03  0.42502735034E+03  0.53076748491E+03  0.10100000352E+00 0. -1.
</event>
<event>
 5   0  0.2392585E-03  0.1055607E+04  0.7818609E-02  0.9249574E-01
        2   -1    0    0  501    0  0.00000000000E+00  0.00000000000E+00  0.16454951315E+04  0.16454951315E+04  0.25500000920E-02 0.  1.
       -2   -1    0    0    0  501  0.00000000000E+00  0.00000000000E+00 -0.16929642076E+03  0.16929642078E+03  0.25500000920E-02 0. -1.
    10030    2    1    2    0    0  0.00000000000E+00  0.00000000000E+00  0.14761987108E+04  0.18147915523E+04  0.10556068135E+04 0.  0.
        5    1    3    3  502    0 -0.15447907369E+03  0.43687551012E+03  0.30375100219E+03  0.55408551405E+03  0.46999998093E+01 0. -1.
       -5    1    3    3    0  502  0.15447907369E+03 -0.43687551012E+03  0.11724477086E+04  0.12607060382E+04  0.46999998093E+01 0.  1.
</event>
<event>
 5   0  0.2488472E-03  0.1092107E+04  0.7818609E-02  0.9212919E-01
       -2   -1    0    0    0  501  0.00000000000E+00  0.00000000000E+00  0.44579000269E+03  0.44579000270E+03  0.25500000920E-02 0.  1.
        2   -1    0    0  501    0  0.00000000000E+00  0.00000000000E+00 -0.66886763867E+03  0.66886763868E+03  0.25500000920E-02 0. -1.
    10030    2    1    2    0    0  0.00000000000E+00  0.00000000000E+00 -0.22307763598E+03  0.11146576414E+04  0.10921071494E+04 0.  0.
        2    1    3    3  502    0  0.18147396638E+03  0.29204633917E+03  0.32142633854E+03  0.47067903694E+03  0.25500000920E-02 0.  1.
       -2    1    3    3    0  502 -0.18147396638E+03 -0.29204633917E+03 -0.54450397452E+03  0.64397860444E+03  0.25500000920E-02 0. -1.
</event>
<event>
 5   0  0.2392585E-03  0.1102469E+04  0.7818609E-02  0.9202789E-01
       -2   -1    0    0    0  501  0.00000000000E+00  0.00000000000E+00  0.20364848119E+03  0.20364848121E+03  0.25500000920E-02 0. -1.
        2   -1    0    0  501    0  0.00000000000E+00  0.00000000000E+00 -0.14920773492E+04  0.14920773492E+04  0.25500000920E-02 0.  1.
    10030    2    1    2    0    0  0.00000000000E+00  0.00000000000E+00 -0.12884288680E+04  0.16957258304E+04  0.11024686590E+04 0.  0.
        5    1    3    3  502    0  0.27670041659E+03  0.23651730658E+03 -0.12808790347E+04  0.13316068295E+04  0.46999998093E+01 0.  1.
       -5    1    3    3    0  502 -0.27670041659E+03 -0.23651730658E+03 -0.75498333250E+01  0.36411900092E+03  0.46999998093E+01 0. -1.
</event>
<event>
 5   0  0.1509004E-03  0.1094568E+04  0.7818609E-02  0.9210502E-01
       -1   -1    0    0    0  501  0.00000000000E+00  0.00000000000E+00  0.27611804517E+03  0.27611804522E+03  0.50400001928E-02 0.  1.
        1   -1    0    0  501    0  0.00000000000E+00  0.00000000000E+00 -0.10847526323E+04  0.10847526323E+04  0.50400001928E-02 0. -1.
    10030    2    1    2    0    0  0.00000000000E+00  0.00000000000E+00 -0.80863458713E+03  0.13608706775E+04  0.10945679995E+04 0.  0.
        3    1    3    3  502    0  0.31942355843E+03  0.12564677113E+03 -0.93428945989E+03  0.99534683696E+03  0.10100000352E+00 0.  1.
       -3    1    3    3    0  502 -0.31942355843E+03 -0.12564677113E+03  0.12565487276E+03  0.36552384057E+03  0.10100000352E+00 0. -1.
</event>
<event>
 5   0  0.1415400E-03  0.1111845E+04  0.7818609E-02  0.9193723E-01
       -1   -1    0    0    0  501  0.00000000000E+00  0.00000000000E+00  0.57784293548E+03  0.57784293550E+03  0.50400001928E-02 0.  1.
        1   -1    0    0  501    0  0.00000000000E+00  0.00000000000E+00 -0.53483390491E+03  0.53483390494E+03  0.50400001928E-02 0. -1.
    10030    2    1    2    0    0  0.00000000000E+00  0.00000000000E+00  0.43009030571E+02  0.11126768404E+04  0.11118453015E+04 0.  0.
        2    1    3    3  502    0  0.55339601949E+03 -0.10623645954E+02 -0.30399265950E+02  0.55433214919E+03  0.25500000920E-02 0.  1.
       -2    1    3    3    0  502 -0.55339601949E+03  0.10623645954E+02  0.73408296521E+02  0.55834469125E+03  0.25500000920E-02 0. -1.
</event>
<event>
 5   0  0.2483036E-03  0.1089464E+04  0.7818609E-02  0.9215522E-01
       -2   -1    0    0    0  501  0.00000000000E+00  0.00000000000E+00  0.25228905809E+03  0.25228905810E+03  0.25500000920E-02 0.  1.
        2   -1    0    0  501    0  0.00000000000E+00  0.00000000000E+00 -0.11761621607E+04  0.11761621607E+04  0.25500000920E-02 0. -1.
    10030    2    1    2    0    0  0.00000000000E+00  0.00000000000E+00 -0.92387310263E+03  0.14284512188E+04  0.10894638015E+04 0.  0.
        3    1    3    3  502    0 -0.32238982930E+03  0.10835109919E+03  0.95969501934E+02  0.35339116887E+03  0.10100000352E+00 0.  1.
       -3    1    3    3    0  502  0.32238982930E+03 -0.10835109919E+03 -0.10198426046E+04  0.10750600500E+04  0.10100000352E+00 0. -1.
</event>
<event>
 5   0  0.1415400E-03  0.1101797E+04  0.7818609E-02  0.9203442E-01
        1   -1    0    0  501    0  0.00000000000E+00  0.00000000000E+00  0.51682390724E+03  0.51682390726E+03  0.50400001928E-02 0.  1.
       -1   -1    0    0    0  501  0.00000000000E+00  0.00000000000E+00 -0.58721982327E+03  0.58721982329E+03  0.50400001928E-02 0. -1.
    10030    2    1    2    0    0  0.00000000000E+00  0.00000000000E+00 -0.70395916027E+02  0.11040437306E+04  0.11017971565E+04 0.  0.
        2    1    3    3  502    0 -0.13373806276E+03 -0.13525639647E+03  0.48287566973E+03  0.51898851109E+03  0.25500000920E-02 0.  1.
       -2    1    3    3    0  502  0.13373806276E+03  0.13525639647E+03 -0.55327158575E+03  0.58505521947E+03  0.25500000920E-02 0. -1.
</event>
<event>
 5   0  0.2438115E-03  0.1102373E+04  0.7818609E-02  0.9202882E-01
        2   -1    0    0  501    0  0.00000000000E+00  0.00000000000E+00  0.13151764119E+04  0.13151764119E+04  0.25500000920E-02 0.  1.
       -2   -1    0    0    0  501  0.00000000000E+00  0.00000000000E+00 -0.23100076761E+03  0.23100076762E+03  0.25500000920E-02 0. -1.
    10030    2    1    2    0    0  0.00000000000E+00  0.00000000000E+00  0.10841756443E+04  0.15461771796E+04  0.11023733682E+04 0.  0.
        4    1    3    3  502    0 -0.96277947382E+02 -0.22862712072E+03  0.12324487331E+04  0.12571679665E+04  0.12699999809E+01 0.  1.
       -4    1    3    3    0  502  0.96277947382E+02  0.22862712072E+03 -0.14827308874E+03  0.28900921305E+03  0.12699999809E+01 0. -1.
</event>
<event>
 5   0  0.1479573E-03  0.1102948E+04  0.7818609E-02  0.9202323E-01
        1   -1    0    0  501    0  0.00000000000E+00  0.00000000000E+00  0.14319538725E+04  0.14319538725E+04  0.50400001928E-02 0. -1.
       -1   -1    0    0    0  501  0.00000000000E+00  0.00000000000E+00 -0.21238382101E+03  0.21238382107E+03  0.50400001928E-02 0.  1.
    10030    2    1    2    0    0  0.00000000000E+00  0.00000000000E+00  0.12195700514E+04  0.16443376935E+04  0.11029484757E+04 0.  0.
        4    1    3    3  502    0 -0.36114837323E+03 -0.41486400551E+03  0.66908160366E+03  0.86614784869E+03  0.12699999809E+01 0.  1.
       -4    1    3    3    0  502  0.36114837323E+03  0.41486400551E+03  0.55048844779E+03  0.77818984483E+03  0.12699999809E+01 0. -1.
</event>
<event>
 5   0  0.1480937E-03  0.1082994E+04  0.7818609E-02  0.9221927E-01
       -1   -1    0    0    0  501  0.00000000000E+00  0.00000000000E+00  0.10187761734E+04  0.10187761734E+04  0.50400001928E-02 0. -1.
        1   -1    0    0  501    0  0.00000000000E+00  0.00000000000E+00 -0.28781510867E+03  0.28781510871E+03  0.50400001928E-02 0.  1.
    10030    2    1    2    0    0  0.00000000000E+00  0.00000000000E+00  0.73096106471E+03  0.13065912821E+04  0.10829943215E+04 0.  0.
        1    1    3    3  502    0  0.11594775066E+03  0.38224823229E+03 -0.75598971084E+02  0.40653757074E+03  0.50400001928E-02 0.  1.
       -1    1    3    3    0  502 -0.11594775066E+03 -0.38224823229E+03  0.80656003579E+03  0.90005371136E+03  0.50400001928E-02 0. -1.
</event>
<event>
 5   0  0.1468556E-03  0.1223979E+04  0.7818609E-02  0.9092123E-01
       -1   -1    0    0    0  501  0.00000000000E+00  0.00000000000E+00  0.80821845028E+03  0.80821845029E+03  0.50400001928E-02 0.  1.
        1   -1    0    0  501    0  0.00000000000E+00  0.00000000000E+00 -0.46340355914E+03  0.46340355917E+03  0.50400001928E-02 0. -1.
    10030    2    1    2    0    0  0.00000000000E+00  0.00000000000E+00  0.34481489113E+03  0.12716220095E+04  0.12239792587E+04 0.  0.
        5    1    3    3  502    0 -0.30421363542E+03 -0.40841895671E+03  0.52496465053E+03  0.73141093407E+03  0.46999998093E+01 0.  1.
       -5    1    3    3    0  502  0.30421363542E+03  0.40841895671E+03 -0.18014975940E+03  0.54021107540E+03  0.46999998093E+01 0. -1.
</event>
<event>
 5   0  0.1509004E-03  0.1091139E+04  0.7818609E-02  0.9213872E-01
       -1   -1    0    0    0  501  0.00000000000E+00  0.00000000000E+00  0.67955471137E+03  0.67955471139E+03  0.50400001928E-02 0. -1.
        1   -1    0    0  501    0  0.00000000000E+00  0.00000000000E+00 -0.43800172135E+03  0.43800172138E+03  0.50400001928E-02 0.  1.
    10030    2    1    2    0    0  0.00000000000E+00  0.00000000000E+00  0.24155299003E+03  0.11175564328E+04  0.10911390990E+04 0.  0.
        3    1    3    3  502    0 -0.53445035708E+03 -0.58604721434E+02  0.21561656436E+03  0.57927731751E+03  0.10100000352E+00 0.  1.
       -3    1    3    3    0  502  0.53445035708E+03  0.58604721434E+02  0.25936425669E+02  0.53827911526E+03  0.10100000352E+00 0. -1.
</event>
<event>
 5   0  0.2488472E-03  0.1097766E+04  0.7818609E-02  0.9207372E-01
        2   -1    0    0  501    0  0.00000000000E+00  0.00000000000E+00  0.56271208564E+03  0.56271208565E+03  0.25500000920E-02 0.  1.
       -2   -1    0    0    0  501  0.00000000000E+00  0.00000000000E+00 -0.53539391845E+03  0.53539391846E+03  0.25500000920E-02 0. -1.
    10030    2    1    2    0    0  0.00000000000E+00  0.00000000000E+00  0.27318167192E+02  0.10981060041E+04  0.10977661472E+04 0.  0.
        2    1    3    3  502    0 -0.29745666845E+02 -0.17039964825E+03  0.53473472591E+03  0.56201607799E+03  0.25500000920E-02 0.  1.
       -2    1    3    3    0  502  0.29745666845E+02  0.17039964825E+03 -0.50741655871E+03  0.53608992612E+03  0.25500000920E-02 0. -1.
</event>
<event>
 5   0  0.1479573E-03  0.1073661E+04  0.7818609E-02  0.9231250E-01
        1   -1    0    0  501    0  0.00000000000E+00  0.00000000000E+00  0.99915188137E+03  0.99915188138E+03  0.50400001928E-02 0. -1.
       -1   -1    0    0    0  501  0.00000000000E+00  0.00000000000E+00 -0.28843180751E+03  0.28843180755E+03  0.50400001928E-02 0.  1.
    10030    2    1    2    0    0  0.00000000000E+00  0.00000000000E+00  0.71072007386E+03  0.12875836889E+04  0.10736613678E+04 0.  0.
        4    1    3    3  502    0 -0.37510008532E+03 -0.23003408338E+03 -0.13434444235E+02  0.44022477294E+03  0.12699999809E+01 0.  1.
       -4    1    3    3    0  502  0.37510008532E+03  0.23003408338E+03  0.72415451809E+03  0.84735891598E+03  0.12699999809E+01 0. -1.
</event>
<event>
 5   0  0.2483036E-03  0.1094946E+04  0.7818609E-02  0.9210132E-01
       -2   -1    0    0    0  501  0.00000000000E+00  0.00000000000E+00  0.35153471744E+03  0.35153471745E+03  0.25500000920E-02 0.  1.
        2   -1    0    0  501    0  0.00000000000E+00  0.00000000000E+00 -0.85262294374E+03  0.85262294374E+03  0.25500000920E-02 0. -1.
    10030    2    1    2    0    0  0.00000000000E+00  0.00000000000E+00 -0.50108822630E+03  0.12041576612E+04  0.10949457806E+04 0.  0.
        3    1    3    3  502    0 -0.18413835735E+03  0.18559840763E+03 -0.77953347531E+03  0.82220809585E+03  0.10100000352E+00 0. -1.
       -3    1    3    3    0  502  0.18413835735E+03 -0.18559840763E+03  0.27844524901E+03  0.38194956533E+03  0.10100000352E+00 0.  1.
</event>
<event>
 5   0  0.9631750E-04  0.1077263E+04  0.7818609E-02  0.9227641E-01
        3   -1    0    0  501    0  0.00000000000E+00  0.00000000000E+00  0.30366884178E+03  0.30366885858E+03  0.10100000352E+00 0. -1.
       -3   -1    0    0    0  501  0.00000000000E+00  0.00000000000E+00 -0.95539567456E+03  0.95539567990E+03  0.10100000352E+00 0.  1.
    10030    2    1    2    0    0  0.00000000000E+00  0.00000000000E+00 -0.65172683278E+03  0.12590645385E+04  0.10772630354E+04 0.  0.
        3    1    3    3  502    0 -0.94761653614E+02 -0.53021484269E+03 -0.32113732701E+03  0.62708591389E+03  0.10100000352E+00 0. -1.
       -3    1    3    3    0  502  0.94761653614E+02  0.53021484269E+03 -0.33058950577E+03  0.63197862459E+03  0.10100000352E+00 0.  1.
</event>
<event>
 5   0  0.2438115E-03  0.1099634E+04  0.7818609E-02  0.9205548E-01
        2   -1    0    0  501    0  0.00000000000E+00  0.00000000000E+00  0.71708644531E+03  0.71708644532E+03  0.25500000920E-02 0. -1.
       -2   -1    0    0    0  501  0.00000000000E+00  0.00000000000E+00 -0.42156539970E+03  0.42156539971E+03  0.25500000920E-02 0.  1.
    10030    2    1    2    0    0  0.00000000000E+00  0.00000000000E+00  0.29552104561E+03  0.11386518450E+04  0.10996341827E+04 0.  0.
        4    1    3    3  502    0  0.26395300305E+03 -0.20985120539E+03 -0.30191612131E+03  0.45261868436E+03  0.12699999809E+01 0.  1.
       -4    1    3    3    0  502 -0.26395300305E+03  0.20985120539E+03  0.59743716692E+03  0.68603316067E+03  0.12699999809E+01 0. -1.
</event>
<event>
 5   0  0.1480937E-03  0.1102454E+04  0.7818609E-02  0.9202803E-01
        1   -1    0    0  501    0  0.00000000000E+00  0.00000000000E+00  0.34059083440E+03  0.34059083443E+03  0.50400001928E-02 0. -1.
       -1   -1    0    0    0  501  0.00000000000E+00  0.00000000000E+00 -0.89212987910E+03  0.89212987912E+03  0.50400001928E-02 0.  1.
    10030    2    1    2    0    0  0.00000000000E+00  0.00000000000E+00 -0.55153904471E+03  0.12327207135E+04  0.11024540987E+04 0.  0.
        1    1    3    3  502    0  0.30559989036E+03 -0.45101566463E+03 -0.18191835958E+03  0.57436983930E+03  0.50400001928E-02 0. -1.
       -1    1    3    3    0  502 -0.30559989036E+03  0.45101566463E+03 -0.36962068512E+03  0.65835087425E+03  0.50400001928E-02 0.  1.
</event>
<event>
 5   0  0.2392585E-03  0.1098562E+04  0.7818609E-02  0.9206595E-01
        2   -1    0    0  501    0  0.00000000000E+00  0.00000000000E+00  0.17487962631E+04  0.17487962631E+04  0.25500000920E-02 0. -1.
       -2   -1    0    0    0  501  0.00000000000E+00  0.00000000000E+00 -0.17252411716E+03  0.17252411718E+03  0.25500000920E-02 0.  1.
    10030    2    1    2    0    0  0.00000000000E+00  0.00000000000E+00  0.15762721459E+04  0.19213203802E+04  0.10985618442E+04 0.  0.
        5    1    3    3  502    0  0.35759759795E+03  0.37474931241E+03  0.11076440467E+04  0.12227880084E+04  0.46999998093E+01 0. -1.
       -5    1    3    3    0  502 -0.35759759795E+03 -0.37474931241E+03  0.46862809920E+03  0.69853237188E+03  0.46999998093E+01 0.  1.
</event>
<event>
 5   0  0.9631750E-04  0.1017844E+04  0.7818609E-02  0.9289188E-01
       -3   -1    0    0    0  501  0.00000000000E+00  0.00000000000E+00  0.93298572251E+03  0.93298572798E+03  0.10100000352E+00 0.  1.
        3   -1    0    0  501    0  0.00000000000E+00  0.00000000000E+00 -0.27760505005E+03  0.27760506842E+03  0.10100000352E+00 0. -1.
    10030    2    1    2    0    0  0.00000000000E+00  0.00000000000E+00  0.65538067246E+03  0.12105907964E+04  0.10178439225E+04 0.  0.
        1    1    3    3  502    0  0.23402114011E+03 -0.45189713394E+03  0.33359527040E+03  0.60849216770E+03  0.50400001928E-02 0.  1.
       -1    1    3    3    0  502 -0.23402114011E+03  0.45189713394E+03  0.32178540206E+03  0.60209862871E+03  0.50400001928E-02 0. -1.
</event>
<event>
 5   0  0.2467448E-03  0.1098817E+04  0.7818609E-02  0.9206346E-01
       -2   -1    0    0    0  501  0.00000000000E+00  0.00000000000E+00  0.28605220431E+03  0.28605220432E+03  0.25500000920E-02 0.  1.
        2   -1    0    0  501    0  0.00000000000E+00  0.00000000000E+00 -0.10552261554E+04  0.10552261554E+04  0.25500000920E-02 0. -1.
    10030    2    1    2    0    0  0.00000000000E+00  0.00000000000E+00 -0.76917395107E+03  0.13412783597E+04  0.10988171236E+04 0.  0.
        1    1    3    3  502    0  0.23936930778E+02 -0.40357257729E+03  0.69533312207E+02  0.41021784863E+03  0.50400001928E-02 0.  1.
       -1    1    3    3    0  502 -0.23936930778E+02  0.40357257729E+03 -0.83870726328E+03  0.93106051108E+03  0.50400001928E-02 0. -1.
</event>
<event>
 5   0  0.2483036E-03  0.1093470E+04  0.7818609E-02  0.9211580E-01
        2   -1    0    0  501    0  0.00000000000E+00  0.00000000000E+00  0.16476691756E+04  0.16476691756E+04  0.25500000920E-02 0.  1.
       -2   -1    0    0    0  501  0.00000000000E+00  0.00000000000E+00 -0.18141938853E+03  0.18141938855E+03  0.25500000920E-02 0. -1.
    10030    2    1    2    0    0  0.00000000000E+00  0.00000000000E+00  0.14662497871E+04  0.18290885642E+04  0.10934699527E+04 0.  0.
        3    1    3    3  502    0  0.50153316526E+03  0.11358543822E+03  0.10437408994E+04  0.11635429699E+04  0.10100000352E+00 0. -1.
       -3    1    3    3    0  502 -0.50153316526E+03 -0.11358543822E+03  0.42250888774E+03  0.66554559427E+03  0.10100000352E+00 0.  1.
</event>
<event>
 5   0  0.1480937E-03  0.1092008E+04  0.7818609E-02  0.9213017E-01
        1   -1    0    0  501    0  0.00000000000E+00  0.00000000000E+00  0.13145998013E+04  0.13145998013E+04  0.50400001928E-02 0. -1.
       -1   -1    0    0    0  501  0.00000000000E+00  0.00000000000E+00 -0.22677632809E+03  0.22677632815E+03  0.50400001928E-02 0.  1.
    10030    2    1    2    0    0  0.00000000000E+00  0.00000000000E+00  0.10878234732E+04  0.15413761294E+04  0.10920075382E+04 0.  0.
        1    1    3    3  502    0 -0.28099214713E+03  0.13652221773E+03  0.11759850958E+04  0.12167727184E+04  0.50400001928E-02 0. -1.
       -1    1    3    3    0  502  0.28099214713E+03 -0.13652221773E+03 -0.88161622661E+02  0.32460341098E+03  0.50400001928E-02 0.  1.
</event>
<event>
 5   0  0.9631750E-04  0.1097606E+04  0.7818609E-02  0.9207528E-01
        4   -1    0    0  501    0  0.00000000000E+00  0.00000000000E+00  0.47418367453E+03  0.47418537524E+03  0.12699999809E+01 0.  1.
       -4   -1    0    0    0  501  0.00000000000E+00  0.00000000000E+00 -0.63516173423E+03  0.63516300390E+03  0.12699999809E+01 0. -1.
    10030    2    1    2    0    0  0.00000000000E+00  0.00000000000E+00 -0.16097805969E+03  0.11093483791E+04  0.10976064370E+04 0.  0.
        1    1    3    3  502    0 -0.45339954372E+01  0.34151584066E+03 -0.51465560201E+03  0.61767630296E+03  0.50400001928E-02 0. -1.
       -1    1    3    3    0  502  0.45339954372E+01 -0.34151584066E+03  0.35367754232E+03  0.49167207618E+03  0.50400001928E-02 0.  1.
</event>
<event>
 5   0  0.2467448E-03  0.1173176E+04  0.7818609E-02  0.9136665E-01
       -2   -1    0    0    0  501  0.00000000000E+00  0.00000000000E+00  0.64313501751E+03  0.64313501751E+03  0.25500000920E-02 0.  1.
        2   -1    0    0  501    0  0.00000000000E+00  0.00000000000E+00 -0.53501309208E+03  0.53501309209E+03  0.25500000920E-02 0. -1.
    10030    2    1    2    0    0  0.00000000000E+00  0.00000000000E+00  0.10812192543E+03  0.11781481096E+04  0.11731762943E+04 0.  0.
        1    1    3    3  502    0  0.42956190099E+03  0.39943241128E+03  0.50046979961E+02  0.58870568045E+03  0.50400001928E-02 0.  1.
       -1    1    3    3    0  502 -0.42956190099E+03 -0.39943241128E+03  0.58074945464E+02  0.58944242915E+03  0.50400001928E-02 0. -1.
</event>
<event>
 5   0  0.2483036E-03  0.1107810E+04  0.7818609E-02  0.9197613E-01
       -2   -1    0    0    0  501  0.00000000000E+00  0.00000000000E+00  0.23786416669E+03  0.23786416670E+03  0.25500000920E-02 0.  1.
        2   -1    0    0  501    0  0.00000000000E+00  0.00000000000E+00 -0.12898560827E+04  0.12898560827E+04  0.25500000920E-02 0. -1.
    10030    2    1    2    0    0  0.00000000000E+00  0.00000000000E+00 -0.10519919160E+04  0.15277202494E+04  0.11078096267E+04 0.  0.
        3    1    3    3  502    0 -0.47053602656E+03 -0.52966843764E+02 -0.92233884835E+03  0.10367828125E+04  0.10100000352E+00 0. -1.
       -3    1    3    3    0  502  0.47053602656E+03  0.52966843764E+02 -0.12965306765E+03  0.49093743693E+03  0.10100000352E+00 0.  1.
</event>
<event>
 5   0  0.1468556E-03  0.1104449E+04  0.7818609E-02  0.9200867E-01
       -1   -1    0    0    0  501  0.00000000000E+00  0.00000000000E+00  0.21930589067E+03  0.21930589073E+03  0.50400001928E-02 0.  1.
        1   -1    0    0  501    0  0.00000000000E+00  0.00000000000E+00 -0.13905311719E+04  0.13905311719E+04  0.50400001928E-02 0. -1.
    10030    2    1    2    0    0  0.00000000000E+00  0.00000000000E+00 -0.11712252812E+04  0.16098370626E+04  0.11044485994E+04 0.  0.
        5    1    3    3  502    0  0.18189261958E+03  0.41083813388E+03 -0.11768951696E+03  0.46448445583E+03  0.46999998093E+01 0.  1.
       -5    1    3    3    0  502 -0.18189261958E+03 -0.41083813388E+03 -0.10535357642E+04  0.11453526068E+04  0.46999998093E+01 0. -1.
</event>
<event>
 5   0  0.2483036E-03  0.1095052E+04  0.7818609E-02  0.9210028E-01
       -2   -1    0    0    0  501  0.00000000000E+00  0.00000000000E+00  0.16949691660E+03  0.16949691661E+03  0.25500000920E-02 0.  1.
        2   -1    0    0  501    0  0.00000000000E+00  0.00000000000E+00 -0.17686746143E+04  0.17686746143E+04  0.25500000920E-02 0. -1.
    10030    2    1    2    0    0  0.00000000000E+00  0.00000000000E+00 -0.15991776977E+04  0.19381715309E+04  0.10950523158E+04 0.  0.
        3    1    3    3  502    0 -0.32517484789E+03  0.15519441192E+03 -0.15292678503E+04  0.15711410361E+04  0.10100000352E+00 0. -1.
       -3    1    3    3    0  502  0.32517484789E+03 -0.15519441192E+03 -0.69909847467E+02  0.36703049487E+03  0.10100000352E+00 0.  1.
</event>
<event>
 5   0  0.1415400E-03  0.1096820E+04  0.7818609E-02  0.9208297E-01
       -1   -1    0    0    0  501  0.00000000000E+00  0.00000000000E+00  0.43247149898E+03  0.43247149901E+03  0.50400001928E-02 0. -1.
        1   -1    0    0  501    0  0.00000000000E+00  0.00000000000E+00 -0.69542958021E+03  0.69542958023E+03  0.50400001928E-02 0.  1.
    10030    2    1    2    0    0  0.00000000000E+00  0.00000000000E+00 -0.26295808122E+03  0.11279010792E+04  0.10968198996E+04 0.  0.
        2    1    3    3  502    0 -0.52943497029E+03 -0.14300671539E+03 -0.13258878680E+03  0.56420926508E+03  0.25500000920E-02 0. -1.
       -2    1    3    3    0  502  0.52943497029E+03  0.14300671539E+03 -0.13036929442E+03  0.56369181416E+03  0.25500000920E-02 0.  1.
</event>
<event>
 5   0  0.1479573E-03  0.1126058E+04  0.7818609E-02  0.9180159E-01
       -1   -1    0    0    0  501  0.00000000000E+00  0.00000000000E+00  0.50117849727E+03  0.50117849730E+03  0.50400001928E-02 0. -1.
        1   -1    0    0  501    0  0.00000000000E+00  0.00000000000E+00 -0.63251282359E+03  0.63251282361E+03  0.50400001928E-02 0.  1.
    10030    2    1    2    0    0  0.00000000000E+00  0.00000000000E+00 -0.13133432632E+03  0.11336913209E+04  0.11260583048E+04 0.  0.
        4    1    3    3  502    0  0.13588588196E+02  0.33933530537E+03 -0.51778483856E+03  0.61922197243E+03  0.12699999809E+01 0.  1.
       -4    1    3    3    0  502 -0.13588588196E+02 -0.33933530537E+03  0.38645051225E+03  0.51446934847E+03  0.12699999809E+01 0. -1.
</event>
<event>
 5   0  0.2483036E-03  0.1095107E+04  0.7818609E-02  0.9209974E-01
        2   -1    0    0  501    0  0.00000000000E+00  0.00000000000E+00  0.11087808825E+04  0.11087808825E+04  0.25500000920E-02 0. -1.
       -2   -1    0    0    0  501  0.00000000000E+00  0.00000000000E+00 -0.27040054607E+03  0.27040054608E+03  0.25500000920E-02 0.  1.
    10030    2    1    2    0    0  0.00000000000E+00  0.00000000000E+00  0.83838033642E+03  0.13791814286E+04  0.10951072205E+04 0.  0.
        3    1    3    3  502    0 -0.46409657792E+03  0.17753760265E+03  0.12950086679E+03  0.51349364036E+03  0.10100000352E+00 0.  1.
       -3    1    3    3    0  502  0.46409657792E+03 -0.17753760265E+03  0.70887946963E+03  0.86568778821E+03  0.10100000352E+00 0. -1.
</event>
<event>
 5   0  0.1509004E-03  0.1091466E+04  0.7818609E-02  0.9213550E-01
       -1   -1    0    0    0  501  0.00000000000E+00  0.00000000000E+00  0.11206112191E+03  0.11206112202E+03  0.50400001928E-02 0.  1.
        1   -1    0    0  501    0  0.00000000000E+00  0.00000000000E+00 -0.26576968906E+04  0.26576968906E+04  0.50400001928E-02 0. -1.
    10030    2    1    2    0    0  0.00000000000E+00  0.00000000000E+00 -0.25456357687E+04  0.27697580127E+04  0.10914659783E+04 0.  0.
        3    1    3    3  502    0 -0.26026265941E+03  0.22030206932E+03 -0.23540913110E+04  0.23786583539E+04  0.10100000352E+00 0. -1.
       -3    1    3    3    0  502  0.26026265941E+03 -0.22030206932E+03 -0.19154445771E+03  0.39109965880E+03  0.10100000352E+00 0.  1.
</event>
<event>
 5   0  0.1480937E-03  0.1095434E+04  0.7818609E-02  0.9209654E-01
        1   -1    0    0  501    0  0.00000000000E+00  0.00000000000E+00  0.88167565671E+03  0.88167565673E+03  0.50400001928E-02 0. -1.
       -1   -1    0    0    0  501  0.00000000000E+00  0.00000000000E+00 -0.34025427679E+03  0.34025427683E+03  0.50400001928E-02 0.  1.
    10030    2    1    2    0    0  0.00000000000E+00  0.00000000000E+00  0.54142137992E+03  0.12219299336E+04  0.10954340016E+04 0.  0.
        1    1    3    3  502    0  0.37423096603E+03  0.39649463120E+03  0.21235196812E+03  0.58510697047E+03  0.50400001928E-02 0. -1.
       -1    1    3    3    0  502 -0.37423096603E+03 -0.39649463120E+03  0.32906941180E+03  0.63682296309E+03  0.50400001928E-02 0.  1.
</event>
<event>
 5   0  0.1479573E-03  0.1102280E+04  0.7818609E-02  0.9202972E-01
       -1   -1    0    0    0  501  0.00000000000E+00  0.00000000000E+00  0.21053433367E+03  0.21053433373E+03  0.50400001928E-02 0. -1.
        1   -1    0    0  501    0  0.00000000000E+00  0.00000000000E+00 -0.14427832791E+04  0.14427832791E+04  0.50400001928E-02 0.  1.
    10030    2    1    2    0    0  0.00000000000E+00  0.00000000000E+00 -0.12322489454E+04  0.16533176128E+04  0.11022802118E+04 0.  0.
        4    1    3    3  502    0  0.75401176931E+02  0.14967186195E+03 -0.14036352637E+04  0.14136055214E+04  0.12699999809E+01 0.  1.
       -4    1    3    3    0  502 -0.75401176931E+02 -0.14967186195E+03  0.17138631832E+03  0.23971209138E+03  0.12699999809E+01 0. -1.
</event>
<event>
 5   0  0.2488472E-03  0.1117787E+04  0.7818609E-02  0.9188027E-01
       -2   -1    0    0    0  501  0.00000000000E+00  0.00000000000E+00  0.25260348333E+03  0.25260348335E+03  0.25500000920E-02 0. -1.
        2   -1    0    0  501    0  0.00000000000E+00  0.00000000000E+00 -0.12365696236E+04  0.12365696236E+04  0.25500000920E-02 0.  1.
    10030    2    1    2    0    0  0.00000000000E+00  0.00000000000E+00 -0.98396614026E+03  0.14891731069E+04  0.11177867316E+04 0.  0.
        2    1    3    3  502    0  0.48635507607E+03  0.66415637000E+02 -0.84799473079E+03  0.97982006527E+03  0.25500000920E-02 0.  1.
       -2    1    3    3    0  502 -0.48635507607E+03 -0.66415637000E+02 -0.13597140948E+03  0.50935304167E+03  0.25500000920E-02 0. -1.
</event>
<event>
 5   0  0.2488472E-03  0.1105283E+04  0.7818609E-02  0.9200058E-01
       -2   -1    0    0    0  501  0.00000000000E+00  0.00000000000E+00  0.15270867997E+03  0.15270867999E+03  0.25500000920E-02 0.  1.
        2   -1    0    0  501    0  0.00000000000E+00  0.00000000000E+00 -0.19999676828E+04  0.19999676829E+04  0.25500000920E-02 0. -1.
    10030    2    1    2    0    0  0.00000000000E+00  0.00000000000E+00 -0.18472590029E+04  0.21526763628E+04  0.11052826333E+04 0.  0.
        2    1    3    3  502    0 -0.34222168662E+03  0.28724120216E+03 -0.29015938545E+03  0.53274352177E+03  0.25500000920E-02 0.  1.
       -2    1    3    3    0  502  0.34222168662E+03 -0.28724120216E+03 -0.15570996174E+04  0.16199328411E+04  0.25500000920E-02 0. -1.
</event>
<event>
 5   0  0.2488472E-03  0.1103434E+04  0.7818609E-02  0.9201852E-01
        2   -1    0    0  501    0  0.00000000000E+00  0.00000000000E+00  0.59256373061E+03  0.59256373062E+03  0.25500000920E-02 0. -1.
       -2   -1    0    0    0  501  0.00000000000E+00  0.00000000000E+00 -0.51368552490E+03  0.51368552491E+03  0.25500000920E-02 0.  1.
    10030    2    1    2    0    0  0.00000000000E+00  0.00000000000E+00  0.78878205708E+02  0.11062492555E+04  0.11034335703E+04 0.  0.
        2    1    3    3  502    0  0.20514058013E+03 -0.39773529444E+03  0.36293163677E+03  0.57619041561E+03  0.25500000920E-02 0. -1.
       -2    1    3    3    0  502 -0.20514058013E+03  0.39773529444E+03 -0.28405343107E+03  0.53005883991E+03  0.25500000920E-02 0.  1.
</event>
<event>
 5   0  0.9631750E-04  0.1101032E+04  0.7818609E-02  0.9204186E-01
       -4   -1    0    0    0  501  0.00000000000E+00  0.00000000000E+00  0.30591928720E+03  0.30592192334E+03  0.12699999809E+01 0. -1.
        4   -1    0    0  501    0  0.00000000000E+00  0.00000000000E+00 -0.99067238852E+03  0.99067320256E+03  0.12699999809E+01 0.  1.
    10030    2    1    2    0    0  0.00000000000E+00  0.00000000000E+00 -0.68475310132E+03  0.12965951259E+04  0.11010322932E+04 0.  0.
        5    1    3    3  502    0  0.40692534731E+03  0.15624211461E+02  0.93840744856E+02  0.41792407165E+03  0.46999998093E+01 0. -1.
       -5    1    3    3    0  502 -0.40692534731E+03 -0.15624211461E+02 -0.77859384618E+03  0.87867105425E+03  0.46999998093E+01 0.  1.
</event>
<event>
 5   0  0.1479573E-03  0.1097733E+04  0.7818609E-02  0.9207405E-01
       -1   -1    0    0    0  501  0.00000000000E+00  0.00000000000E+00  0.57688459969E+03  0.57688459972E+03  0.50400001928E-02 0.  1.
        1   -1    0    0  501    0  0.00000000000E+00  0.00000000000E+00 -0.52220884921E+03  0.52220884924E+03  0.50400001928E-02 0. -1.
    10030    2    1    2    0    0  0.00000000000E+00  0.00000000000E+00  0.54675750482E+02  0.10990934490E+04  0.10977326504E+04 0.  0.
        4    1    3    3  502    0 -0.20245323773E+03 -0.42563264993E+03  0.30893759581E+03  0.56355524766E+03  0.12699999809E+01 0.  1.
       -4    1    3    3    0  502  0.20245323773E+03  0.42563264993E+03 -0.25426184533E+03  0.53553820130E+03  0.12699999809E+01 0. -1.
</event>
<event>
 5   0  0.1509004E-03  0.1103863E+04  0.7818609E-02  0.9201435E-01
        1   -1    0    0  501    0  0.00000000000E+00  0.00000000000E+00  0.12573700050E+04  0.12573700050E+04  0.50400001928E-02 0.  1.
       -1   -1    0    0    0  501  0.00000000000E+00  0.00000000000E+00 -0.24227404683E+03  0.24227404689E+03  0.50400001928E-02 0. -1.
    10030    2    1    2    0    0  0.00000000000E+00  0.00000000000E+00  0.10150959582E+04  0.14996440519E+04  0.11038625268E+04 0.  0.
        3    1    3    3  502    0  0.27805731573E+03  0.14764188227E+03 -0.10832907595E+03  0.33294022756E+03  0.10100000352E+00 0. -1.
       -3    1    3    3    0  502 -0.27805731573E+03 -0.14764188227E+03  0.11234250341E+04  0.11667038244E+04  0.10100000352E+00 0.  1.
</event>
<event>
 5   0  0.2392585E-03  0.1110496E+04  0.7818609E-02  0.9195022E-01
       -2   -1    0    0    0  501  0.00000000000E+00  0.00000000000E+00  0.44725736194E+03  0.44725736194E+03  0.25500000920E-02 0. -1.
        2   -1    0    0  501    0  0.00000000000E+00  0.00000000000E+00 -0.68931270848E+03  0.68931270848E+03  0.25500000920E-02 0.  1.
    10030    2    1    2    0    0  0.00000000000E+00  0.00000000000E+00 -0.24205534654E+03  0.11365700704E+04  0.11104957155E+04 0.  0.
        5    1    3    3  502    0  0.20553556750E+03  0.83179258513E+02  0.39995722189E+03  0.45733087354E+03  0.46999998093E+01 0. -1.
       -5    1    3    3    0  502 -0.20553556750E+03 -0.83179258513E+02 -0.64201256844E+03  0.67923919688E+03  0.46999998093E+01 0.  1.
</event>
<event>
 5   0  0.1415400E-03  0.9745822E+03  0.7818609E-02  0.9336870E-01
       -1   -1    0    0    0  501  0.00000000000E+00  0.00000000000E+00  0.73742752620E+03  0.73742752621E+03  0.50400001928E-02 0.  1.
        1   -1    0    0  501    0  0.00000000000E+00  0.00000000000E+00 -0.32200127331E+03  0.32200127335E+03  0.50400001928E-02 0. -1.
    10030    2    1    2    0    0  0.00000000000E+00  0.00000000000E+00  0.41542625288E+03  0.10594287996E+04  0.97458217189E+03 0.  0.
        2    1    3    3  502    0  0.25184986768E+02  0.32506508041E+03 -0.18596305162E+03  0.37534497017E+03  0.25500000920E-02 0. -1.
       -2    1    3    3    0  502 -0.25184986768E+02 -0.32506508041E+03  0.60138930451E+03  0.68408382939E+03  0.25500000920E-02 0.  1.
</event>
<event>
 5   0  0.2392585E-03  0.1103541E+04  0.7818609E-02  0.9201747E-01
        2   -1    0    0  501    0  0.00000000000E+00  0.00000000000E+00  0.29538615563E+03  0.29538615564E+03  0.25500000920E-02 0. -1.
       -2   -1    0    0    0  501  0.00000000000E+00  0.00000000000E+00 -0.10306871917E+04  0.10306871917E+04  0.25500000920E-02 0.  1.
    10030    2    1    2    0    0  0.00000000000E+00  0.00000000000E+00 -0.73530103603E+03  0.13260733473E+04  0.11035410771E+04 0.  0.
        5    1    3    3  502    0 -0.23431495817E+03  0.35051117600E+03  0.60021539620E+02  0.42589465756E+03  0.46999998093E+01 0. -1.
       -5    1    3    3    0  502  0.23431495817E+03 -0.35051117600E+03 -0.79532257565E+03  0.90017868974E+03  0.46999998093E+01 0.  1.
</event>
<event>
 5   0  0.1479573E-03  0.1101646E+04  0.7818609E-02  0.9203589E-01
        1   -1    0    0  501    0  0.00000000000E+00  0.00000000000E+00  0.39829969686E+03  0.39829969689E+03  0.50400001928E-02 0. -1.
       -1   -1    0    0    0  501  0.00000000000E+00  0.00000000000E+00 -0.76175322779E+03  0.76175322781E+03  0.50400001928E-02 0.  1.
    10030    2    1    2    0    0  0.00000000000E+00  0.00000000000E+00 -0.36345353093E+03  0.11600529247E+04  0.11016461859E+04 0.  0.
        4    1    3    3  502    0  0.12948519484E+03 -0.40051014507E+03  0.19239795033E+03  0.46281030258E+03  0.12699999809E+01 0. -1.
       -4    1    3    3    0  502 -0.12948519484E+03  0.40051014507E+03 -0.55585148126E+03  0.69724262212E+03  0.12699999809E+01 0.  1.
</event>
<event>
 5   0  0.1468556E-03  0.1090649E+04  0.7818609E-02  0.9214354E-01
        1   -1    0    0  501    0  0.00000000000E+00  0.00000000000E+00  0.34093598662E+03  0.34093598665E+03  0.50400001928E-02 0. -1.
       -1   -1    0    0    0  501  0.00000000000E+00  0.00000000000E+00 -0.87224265729E+03  0.87224265730E+03  0.50400001928E-02 0.  1.
    10030    2    1    2    0    0  0.00000000000E+00  0.00000000000E+00 -0.53130667067E+03  0.12131786440E+04  0.10906491846E+04 0.  0.
        5    1    3    3  502    0 -0.17213488047E+03 -0.12157534264E+02  0.30974071221E+03  0.35459783066E+03  0.46999998093E+01 0. -1.
       -5    1    3    3    0  502  0.17213488047E+03  0.12157534264E+02 -0.84104738288E+03  0.85858081329E+03  0.46999998093E+01 0.  1.
</event>
<event>
 5   0  0.1509004E-03  0.1098678E+04  0.7818609E-02  0.9206482E-01
       -1   -1    0    0    0  501  0.00000000000E+00  0.00000000000E+00  0.24166204620E+03  0.24166204625E+03  0.50400001928E-02 0. -1.
        1   -1    0    0  501    0  0.00000000000E+00  0.00000000000E+00 -0.12487401958E+04  0.12487401959E+04  0.50400001928E-02 0.  1.
    10030    2    1    2    0    0  0.00000000000E+00  0.00000000000E+00 -0.10070781496E+04  0.14904022421E+04  0.10986775886E+04 0.  0.
        3    1    3    3  502    0  0.40261578546E+03  0.36533177644E+03 -0.61040774921E+03  0.81741324192E+03  0.10100000352E+00 0. -1.
       -3    1    3    3    0  502 -0.40261578546E+03 -0.36533177644E+03 -0.39667040044E+03  0.67298900018E+03  0.10100000352E+00 0.  1.
</event>
<event>
 5   0  0.1480937E-03  0.1096150E+04  0.7818609E-02  0.9208953E-01
       -1   -1    0    0    0  501  0.00000000000E+00  0.00000000000E+00  0.31096828106E+03  0.31096828110E+03  0.50400001928E-02 0. -1.
        1   -1    0    0  501    0  0.00000000000E+00  0.00000000000E+00 -0.96596971440E+03  0.96596971441E+03  0.50400001928E-02 0.  1.
    10030    2    1    2    0    0  0.00000000000E+00  0.00000000000E+00 -0.65500143334E+03  0.12769379955E+04  0.10961495184E+04 0.  0.
        1    1    3    3  502    0 -0.11137034441E+03  0.38425389084E+03  0.10889215788E+03  0.41462260950E+03  0.50400001928E-02 0. -1.
       -1    1    3    3    0  502  0.11137034441E+03 -0.38425389084E+03 -0.76389359121E+03  0.86231538602E+03  0.50400001928E-02 0.  1.
</event>
<event>
 5   0  0.2438115E-03  0.1100994E+04  0.7818609E-02  0.9204223E-01
       -2   -1    0    0    0  501  0.00000000000E+00  0.00000000000E+00  0.26894475882E+03  0.26894475884E+03  0.25500000920E-02 0.  1.
        2   -1    0    0  501    0  0.00000000000E+00  0.00000000000E+00 -0.11268009839E+04  0.11268009840E+04  0.25500000920E-02 0. -1.
    10030    2    1    2    0    0  0.00000000000E+00  0.00000000000E+00 -0.85785622513E+03  0.13957457428E+04  0.11009944939E+04 0.  0.
        4    1    3    3  502    0 -0.45356709688E+03 -0.30761249292E+03 -0.49476443561E+03  0.73833733268E+03  0.12699999809E+01 0. -1.
       -4    1    3    3    0  502  0.45356709688E+03  0.30761249292E+03 -0.36309178951E+03  0.65740841011E+03  0.12699999809E+01 0.  1.
</event>
<event>
 5   0  0.2488472E-03  0.1114103E+04  0.7818609E-02  0.9191555E-01
        2   -1    0    0  501    0  0.00000000000E+00  0.00000000000E+00  0.10697623374E+04  0.10697623374E+04  0.25500000920E-02 0.  1.
       -2   -1    0    0    0  501  0.00000000000E+00  0.00000000000E+00 -0.29007012716E+03  0.29007012717E+03  0.25500000920E-02 0. -1.
    10030    2    1    2    0    0  0.00000000000E+00  0.00000000000E+00  0.77969221024E+03  0.13598324646E+04  0.11141025038E+04 0.  0.
        2    1    3    3  502    0  0.17529949010E+03 -0.47531319857E+03  0.67256802631E+03  0.84202155434E+03  0.25500000920E-02 0.  1.
       -2    1    3    3    0  502 -0.17529949010E+03  0.47531319857E+03  0.10712418393E+03  0.51781091023E+03  0.25500000920E-02 0. -1.
</event>
<event>
 5   0  0.1509004E-03  0.1145622E+04  0.7818609E-02  0.9161832E-01
       -1   -1    0    0    0  501  0.00000000000E+00  0.00000000000E+00  0.30451802873E+03  0.30451802877E+03  0.50400001928E-02 0. -1.
        1   -1    0    0  501    0  0.00000000000E+00  0.00000000000E+00 -0.10774816015E+04  0.10774816015E+04  0.50400001928E-02 0.  1.
    10030    2    1    2    0    0  0.00000000000E+00  0.00000000000E+00 -0.77296357278E+03  0.13819996303E+04  0.11456222297E+04 0.  0.
        3    1    3    3  502    0 -0.52765476911E+03  0.16695310567E+03 -0.56467475638E+03  0.79066458474E+03  0.10100000352E+00 0.  1.
       -3    1    3    3    0  502  0.52765476911E+03 -0.16695310567E+03 -0.20828881640E+03  0.59133504555E+03  0.10100000352E+00 0. -1.
</event>
<event>
 5   0  0.2483036E-03  0.1093598E+04  0.7818609E-02  0.9211454E-01
       -2   -1    0    0    0  501  0.00000000000E+00  0.00000000000E+00  0.22388596379E+03  0.22388596380E+03  0.25500000920E-02 0. -1.
        2   -1    0    0  501    0  0.00000000000E+00  0.00000000000E+00 -0.13354537457E+04  0.13354537457E+04  0.25500000920E-02 0.  1.
    10030    2    1    2    0    0  0.00000000000E+00  0.00000000000E+00 -0.11115677819E+04  0.15593397095E+04  0.10935983704E+04 0.  0.
        3    1    3    3  502    0  0.11648355570E+03 -0.20208028190E+03  0.14939179829E+03  0.27698876995E+03  0.10100000352E+00 0. -1.
       -3    1    3    3    0  502 -0.11648355570E+03  0.20208028190E+03 -0.12609595802E+04  0.12823509395E+04  0.10100000352E+00 0.  1.
</event>
<event>
 5   0  0.1480937E-03  0.1084871E+04  0.7818609E-02  0.9220065E-01
        1   -1    0    0  501    0  0.00000000000E+00  0.00000000000E+00  0.48087552034E+03  0.48087552036E+03  0.50400001928E-02 0. -1.
       -1   -1    0    0    0  501  0.00000000000E+00  0.00000000000E+00 -0.61187578741E+03  0.61187578743E+03  0.50400001928E-02 0.  1.
    10030    2    1    2    0    0  0.00000000000E+00  0.00000000000E+00 -0.13100026708E+03  0.10927513078E+04  0.10848706608E+04 0.  0.
        1    1    3    3  502    0  0.12835116088E+03 -0.44043977663E+03  0.22604127837E+03  0.51142533853E+03  0.50400001928E-02 0. -1.
       -1    1    3    3    0  502 -0.12835116088E+03  0.44043977663E+03 -0.35704154545E+03  0.58132596926E+03  0.50400001928E-02 0.  1.
</event>
<event>
 5   0  0.1479573E-03  0.1103397E+04  0.7818609E-02  0.9201887E-01
       -1   -1    0    0    0  501  0.00000000000E+00  0.00000000000E+00  0.36362127208E+03  0.36362127211E+03  0.50400001928E-02 0. -1.
        1   -1    0    0  501    0  0.00000000000E+00  0.00000000000E+00 -0.83705614226E+03  0.83705614227E+03  0.50400001928E-02 0.  1.
    10030    2    1    2    0    0  0.00000000000E+00  0.00000000000E+00 -0.47343487018E+03  0.12006774144E+04  0.11033973342E+04 0.  0.
        4    1    3    3  502    0 -0.45056820135E+03  0.20169832455E+03  0.31324337999E+02  0.49464810244E+03  0.12699999809E+01 0. -1.
       -4    1    3    3    0  502  0.45056820135E+03 -0.20169832455E+03 -0.50475920818E+03  0.70602931195E+03  0.12699999809E+01 0.  1.
</event>
<event>
 5   0  0.1468556E-03  0.1096297E+04  0.7818609E-02  0.9208809E-01
        1   -1    0    0  501    0  0.00000000000E+00  0.00000000000E+00  0.73800097383E+03  0.73800097385E+03  0.50400001928E-02 0.  1.
       -1   -1    0    0    0  501  0.00000000000E+00  0.00000000000E+00 -0.40713589085E+03  0.40713589088E+03  0.50400001928E-02 0. -1.
    10030    2    1    2    0    0  0.00000000000E+00  0.00000000000E+00  0.33086508298E+03  0.11451368647E+04  0.10962968283E+04 0.  0.
        5    1    3    3  502    0 -0.59315124756E+02 -0.54462085984E+03  0.14691042933E+03  0.56721682736E+03  0.46999998093E+01 0.  1.
       -5    1    3    3    0  502  0.59315124756E+02  0.54462085984E+03  0.18395465365E+03  0.57792003737E+03  0.46999998093E+01 0. -1.
</event>
<event>
 5   0  0.2483036E-03  0.1098577E+04  0.7818609E-02  0.9206580E-01
       -2   -1    0    0    0  501  0.00000000000E+00  0.00000000000E+00  0.36840901600E+03  0.36840901601E+03  0.25500000920E-02 0.  1.
        2   -1    0    0  501    0  0.00000000000E+00  0.00000000000E+00 -0.81897516707E+03  0.81897516708E+03  0.25500000920E-02 0. -1.
    10030    2    1    2    0    0  0.00000000000E+00  0.00000000000E+00 -0.45056615107E+03  0.11873841831E+04  0.10985769621E+04 0.  0.
        3    1    3    3  502    0  0.33031937023E+03  0.82931850789E+02  0.24051846564E+03  0.41693850955E+03  0.10100000352E+00 0.  1.
       -3    1    3    3    0  502 -0.33031937023E+03 -0.82931850789E+02 -0.69108461671E+03  0.77044567354E+03  0.10100000352E+00 0. -1.
</event>
<event>
 5   0  0.1480937E-03  0.1094390E+04  0.7818609E-02  0.9210677E-01
       -1   -1    0    0    0  501  0.00000000000E+00  0.00000000000E+00  0.11223759510E+04  0.11223759510E+04  0.50400001928E-02 0. -1.
        1   -1    0    0  501    0  0.00000000000E+00  0.00000000000E+00 -0.26677560094E+03  0.26677560098E+03  0.50400001928E-02 0.  1.
    10030    2    1    2    0    0  0.00000000000E+00  0.00000000000E+00  0.85560035002E+03  0.13891515519E+04  0.10943902756E+04 0.  0.
        1    1    3    3  502    0 -0.25066115809E+03  0.31296940253E+03 -0.44833074942E+02  0.40347350314E+03  0.50400001928E-02 0.  1.
       -1    1    3    3    0  502  0.25066115809E+03 -0.31296940253E+03  0.90043342496E+03  0.98567804881E+03  0.50400001928E-02 0. -1.
</event>
<event>
 5   0  0.2467448E-03  0.1117520E+04  0.7818609E-02  0.9188282E-01
        2   -1    0    0  501    0  0.00000000000E+00  0.00000000000E+00  0.18121863811E+04  0.18121863811E+04  0.25500000920E-02 0. -1.
       -2   -1    0    0    0  501  0.00000000000E+00  0.00000000000E+00 -0.17228507715E+03  0.17228507717E+03  0.25500000920E-02 0.  1.
    10030    2    1    2    0    0  0.00000000000E+00  0.00000000000E+00  0.16399013039E+04  0.19844714582E+04  0.11175198799E+04 0.  0.
        1    1    3    3  502    0 -0.17509625153E+03  0.83697671617E+02  0.17504140071E+04  0.17611397428E+04  0.50400001928E-02 0. -1.
       -1    1    3    3    0  502  0.17509625153E+03 -0.83697671617E+02 -0.11051270315E+03  0.22333171543E+03  0.50400001928E-02 0.  1.
</event>
<event>
 5   0  0.1479573E-03  0.1109108E+04  0.7818609E-02  0.9196359E-01
       -1   -1    0    0    0  501  0.00000000000E+00  0.00000000000E+00  0.22583405898E+03  0.22583405903E+03  0.50400001928E-02 0.  1.
        1   -1    0    0  501    0  0.00000000000E+00  0.00000000000E+00 -0.13617538641E+04  0.13617538641E+04  0.50400001928E-02 0. -1.
    10030    2    1    2    0    0  0.00000000000E+00  0.00000000000E+00 -0.11359198051E+04  0.15875879231E+04  0.11091084753E+04 0.  0.
        4    1    3    3  502    0 -0.39717068031E+03 -0.21828289152E+03 -0.11049800436E+03  0.46647978723E+03  0.12699999809E+01 0.  1.
       -4    1    3    3    0  502  0.39717068031E+03  0.21828289152E+03 -0.10254218007E+04  0.11211081359E+04  0.12699999809E+01 0. -1.
</event>
<event>
 5   0  0.1468556E-03  0.1101919E+04  0.7818609E-02  0.9203324E-01
        1   -1    0    0  501    0  0.00000000000E+00  0.00000000000E+00  0.38500509764E+03  0.38500509768E+03  0.50400001928E-02 0.  1.
       -1   -1    0    0    0  501  0.00000000000E+00  0.00000000000E+00 -0.78844758875E+03  0.78844758877E+03  0.50400001928E-02 0. -1.
    10030    2    1    2    0    0  0.00000000000E+00  0.00000000000E+00 -0.40344249111E+03  0.11734526864E+04  0.11019189461E+04 0.  0.
        5    1    3    3  502    0 -0.32237115643E+03  0.59164632094E+02 -0.67331332892E+03  0.74886350231E+03  0.46999998093E+01 0. -1.
       -5    1    3    3    0  502  0.32237115643E+03 -0.59164632094E+02  0.26987083781E+03  0.42458918414E+03  0.46999998093E+01 0.  1.
</event>
<event>
 5   0  0.1415400E-03  0.1097725E+04  0.7818609E-02  0.9207412E-01
        1   -1    0    0  501    0  0.00000000000E+00  0.00000000000E+00  0.12399639970E+04  0.12399639970E+04  0.50400001928E-02 0. -1.
       -1   -1    0    0    0  501  0.00000000000E+00  0.00000000000E+00 -0.24295057068E+03  0.24295057073E+03  0.50400001928E-02 0.  1.
    10030    2    1    2    0    0  0.00000000000E+00  0.00000000000E+00  0.99701342634E+03  0.14829145678E+04  0.10977248485E+04 0.  0.
        2    1    3    3  502    0 -0.92431827523E+02 -0.14219074402E+03 -0.20666748761E+03  0.26734490993E+03  0.25500000920E-02 0.  1.
       -2    1    3    3    0  502  0.92431827523E+02  0.14219074402E+03  0.12036809140E+04  0.12155696578E+04  0.25500000920E-02 0. -1.
</event>
<event>
 5   0  0.1415400E-03  0.1104643E+04  0.7818609E-02  0.9200678E-01
       -1   -1    0    0    0  501  0.00000000000E+00  0.00000000000E+00  0.30761974413E+03  0.30761974417E+03  0.50400001928E-02 0.  1.
        1   -1    0    0  501    0  0.00000000000E+00  0.00000000000E+00 -0.99167579163E+03  0.99167579164E+03  0.50400001928E-02 0. -1.
    10030    2    1    2    0    0  0.00000000000E+00  0.00000000000E+00 -0.68405604750E+03  0.12992955358E+04  0.11046430253E+04 0.  0.
        2    1    3    3  502    0  0.23994039377E+02 -0.10413908596E+03 -0.97939918414E+03  0.98521237561E+03  0.25500000920E-02 0. -1.
       -2    1    3    3    0  502 -0.23994039377E+02  0.10413908596E+03  0.29534313664E+03  0.31408316019E+03  0.25500000920E-02 0.  1.
</event>
<event>
 5   0  0.1468556E-03  0.1131524E+04  0.7818609E-02  0.9174999E-01
       -1   -1    0    0    0  501  0.00000000000E+00  0.00000000000E+00  0.57120170940E+03  0.57120170942E+03  0.50400001928E-02 0. -1.
        1   -1    0    0  501    0  0.00000000000E+00  0.00000000000E+00 -0.56037448520E+03  0.56037448523E+03  0.50400001928E-02 0.  1.
    10030    2    1    2    0    0  0.00000000000E+00  0.00000000000E+00  0.10827224191E+02  0.11315761946E+04  0.11315243946E+04 0.  0.
        5    1    3    3  502    0 -0.26618332729E+03  0.30169086336E+03 -0.39234047948E+03  0.56198227961E+03  0.46999998093E+01 0.  1.
       -5    1    3    3    0  502  0.26618332729E+03 -0.30169086336E+03  0.40316770367E+03  0.56959391503E+03  0.46999998093E+01 0. -1.
</event>
<event>
 5   0  0.2488472E-03  0.1092864E+04  0.7818609E-02  0.9212175E-01
        2   -1    0    0  501    0  0.00000000000E+00  0.00000000000E+00  0.49924231299E+03  0.49924231299E+03  0.25500000920E-02 0. -1.
       -2   -1    0    0    0  501  0.00000000000E+00  0.00000000000E+00 -0.59808211635E+03  0.59808211635E+03  0.25500000920E-02 0.  1.
    10030    2    1    2    0    0  0.00000000000E+00  0.00000000000E+00 -0.98839803363E+02  0.10973244293E+04  0.10928639424E+04 0.  0.
        2    1    3    3  502    0 -0.59325386294E+02  0.91710659572E+02  0.48816943407E+03  0.50023968546E+03  0.25500000920E-02 0. -1.
       -2    1    3    3    0  502  0.59325386294E+02 -0.91710659572E+02 -0.58700923744E+03  0.59708474389E+03  0.25500000920E-02 0.  1.
</event>
<event>
 5   0  0.1479573E-03  0.1096823E+04  0.7818609E-02  0.9208294E-01
        1   -1    0    0  501    0  0.00000000000E+00  0.00000000000E+00  0.12876832709E+04  0.12876832709E+04  0.50400001928E-02 0.  1.
       -1   -1    0    0    0  501  0.00000000000E+00  0.00000000000E+00 -0.23356296854E+03  0.23356296860E+03  0.50400001928E-02 0. -1.
    10030    2    1    2    0    0  0.00000000000E+00  0.00000000000E+00  0.10541203023E+04  0.15212462395E+04  0.10968229161E+04 0.  0.
        4    1    3    3  502    0  0.35129617743E+03 -0.41414116509E+03  0.63297505389E+03  0.83401495230E+03  0.12699999809E+01 0. -1.
       -4    1    3    3    0  502 -0.35129617743E+03  0.41414116509E+03  0.42114524845E+03  0.68723128719E+03  0.12699999809E+01 0.  1.
</event>
<event>
 5   0  0.1480937E-03  0.1118428E+04  0.7818609E-02  0.9187415E-01
       -1   -1    0    0    0  501  0.00000000000E+00  0.00000000000E+00  0.84546735038E+03  0.84546735040E+03  0.50400001928E-02 0. -1.
        1   -1    0    0  501    0  0.00000000000E+00  0.00000000000E+00 -0.36987835307E+03  0.36987835310E+03  0.50400001928E-02 0.  1.
    10030    2    1    2    0    0  0.00000000000E+00  0.00000000000E+00  0.47558899731E+03  0.12153457035E+04  0.11184275947E+04 0.  0.
        1    1    3    3  502    0 -0.20353702578E+03 -0.82214204239E+02  0.79669224283E+03  0.82638067866E+03  0.50400001928E-02 0. -1.
       -1    1    3    3    0  502  0.20353702578E+03  0.82214204239E+02 -0.32110324552E+03  0.38896502484E+03  0.50400001928E-02 0.  1.
</event>
<event>
 5   0  0.1480937E-03  0.1100271E+04  0.7818609E-02  0.9204928E-01
        1   -1    0    0  501    0  0.00000000000E+00  0.00000000000E+00  0.12669374973E+04  0.12669374973E+04  0.50400001928E-02 0. -1.
       -1   -1    0    0    0  501  0.00000000000E+00  0.00000000000E+00 -0.23888223297E+03  0.23888223302E+03  0.50400001928E-02 0.  1.
    10030    2    1    2    0    0  0.00000000000E+00  0.00000000000E+00  0.10280552643E+04  0.15058197304E+04  0.11002706184E+04 0.  0.
        1    1    3    3  502    0  0.36307734904E+03  0.34510219992E+03  0.20275780888E+03  0.54039931427E+03  0.50400001928E-02 0.  1.
       -1    1    3    3    0  502 -0.36307734904E+03 -0.34510219992E+03  0.82529745546E+03  0.96542041608E+03  0.50400001928E-02 0. -1.
</event>
<event>
 5   0  0.9631750E-04  0.1116185E+04  0.7818609E-02  0.9189559E-01
        3   -1    0    0  501    0  0.00000000000E+00  0.00000000000E+00  0.73616724510E+03  0.73616725203E+03  0.10100000352E+00 0. -1.
       -3   -1    0    0    0  501  0.00000000000E+00  0.00000000000E+00 -0.42309312109E+03  0.42309313315E+03  0.10100000352E+00 0.  1.
    10030    2    1    2    0    0  0.00000000000E+00  0.00000000000E+00  0.31307412401E+03  0.11592603852E+04  0.11161851251E+04 0.  0.
        3    1    3    3  502    0  0.43152004457E+03  0.29618183710E+03  0.35775078040E+03  0.63397070955E+03  0.10100000352E+00 0. -1.
       -3    1    3    3    0  502 -0.43152004457E+03 -0.29618183710E+03 -0.44676656385E+02  0.52528967563E+03  0.10100000352E+00 0.  1.
</event>
<event>
 5   0  0.2438115E-03  0.1113783E+04  0.7818609E-02  0.9191861E-01
       -2   -1    0    0    0  501  0.00000000000E+00  0.00000000000E+00  0.25039599252E+03  0.25039599253E+03  0.25500000920E-02 0.  1.
        2   -1    0    0  501    0  0.00000000000E+00  0.00000000000E+00 -0.12385513027E+04  0.12385513027E+04  0.25500000920E-02 0. -1.
    10030    2    1    2    0    0  0.00000000000E+00  0.00000000000E+00 -0.98815531015E+03  0.14889472952E+04  0.11137832513E+04 0.  0.
        4    1    3    3  502    0 -0.43678821603E+03  0.29085845151E+03 -0.74326104168E+03  0.90984678570E+03  0.12699999809E+01 0. -1.
       -4    1    3    3    0  502  0.43678821603E+03 -0.29085845151E+03 -0.24489426847E+03  0.57910050950E+03  0.12699999809E+01 0.  1.
</event>
<event>
 5   0  0.1480937E-03  0.1103996E+04  0.7818609E-02  0.9201305E-01
       -1   -1    0    0    0  501  0.00000000000E+00  0.00000000000E+00  0.10036429543E+04  0.10036429543E+04  0.50400001928E-02 0. -1.
        1   -1    0    0  501    0  0.00000000000E+00  0.00000000000E+00 -0.30359605026E+03  0.30359605030E+03  0.50400001928E-02 0.  1.
    10030    2    1    2    0    0  0.00000000000E+00  0.00000000000E+00  0.70004690406E+03  0.13072390046E+04  0.11039964435E+04 0.  0.
        1    1    3    3  502    0 -0.30233453136E+03  0.18968080169E+03  0.84863529081E+03  0.92063392954E+03  0.50400001928E-02 0. -1.
       -1    1    3    3    0  502  0.30233453136E+03 -0.18968080169E+03 -0.14858838676E+03  0.38660507509E+03  0.50400001928E-02 0.  1.
</event>
<event>
 5   0  0.2438115E-03  0.1096896E+04  0.7818609E-02  0.9208223E-01
        2   -1    0    0  501    0  0.00000000000E+00  0.00000000000E+00  0.12527104642E+04  0.12527104642E+04  0.25500000920E-02 0. -1.
       -2   -1    0    0    0  501  0.00000000000E+00  0.00000000000E+00 -0.24011530080E+03  0.24011530082E+03  0.25500000920E-02 0.  1.
    10030    2    1    2    0    0  0.00000000000E+00  0.00000000000E+00  0.10125951634E+04  0.14928257650E+04  0.10968955282E+04 0.  0.
        4    1    3    3  502    0 -0.24092684358E+03  0.13423023571E+02  0.11765834861E+04  0.12010729512E+04  0.12699999809E+01 0. -1.
       -4    1    3    3    0  502  0.24092684358E+03 -0.13423023571E+02 -0.16398832265E+03  0.29175281384E+03  0.12699999809E+01 0.  1.
</event>
<event>
 5   0  0.2483036E-03  0.1098727E+04  0.7818609E-02  0.9206434E-01
       -2   -1    0    0    0  501  0.00000000000E+00  0.00000000000E+00  0.61007675517E+03  0.61007675517E+03  0.25500000920E-02 0.  1.
        2   -1    0    0  501    0  0.00000000000E+00  0.00000000000E+00 -0.49469216289E+03  0.49469216290E+03  0.25500000920E-02 0. -1.
    10030    2    1    2    0    0  0.00000000000E+00  0.00000000000E+00  0.11538459227E+03  0.11047689181E+04  0.10987268806E+04 0.  0.
        3    1    3    3  502    0  0.22803302322E+03 -0.49885091001E+03  0.88665737446E+02  0.55561939608E+03  0.10100000352E+00 0.  1.
       -3    1    3    3    0  502 -0.22803302322E+03  0.49885091001E+03  0.26718854826E+02  0.54914952199E+03  0.10100000352E+00 0. -1.
</event>
<event>
 5   0  0.2467448E-03  0.1101936E+04  0.7818609E-02  0.9203307E-01
        2   -1    0    0  501    0  0.00000000000E+00  0.00000000000E+00  0.69972202423E+03  0.69972202423E+03  0.25500000920E-02 0. -1.
       -2   -1    0    0    0  501  0.00000000000E+00  0.00000000000E+00 -0.43383796455E+03  0.43383796455E+03  0.25500000920E-02 0.  1.
    10030    2    1    2    0    0  0.00000000000E+00  0.00000000000E+00  0.26588405968E+03  0.11335599888E+04  0.11019364387E+04 0.  0.
        1    1    3    3  502    0 -0.30618969555E+03  0.27320875602E+03 -0.24526486810E+03  0.47806904268E+03  0.50400001928E-02 0.  1.
       -1    1    3    3    0  502  0.30618969555E+03 -0.27320875602E+03  0.51114892778E+03  0.65549094610E+03  0.50400001928E-02 0. -1.
</event>
<event>
 5   0  0.2438115E-03  0.1232754E+04  0.7818609E-02  0.9084660E-01
        2   -1    0    0  501    0  0.00000000000E+00  0.00000000000E+00  0.71653594460E+03  0.71653594461E+03  0.25500000920E-02 0. -1.
       -2   -1    0    0    0  501  0.00000000000E+00  0.00000000000E+00 -0.53021884795E+03  0.53021884796E+03  0.25500000920E-02 0.  1.
    10030    2    1    2    0    0  0.00000000000E+00  0.00000000000E+00  0.18631709665E+03  0.12467547926E+04  0.12327544169E+04 0.  0.
        4    1    3    3  502    0  0.60893403257E+03 -0.26505557172E+02  0.37763957266E+00  0.60951206394E+03  0.12699999809E+01 0. -1.
       -4    1    3    3    0  502 -0.60893403257E+03  0.26505557172E+02  0.18593945708E+03  0.63724272862E+03  0.12699999809E+01 0.  1.
</event>
<event>
 5   0  0.1480937E-03  0.1105426E+04  0.7818609E-02  0.9199919E-01
        1   -1    0    0  501    0  0.00000000000E+00  0.00000000000E+00  0.76767262602E+03  0.76767262604E+03  0.50400001928E-02 0. -1.
       -1   -1    0    0    0  501  0.00000000000E+00  0.00000000000E+00 -0.39794527185E+03  0.39794527188E+03  0.50400001928E-02 0.  1.
    10030    2    1    2    0    0  0.00000000000E+00  0.00000000000E+00  0.36972735417E+03  0.11656178979E+04  0.11054260570E+04 0.  0.
        1    1    3    3  502    0  0.21470822342E+03  0.16235046452E+03  0.69388564424E+03  0.74426781594E+03  0.50400001928E-02 0. -1.
       -1    1    3    3    0  502 -0.21470822342E+03 -0.16235046452E+03 -0.32415829007E+03  0.42135008198E+03  0.50400001928E-02 0.  1.
</event>
<event>
 5   0  0.2483036E-03  0.1075483E+04  0.7818609E-02  0.9229423E-01
        2   -1    0    0  501    0  0.00000000000E+00  0.00000000000E+00  0.98172611540E+03  0.98172611540E+03  0.25500000920E-02 0.  1.
       -2   -1    0    0    0  501  0.00000000000E+00  0.00000000000E+00 -0.29454827006E+03  0.29454827008E+03  0.25500000920E-02 0. -1.
    10030    2    1    2    0    0  0.00000000000E+00  0.00000000000E+00  0.68717784534E+03  0.12762743855E+04  0.10754826432E+04 0.  0.
        3    1    3    3  502    0  0.73550801094E+02 -0.45580974842E+03  0.67072526222E+03  0.81427552749E+03  0.10100000352E+00 0.  1.
       -3    1    3    3    0  502 -0.73550801094E+02  0.45580974842E+03  0.16452583120E+02  0.46199885799E+03  0.10100000352E+00 0. -1.
</event>
<event>
 5   0  0.1480937E-03  0.1097676E+04  0.7818609E-02  0.9207460E-01
       -1   -1    0    0    0  501  0.00000000000E+00  0.00000000000E+00  0.63762054578E+03  0.63762054580E+03  0.50400001928E-02 0. -1.
        1   -1    0    0  501    0  0.00000000000E+00  0.00000000000E+00 -0.47241742088E+03  0.47241742091E+03  0.50400001928E-02 0.  1.
    10030    2    1    2    0    0  0.00000000000E+00  0.00000000000E+00  0.16520312490E+03  0.11100379667E+04  0.10976758242E+04 0.  0.
        1    1    3    3  502    0  0.39548737154E+03  0.16020101003E+03  0.43166783978E+03  0.60696931437E+03  0.50400001928E-02 0. -1.
       -1    1    3    3    0  502 -0.39548737154E+03 -0.16020101003E+03 -0.26646471488E+03  0.50306865234E+03  0.50400001928E-02 0.  1.
</event>
<event>
 5   0  0.2438115E-03  0.1103091E+04  0.7818609E-02  0.9202185E-01
       -2   -1    0    0    0  501  0.00000000000E+00  0.00000000000E+00  0.19056046311E+03  0.19056046313E+03  0.25500000920E-02 0.  1.
        2   -1    0    0  501    0  0.00000000000E+00  0.00000000000E+00 -0.15963557849E+04  0.15963557849E+04  0.25500000920E-02 0. -1.
    10030    2    1    2    0    0  0.00000000000E+00  0.00000000000E+00 -0.14057953218E+04  0.17869162481E+04  0.11030907446E+04 0.  0.
        4    1    3    3  502    0 -0.26325838809E+03 -0.12495143439E+03  0.55671679631E+02  0.29667960609E+03  0.12699999809E+01 0.  1.
       -4    1    3    3    0  502  0.26325838809E+03  0.12495143439E+03 -0.14614670015E+04  0.14902366420E+04  0.12699999809E+01 0. -1.
</event>
<event>
 5   0  0.2488472E-03  0.1098805E+04  0.7818609E-02  0.9206357E-01
        2   -1    0    0  501    0  0.00000000000E+00  0.00000000000E+00  0.75426727309E+03  0.75426727309E+03  0.25500000920E-02 0.  1.
       -2   -1    0    0    0  501  0.00000000000E+00  0.00000000000E+00 -0.40018064319E+03  0.40018064320E+03  0.25500000920E-02 0. -1.
    10030    2    1    2    0    0  0.00000000000E+00  0.00000000000E+00  0.35408662990E+03  0.11544479163E+04  0.10988051010E+04 0.  0.
        2    1    3    3  502    0 -0.12001102319E+03  0.46657721156E+03  0.45451202979E+03  0.66232780801E+03  0.25500000920E-02 0.  1.
       -2    1    3    3    0  502  0.12001102319E+03 -0.46657721156E+03 -0.10042539989E+03  0.49212010829E+03  0.25500000920E-02 0. -1.
</event>
<event>
 5   0  0.2467448E-03  0.1094412E+04  0.7818609E-02  0.9210655E-01
        2   -1    0    0  501    0  0.00000000000E+00  0.00000000000E+00  0.92196154707E+03  0.92196154708E+03  0.25500000920E-02 0.  1.
       -2   -1    0    0    0  501  0.00000000000E+00  0.00000000000E+00 -0.32477978675E+03  0.32477978676E+03  0.25500000920E-02 0. -1.
    10030    2    1    2    0    0  0.00000000000E+00  0.00000000000E+00  0.59718176033E+03  0.12467413338E+04  0.10944121247E+04 0.  0.
        1    1    3    3  502    0  0.11180823148E+03 -0.51123691957E+03  0.11642687083E+03  0.53611517870E+03  0.50400001928E-02 0.  1.
       -1    1    3    3    0  502 -0.11180823148E+03  0.51123691957E+03  0.48075488949E+03  0.71062615513E+03  0.50400001928E-02 0. -1.
</event>
<event>
 5   0  0.2483036E-03  0.1096585E+04  0.7818609E-02  0.9208527E-01
        2   -1    0    0  501    0  0.00000000000E+00  0.00000000000E+00  0.97452668150E+03  0.97452668150E+03  0.25500000920E-02 0.  1.
       -2   -1    0    0    0  501  0.00000000000E+00  0.00000000000E+00 -0.30848285558E+03  0.30848285559E+03  0.25500000920E-02 0. -1.
    10030    2    1    2    0    0  0.00000000000E+00  0.00000000000E+00  0.66604382591E+03  0.12830095371E+04  0.10965851970E+04 0.  0.
        3    1    3    3  502    0 -0.36128380800E+03 -0.32346460754E+03  0.63239086433E+03  0.79691502542E+03  0.10100000352E+00 0.  1.
       -3    1    3    3    0  502  0.36128380800E+03  0.32346460754E+03  0.33652961580E+02  0.48609451167E+03  0.10100000352E+00 0. -1.
</event>
<event>
 5   0  0.9631750E-04  0.1051841E+04  0.7818609E-02  0.9253446E-01
        3   -1    0    0  501    0  0.00000000000E+00  0.00000000000E+00  0.62231082511E+03  0.62231083331E+03  0.10100000352E+00 0.  1.
       -3   -1    0    0    0  501  0.00000000000E+00  0.00000000000E+00 -0.44445981967E+03  0.44445983114E+03  0.10100000352E+00 0. -1.
    10030    2    1    2    0    0  0.00000000000E+00  0.00000000000E+00  0.17785100545E+03  0.10667706645E+04  0.10518406107E+04 0.  0.
        3    1    3    3  502    0  0.16236098998E+03  0.85038644958E+02  0.58887232866E+03  0.61673599852E+03  0.10100000352E+00 0.  1.
       -3    1    3    3    0  502 -0.16236098998E+03 -0.85038644958E+02 -0.41102132322E+03  0.45003466593E+03  0.10100000352E+00 0. -1.
</event>
<event>
 5   0  0.2488472E-03  0.1076202E+04  0.7818609E-02  0.9228702E-01
       -2   -1    0    0    0  501  0.00000000000E+00  0.00000000000E+00  0.43385602930E+03  0.43385602931E+03  0.25500000920E-02 0. -1.
        2   -1    0    0  501    0  0.00000000000E+00  0.00000000000E+00 -0.66739384817E+03  0.66739384818E+03  0.25500000920E-02 0.  1.
    10030    2    1    2    0    0  0.00000000000E+00  0.00000000000E+00 -0.23353781887E+03  0.11012498775E+04  0.10762022950E+04 0.  0.
        2    1    3    3  502    0 -0.65610891494E+02 -0.23072779329E+03  0.37611867305E+03  0.44610016801E+03  0.25500000920E-02 0. -1.
       -2    1    3    3    0  502  0.65610891494E+02  0.23072779329E+03 -0.60965649192E+03  0.65514970947E+03  0.25500000920E-02 0.  1.
</event>
<event>
 5   0  0.1415400E-03  0.1100515E+04  0.7818609E-02  0.9204690E-01
        1   -1    0    0  501    0  0.00000000000E+00  0.00000000000E+00  0.95151081702E+03  0.95151081704E+03  0.50400001928E-02 0.  1.
       -1   -1    0    0    0  501  0.00000000000E+00  0.00000000000E+00 -0.31821340663E+03  0.31821340667E+03  0.50400001928E-02 0. -1.
    10030    2    1    2    0    0  0.00000000000E+00  0.00000000000E+00  0.63329741039E+03  0.12697242237E+04  0.11005153312E+04 0.  0.
        2    1    3    3  502    0 -0.31776780597E+03  0.88838023879E+01  0.83484775545E+03  0.89332305201E+03  0.25500000920E-02 0.  1.
       -2    1    3    3    0  502  0.31776780597E+03 -0.88838023879E+01 -0.20155034506E+03  0.37640117170E+03  0.25500000920E-02 0. -1.
</event>
<event>
 5   0  0.1415400E-03  0.1090717E+04  0.7818609E-02  0.9214288E-01
       -1   -1    0    0    0  501  0.00000000000E+00  0.00000000000E+00  0.19561822599E+03  0.19561822605E+03  0.50400001928E-02 0. -1.
        1   -1    0    0  501    0  0.00000000000E+00  0.00000000000E+00 -0.15203885001E+04  0.15203885001E+04  0.50400001928E-02 0.  1.
    10030    2    1    2    0    0  0.00000000000E+00  0.00000000000E+00 -0.13247702741E+04  0.17160067262E+04  0.10907166475E+04 0.  0.
        2    1    3    3  502    0  0.39797070215E+03  0.36909830151E+03 -0.57911300794E+03  0.79371664460E+03  0.25500000920E-02 0. -1.
       -2    1    3    3    0  502 -0.39797070215E+03 -0.36909830151E+03 -0.74565726619E+03  0.92229008158E+03  0.25500000920E-02 0.  1.
</event>
<event>
 5   0  0.1479573E-03  0.1121196E+04  0.7818609E-02  0.9184775E-01
       -1   -1    0    0    0  501  0.00000000000E+00  0.00000000000E+00  0.97184715985E+03  0.97184715986E+03  0.50400001928E-02 0.  1.
        1   -1    0    0  501    0  0.00000000000E+00  0.00000000000E+00 -0.32337426101E+03  0.32337426105E+03  0.50400001928E-02 0. -1.
    10030    2    1    2    0    0  0.00000000000E+00  0.00000000000E+00  0.64847289884E+03  0.12952214209E+04  0.11211964273E+04 0.  0.
        4    1    3    3  502    0  0.45080799183E+03 -0.25150126241E+03  0.57677158065E+03  0.77404638081E+03  0.12699999809E+01 0.  1.
       -4    1    3    3    0  502 -0.45080799183E+03  0.25150126241E+03  0.71701318184E+02  0.52117504010E+03  0.12699999809E+01 0. -1.
</event>
<event>
 5   0  0.1468556E-03  0.1099628E+04  0.7818609E-02  0.9205554E-01
       -1   -1    0    0    0  501  0.00000000000E+00  0.00000000000E+00  0.66879249538E+03  0.66879249540E+03  0.50400001928E-02 0.  1.
        1   -1    0    0  501    0  0.00000000000E+00  0.00000000000E+00 -0.45200204868E+03  0.45200204871E+03  0.50400001928E-02 0. -1.
    10030    2    1    2    0    0  0.00000000000E+00  0.00000000000E+00  0.21679044670E+03  0.11207945441E+04  0.10996282610E+04 0.  0.
        5    1    3    3  502    0 -0.29934823693E+03  0.12143586719E+03 -0.34504721099E+03  0.47268986091E+03  0.46999998093E+01 0. -1.
       -5    1    3    3    0  502  0.29934823693E+03 -0.12143586719E+03  0.56183765769E+03  0.64810468320E+03  0.46999998093E+01 0.  1.
</event>
<event>
 5   0  0.1468556E-03  0.1106767E+04  0.7818609E-02  0.9198621E-01
       -1   -1    0    0    0  501  0.00000000000E+00  0.00000000000E+00  0.49108323298E+03  0.49108323301E+03  0.50400001928E-02 0.  1.
        1   -1    0    0  501    0  0.00000000000E+00  0.00000000000E+00 -0.62358730401E+03  0.62358730403E+03  0.50400001928E-02 0. -1.
    10030    2    1    2    0    0  0.00000000000E+00  0.00000000000E+00 -0.13250407102E+03  0.11146705370E+04  0.11067669481E+04 0.  0.
        5    1    3    3  502    0 -0.21700078066E+03 -0.14729452869E+03  0.42449154508E+03  0.49899917718E+03  0.46999998093E+01 0.  1.
       -5    1    3    3    0  502  0.21700078066E+03  0.14729452869E+03 -0.55699561610E+03  0.61567135985E+03  0.46999998093E+01 0. -1.
</event>
<event>
 5   0  0.2483036E-03  0.1102659E+04  0.7818609E-02  0.9202604E-01
       -2   -1    0    0    0  501  0.00000000000E+00  0.00000000000E+00  0.27262515642E+03  0.27262515643E+03  0.25500000920E-02 0. -1.
        2   -1    0    0  501    0  0.00000000000E+00  0.00000000000E+00 -0.11149529053E+04  0.11149529053E+04  0.25500000920E-02 0.  1.
    10030    2    1    2    0    0  0.00000000000E+00  0.00000000000E+00 -0.84232774887E+03  0.13875780617E+04  0.11026589867E+04 0.  0.
        3    1    3    3  502    0  0.24135475502E+02 -0.55037957056E+03 -0.39405705667E+03  0.67733386670E+03  0.10100000352E+00 0.  1.
       -3    1    3    3    0  502 -0.24135475502E+02  0.55037957056E+03 -0.44827069220E+03  0.71024419502E+03  0.10100000352E+00 0. -1.
</event>
<event>
 5   0  0.2483036E-03  0.1099725E+04  0.7818609E-02  0.9205460E-01
        2   -1    0    0  501    0  0.00000000000E+00  0.00000000000E+00  0.77019728789E+03  0.77019728790E+03  0.25500000920E-02 0.  1.
       -2   -1    0    0    0  501  0.00000000000E+00  0.00000000000E+00 -0.39255983805E+03  0.39255983806E+03  0.25500000920E-02 0. -1.
    10030    2    1    2    0    0  0.00000000000E+00  0.00000000000E+00  0.37763744984E+03  0.11627571260E+04  0.10997245521E+04 0.  0.
        3    1    3    3  502    0 -0.22519579508E+03  0.49179435926E+03  0.84290392003E+02  0.54743010358E+03  0.10100000352E+00 0.  1.
       -3    1    3    3    0  502  0.22519579508E+03 -0.49179435926E+03  0.29334705784E+03  0.61532702238E+03  0.10100000352E+00 0. -1.
</event>
<event>
 5   0  0.1468556E-03  0.1099120E+04  0.7818609E-02  0.9206050E-01
        1   -1    0    0  501    0  0.00000000000E+00  0.00000000000E+00  0.82172597709E+03  0.82172597710E+03  0.50400001928E-02 0.  1.
       -1   -1    0    0    0  501  0.00000000000E+00  0.00000000000E+00 -0.36753911931E+03  0.36753911935E+03  0.50400001928E-02 0. -1.
    10030    2    1    2    0    0  0.00000000000E+00  0.00000000000E+00  0.45418685778E+03  0.11892650964E+04  0.10991204519E+04 0.  0.
        5    1    3    3  502    0 -0.54615477395E+03  0.60865611808E+02  0.22474963454E+03  0.59373744032E+03  0.46999998093E+01 0. -1.
       -5    1    3    3    0  502  0.54615477395E+03 -0.60865611808E+02  0.22943722324E+03  0.59552765613E+03  0.46999998093E+01 0.  1.
</event>
<event>
 5   0  0.2467448E-03  0.1084686E+04  0.7818609E-02  0.9220248E-01
       -2   -1    0    0    0  501  0.00000000000E+00  0.00000000000E+00  0.59054603734E+03  0.59054603734E+03  0.25500000920E-02 0.  1.
        2   -1    0    0  501    0  0.00000000000E+00  0.00000000000E+00 -0.49807457410E+03  0.49807457411E+03  0.25500000920E-02 0. -1.
    10030    2    1    2    0    0  0.00000000000E+00  0.00000000000E+00  0.92471463232E+02  0.10886206115E+04  0.10846860671E+04 0.  0.
        1    1    3    3  502    0 -0.24137870955E+03 -0.41680368049E+03 -0.20396149631E+03  0.52305762732E+03  0.50400001928E-02 0. -1.
       -1    1    3    3    0  502  0.24137870955E+03  0.41680368049E+03  0.29643295954E+03  0.56556298413E+03  0.50400001928E-02 0.  1.
</event>
<event>
 5   0  0.1415400E-03  0.1094479E+04  0.7818609E-02  0.9210590E-01
        1   -1    0    0  501    0  0.00000000000E+00  0.00000000000E+00  0.31742657970E+03  0.31742657974E+03  0.50400001928E-02 0.  1.
       -1   -1    0    0    0  501  0.00000000000E+00  0.00000000000E+00 -0.94343349329E+03  0.94343349330E+03  0.50400001928E-02 0. -1.
    10030    2    1    2    0    0  0.00000000000E+00  0.00000000000E+00 -0.62600691360E+03  0.12608600730E+04  0.10944786284E+04 0.  0.
        2    1    3    3  502    0 -0.14779689862E+03  0.50752527588E+03 -0.14990004357E+03  0.54945050001E+03  0.25500000920E-02 0. -1.
       -2    1    3    3    0  502  0.14779689862E+03 -0.50752527588E+03 -0.47610687003E+03  0.71140957303E+03  0.25500000920E-02 0.  1.
</event>
<event>
 5   0  0.2483036E-03  0.1105958E+04  0.7818609E-02  0.9199404E-01
       -2   -1    0    0    0  501  0.00000000000E+00  0.00000000000E+00  0.18555283367E+03  0.18555283369E+03  0.25500000920E-02 0. -1.
        2   -1    0    0  501    0  0.00000000000E+00  0.00000000000E+00 -0.16479723685E+04  0.16479723685E+04  0.25500000920E-02 0.  1.
    10030    2    1    2    0    0  0.00000000000E+00  0.00000000000E+00 -0.14624195348E+04  0.18335252022E+04  0.11059583045E+04 0.  0.
        3    1    3    3  502    0 -0.16803413582E+03  0.17876734038E+03 -0.15528011141E+04  0.15720637847E+04  0.10100000352E+00 0.  1.
       -3    1    3    3    0  502  0.16803413582E+03 -0.17876734038E+03  0.90381579289E+02  0.26146141754E+03  0.10100000352E+00 0. -1.
</event>
<event>
 5   0  0.2438115E-03  0.1096487E+04  0.7818609E-02  0.9208623E-01
       -2   -1    0    0    0  501  0.00000000000E+00  0.00000000000E+00  0.27868496239E+03  0.27868496241E+03  0.25500000920E-02 0.  1.
        2   -1    0    0  501    0  0.00000000000E+00  0.00000000000E+00 -0.10785325367E+04  0.10785325367E+04  0.25500000920E-02 0. -1.
    10030    2    1    2    0    0  0.00000000000E+00  0.00000000000E+00 -0.79984757427E+03  0.13572174991E+04  0.10964867522E+04 0.  0.
        4    1    3    3  502    0  0.31158316684E+03 -0.32710943927E+03 -0.78440480893E+03  0.90519454942E+03  0.12699999809E+01 0. -1.
       -4    1    3    3    0  502 -0.31158316684E+03  0.32710943927E+03 -0.15442765341E+02  0.45202294966E+03  0.12699999809E+01 0.  1.
</event>
<event>
 5   0  0.2392585E-03  0.1085982E+04  0.7818609E-02  0.9218963E-01
       -2   -1    0    0    0  501  0.00000000000E+00  0.00000000000E+00  0.76728939624E+03  0.76728939624E+03  0.25500000920E-02 0. -1.
        2   -1    0    0  501    0  0.00000000000E+00  0.00000000000E+00 -0.38426113250E+03  0.38426113251E+03  0.25500000920E-02 0.  1.
    10030    2    1    2    0    0  0.00000000000E+00  0.00000000000E+00  0.38302826374E+03  0.11515505287E+04  0.10859824904E+04 0.  0.
        5    1    3    3  502    0 -0.22807785496E+03 -0.44435869306E+03 -0.34281991354E+02  0.50067105064E+03  0.46999998093E+01 0.  1.
       -5    1    3    3    0  502  0.22807785496E+03  0.44435869306E+03  0.41731025509E+03  0.65087947811E+03  0.46999998093E+01 0. -1.
</event>
<event>
 5   0  0.1480937E-03  0.1098767E+04  0.7818609E-02  0.9206394E-01
        1   -1    0    0  501    0  0.00000000000E+00  0.00000000000E+00  0.11410528395E+04  0.11410528395E+04  0.50400001928E-02 0. -1.
       -1   -1    0    0    0  501  0.00000000000E+00  0.00000000000E+00 -0.26451203982E+03  0.26451203987E+03  0.50400001928E-02 0.  1.
    10030    2    1    2    0    0  0.00000000000E+00  0.00000000000E+00  0.87654079965E+03  0.14055648793E+04  0.10987669710E+04 0.  0.
        1    1    3    3  502    0 -0.30431380498E+03  0.29683265907E+03 -0.69013366811E+01  0.42516367186E+03  0.50400001928E-02 0. -1.
       -1    1    3    3    0  502  0.30431380498E+03 -0.29683265907E+03  0.88344213633E+03  0.98040120749E+03  0.50400001928E-02 0.  1.
</event>
<event>
 5   0  0.1509004E-03  0.1117502E+04  0.7818609E-02  0.9188300E-01
       -1   -1    0    0    0  501  0.00000000000E+00  0.00000000000E+00  0.70361896532E+03  0.70361896534E+03  0.50400001928E-02 0. -1.
        1   -1    0    0  501    0  0.00000000000E+00  0.00000000000E+00 -0.44370951241E+03  0.44370951244E+03  0.50400001928E-02 0.  1.
    10030    2    1    2    0    0  0.00000000000E+00  0.00000000000E+00  0.25990945292E+03  0.11473284778E+04  0.11175015491E+04 0.  0.
        3    1    3    3  502    0  0.26139801482E+03 -0.49097435183E+03  0.75456095364E+02  0.56131842018E+03  0.10100000352E+00 0.  1.
       -3    1    3    3    0  502 -0.26139801482E+03  0.49097435183E+03  0.18445335755E+03  0.58601005760E+03  0.10100000352E+00 0. -1.
</event>
<event>
 5   0  0.1479573E-03  0.1102612E+04  0.7818609E-02  0.9202650E-01
       -1   -1    0    0    0  501  0.00000000000E+00  0.00000000000E+00  0.14288944841E+04  0.14288944841E+04  0.50400001928E-02 0.  1.
        1   -1    0    0  501    0  0.00000000000E+00  0.00000000000E+00 -0.21270873490E+03  0.21270873496E+03  0.50400001928E-02 0. -1.
    10030    2    1    2    0    0  0.00000000000E+00  0.00000000000E+00  0.12161857492E+04  0.16416032190E+04  0.11026120588E+04 0.  0.
        4    1    3    3  502    0  0.35486603329E+03  0.40380445870E+03  0.79012513916E+03  0.95566065676E+03  0.12699999809E+01 0. -1.
       -4    1    3    3    0  502 -0.35486603329E+03 -0.40380445870E+03  0.42606061001E+03  0.68594256229E+03  0.12699999809E+01 0.  1.
</event>
<event>
 5   0  0.1468556E-03  0.1108308E+04  0.7818609E-02  0.9197132E-01
        1   -1    0    0  501    0  0.00000000000E+00  0.00000000000E+00  0.80599122763E+03  0.80599122765E+03  0.50400001928E-02 0.  1.
       -1   -1    0    0    0  501  0.00000000000E+00  0.00000000000E+00 -0.38100500879E+03  0.38100500882E+03  0.50400001928E-02 0. -1.
    10030    2    1    2    0    0  0.00000000000E+00  0.00000000000E+00  0.42498621884E+03  0.11869962365E+04  0.11083080705E+04 0.  0.
        5    1    3    3  502    0  0.16711233819E+03  0.79332521658E+01 -0.35328927003E+03  0.39092821385E+03  0.46999998093E+01 0. -1.
       -5    1    3    3    0  502 -0.16711233819E+03 -0.79332521658E+01  0.77827548887E+03  0.79606802262E+03  0.46999998093E+01 0.  1.
</event>
<event>
 5   0  0.2483036E-03  0.1074056E+04  0.7818609E-02  0.9230854E-01
        2   -1    0    0  501    0  0.00000000000E+00  0.00000000000E+00  0.69281914481E+03  0.69281914481E+03  0.25500000920E-02 0. -1.
       -2   -1    0    0    0  501  0.00000000000E+00  0.00000000000E+00 -0.41626921041E+03  0.41626921042E+03  0.25500000920E-02 0.  1.
    10030    2    1    2    0    0  0.00000000000E+00  0.00000000000E+00  0.27654993440E+03  0.11090883552E+04  0.10740563828E+04 0.  0.
        3    1    3    3  502    0  0.12228586274E+03  0.35054097662E+03  0.53896005944E+03  0.65445455486E+03  0.10100000352E+00 0. -1.
       -3    1    3    3    0  502 -0.12228586274E+03 -0.35054097662E+03 -0.26241012504E+03  0.45463380037E+03  0.10100000352E+00 0.  1.
</event>
<event>
 5   0  0.1415400E-03  0.1104029E+04  0.7818609E-02  0.9201274E-01
        1   -1    0    0  501    0  0.00000000000E+00  0.00000000000E+00  0.95960693893E+03  0.95960693894E+03  0.50400001928E-02 0.  1.
       -1   -1    0    0    0  501  0.00000000000E+00  0.00000000000E+00 -0.31754684279E+03  0.31754684283E+03  0.50400001928E-02 0. -1.
    10030    2    1    2    0    0  0.00000000000E+00  0.00000000000E+00  0.64206009613E+03  0.12771537818E+04  0.11040292638E+04 0.  0.
        2    1    3    3  502    0  0.15501010497E+03  0.27255676272E+03  0.84659033237E+03  0.90279040337E+03  0.25500000920E-02 0.  1.
       -2    1    3    3    0  502 -0.15501010497E+03 -0.27255676272E+03 -0.20453023624E+03  0.37436337840E+03  0.25500000920E-02 0. -1.
</event>
<event>
 5   0  0.1479573E-03  0.1101012E+04  0.7818609E-02  0.9204206E-01
        1   -1    0    0  501    0  0.00000000000E+00  0.00000000000E+00  0.47428039858E+03  0.47428039861E+03  0.50400001928E-02 0.  1.
       -1   -1    0    0    0  501  0.00000000000E+00  0.00000000000E+00 -0.63898287999E+03  0.63898288001E+03  0.50400001928E-02 0. -1.
    10030    2    1    2    0    0  0.00000000000E+00  0.00000000000E+00 -0.16470248141E+03  0.11132632786E+04  0.11010123615E+04 0.  0.
        4    1    3    3  502    0  0.21762356928E+03  0.24542555337E+03  0.36467863555E+03  0.49049550485E+03  0.12699999809E+01 0.  1.
       -4    1    3    3    0  502 -0.21762356928E+03 -0.24542555337E+03 -0.52938111695E+03  0.62276777376E+03  0.12699999809E+01 0. -1.
</event>
<event>
 5   0  0.1509004E-03  0.1079804E+04  0.7818609E-02  0.9225103E-01
       -1   -1    0    0    0  501  0.00000000000E+00  0.00000000000E+00  0.95680544340E+03  0.95680544342E+03  0.50400001928E-02 0. -1.
        1   -1    0    0  501    0  0.00000000000E+00  0.00000000000E+00 -0.30465370867E+03  0.30465370871E+03  0.50400001928E-02 0.  1.
    10030    2    1    2    0    0  0.00000000000E+00  0.00000000000E+00  0.65215173474E+03  0.12614591521E+04  0.10798042912E+04 0.  0.
        3    1    3    3  502    0  0.61098449524E+02 -0.51903893898E+03  0.48436934264E+03  0.71256446095E+03  0.10100000352E+00 0. -1.
       -3    1    3    3    0  502 -0.61098449524E+02  0.51903893898E+03  0.16778239209E+03  0.54889469118E+03  0.10100000352E+00 0.  1.
</event>
<event>
 5   0  0.1479573E-03  0.1105933E+04  0.7818609E-02  0.9199429E-01
       -1   -1    0    0    0  501  0.00000000000E+00  0.00000000000E+00  0.71197091292E+03  0.71197091294E+03  0.50400001928E-02 0. -1.
        1   -1    0    0  501    0  0.00000000000E+00  0.00000000000E+00 -0.42947232404E+03  0.42947232407E+03  0.50400001928E-02 0.  1.
    10030    2    1    2    0    0  0.00000000000E+00  0.00000000000E+00  0.28249858888E+03  0.11414432370E+04  0.11059327333E+04 0.  0.
        4    1    3    3  502    0 -0.42384376132E+03 -0.32659371382E+03 -0.27408442386E+01  0.53508514560E+03  0.12699999809E+01 0. -1.
       -4    1    3    3    0  502  0.42384376132E+03  0.32659371382E+03  0.28523943312E+03  0.60635809141E+03  0.12699999809E+01 0.  1.
</event>
<event>
 5   0  0.2488472E-03  0.1095816E+04  0.7818609E-02  0.9209279E-01
        2   -1    0    0  501    0  0.00000000000E+00  0.00000000000E+00  0.50158802485E+03  0.50158802486E+03  0.25500000920E-02 0.  1.
       -2   -1    0    0    0  501  0.00000000000E+00  0.00000000000E+00 -0.59850601378E+03  0.59850601379E+03  0.25500000920E-02 0. -1.
    10030    2    1    2    0    0  0.00000000000E+00  0.00000000000E+00 -0.96917988931E+02  0.11000940386E+04  0.10958164980E+04 0.  0.
        2    1    3    3  502    0  0.42645800095E+03  0.31177509464E+03 -0.19439947447E+03  0.56290433636E+03  0.25500000920E-02 0. -1.
       -2    1    3    3    0  502 -0.42645800095E+03 -0.31177509464E+03  0.97481485537E+02  0.53718970228E+03  0.25500000920E-02 0.  1.
</event>
<event>
 5   0  0.2392585E-03  0.1094663E+04  0.7818609E-02  0.9210409E-01
        2   -1    0    0  501    0  0.00000000000E+00  0.00000000000E+00  0.10543020601E+04  0.10543020601E+04  0.25500000920E-02 0.  1.
       -2   -1    0    0    0  501  0.00000000000E+00  0.00000000000E+00 -0.28414216664E+03  0.28414216666E+03  0.25500000920E-02 0. -1.
    10030    2    1    2    0    0  0.00000000000E+00  0.00000000000E+00  0.77015989344E+03  0.13384442267E+04  0.10946628187E+04 0.  0.
        5    1    3    3  502    0  0.11507830590E+03 -0.22275593640E+03 -0.20976876470E+03  0.32693768265E+03  0.46999998093E+01 0. -1.
       -5    1    3    3    0  502 -0.11507830590E+03  0.22275593640E+03  0.97992865815E+03  0.10115065441E+04  0.46999998093E+01 0.  1.
</event>
<event>
 5   0  0.2483036E-03  0.1103850E+04  0.7818609E-02  0.9201447E-01
        2   -1    0    0  501    0  0.00000000000E+00  0.00000000000E+00  0.83840297073E+03  0.83840297073E+03  0.25500000920E-02 0.  1.
       -2   -1    0    0    0  501  0.00000000000E+00  0.00000000000E+00 -0.36333520519E+03  0.36333520520E+03  0.25500000920E-02 0. -1.
    10030    2    1    2    0    0  0.00000000000E+00  0.00000000000E+00  0.47506776554E+03  0.12017381759E+04  0.11038501989E+04 0.  0.
        3    1    3    3  502    0  0.12244734074E+03 -0.26671291148E+03 -0.27134878960E+03  0.39969901705E+03  0.10100000352E+00 0. -1.
       -3    1    3    3    0  502 -0.12244734074E+03  0.26671291148E+03  0.74641655514E+03  0.80203915889E+03  0.10100000352E+00 0.  1.
</event>
<event>
 5   0  0.2392585E-03  0.1082695E+04  0.7818609E-02  0.9222224E-01
       -2   -1    0    0    0  501  0.00000000000E+00  0.00000000000E+00  0.28498107089E+03  0.28498107090E+03  0.25500000920E-02 0. -1.
        2   -1    0    0  501    0  0.00000000000E+00  0.00000000000E+00 -0.10283396586E+04  0.10283396586E+04  0.25500000920E-02 0.  1.
    10030    2    1    2    0    0  0.00000000000E+00  0.00000000000E+00 -0.74335858772E+03  0.13133207295E+04  0.10826954090E+04 0.  0.
        5    1    3    3  502    0  0.36523072853E+03 -0.36015256710E+03 -0.16181837117E+03  0.53787603767E+03  0.46999998093E+01 0. -1.
       -5    1    3    3    0  502 -0.36523072853E+03  0.36015256710E+03 -0.58154021654E+03  0.77544469184E+03  0.46999998093E+01 0.  1.
</event>
<event>
 5   0  0.1479573E-03  0.1083261E+04  0.7818609E-02  0.9221662E-01
       -1   -1    0    0    0  501  0.00000000000E+00  0.00000000000E+00  0.68996263329E+03  0.68996263331E+03  0.50400001928E-02 0. -1.
        1   -1    0    0  501    0  0.00000000000E+00  0.00000000000E+00 -0.42518790587E+03  0.42518790590E+03  0.50400001928E-02 0.  1.
    10030    2    1    2    0    0  0.00000000000E+00  0.00000000000E+00  0.26477472742E+03  0.11151505392E+04  0.10832613114E+04 0.  0.
        4    1    3    3  502    0 -0.14349259812E+03  0.18012271722E+03 -0.37227661051E+03  0.43775084992E+03  0.12699999809E+01 0.  1.
       -4    1    3    3    0  502  0.14349259812E+03 -0.18012271722E+03  0.63705133794E+03  0.67739968928E+03  0.12699999809E+01 0. -1.
</event>
<event>
 5   0  0.1509004E-03  0.1091378E+04  0.7818609E-02  0.9213637E-01
        1   -1    0    0  501    0  0.00000000000E+00  0.00000000000E+00  0.10918171860E+04  0.10918171861E+04  0.50400001928E-02 0. -1.
       -1   -1    0    0    0  501  0.00000000000E+00  0.00000000000E+00 -0.27273463144E+03  0.27273463148E+03  0.50400001928E-02 0.  1.
    10030    2    1    2    0    0  0.00000000000E+00  0.00000000000E+00  0.81908255461E+03  0.13645518175E+04  0.10913777675E+04 0.  0.
        3    1    3    3  502    0 -0.11035359136E+03 -0.78960965411E+02  0.10703866263E+04  0.10789533304E+04  0.10100000352E+00 0. -1.
       -3    1    3    3    0  502  0.11035359136E+03  0.78960965411E+02 -0.25130407172E+03  0.28559848713E+03  0.10100000352E+00 0.  1.
</event>
<event>
 5   0  0.1509004E-03  0.1105622E+04  0.7818609E-02  0.9199729E-01
       -1   -1    0    0    0  501  0.00000000000E+00  0.00000000000E+00  0.26638222311E+03  0.26638222315E+03  0.50400001928E-02 0.  1.
        1   -1    0    0  501    0  0.00000000000E+00  0.00000000000E+00 -0.11472240106E+04  0.11472240106E+04  0.50400001928E-02 0. -1.
    10030    2    1    2    0    0  0.00000000000E+00  0.00000000000E+00 -0.88084178746E+03  0.14136062337E+04  0.11056221459E+04 0.  0.
        3    1    3    3  502    0 -0.27862555257E+03 -0.14563420809E+03 -0.10217920250E+04  0.10690652336E+04  0.10100000352E+00 0. -1.
       -3    1    3    3    0  502  0.27862555257E+03  0.14563420809E+03  0.14095023755E+03  0.34454100014E+03  0.10100000352E+00 0.  1.
</event>
<event>
 5   0  0.1468556E-03  0.1097064E+04  0.7818609E-02  0.9208058E-01
        1   -1    0    0  501    0  0.00000000000E+00  0.00000000000E+00  0.67802681103E+03  0.67802681105E+03  0.50400001928E-02 0. -1.
       -1   -1    0    0    0  501  0.00000000000E+00  0.00000000000E+00 -0.44376891007E+03  0.44376891010E+03  0.50400001928E-02 0.  1.
    10030    2    1    2    0    0  0.00000000000E+00  0.00000000000E+00  0.23425790096E+03  0.11217957211E+04  0.10970637519E+04 0.  0.
        5    1    3    3  502    0  0.44982676303E+03  0.28858998190E+03 -0.90913732124E+01  0.53454002418E+03  0.46999998093E+01 0. -1.
       -5    1    3    3    0  502 -0.44982676303E+03 -0.28858998190E+03  0.24334927417E+03  0.58725569697E+03  0.46999998093E+01 0.  1.
</event>
<event>
 5   0  0.2488472E-03  0.1102994E+04  0.7818609E-02  0.9202278E-01
       -2   -1    0    0    0  501  0.00000000000E+00  0.00000000000E+00  0.49515404500E+03  0.49515404501E+03  0.25500000920E-02 0.  1.
        2   -1    0    0  501    0  0.00000000000E+00  0.00000000000E+00 -0.61425157088E+03  0.61425157089E+03  0.25500000920E-02 0. -1.
    10030    2    1    2    0    0  0.00000000000E+00  0.00000000000E+00 -0.11909752588E+03  0.11094056159E+04  0.11029943789E+04 0.  0.
        2    1    3    3  502    0 -0.20237000086E+03  0.15602985005E+03  0.43201502518E+03  0.50193218002E+03  0.25500000920E-02 0.  1.
       -2    1    3    3    0  502  0.20237000086E+03 -0.15602985005E+03 -0.55111255106E+03  0.60747343588E+03  0.25500000920E-02 0. -1.
</event>
<event>
 5   0  0.2483036E-03  0.1126479E+04  0.7818609E-02  0.9179762E-01
       -2   -1    0    0    0  501  0.00000000000E+00  0.00000000000E+00  0.22932722912E+03  0.22932722914E+03  0.25500000920E-02 0. -1.
        2   -1    0    0  501    0  0.00000000000E+00  0.00000000000E+00 -0.13833441164E+04  0.13833441164E+04  0.25500000920E-02 0.  1.
    10030    2    1    2    0    0  0.00000000000E+00  0.00000000000E+00 -0.11540168873E+04  0.16126713455E+04  0.11264785362E+04 0.  0.
        3    1    3    3  502    0  0.23687234888E+03  0.46933413129E+03 -0.28764222944E+03  0.59926713477E+03  0.10100000352E+00 0. -1.
       -3    1    3    3    0  502 -0.23687234888E+03 -0.46933413129E+03 -0.86637465782E+03  0.10134042108E+04  0.10100000352E+00 0.  1.
</event>
<event>
 5   0  0.2483036E-03  0.1071985E+04  0.7818609E-02  0.9232936E-01
        2   -1    0    0  501    0  0.00000000000E+00  0.00000000000E+00  0.30140775973E+03  0.30140775974E+03  0.25500000920E-02 0.  1.
       -2   -1    0    0    0  501  0.00000000000E+00  0.00000000000E+00 -0.95315361706E+03  0.95315361706E+03  0.25500000920E-02 0. -1.
    10030    2    1    2    0    0  0.00000000000E+00  0.00000000000E+00 -0.65174585733E+03  0.12545613768E+04  0.10719848812E+04 0.  0.
        3    1    3    3  502    0  0.30220110056E+03 -0.19364501783E+03 -0.79174700387E+03  0.86930272428E+03  0.10100000352E+00 0. -1.
       -3    1    3    3    0  502 -0.30220110056E+03  0.19364501783E+03  0.14000114654E+03  0.38525865252E+03  0.10100000352E+00 0.  1.
</event>
<event>
 5   0  0.1415400E-03  0.1101099E+04  0.7818609E-02  0.9204122E-01
        1   -1    0    0  501    0  0.00000000000E+00  0.00000000000E+00  0.59533538432E+03  0.59533538435E+03  0.50400001928E-02 0. -1.
       -1   -1    0    0    0  501  0.00000000000E+00  0.00000000000E+00 -0.50913248938E+03  0.50913248941E+03  0.50400001928E-02 0.  1.
    10030    2    1    2    0    0  0.00000000000E+00  0.00000000000E+00  0.86202894943E+02  0.11044678738E+04  0.11010986991E+04 0.  0.
        2    1    3    3  502    0 -0.16638507534E+03  0.28399564406E+03  0.48577604446E+03  0.58678435947E+03  0.25500000920E-02 0. -1.
       -2    1    3    3    0  502  0.16638507534E+03 -0.28399564406E+03 -0.39957314952E+03  0.51768351428E+03  0.25500000920E-02 0.  1.
</event>
<event>
 5   0  0.2438115E-03  0.1101518E+04  0.7818609E-02  0.9203713E-01
        2   -1    0    0  501    0  0.00000000000E+00  0.00000000000E+00  0.20827833162E+04  0.20827833162E+04  0.25500000920E-02 0. -1.
       -2   -1    0    0    0  501  0.00000000000E+00  0.00000000000E+00 -0.14563959175E+03  0.14563959177E+03  0.25500000920E-02 0.  1.
    10030    2    1    2    0    0  0.00000000000E+00  0.00000000000E+00  0.19371437244E+04  0.22284229079E+04  0.11015184282E+04 0.  0.
        4    1    3    3  502    0 -0.14790010402E+03 -0.14321631891E+03  0.20020075445E+04  0.20125658190E+04  0.12699999809E+01 0. -1.
       -4    1    3    3    0  502  0.14790010402E+03  0.14321631891E+03 -0.64863820097E+02  0.21585708890E+03  0.12699999809E+01 0.  1.
</event>
<event>
 5   0  0.2483036E-03  0.1098941E+04  0.7818609E-02  0.9206224E-01
       -2   -1    0    0    0  501  0.00000000000E+00  0.00000000000E+00  0.19613865220E+03  0.19613865222E+03  0.25500000920E-02 0. -1.
        2   -1    0    0  501    0  0.00000000000E+00  0.00000000000E+00 -0.15393092516E+04  0.15393092516E+04  0.25500000920E-02 0.  1.
    10030    2    1    2    0    0  0.00000000000E+00  0.00000000000E+00 -0.13431705994E+04  0.17354479039E+04  0.10989413851E+04 0.  0.
        3    1    3    3  502    0  0.42830334864E+02  0.42571798299E+02 -0.15340528012E+04  0.15352409591E+04  0.10100000352E+00 0.  1.
       -3    1    3    3    0  502 -0.42830334864E+02 -0.42571798299E+02  0.19088220171E+03  0.20020694475E+03  0.10100000352E+00 0. -1.
</event>
<event>
 5   0  0.2483036E-03  0.1100537E+04  0.7818609E-02  0.9204668E-01
       -2   -1    0    0    0  501  0.00000000000E+00  0.00000000000E+00  0.25884545669E+03  0.25884545670E+03  0.25500000920E-02 0.  1.
        2   -1    0    0  501    0  0.00000000000E+00  0.00000000000E+00 -0.11697927116E+04  0.11697927116E+04  0.25500000920E-02 0. -1.
    10030    2    1    2    0    0  0.00000000000E+00  0.00000000000E+00 -0.91094725492E+03  0.14286381683E+04  0.11005371937E+04 0.  0.
        3    1    3    3  502    0  0.31336809279E+03 -0.33833501281E+03 -0.84518319592E+03  0.96281087828E+03  0.10100000352E+00 0. -1.
       -3    1    3    3    0  502 -0.31336809279E+03  0.33833501281E+03 -0.65764058994E+02  0.46582729002E+03  0.10100000352E+00 0.  1.
</event>
<event>
 5   0  0.9631750E-04  0.1103754E+04  0.7818609E-02  0.9201540E-01
        3   -1    0    0  501    0  0.00000000000E+00  0.00000000000E+00  0.30725547962E+03  0.30725549622E+03  0.10100000352E+00 0.  1.
       -3   -1    0    0    0  501  0.00000000000E+00  0.00000000000E+00 -0.99125463677E+03  0.99125464192E+03  0.10100000352E+00 0. -1.
    10030    2    1    2    0    0  0.00000000000E+00  0.00000000000E+00 -0.68399915715E+03  0.12985101381E+04  0.11037543802E+04 0.  0.
        5    1    3    3  502    0  0.17692481926E+03 -0.37624227361E+03  0.84916211111E+02  0.42437423700E+03  0.46999998093E+01 0.  1.
       -5    1    3    3    0  502 -0.17692481926E+03  0.37624227361E+03 -0.76891536826E+03  0.87413590114E+03  0.46999998093E+01 0. -1.
</event>
<event>
 5   0  0.2483036E-03  0.1101260E+04  0.7818609E-02  0.9203965E-01
        2   -1    0    0  501    0  0.00000000000E+00  0.00000000000E+00  0.88947782929E+03  0.88947782929E+03  0.25500000920E-02 0. -1.
       -2   -1    0    0    0  501  0.00000000000E+00  0.00000000000E+00 -0.34086645006E+03  0.34086645007E+03  0.25500000920E-02 0.  1.
    10030    2    1    2    0    0  0.00000000000E+00  0.00000000000E+00  0.54861137923E+03  0.12303442794E+04  0.11012595518E+04 0.  0.
        3    1    3    3  502    0 -0.14234995795E+03  0.14328877334E+03  0.84659705118E+03  0.87035726018E+03  0.10100000352E+00 0. -1.
       -3    1    3    3    0  502  0.14234995795E+03 -0.14328877334E+03 -0.29798567195E+03  0.35998701918E+03  0.10100000352E+00 0.  1.
</event>
<event>
 5   0  0.2392585E-03  0.1088421E+04  0.7818609E-02  0.9216551E-01
       -2   -1    0    0    0  501  0.00000000000E+00  0.00000000000E+00  0.32209450033E+03  0.32209450034E+03  0.25500000920E-02 0.  1.
        2   -1    0    0  501    0  0.00000000000E+00  0.00000000000E+00 -0.91949814993E+03  0.91949814993E+03  0.25500000920E-02 0. -1.
    10030    2    1    2    0    0  0.00000000000E+00  0.00000000000E+00 -0.59740364960E+03  0.12415926503E+04  0.10884214205E+04 0.  0.
        5    1    3    3  502    0 -0.12916610339E+03 -0.34149214485E+03 -0.75902819364E+03  0.84228656406E+03  0.46999998093E+01 0. -1.
       -5    1    3    3    0  502  0.12916610339E+03  0.34149214485E+03  0.16162454404E+03  0.39930608622E+03  0.46999998093E+01 0.  1.
</event>
<event>
 5   0  0.1509004E-03  0.1092332E+04  0.7818609E-02  0.9212698E-01
       -1   -1    0    0    0  501  0.00000000000E+00  0.00000000000E+00  0.35238246377E+03  0.35238246381E+03  0.50400001928E-02 0. -1.
        1   -1    0    0  501    0  0.00000000000E+00  0.00000000000E+00 -0.84651625779E+03  0.84651625780E+03  0.50400001928E-02 0.  1.
    10030    2    1    2    0    0  0.00000000000E+00  0.00000000000E+00 -0.49413379402E+03  0.11988987216E+04  0.10923323388E+04 0.  0.
        3    1    3    3  502    0  0.30675249299E+03  0.62885712291E+02  0.24407771134E+03  0.39702096184E+03  0.10100000352E+00 0. -1.
       -3    1    3    3    0  502 -0.30675249299E+03 -0.62885712291E+02 -0.73821150536E+03  0.80187775977E+03  0.10100000352E+00 0.  1.
</event>
<event>
 5   0  0.9631750E-04  0.1112789E+04  0.7818609E-02  0.9192816E-01
       -3   -1    0    0    0  501  0.00000000000E+00  0.00000000000E+00  0.29270360575E+03  0.29270362317E+03  0.10100000352E+00 0.  1.
        3   -1    0    0  501    0  0.00000000000E+00  0.00000000000E+00 -0.10576387847E+04  0.10576387895E+04  0.10100000352E+00 0. -1.
    10030    2    1    2    0    0  0.00000000000E+00  0.00000000000E+00 -0.76493517894E+03  0.13503424127E+04  0.11127887506E+04 0.  0.
        3    1    3    3  502    0 -0.47225261019E+03  0.24440829252E+03 -0.58118423558E+03  0.78773921267E+03  0.10100000352E+00 0. -1.
       -3    1    3    3    0  502  0.47225261019E+03 -0.24440829252E+03 -0.18375094336E+03  0.56260320002E+03  0.10100000352E+00 0.  1.
</event>
<event>
 5   0  0.1415400E-03  0.1093719E+04  0.7818609E-02  0.9211336E-01
        1   -1    0    0  501    0  0.00000000000E+00  0.00000000000E+00  0.55354504829E+03  0.55354504831E+03  0.50400001928E-02 0.  1.
       -1   -1    0    0    0  501  0.00000000000E+00  0.00000000000E+00 -0.54025461086E+03  0.54025461088E+03  0.50400001928E-02 0. -1.
    10030    2    1    2    0    0  0.00000000000E+00  0.00000000000E+00  0.13290437432E+02  0.10937996592E+04  0.10937189121E+04 0.  0.
        2    1    3    3  502    0 -0.24204690295E+03  0.37118508426E+02  0.49565041528E+03  0.55284158768E+03  0.25500000920E-02 0.  1.
       -2    1    3    3    0  502  0.24204690295E+03 -0.37118508426E+02 -0.48235997785E+03  0.54095807151E+03  0.25500000920E-02 0. -1.
</event>
<event>
 5   0  0.1479573E-03  0.1102864E+04  0.7818609E-02  0.9202405E-01
        1   -1    0    0  501    0  0.00000000000E+00  0.00000000000E+00  0.61278053267E+03  0.61278053269E+03  0.50400001928E-02 0. -1.
       -1   -1    0    0    0  501  0.00000000000E+00  0.00000000000E+00 -0.49622502970E+03  0.49622502972E+03  0.50400001928E-02 0.  1.
    10030    2    1    2    0    0  0.00000000000E+00  0.00000000000E+00  0.11655550298E+03  0.11090055624E+04  0.11028636145E+04 0.  0.
        4    1    3    3  502    0 -0.24768447322E+03  0.49029576099E+03  0.96567064766E+01  0.54939275241E+03  0.12699999809E+01 0.  1.
       -4    1    3    3    0  502  0.24768447322E+03 -0.49029576099E+03  0.10689879650E+03  0.55961281000E+03  0.12699999809E+01 0. -1.
</event>
<event>
 5   0  0.2483036E-03  0.1121520E+04  0.7818609E-02  0.9184467E-01
        2   -1    0    0  501    0  0.00000000000E+00  0.00000000000E+00  0.11948428249E+04  0.11948428249E+04  0.25500000920E-02 0. -1.
       -2   -1    0    0    0  501  0.00000000000E+00  0.00000000000E+00 -0.26317408382E+03  0.26317408384E+03  0.25500000920E-02 0.  1.
    10030    2    1    2    0    0  0.00000000000E+00  0.00000000000E+00  0.93166874110E+03  0.14580169088E+04  0.11215198006E+04 0.  0.
        3    1    3    3  502    0 -0.55649500144E+03 -0.67380720582E+02  0.48532657482E+03  0.74146391858E+03  0.10100000352E+00 0.  1.
       -3    1    3    3    0  502  0.55649500144E+03  0.67380720582E+02  0.44634216628E+03  0.71655299018E+03  0.10100000352E+00 0. -1.
</event>
<event>
 5   0  0.2483036E-03  0.1096818E+04  0.7818609E-02  0.9208299E-01
        2   -1    0    0  501    0  0.00000000000E+00  0.00000000000E+00  0.60524788576E+03  0.60524788577E+03  0.25500000920E-02 0. -1.
       -2   -1    0    0    0  501  0.00000000000E+00  0.00000000000E+00 -0.49690763851E+03  0.49690763852E+03  0.25500000920E-02 0.  1.
    10030    2    1    2    0    0  0.00000000000E+00  0.00000000000E+00  0.10834024725E+03  0.11021555243E+04  0.10968177563E+04 0.  0.
        3    1    3    3  502    0 -0.16748638646E+03 -0.43685703315E+03  0.34166828750E+03  0.57933840365E+03  0.10100000352E+00 0. -1.
       -3    1    3    3    0  502  0.16748638646E+03  0.43685703315E+03 -0.23332804025E+03  0.52281712063E+03  0.10100000352E+00 0.  1.
</event>
<event>
 5   0  0.2467448E-03  0.1097314E+04  0.7818609E-02  0.9207814E-01
        2   -1    0    0  501    0  0.00000000000E+00  0.00000000000E+00  0.10580007238E+04  0.10580007238E+04  0.25500000920E-02 0. -1.
       -2   -1    0    0    0  501  0.00000000000E+00  0.00000000000E+00 -0.28452214673E+03  0.28452214674E+03  0.25500000920E-02 0.  1.
    10030    2    1    2    0    0  0.00000000000E+00  0.00000000000E+00  0.77347857706E+03  0.13425228705E+04  0.10973142434E+04 0.  0.
        1    1    3    3  502    0  0.17264034754E+03 -0.33515123558E+03 -0.10095073834E+03  0.39028462935E+03  0.50400001928E-02 0.  1.
       -1    1    3    3    0  502 -0.17264034754E+03  0.33515123558E+03  0.87442931540E+03  0.95223824118E+03  0.50400001928E-02 0. -1.
</event>
<event>
 5   0  0.1480937E-03  0.1096562E+04  0.7818609E-02  0.9208550E-01
       -1   -1    0    0    0  501  0.00000000000E+00  0.00000000000E+00  0.66951005360E+03  0.66951005362E+03  0.50400001928E-02 0.  1.
        1   -1    0    0  501    0  0.00000000000E+00  0.00000000000E+00 -0.44900276630E+03  0.44900276633E+03  0.50400001928E-02 0. -1.
    10030    2    1    2    0    0  0.00000000000E+00  0.00000000000E+00  0.22050728730E+03  0.11185128200E+04  0.10965616557E+04 0.  0.
        1    1    3    3  502    0 -0.39249822670E+01 -0.54741776395E+03  0.79143049726E+02  0.55312316541E+03  0.50400001928E-02 0. -1.
       -1    1    3    3    0  502  0.39249822670E+01  0.54741776395E+03  0.14136423758E+03  0.56538965454E+03  0.50400001928E-02 0.  1.
</event>
<event>
 5   0  0.2488472E-03  0.1126797E+04  0.7818609E-02  0.9179460E-01
        2   -1    0    0  501    0  0.00000000000E+00  0.00000000000E+00  0.47370303309E+03  0.47370303310E+03  0.25500000920E-02 0.  1.
       -2   -1    0    0    0  501  0.00000000000E+00  0.00000000000E+00 -0.67007778097E+03  0.67007778098E+03  0.25500000920E-02 0. -1.
    10030    2    1    2    0    0  0.00000000000E+00  0.00000000000E+00 -0.19637474788E+03  0.11437808141E+04  0.11267970132E+04 0.  0.
        2    1    3    3  502    0 -0.42874296562E+03  0.28632360485E+03  0.13242886338E+03  0.53229610287E+03  0.25500000920E-02 0.  1.
       -2    1    3    3    0  502  0.42874296562E+03 -0.28632360485E+03 -0.32880361126E+03  0.61148471121E+03  0.25500000920E-02 0. -1.
</event>
<event>
 5   0  0.2483036E-03  0.1106278E+04  0.7818609E-02  0.9199094E-01
        2   -1    0    0  501    0  0.00000000000E+00  0.00000000000E+00  0.15227279099E+04  0.15227279099E+04  0.25500000920E-02 0.  1.
       -2   -1    0    0    0  501  0.00000000000E+00  0.00000000000E+00 -0.20093081249E+03  0.20093081250E+03  0.25500000920E-02 0. -1.
    10030    2    1    2    0    0  0.00000000000E+00  0.00000000000E+00  0.13217970974E+04  0.17236587224E+04  0.11062783667E+04 0.  0.
        3    1    3    3  502    0 -0.23523583100E+03 -0.25829724767E+03 -0.72746318995E+01  0.34943711138E+03  0.10100000352E+00 0. -1.
       -3    1    3    3    0  502  0.23523583100E+03  0.25829724767E+03  0.13290717293E+04  0.13742216110E+04  0.10100000352E+00 0.  1.
</event>
<event>
 5   0  0.1480937E-03  0.1087061E+04  0.7818609E-02  0.9217895E-01
        1   -1    0    0  501    0  0.00000000000E+00  0.00000000000E+00  0.68700131852E+03  0.68700131854E+03  0.50400001928E-02 0. -1.
       -1   -1    0    0    0  501  0.00000000000E+00  0.00000000000E+00 -0.43002180386E+03  0.43002180389E+03  0.50400001928E-02 0.  1.
    10030    2    1    2    0    0  0.00000000000E+00  0.00000000000E+00  0.25697951466E+03  0.11170231224E+04  0.10870612610E+04 0.  0.
        1    1    3    3  502    0 -0.40018789582E+03 -0.13056624893E+03 -0.22482979417E+03  0.47722775872E+03  0.50400001928E-02 0. -1.
       -1    1    3    3    0  502  0.40018789582E+03  0.13056624893E+03  0.48180930883E+03  0.63979536371E+03  0.50400001928E-02 0.  1.
</event>
<event>
 5   0  0.2438115E-03  0.1096953E+04  0.7818609E-02  0.9208167E-01
        2   -1    0    0  501    0  0.00000000000E+00  0.00000000000E+00  0.26183651489E+03  0.26183651490E+03  0.25500000920E-02 0.  1.
       -2   -1    0    0    0  501  0.00000000000E+00  0.00000000000E+00 -0.11489088033E+04  0.11489088033E+04  0.25500000920E-02 0. -1.
    10030    2    1    2    0    0  0.00000000000E+00  0.00000000000E+00 -0.88707228840E+03  0.14107453182E+04  0.10969526462E+04 0.  0.
        4    1    3    3  502    0 -0.39497357606E+03 -0.20025303172E+03 -0.85970926112E+03  0.96706102654E+03  0.12699999809E+01 0.  1.
       -4    1    3    3    0  502  0.39497357606E+03  0.20025303172E+03 -0.27363027281E+02  0.44368429165E+03  0.12699999809E+01 0. -1.
</event>
<event>
 5   0  0.1468556E-03  0.1105918E+04  0.7818609E-02  0.9199443E-01
       -1   -1    0    0    0  501  0.00000000000E+00  0.00000000000E+00  0.19073874739E+03  0.19073874746E+03  0.50400001928E-02 0.  1.
        1   -1    0    0  501    0  0.00000000000E+00  0.00000000000E+00 -0.16030506916E+04  0.16030506916E+04  0.50400001928E-02 0. -1.
    10030    2    1    2    0    0  0.00000000000E+00  0.00000000000E+00 -0.14123119442E+04  0.17937894391E+04  0.11059184075E+04 0.  0.
        5    1    3    3  502    0  0.17737397772E+03 -0.17472968726E+03 -0.15069494171E+04  0.15273868624E+04  0.46999998093E+01 0. -1.
       -5    1    3    3    0  502 -0.17737397772E+03  0.17472968726E+03  0.94637472928E+02  0.26640257668E+03  0.46999998093E+01 0.  1.
</event>
<event>
 5   0  0.2392585E-03  0.1105020E+04  0.7818609E-02  0.9200313E-01
        2   -1    0    0  501    0  0.00000000000E+00  0.00000000000E+00  0.89810473491E+03  0.89810473492E+03  0.25500000920E-02 0. -1.
       -2   -1    0    0    0  501  0.00000000000E+00  0.00000000000E+00 -0.33990181126E+03  0.33990181127E+03  0.25500000920E-02 0.  1.
    10030    2    1    2    0    0  0.00000000000E+00  0.00000000000E+00  0.55820292366E+03  0.12380065462E+04  0.11050202281E+04 0.  0.
        5    1    3    3  502    0 -0.43438912003E+03 -0.25961165901E+03  0.30714567313E+02  0.50700847699E+03  0.46999998093E+01 0.  1.
       -5    1    3    3    0  502  0.43438912003E+03  0.25961165901E+03  0.52748835634E+03  0.73099806920E+03  0.46999998093E+01 0. -1.
</event>
<event>
 5   0  0.2438115E-03  0.1101259E+04  0.7818609E-02  0.9203966E-01
        2   -1    0    0  501    0  0.00000000000E+00  0.00000000000E+00  0.14482624005E+04  0.14482624005E+04  0.25500000920E-02 0. -1.
       -2   -1    0    0    0  501  0.00000000000E+00  0.00000000000E+00 -0.20934927106E+03  0.20934927107E+03  0.25500000920E-02 0.  1.
    10030    2    1    2    0    0  0.00000000000E+00  0.00000000000E+00  0.12389131294E+04  0.16576116715E+04  0.11012586941E+04 0.  0.
        4    1    3    3  502    0  0.28190991622E+03  0.40268886439E+03  0.24599910564E+03  0.54968053927E+03  0.12699999809E+01 0.  1.
       -4    1    3    3    0  502 -0.28190991622E+03 -0.40268886439E+03  0.99291402377E+03  0.11079311323E+04  0.12699999809E+01 0. -1.
</event>
<event>
 5   0  0.2483036E-03  0.1081741E+04  0.7818609E-02  0.9223173E-01
       -2   -1    0    0    0  501  0.00000000000E+00  0.00000000000E+00  0.25201313909E+03  0.25201313910E+03  0.25500000920E-02 0. -1.
        2   -1    0    0  501    0  0.00000000000E+00  0.00000000000E+00 -0.11608158774E+04  0.11608158774E+04  0.25500000920E-02 0.  1.
    10030    2    1    2    0    0  0.00000000000E+00  0.00000000000E+00 -0.90880273835E+03  0.14128290165E+04  0.10817409176E+04 0.  0.
        3    1    3    3  502    0  0.34977703734E+02  0.10955323734E+03 -0.11446632015E+04  0.11504256632E+04  0.10100000352E+00 0.  1.
       -3    1    3    3    0  502 -0.34977703734E+02 -0.10955323734E+03  0.23586046312E+03  0.26240335333E+03  0.10100000352E+00 0. -1.
</event>
<event>
 5   0  0.2483036E-03  0.1099504E+04  0.7818609E-02  0.9205676E-01
        2   -1    0    0  501    0  0.00000000000E+00  0.00000000000E+00  0.38564871976E+03  0.38564871977E+03  0.25500000920E-02 0. -1.
       -2   -1    0    0    0  501  0.00000000000E+00  0.00000000000E+00 -0.78368522941E+03  0.78368522942E+03  0.25500000920E-02 0.  1.
    10030    2    1    2    0    0  0.00000000000E+00  0.00000000000E+00 -0.39803650966E+03  0.11693339492E+04  0.10995038980E+04 0.  0.
        3    1    3    3  502    0  0.29178983131E+03 -0.43716449394E+03 -0.37041542044E+03  0.64300987109E+03  0.10100000352E+00 0. -1.
       -3    1    3    3    0  502 -0.29178983131E+03  0.43716449394E+03 -0.27621089212E+02  0.52632407810E+03  0.10100000352E+00 0.  1.
</event>
<event>
 5   0  0.2438115E-03  0.1227712E+04  0.7818609E-02  0.9088940E-01
        2   -1    0    0  501    0  0.00000000000E+00  0.00000000000E+00  0.57466759528E+03  0.57466759528E+03  0.25500000920E-02 0. -1.
       -2   -1    0    0    0  501  0.00000000000E+00  0.00000000000E+00 -0.65571676584E+03  0.65571676584E+03  0.25500000920E-02 0.  1.
    10030    2    1    2    0    0  0.00000000000E+00  0.00000000000E+00 -0.81049170562E+02  0.12303843611E+04  0.12277119809E+04 0.  0.
        4    1    3    3  502    0  0.57242435053E+02 -0.92797720718E+02 -0.64593343502E+03  0.65507230800E+03  0.12699999809E+01 0.  1.
       -4    1    3    3    0  502 -0.57242435053E+02  0.92797720718E+02  0.56488426445E+03  0.57531205312E+03  0.12699999809E+01 0. -1.
</event>
<event>
 5   0  0.2483036E-03  0.1113992E+04  0.7818609E-02  0.9191661E-01
       -2   -1    0    0    0  501  0.00000000000E+00  0.00000000000E+00  0.42926389325E+03  0.42926389326E+03  0.25500000920E-02 0.  1.
        2   -1    0    0  501    0  0.00000000000E+00  0.00000000000E+00 -0.72273556430E+03  0.72273556430E+03  0.25500000920E-02 0. -1.
    10030    2    1    2    0    0  0.00000000000E+00  0.00000000000E+00 -0.29347167105E+03  0.11519994576E+04  0.11139915298E+04 0.  0.
        3    1    3    3  502    0 -0.27148372343E+03 -0.31741918313E+03 -0.52779969231E+03  0.67307568319E+03  0.10100000352E+00 0.  1.
       -3    1    3    3    0  502  0.27148372343E+03  0.31741918313E+03  0.23432802126E+03  0.47892377436E+03  0.10100000352E+00 0. -1.
</event>
<event>
 5   0  0.9631750E-04  0.1210487E+04  0.7818609E-02  0.9103727E-01
        3   -1    0    0  501    0  0.00000000000E+00  0.00000000000E+00  0.28468299360E+03  0.28468301152E+03  0.10100000352E+00 0.  1.
       -3   -1    0    0    0  501  0.00000000000E+00  0.00000000000E+00 -0.12867630434E+04  0.12867630473E+04  0.10100000352E+00 0. -1.
    10030    2    1    2    0    0  0.00000000000E+00  0.00000000000E+00 -0.10020800498E+04  0.15714460589E+04  0.12104867987E+04 0.  0.
        3    1    3    3  502    0 -0.26271666574E+03 -0.34535997597E+03  0.46708404569E+02  0.43643469696E+03  0.10100000352E+00 0.  1.
       -3    1    3    3    0  502  0.26271666574E+03  0.34535997597E+03 -0.10487884543E+04  0.11350113619E+04  0.10100000352E+00 0. -1.
</event>
<event>
 5   0  0.1468556E-03  0.1081586E+04  0.7818609E-02  0.9223328E-01
       -1   -1    0    0    0  501  0.00000000000E+00  0.00000000000E+00  0.16336372079E+03  0.16336372087E+03  0.50400001928E-02 0.  1.
        1   -1    0    0  501    0  0.00000000000E+00  0.00000000000E+00 -0.17902192510E+04  0.17902192510E+04  0.50400001928E-02 0. -1.
    10030    2    1    2    0    0  0.00000000000E+00  0.00000000000E+00 -0.16268555302E+04  0.19535829718E+04  0.10815856470E+04 0.  0.
        5    1    3    3  502    0  0.51775057842E+03  0.30594175938E+02 -0.10899219685E+04  0.12070433515E+04  0.46999998093E+01 0. -1.
       -5    1    3    3    0  502 -0.51775057842E+03 -0.30594175938E+02 -0.53693356169E+03  0.74653962033E+03  0.46999998093E+01 0.  1.
</event>
<event>
 5   0  0.2467448E-03  0.1104890E+04  0.7818609E-02  0.9200439E-01
        2   -1    0    0  501    0  0.00000000000E+00  0.00000000000E+00  0.50658223297E+03  0.50658223298E+03  0.25500000920E-02 0. -1.
       -2   -1    0    0    0  501  0.00000000000E+00  0.00000000000E+00 -0.60245995682E+03  0.60245995683E+03  0.25500000920E-02 0.  1.
    10030    2    1    2    0    0  0.00000000000E+00  0.00000000000E+00 -0.95877723849E+02  0.11090421898E+04  0.11048900583E+04 0.  0.
        1    1    3    3  502    0  0.43823983817E+03  0.31919071013E+02 -0.38404422409E+03  0.58357771456E+03  0.50400001928E-02 0.  1.
       -1    1    3    3    0  502 -0.43823983817E+03 -0.31919071013E+02  0.28816650024E+03  0.52546447524E+03  0.50400001928E-02 0. -1.
</event>
<event>
 5   0  0.1480937E-03  0.1096938E+04  0.7818609E-02  0.9208181E-01
        1   -1    0    0  501    0  0.00000000000E+00  0.00000000000E+00  0.60227959607E+03  0.60227959609E+03  0.50400001928E-02 0. -1.
       -1   -1    0    0    0  501  0.00000000000E+00  0.00000000000E+00 -0.49946631432E+03  0.49946631435E+03  0.50400001928E-02 0.  1.
    10030    2    1    2    0    0  0.00000000000E+00  0.00000000000E+00  0.10281328175E+03  0.11017459104E+04  0.10969382299E+04 0.  0.
        1    1    3    3  502    0 -0.24534723381E+03  0.18884483143E+03  0.50611674942E+03  0.59330582296E+03  0.50400001928E-02 0. -1.
       -1    1    3    3    0  502  0.24534723381E+03 -0.18884483143E+03 -0.40330346767E+03  0.50844008748E+03  0.50400001928E-02 0.  1.
</event>
<event>
 5   0  0.2438115E-03  0.1090689E+04  0.7818609E-02  0.9214315E-01
        2   -1    0    0  501    0  0.00000000000E+00  0.00000000000E+00  0.49749660992E+03  0.49749660993E+03  0.25500000920E-02 0. -1.
       -2   -1    0    0    0  501  0.00000000000E+00  0.00000000000E+00 -0.59779415681E+03  0.59779415682E+03  0.25500000920E-02 0.  1.
    10030    2    1    2    0    0  0.00000000000E+00  0.00000000000E+00 -0.10029754689E+03  0.10952907667E+04  0.10906888951E+04 0.  0.
        4    1    3    3  502    0 -0.16706195002E+02 -0.19736576926E+02 -0.59717670313E+03  0.59773761559E+03  0.12699999809E+01 0.  1.
       -4    1    3    3    0  502  0.16706195002E+02  0.19736576926E+02  0.49687915624E+03  0.49755315116E+03  0.12699999809E+01 0. -1.
</event>
<event>
 5   0  0.2438115E-03  0.1087945E+04  0.7818609E-02  0.9217022E-01
        2   -1    0    0  501    0  0.00000000000E+00  0.00000000000E+00  0.46325359351E+03  0.46325359351E+03  0.25500000920E-02 0. -1.
       -2   -1    0    0    0  501  0.00000000000E+00  0.00000000000E+00 -0.63875577855E+03  0.63875577855E+03  0.25500000920E-02 0.  1.
    10030    2    1    2    0    0  0.00000000000E+00  0.00000000000E+00 -0.17550218504E+03  0.11020093721E+04  0.10879446857E+04 0.  0.
        4    1    3    3  502    0 -0.21243971231E+03  0.43991562757E+03  0.15460741887E+03  0.51240751128E+03  0.12699999809E+01 0. -1.
       -4    1    3    3    0  502  0.21243971231E+03 -0.43991562757E+03 -0.33010960391E+03  0.58960186079E+03  0.12699999809E+01 0.  1.
</event>
<event>
 5   0  0.9631750E-04  0.1097743E+04  0.7818609E-02  0.9207394E-01
       -3   -1    0    0    0  501  0.00000000000E+00  0.00000000000E+00  0.48671836778E+03  0.48671837826E+03  0.10100000352E+00 0.  1.
        3   -1    0    0  501    0  0.00000000000E+00  0.00000000000E+00 -0.61896173870E+03  0.61896174694E+03  0.10100000352E+00 0. -1.
    10030    2    1    2    0    0  0.00000000000E+00  0.00000000000E+00 -0.13224337092E+03  0.11056801252E+04  0.10977432442E+04 0.  0.
        2    1    3    3  502    0  0.15056930764E+03 -0.52680393537E+03 -0.99015960159E+02  0.55677433768E+03  0.25500000920E-02 0. -1.
       -2    1    3    3    0  502 -0.15056930764E+03  0.52680393537E+03 -0.33227410759E+02  0.54890578751E+03  0.25500000920E-02 0.  1.
</event>
<event>
 5   0  0.2438115E-03  0.1097378E+04  0.7818609E-02  0.9207751E-01
       -2   -1    0    0    0  501  0.00000000000E+00  0.00000000000E+00  0.82026717231E+03  0.82026717231E+03  0.25500000920E-02 0.  1.
        2   -1    0    0  501    0  0.00000000000E+00  0.00000000000E+00 -0.36702635169E+03  0.36702635170E+03  0.25500000920E-02 0. -1.
    10030    2    1    2    0    0  0.00000000000E+00  0.00000000000E+00  0.45324082062E+03  0.11872935240E+04  0.10973780892E+04 0.  0.
        4    1    3    3  502    0  0.22418790837E+03 -0.29929694701E+03 -0.20779993880E+03  0.42780989728E+03  0.12699999809E+01 0. -1.
       -4    1    3    3    0  502 -0.22418790837E+03  0.29929694701E+03  0.66104075942E+03  0.75948362672E+03  0.12699999809E+01 0.  1.
</event>
<event>
 5   0  0.2467448E-03  0.1081827E+04  0.7818609E-02  0.9223088E-01
       -2   -1    0    0    0  501  0.00000000000E+00  0.00000000000E+00  0.66928038116E+03  0.66928038116E+03  0.25500000920E-02 0. -1.
        2   -1    0    0  501    0  0.00000000000E+00  0.00000000000E+00 -0.43716677837E+03  0.43716677838E+03  0.25500000920E-02 0.  1.
    10030    2    1    2    0    0  0.00000000000E+00  0.00000000000E+00  0.23211360279E+03  0.11064471595E+04  0.10818265075E+04 0.  0.
        1    1    3    3  502    0  0.18823918643E+02 -0.20274268162E+03 -0.39647499461E+03  0.44570321543E+03  0.50400001928E-02 0.  1.
       -1    1    3    3    0  502 -0.18823918643E+02  0.20274268162E+03  0.62858859740E+03  0.66074394411E+03  0.50400001928E-02 0. -1.
</event>
<event>
 5   0  0.1479573E-03  0.1101860E+04  0.7818609E-02  0.9203381E-01
       -1   -1    0    0    0  501  0.00000000000E+00  0.00000000000E+00  0.10125692321E+04  0.10125692321E+04  0.50400001928E-02 0. -1.
        1   -1    0    0  501    0  0.00000000000E+00  0.00000000000E+00 -0.29975608604E+03  0.29975608608E+03  0.50400001928E-02 0.  1.
    10030    2    1    2    0    0  0.00000000000E+00  0.00000000000E+00  0.71281314603E+03  0.13123253182E+04  0.11018598638E+04 0.  0.
        4    1    3    3  502    0  0.25071124666E+01  0.23481687569E+03 -0.23716182109E+03  0.33375528910E+03  0.12699999809E+01 0.  1.
       -4    1    3    3    0  502 -0.25071124666E+01 -0.23481687569E+03  0.94997496712E+03  0.97857002906E+03  0.12699999809E+01 0. -1.
</event>
<event>
 5   0  0.9631750E-04  0.1091486E+04  0.7818609E-02  0.9213530E-01
       -3   -1    0    0    0  501  0.00000000000E+00  0.00000000000E+00  0.41928213012E+03  0.41928214229E+03  0.10100000352E+00 0. -1.
        3   -1    0    0  501    0  0.00000000000E+00  0.00000000000E+00 -0.71034601393E+03  0.71034602111E+03  0.10100000352E+00 0.  1.
    10030    2    1    2    0    0  0.00000000000E+00  0.00000000000E+00 -0.29106388381E+03  0.11296281634E+04  0.10914859610E+04 0.  0.
        4    1    3    3  502    0  0.25556305916E+03  0.48219661039E+03 -0.14265271072E+03  0.56407220908E+03  0.12699999809E+01 0.  1.
       -4    1    3    3    0  502 -0.25556305916E+03 -0.48219661039E+03 -0.14841117309E+03  0.56555595432E+03  0.12699999809E+01 0. -1.
</event>
<event>
 5   0  0.1468556E-03  0.1096420E+04  0.7818609E-02  0.9208688E-01
        1   -1    0    0  501    0  0.00000000000E+00  0.00000000000E+00  0.63864880701E+03  0.63864880703E+03  0.50400001928E-02 0. -1.
       -1   -1    0    0    0  501  0.00000000000E+00  0.00000000000E+00 -0.47057795057E+03  0.47057795060E+03  0.50400001928E-02 0.  1.
    10030    2    1    2    0    0  0.00000000000E+00  0.00000000000E+00  0.16807085643E+03  0.11092267576E+04  0.10964197130E+04 0.  0.
        5    1    3    3  502    0 -0.31860285151E+02  0.21082543420E+03 -0.42688792448E+03  0.47719789558E+03  0.46999998093E+01 0.  1.
       -5    1    3    3    0  502  0.31860285151E+02 -0.21082543420E+03  0.59495878092E+03  0.63202886205E+03  0.46999998093E+01 0. -1.
</event>
<event>
 5   0  0.2438115E-03  0.1138563E+04  0.7818609E-02  0.9168400E-01
        2   -1    0    0  501    0  0.00000000000E+00  0.00000000000E+00  0.16252400909E+04  0.16252400909E+04  0.25500000920E-02 0. -1.
       -2   -1    0    0    0  501  0.00000000000E+00  0.00000000000E+00 -0.19940520381E+03  0.19940520383E+03  0.25500000920E-02 0.  1.
    10030    2    1    2    0    0  0.00000000000E+00  0.00000000000E+00  0.14258348871E+04  0.18246452948E+04  0.11385628337E+04 0.  0.
        4    1    3    3  502    0 -0.47800671424E+03  0.29484972713E+03  0.86199190553E+03  0.10288140933E+04  0.12699999809E+01 0. -1.
       -4    1    3    3    0  502  0.47800671424E+03 -0.29484972713E+03  0.56384298159E+03  0.79583120147E+03  0.12699999809E+01 0.  1.
</event>
<event>
 5   0  0.2467448E-03  0.1099727E+04  0.7818609E-02  0.9205458E-01
       -2   -1    0    0    0  501  0.00000000000E+00  0.00000000000E+00  0.93915503242E+03  0.93915503242E+03  0.25500000920E-02 0.  1.
        2   -1    0    0  501    0  0.00000000000E+00  0.00000000000E+00 -0.32193826257E+03  0.32193826258E+03  0.25500000920E-02 0. -1.
    10030    2    1    2    0    0  0.00000000000E+00  0.00000000000E+00  0.61721676985E+03  0.12610932950E+04  0.10997271287E+04 0.  0.
        1    1    3    3  502    0 -0.17864139405E+03 -0.34330479440E+03  0.75653789396E+03  0.84977674394E+03  0.50400001928E-02 0.  1.
       -1    1    3    3    0  502  0.17864139405E+03  0.34330479440E+03 -0.13932112411E+03  0.41131655105E+03  0.50400001928E-02 0. -1.
</event>
<event>
 5   0  0.2488472E-03  0.1097292E+04  0.7818609E-02  0.9207835E-01
        2   -1    0    0  501    0  0.00000000000E+00  0.00000000000E+00  0.83953417491E+03  0.83953417491E+03  0.25500000920E-02 0.  1.
       -2   -1    0    0    0  501  0.00000000000E+00  0.00000000000E+00 -0.35854721968E+03  0.35854721969E+03  0.25500000920E-02 0. -1.
    10030    2    1    2    0    0  0.00000000000E+00  0.00000000000E+00  0.48098695523E+03  0.11980813946E+04  0.10972923845E+04 0.  0.
        2    1    3    3  502    0  0.40039288471E+03 -0.16916785523E+03  0.60602836358E+03  0.74578991870E+03  0.25500000920E-02 0.  1.
       -2    1    3    3    0  502 -0.40039288471E+03  0.16916785523E+03 -0.12504140834E+03  0.45229147590E+03  0.25500000920E-02 0. -1.
</event>
<event>
 5   0  0.2392585E-03  0.1086627E+04  0.7818609E-02  0.9218325E-01
       -2   -1    0    0    0  501  0.00000000000E+00  0.00000000000E+00  0.40160316972E+03  0.40160316973E+03  0.25500000920E-02 0. -1.
        2   -1    0    0  501    0  0.00000000000E+00  0.00000000000E+00 -0.73502734948E+03  0.73502734949E+03  0.25500000920E-02 0.  1.
    10030    2    1    2    0    0  0.00000000000E+00  0.00000000000E+00 -0.33342417976E+03  0.11366305192E+04  0.10866265474E+04 0.  0.
        5    1    3    3  502    0 -0.17333713363E+03 -0.35862278279E+03  0.21976440191E+03  0.45494455110E+03  0.46999998093E+01 0. -1.
       -5    1    3    3    0  502  0.17333713363E+03  0.35862278279E+03 -0.55318858167E+03  0.68168596811E+03  0.46999998093E+01 0.  1.
</event>
<event>
 5   0  0.2488472E-03  0.1103769E+04  0.7818609E-02  0.9201526E-01
        2   -1    0    0  501    0  0.00000000000E+00  0.00000000000E+00  0.17430211491E+04  0.17430211491E+04  0.25500000920E-02 0. -1.
       -2   -1    0    0    0  501  0.00000000000E+00  0.00000000000E+00 -0.17474054473E+03  0.17474054475E+03  0.25500000920E-02 0.  1.
    10030    2    1    2    0    0  0.00000000000E+00  0.00000000000E+00  0.15682806044E+04  0.19177616939E+04  0.11037689343E+04 0.  0.
        2    1    3    3  502    0  0.15784040146E+03  0.19179929781E+03  0.16404062758E+04  0.16591061788E+04  0.25500000920E-02 0. -1.
       -2    1    3    3    0  502 -0.15784040146E+03 -0.19179929781E+03 -0.72125671408E+02  0.25865551503E+03  0.25500000920E-02 0.  1.
</event>
<event>
 5   0  0.1509004E-03  0.1098626E+04  0.7818609E-02  0.9206532E-01
        1   -1    0    0  501    0  0.00000000000E+00  0.00000000000E+00  0.57794756828E+03  0.57794756830E+03  0.50400001928E-02 0.  1.
       -1   -1    0    0    0  501  0.00000000000E+00  0.00000000000E+00 -0.52209750564E+03  0.52209750567E+03  0.50400001928E-02 0. -1.
    10030    2    1    2    0    0  0.00000000000E+00  0.00000000000E+00  0.55850062639E+02  0.11000450740E+04  0.10986263857E+04 0.  0.
        3    1    3    3  502    0  0.46079739076E+03 -0.15264778241E+02  0.32693705304E+03  0.56520358778E+03  0.10100000352E+00 0.  1.
       -3    1    3    3    0  502 -0.46079739076E+03  0.15264778241E+02 -0.27108699040E+03  0.53484148619E+03  0.10100000352E+00 0. -1.
</event>
<event>
 5   0  0.2467448E-03  0.1098010E+04  0.7818609E-02  0.9207134E-01
       -2   -1    0    0    0  501  0.00000000000E+00  0.00000000000E+00  0.74806111440E+03  0.74806111441E+03  0.25500000920E-02 0.  1.
        2   -1    0    0  501    0  0.00000000000E+00  0.00000000000E+00 -0.40291696000E+03  0.40291696001E+03  0.25500000920E-02 0. -1.
    10030    2    1    2    0    0  0.00000000000E+00  0.00000000000E+00  0.34514415440E+03  0.11509780744E+04  0.10980100366E+04 0.  0.
        1    1    3    3  502    0 -0.18227387299E+03 -0.22072622930E+03  0.66363944658E+03  0.72274556253E+03  0.50400001928E-02 0.  1.
       -1    1    3    3    0  502  0.18227387299E+03  0.22072622930E+03 -0.31849529218E+03  0.42823251189E+03  0.50400001928E-02 0. -1.
</event>
<event>
 5   0  0.1415400E-03  0.1084387E+04  0.7818609E-02  0.9220545E-01
        1   -1    0    0  501    0  0.00000000000E+00  0.00000000000E+00  0.19417451668E+04  0.19417451668E+04  0.50400001928E-02 0. -1.
       -1   -1    0    0    0  501  0.00000000000E+00  0.00000000000E+00 -0.15139655135E+03  0.15139655143E+03  0.50400001928E-02 0.  1.
    10030    2    1    2    0    0  0.00000000000E+00  0.00000000000E+00  0.17903486154E+04  0.20931417182E+04  0.10843865029E+04 0.  0.
        2    1    3    3  502    0 -0.94325663466E+02 -0.51903814010E+03  0.65350214953E+03  0.83985890548E+03  0.25500000920E-02 0. -1.
       -2    1    3    3    0  502  0.94325663466E+02  0.51903814010E+03  0.11368464659E+04  0.12532828128E+04  0.25500000920E-02 0.  1.
</event>
<event>
 5   0  0.1479573E-03  0.1100568E+04  0.7818609E-02  0.9204639E-01
       -1   -1    0    0    0  501  0.00000000000E+00  0.00000000000E+00  0.85880869570E+03  0.85880869571E+03  0.50400001928E-02 0.  1.
        1   -1    0    0  501    0  0.00000000000E+00  0.00000000000E+00 -0.35259583374E+03  0.35259583377E+03  0.50400001928E-02 0. -1.
    10030    2    1    2    0    0  0.00000000000E+00  0.00000000000E+00  0.50621286196E+03  0.12114045295E+04  0.11005677955E+04 0.  0.
        4    1    3    3  502    0 -0.16810496090E+03  0.10207736859E+03 -0.31258896774E+03  0.36931361024E+03  0.12699999809E+01 0. -1.
       -4    1    3    3    0  502  0.16810496090E+03 -0.10207736859E+03  0.81880182970E+03  0.84209091925E+03  0.12699999809E+01 0.  1.
</event>
<event>
 5   0  0.2483036E-03  0.1054489E+04  0.7818609E-02  0.9250722E-01
        2   -1    0    0  501    0  0.00000000000E+00  0.00000000000E+00  0.96590815740E+03  0.96590815740E+03  0.25500000920E-02 0.  1.
       -2   -1    0    0    0  501  0.00000000000E+00  0.00000000000E+00 -0.28779835603E+03  0.28779835604E+03  0.25500000920E-02 0. -1.
    10030    2    1    2    0    0  0.00000000000E+00  0.00000000000E+00  0.67810980137E+03  0.12537065134E+04  0.10544890322E+04 0.  0.
        3    1    3    3  502    0 -0.16786605033E+03 -0.48097429179E+03  0.50064128838E+03  0.71425274941E+03  0.10100000352E+00 0.  1.
       -3    1    3    3    0  502  0.16786605033E+03  0.48097429179E+03  0.17746851300E+03  0.53945376403E+03  0.10100000352E+00 0. -1.
</event>
<event>
 5   0  0.2392585E-03  0.1100540E+04  0.7818609E-02  0.9204665E-01
        2   -1    0    0  501    0  0.00000000000E+00  0.00000000000E+00  0.60511333768E+03  0.60511333769E+03  0.25500000920E-02 0.  1.
       -2   -1    0    0    0  501  0.00000000000E+00  0.00000000000E+00 -0.50039752649E+03  0.50039752649E+03  0.25500000920E-02 0. -1.
    10030    2    1    2    0    0  0.00000000000E+00  0.00000000000E+00  0.10471581119E+03  0.11055108642E+04  0.11005402626E+04 0.  0.
        5    1    3    3  502    0  0.37936900686E+03 -0.38120968981E+03 -0.64500900321E+02  0.54168637338E+03  0.46999998093E+01 0. -1.
       -5    1    3    3    0  502 -0.37936900686E+03  0.38120968981E+03  0.16921671151E+03  0.56382449080E+03  0.46999998093E+01 0.  1.
</event>
<event>
 5   0  0.9631750E-04  0.1102717E+04  0.7818609E-02  0.9202547E-01
        3   -1    0    0  501    0  0.00000000000E+00  0.00000000000E+00  0.55288113610E+03  0.55288114533E+03  0.10100000352E+00 0.  1.
       -3   -1    0    0    0  501  0.00000000000E+00  0.00000000000E+00 -0.54984042854E+03  0.54984043782E+03  0.10100000352E+00 0. -1.
    10030    2    1    2    0    0  0.00000000000E+00  0.00000000000E+00  0.30407075622E+01  0.11027215831E+04  0.11027173908E+04 0.  0.
        5    1    3    3  502    0  0.44272097222E+03 -0.17885029418E+03 -0.27413452428E+03  0.55060068505E+03  0.46999998093E+01 0. -1.
       -5    1    3    3    0  502 -0.44272097222E+03  0.17885029418E+03  0.27717523185E+03  0.55212089810E+03  0.46999998093E+01 0.  1.
</event>
<event>
 5   0  0.9631750E-04  0.1095057E+04  0.7818609E-02  0.9210023E-01
        3   -1    0    0  501    0  0.00000000000E+00  0.00000000000E+00  0.31191369183E+03  0.31191370818E+03  0.10100000352E+00 0.  1.
       -3   -1    0    0    0  501  0.00000000000E+00  0.00000000000E+00 -0.96112254282E+03  0.96112254813E+03  0.10100000352E+00 0. -1.
    10030    2    1    2    0    0  0.00000000000E+00  0.00000000000E+00 -0.64920885100E+03  0.12730362563E+04  0.10950567007E+04 0.  0.
        4    1    3    3  502    0 -0.33539955720E+02 -0.14631893683E+02 -0.95969772025E+03  0.96039593298E+03  0.12699999809E+01 0. -1.
       -4    1    3    3    0  502  0.33539955720E+02  0.14631893683E+02  0.31048886925E+03  0.31264032333E+03  0.12699999809E+01 0.  1.
</event>
<event>
 5   0  0.2392585E-03  0.1134448E+04  0.7818609E-02  0.9172252E-01
        2   -1    0    0  501    0  0.00000000000E+00  0.00000000000E+00  0.20691984781E+03  0.20691984782E+03  0.25500000920E-02 0. -1.
       -2   -1    0    0    0  501  0.00000000000E+00  0.00000000000E+00 -0.15549166213E+04  0.15549166213E+04  0.25500000920E-02 0.  1.
    10030    2    1    2    0    0  0.00000000000E+00  0.00000000000E+00 -0.13479967735E+04  0.17618364691E+04  0.11344480784E+04 0.  0.
        5    1    3    3  502    0  0.43814306122E+03  0.21785902712E+03 -0.11195029821E+04  0.12217777682E+04  0.46999998093E+01 0.  1.
       -5    1    3    3    0  502 -0.43814306122E+03 -0.21785902712E+03 -0.22849379137E+03  0.54005870096E+03  0.46999998093E+01 0. -1.
</event>
<event>
 5   0  0.2467448E-03  0.1196301E+04  0.7818609E-02  0.9116101E-01
        2   -1    0    0  501    0  0.00000000000E+00  0.00000000000E+00  0.99717349763E+03  0.99717349763E+03  0.25500000920E-02 0. -1.
       -2   -1    0    0    0  501  0.00000000000E+00  0.00000000000E+00 -0.35879799579E+03  0.35879799580E+03  0.25500000920E-02 0.  1.
    10030    2    1    2    0    0  0.00000000000E+00  0.00000000000E+00  0.63837550183E+03  0.13559714934E+04  0.11963007187E+04 0.  0.
        1    1    3    3  502    0  0.54833583494E+03  0.16376439045E+03  0.51646660749E+03  0.77086232242E+03  0.50400001928E-02 0. -1.
       -1    1    3    3    0  502 -0.54833583494E+03 -0.16376439045E+03  0.12190889434E+03  0.58510917101E+03  0.50400001928E-02 0.  1.
</event>
<event>
 5   0  0.1479573E-03  0.1097273E+04  0.7818609E-02  0.9207854E-01
       -1   -1    0    0    0  501  0.00000000000E+00  0.00000000000E+00  0.36762325617E+03  0.36762325620E+03  0.50400001928E-02 0. -1.
        1   -1    0    0  501    0  0.00000000000E+00  0.00000000000E+00 -0.81877803528E+03  0.81877803529E+03  0.50400001928E-02 0.  1.
    10030    2    1    2    0    0  0.00000000000E+00  0.00000000000E+00 -0.45115477911E+03  0.11864012915E+04  0.10972727053E+04 0.  0.
        4    1    3    3  502    0  0.50497442090E+03  0.27221954343E+02 -0.45560208923E+03  0.68067251831E+03  0.12699999809E+01 0. -1.
       -4    1    3    3    0  502 -0.50497442090E+03 -0.27221954343E+02  0.44473101206E+01  0.50572877319E+03  0.12699999809E+01 0.  1.
</event>
<event>
 5   0  0.1468556E-03  0.1113191E+04  0.7818609E-02  0.9192430E-01
        1   -1    0    0  501    0  0.00000000000E+00  0.00000000000E+00  0.27068276115E+04  0.27068276115E+04  0.50400001928E-02 0. -1.
       -1   -1    0    0    0  501  0.00000000000E+00  0.00000000000E+00 -0.11445078426E+03  0.11445078437E+03  0.50400001928E-02 0.  1.
    10030    2    1    2    0    0  0.00000000000E+00  0.00000000000E+00  0.25923768272E+04  0.28212783959E+04  0.11131909866E+04 0.  0.
        5    1    3    3  502    0  0.19785546294E+03 -0.66280948064E+02 -0.11517427609E+02  0.20903274726E+03  0.46999998093E+01 0.  1.
       -5    1    3    3    0  502 -0.19785546294E+03  0.66280948064E+02  0.26038942548E+04  0.26122456486E+04  0.46999998093E+01 0. -1.
</event>
<event>
 5   0  0.2392585E-03  0.1086573E+04  0.7818609E-02  0.9218379E-01
        2   -1    0    0  501    0  0.00000000000E+00  0.00000000000E+00  0.11935268894E+04  0.11935268894E+04  0.25500000920E-02 0. -1.
       -2   -1    0    0    0  501  0.00000000000E+00  0.00000000000E+00 -0.24730073979E+03  0.24730073980E+03  0.25500000920E-02 0.  1.
    10030    2    1    2    0    0  0.00000000000E+00  0.00000000000E+00  0.94622614958E+03  0.14408276292E+04  0.10865727453E+04 0.  0.
        5    1    3    3  502    0 -0.14966518574E+02 -0.82301663847E+02 -0.23868256302E+03  0.25296050371E+03  0.46999998093E+01 0.  1.
       -5    1    3    3    0  502  0.14966518574E+02  0.82301663847E+02  0.11849087126E+04  0.11878671255E+04  0.46999998093E+01 0. -1.
</event>
<event>
 5   0  0.2488472E-03  0.1094036E+04  0.7818609E-02  0.9211024E-01
       -2   -1    0    0    0  501  0.00000000000E+00  0.00000000000E+00  0.26280079018E+03  0.26280079019E+03  0.25500000920E-02 0. -1.
        2   -1    0    0  501    0  0.00000000000E+00  0.00000000000E+00 -0.11386145858E+04  0.11386145858E+04  0.25500000920E-02 0.  1.
    10030    2    1    2    0    0  0.00000000000E+00  0.00000000000E+00 -0.87581379566E+03  0.14014153760E+04  0.10940362204E+04 0.  0.
        2    1    3    3  502    0 -0.31621126183E+03  0.39246436678E+03 -0.71027553493E+03  0.87092432325E+03  0.25500000920E-02 0.  1.
       -2    1    3    3    0  502  0.31621126183E+03 -0.39246436678E+03 -0.16553826073E+03  0.53049105278E+03  0.25500000920E-02 0. -1.
</event>
<event>
 5   0  0.2483036E-03  0.1106831E+04  0.7818609E-02  0.9198559E-01
        2   -1    0    0  501    0  0.00000000000E+00  0.00000000000E+00  0.10924938694E+04  0.10924938694E+04  0.25500000920E-02 0. -1.
       -2   -1    0    0    0  501  0.00000000000E+00  0.00000000000E+00 -0.28033925889E+03  0.28033925890E+03  0.25500000920E-02 0.  1.
    10030    2    1    2    0    0  0.00000000000E+00  0.00000000000E+00  0.81215461051E+03  0.13728331283E+04  0.11068313723E+04 0.  0.
        3    1    3    3  502    0 -0.44840522297E+03 -0.23853419362E+03  0.67867602959E+03  0.84768329513E+03  0.10100000352E+00 0. -1.
       -3    1    3    3    0  502  0.44840522297E+03  0.23853419362E+03  0.13347858093E+03  0.52514983317E+03  0.10100000352E+00 0.  1.
</event>
<event>
 5   0  0.1480937E-03  0.1079534E+04  0.7818609E-02  0.9225372E-01
        1   -1    0    0  501    0  0.00000000000E+00  0.00000000000E+00  0.13192977126E+04  0.13192977126E+04  0.50400001928E-02 0. -1.
       -1   -1    0    0    0  501  0.00000000000E+00  0.00000000000E+00 -0.22083590225E+03  0.22083590230E+03  0.50400001928E-02 0.  1.
    10030    2    1    2    0    0  0.00000000000E+00  0.00000000000E+00  0.10984618104E+04  0.15401336150E+04  0.10795337897E+04 0.  0.
        1    1    3    3  502    0  0.31786680006E+03 -0.24393021975E+03  0.10652166799E+04  0.11380807659E+04  0.50400001928E-02 0. -1.
       -1    1    3    3    0  502 -0.31786680006E+03  0.24393021975E+03  0.33245130536E+02  0.40205284903E+03  0.50400001928E-02 0.  1.
</event>
<event>
 5   0  0.2483036E-03  0.1099142E+04  0.7818609E-02  0.9206029E-01
       -2   -1    0    0    0  501  0.00000000000E+00  0.00000000000E+00  0.37421715199E+03  0.37421715199E+03  0.25500000920E-02 0.  1.
        2   -1    0    0  501    0  0.00000000000E+00  0.00000000000E+00 -0.80709320952E+03  0.80709320952E+03  0.25500000920E-02 0. -1.
    10030    2    1    2    0    0  0.00000000000E+00  0.00000000000E+00 -0.43287605753E+03  0.11813103615E+04  0.10991417056E+04 0.  0.
        3    1    3    3  502    0 -0.12881334981E+03  0.32203474265E+03 -0.67460341361E+03  0.75854402010E+03  0.10100000352E+00 0. -1.
       -3    1    3    3    0  502  0.12881334981E+03 -0.32203474265E+03  0.24172735608E+03  0.42276634142E+03  0.10100000352E+00 0.  1.
</event>
<event>
 5   0  0.2392585E-03  0.1095765E+04  0.7818609E-02  0.9209329E-01
        2   -1    0    0  501    0  0.00000000000E+00  0.00000000000E+00  0.53403692014E+03  0.53403692014E+03  0.25500000920E-02 0.  1.
       -2   -1    0    0    0  501  0.00000000000E+00  0.00000000000E+00 -0.56208737114E+03  0.56208737115E+03  0.25500000920E-02 0. -1.
    10030    2    1    2    0    0  0.00000000000E+00  0.00000000000E+00 -0.28050451006E+02  0.10961242913E+04  0.10957653189E+04 0.  0.
        5    1    3    3  502    0  0.26042111465E+02  0.20418296976E+03 -0.52191632574E+03  0.56105937099E+03  0.46999998093E+01 0. -1.
       -5    1    3    3    0  502 -0.26042111465E+02 -0.20418296976E+03  0.49386587473E+03  0.53506492030E+03  0.46999998093E+01 0.  1.
</event>
<event>
 5   0  0.1480937E-03  0.1094982E+04  0.7818609E-02  0.9210097E-01
        1   -1    0    0  501    0  0.00000000000E+00  0.00000000000E+00  0.14957268006E+04  0.14957268006E+04  0.50400001928E-02 0.  1.
       -1   -1    0    0    0  501  0.00000000000E+00  0.00000000000E+00 -0.20040174044E+03  0.20040174050E+03  0.50400001928E-02 0. -1.
    10030    2    1    2    0    0  0.00000000000E+00  0.00000000000E+00  0.12953250602E+04  0.16961285411E+04  0.10949817425E+04 0.  0.
        1    1    3    3  502    0  0.53535600326E+03  0.62353877148E+02  0.79665843782E+03  0.96185171560E+03  0.50400001928E-02 0.  1.
       -1    1    3    3    0  502 -0.53535600326E+03 -0.62353877148E+02  0.49866662234E+03  0.73427682551E+03  0.50400001928E-02 0. -1.
</event>
<event>
 5   0  0.1415400E-03  0.1098545E+04  0.7818609E-02  0.9206611E-01
       -1   -1    0    0    0  501  0.00000000000E+00  0.00000000000E+00  0.38614042546E+03  0.38614042550E+03  0.50400001928E-02 0. -1.
        1   -1    0    0  501    0  0.00000000000E+00  0.00000000000E+00 -0.78132305238E+03  0.78132305240E+03  0.50400001928E-02 0.  1.
    10030    2    1    2    0    0  0.00000000000E+00  0.00000000000E+00 -0.39518262692E+03  0.11674634779E+04  0.10985452488E+04 0.  0.
        2    1    3    3  502    0 -0.41385912594E+03 -0.35055956427E+03 -0.28980490028E+03  0.61494574107E+03  0.25500000920E-02 0.  1.
       -2    1    3    3    0  502  0.41385912594E+03  0.35055956427E+03 -0.10537772664E+03  0.55251773683E+03  0.25500000920E-02 0. -1.
</event>
<event>
 5   0  0.2438115E-03  0.1105123E+04  0.7818609E-02  0.9200213E-01
       -2   -1    0    0    0  501  0.00000000000E+00  0.00000000000E+00  0.39343264605E+03  0.39343264605E+03  0.25500000920E-02 0. -1.
        2   -1    0    0  501    0  0.00000000000E+00  0.00000000000E+00 -0.77605154813E+03  0.77605154813E+03  0.25500000920E-02 0.  1.
    10030    2    1    2    0    0  0.00000000000E+00  0.00000000000E+00 -0.38261890208E+03  0.11694841942E+04  0.11051226431E+04 0.  0.
        4    1    3    3  502    0 -0.24172823336E+03 -0.29730410446E+03 -0.61261646866E+03  0.72258066671E+03  0.12699999809E+01 0.  1.
       -4    1    3    3    0  502  0.24172823336E+03  0.29730410446E+03  0.22999756658E+03  0.44690352747E+03  0.12699999809E+01 0. -1.
</event>
<event>
 5   0  0.2438115E-03  0.1104712E+04  0.7818609E-02  0.9200611E-01
        2   -1    0    0  501    0  0.00000000000E+00  0.00000000000E+00  0.63735355774E+03  0.63735355775E+03  0.25500000920E-02 0. -1.
       -2   -1    0    0    0  501  0.00000000000E+00  0.00000000000E+00 -0.47869400729E+03  0.47869400730E+03  0.25500000920E-02 0.  1.
    10030    2    1    2    0    0  0.00000000000E+00  0.00000000000E+00  0.15865955045E+03  0.11160475650E+04  0.11047123221E+04 0.  0.
        4    1    3    3  502    0  0.26406728592E+01 -0.50746880969E+03  0.29965964361E+03  0.58934631658E+03  0.12699999809E+01 0. -1.
       -4    1    3    3    0  502 -0.26406728592E+01  0.50746880969E+03 -0.14100009316E+03  0.52670124846E+03  0.12699999809E+01 0.  1.
</event>
<event>
 5   0  0.2488472E-03  0.1114883E+04  0.7818609E-02  0.9190806E-01
       -2   -1    0    0    0  501  0.00000000000E+00  0.00000000000E+00  0.26965797054E+03  0.26965797055E+03  0.25500000920E-02 0.  1.
        2   -1    0    0  501    0  0.00000000000E+00  0.00000000000E+00 -0.11523525153E+04  0.11523525153E+04  0.25500000920E-02 0. -1.
    10030    2    1    2    0    0  0.00000000000E+00  0.00000000000E+00 -0.88269454478E+03  0.14220104859E+04  0.11148830264E+04 0.  0.
        2    1    3    3  502    0  0.16486006997E+03  0.60017313382E+02 -0.11162195380E+04  0.11299234388E+04  0.25500000920E-02 0. -1.
       -2    1    3    3    0  502 -0.16486006997E+03 -0.60017313382E+02  0.23352499323E+03  0.29208704704E+03  0.25500000920E-02 0.  1.
</event>
<event>
 5   0  0.2467448E-03  0.1078565E+04  0.7818609E-02  0.9226340E-01
       -2   -1    0    0    0  501  0.00000000000E+00  0.00000000000E+00  0.20841783771E+03  0.20841783772E+03  0.25500000920E-02 0.  1.
        2   -1    0    0  501    0  0.00000000000E+00  0.00000000000E+00 -0.13953959748E+04  0.13953959748E+04  0.25500000920E-02 0. -1.
    10030    2    1    2    0    0  0.00000000000E+00  0.00000000000E+00 -0.11869781371E+04  0.16038138125E+04  0.10785646236E+04 0.  0.
        1    1    3    3  502    0 -0.13659989709E+03 -0.49742838674E+03 -0.35964435154E+03  0.62883908231E+03  0.50400001928E-02 0.  1.
       -1    1    3    3    0  502  0.13659989709E+03  0.49742838674E+03 -0.82733378557E+03  0.97497473023E+03  0.50400001928E-02 0. -1.
</event>
<event>
 5   0  0.2438115E-03  0.1101065E+04  0.7818609E-02  0.9204155E-01
       -2   -1    0    0    0  501  0.00000000000E+00  0.00000000000E+00  0.36561637527E+03  0.36561637528E+03  0.25500000920E-02 0.  1.
        2   -1    0    0  501    0  0.00000000000E+00  0.00000000000E+00 -0.82897207919E+03  0.82897207919E+03  0.25500000920E-02 0. -1.
    10030    2    1    2    0    0  0.00000000000E+00  0.00000000000E+00 -0.46335570392E+03  0.11945884545E+04  0.11010645155E+04 0.  0.
        4    1    3    3  502    0  0.52712364115E+03  0.84705524070E+02 -0.37743896761E+03  0.65383189433E+03  0.12699999809E+01 0. -1.
       -4    1    3    3    0  502 -0.52712364115E+03 -0.84705524070E+02 -0.85916736309E+02  0.54075656015E+03  0.12699999809E+01 0.  1.
</event>
<event>
 5   0  0.2483036E-03  0.1095631E+04  0.7818609E-02  0.9209460E-01
        2   -1    0    0  501    0  0.00000000000E+00  0.00000000000E+00  0.26562689909E+03  0.26562689910E+03  0.25500000920E-02 0. -1.
       -2   -1    0    0    0  501  0.00000000000E+00  0.00000000000E+00 -0.11297879798E+04  0.11297879798E+04  0.25500000920E-02 0.  1.
    10030    2    1    2    0    0  0.00000000000E+00  0.00000000000E+00 -0.86416108070E+03  0.13954148789E+04  0.10956314667E+04 0.  0.
        3    1    3    3  502    0 -0.37099410342E+03 -0.38216741928E+03 -0.26891083219E+03  0.59665870227E+03  0.10100000352E+00 0. -1.
       -3    1    3    3    0  502  0.37099410342E+03  0.38216741928E+03 -0.59525024851E+03  0.79875617662E+03  0.10100000352E+00 0.  1.
</event>
<event>
 5   0  0.1480937E-03  0.1093732E+04  0.7818609E-02  0.9211323E-01
       -1   -1    0    0    0  501  0.00000000000E+00  0.00000000000E+00  0.46384638669E+03  0.46384638671E+03  0.50400001928E-02 0.  1.
        1   -1    0    0  501    0  0.00000000000E+00  0.00000000000E+00 -0.64474455758E+03  0.64474455760E+03  0.50400001928E-02 0. -1.
    10030    2    1    2    0    0  0.00000000000E+00  0.00000000000E+00 -0.18089817089E+03  0.11085909443E+04  0.10937320209E+04 0.  0.
        1    1    3    3  502    0 -0.30817895282E+03  0.18687200348E+03  0.32643781620E+03  0.48626850661E+03  0.50400001928E-02 0.  1.
       -1    1    3    3    0  502  0.30817895282E+03 -0.18687200348E+03 -0.50733598709E+03  0.62232243771E+03  0.50400001928E-02 0. -1.
</event>
<event>
 5   0  0.1480937E-03  0.1096439E+04  0.7818609E-02  0.9208670E-01
       -1   -1    0    0    0  501  0.00000000000E+00  0.00000000000E+00  0.99866313022E+03  0.99866313024E+03  0.50400001928E-02 0. -1.
        1   -1    0    0  501    0  0.00000000000E+00  0.00000000000E+00 -0.30094681089E+03  0.30094681093E+03  0.50400001928E-02 0.  1.
    10030    2    1    2    0    0  0.00000000000E+00  0.00000000000E+00  0.69771631933E+03  0.12996099412E+04  0.10964387520E+04 0.  0.
        1    1    3    3  502    0 -0.40830966085E+03  0.34578614857E+03  0.49039940021E+03  0.72579364246E+03  0.50400001928E-02 0. -1.
       -1    1    3    3    0  502  0.40830966085E+03 -0.34578614857E+03  0.20731691913E+03  0.57381629871E+03  0.50400001928E-02 0.  1.
</event>
<event>
 5   0  0.1479573E-03  0.1104712E+04  0.7818609E-02  0.9200611E-01
        1   -1    0    0  501    0  0.00000000000E+00  0.00000000000E+00  0.11652148113E+04  0.11652148113E+04  0.50400001928E-02 0. -1.
       -1   -1    0    0    0  501  0.00000000000E+00  0.00000000000E+00 -0.26183777503E+03  0.26183777508E+03  0.50400001928E-02 0.  1.
    10030    2    1    2    0    0  0.00000000000E+00  0.00000000000E+00  0.90337703629E+03  0.14270525864E+04  0.11047121864E+04 0.  0.
        4    1    3    3  502    0  0.54249749427E+03  0.10167106151E+03  0.42413059341E+03  0.69608110821E+03  0.12699999809E+01 0. -1.
       -4    1    3    3    0  502 -0.54249749427E+03 -0.10167106151E+03  0.47924644287E+03  0.73097147820E+03  0.12699999809E+01 0.  1.
</event>
<event>
 5   0  0.1480937E-03  0.1078753E+04  0.7818609E-02  0.9226152E-01
       -1   -1    0    0    0  501  0.00000000000E+00  0.00000000000E+00  0.43959525862E+03  0.43959525865E+03  0.50400001928E-02 0. -1.
        1   -1    0    0  501    0  0.00000000000E+00  0.00000000000E+00 -0.66180658331E+03  0.66180658333E+03  0.50400001928E-02 0.  1.
    10030    2    1    2    0    0  0.00000000000E+00  0.00000000000E+00 -0.22221132469E+03  0.11014018420E+04  0.10787530508E+04 0.  0.
        1    1    3    3  502    0  0.15142767978E+03 -0.12197761251E+03 -0.62477709137E+03  0.65433576556E+03  0.50400001928E-02 0.  1.
       -1    1    3    3    0  502 -0.15142767978E+03  0.12197761251E+03  0.40256576668E+03  0.44706607642E+03  0.50400001928E-02 0. -1.
</event>
<event>
 5   0  0.2467448E-03  0.1103535E+04  0.7818609E-02  0.9201753E-01
       -2   -1    0    0    0  501  0.00000000000E+00  0.00000000000E+00  0.11361808550E+04  0.11361808550E+04  0.25500000920E-02 0. -1.
        2   -1    0    0  501    0  0.00000000000E+00  0.00000000000E+00 -0.26795680749E+03  0.26795680750E+03  0.25500000920E-02 0.  1.
    10030    2    1    2    0    0  0.00000000000E+00  0.00000000000E+00  0.86822404746E+03  0.14041376625E+04  0.11035350373E+04 0.  0.
        1    1    3    3  502    0 -0.28393313224E+03  0.21699113065E+03 -0.10081701234E+03  0.37130478635E+03  0.50400001928E-02 0.  1.
       -1    1    3    3    0  502  0.28393313224E+03 -0.21699113065E+03  0.96904105980E+03  0.10328328761E+04  0.50400001928E-02 0. -1.
</event>
<event>
 5   0  0.2438115E-03  0.1097066E+04  0.7818609E-02  0.9208056E-01
       -2   -1    0    0    0  501  0.00000000000E+00  0.00000000000E+00  0.80382008964E+03  0.80382008964E+03  0.25500000920E-02 0. -1.
        2   -1    0    0  501    0  0.00000000000E+00  0.00000000000E+00 -0.37432329995E+03  0.37432329996E+03  0.25500000920E-02 0.  1.
    10030    2    1    2    0    0  0.00000000000E+00  0.00000000000E+00  0.42949678969E+03  0.11781433896E+04  0.10970662487E+04 0.  0.
        4    1    3    3  502    0  0.28887908818E+03 -0.20815202476E+03  0.66284885168E+03  0.75242847239E+03  0.12699999809E+01 0. -1.
       -4    1    3    3    0  502 -0.28887908818E+03  0.20815202476E+03 -0.23335206199E+03  0.42571491721E+03  0.12699999809E+01 0.  1.
</event>
<event>
 5   0  0.2488472E-03  0.1093886E+04  0.7818609E-02  0.9211171E-01
        2   -1    0    0  501    0  0.00000000000E+00  0.00000000000E+00  0.94080450082E+03  0.94080450082E+03  0.25500000920E-02 0.  1.
       -2   -1    0    0    0  501  0.00000000000E+00  0.00000000000E+00 -0.31796921262E+03  0.31796921263E+03  0.25500000920E-02 0. -1.
    10030    2    1    2    0    0  0.00000000000E+00  0.00000000000E+00  0.62283528820E+03  0.12587737135E+04  0.10938864043E+04 0.  0.
        2    1    3    3  502    0  0.35644340363E+03 -0.40413996089E+03  0.20367871228E+03  0.57607814211E+03  0.25500000920E-02 0.  1.
       -2    1    3    3    0  502 -0.35644340363E+03  0.40413996089E+03  0.41915657592E+03  0.68269557134E+03  0.25500000920E-02 0. -1.
</event>
<event>
 5   0  0.1468556E-03  0.1095514E+04  0.7818609E-02  0.9209575E-01
        1   -1    0    0  501    0  0.00000000000E+00  0.00000000000E+00  0.66548603946E+03  0.66548603948E+03  0.50400001928E-02 0. -1.
       -1   -1    0    0    0  501  0.00000000000E+00  0.00000000000E+00 -0.45085496324E+03  0.45085496327E+03  0.50400001928E-02 0.  1.
    10030    2    1    2    0    0  0.00000000000E+00  0.00000000000E+00  0.21463107622E+03  0.11163410028E+04  0.10955139139E+04 0.  0.
        5    1    3    3  502    0  0.28832694090E+03 -0.29086302744E+03 -0.26330470683E+03  0.48691393923E+03  0.46999998093E+01 0.  1.
       -5    1    3    3    0  502 -0.28832694090E+03  0.29086302744E+03  0.47793578304E+03  0.62942706352E+03  0.46999998093E+01 0. -1.
</event>
<event>
 5   0  0.1509004E-03  0.1093866E+04  0.7818609E-02  0.9211191E-01
       -1   -1    0    0    0  501  0.00000000000E+00  0.00000000000E+00  0.34381547659E+03  0.34381547662E+03  0.50400001928E-02 0.  1.
        1   -1    0    0  501    0  0.00000000000E+00  0.00000000000E+00 -0.87004708896E+03  0.87004708898E+03  0.50400001928E-02 0. -1.
    10030    2    1    2    0    0  0.00000000000E+00  0.00000000000E+00 -0.52623161237E+03  0.12138625656E+04  0.10938659051E+04 0.  0.
        3    1    3    3  502    0 -0.20398195527E+03 -0.18712649371E+03  0.26034101627E+03  0.38000318114E+03  0.10100000352E+00 0.  1.
       -3    1    3    3    0  502  0.20398195527E+03  0.18712649371E+03 -0.78657262864E+03  0.83385938446E+03  0.10100000352E+00 0. -1.
</event>
<event>
 5   0  0.2467448E-03  0.1103381E+04  0.7818609E-02  0.9201903E-01
       -2   -1    0    0    0  501  0.00000000000E+00  0.00000000000E+00  0.69788181369E+03  0.69788181369E+03  0.25500000920E-02 0. -1.
        2   -1    0    0  501    0  0.00000000000E+00  0.00000000000E+00 -0.43612304594E+03  0.43612304595E+03  0.25500000920E-02 0.  1.
    10030    2    1    2    0    0  0.00000000000E+00  0.00000000000E+00  0.26175876775E+03  0.11340048596E+04  0.11033808813E+04 0.  0.
        1    1    3    3  502    0 -0.26476680474E+03  0.19391912665E+02  0.62791841369E+03  0.68173238257E+03  0.50400001928E-02 0. -1.
       -1    1    3    3    0  502  0.26476680474E+03 -0.19391912665E+02 -0.36615964594E+03  0.45227247707E+03  0.50400001928E-02 0.  1.
</event>
<event>
 5   0  0.1479573E-03  0.1104691E+04  0.7818609E-02  0.9200631E-01
       -1   -1    0    0    0  501  0.00000000000E+00  0.00000000000E+00  0.29665567602E+03  0.29665567607E+03  0.50400001928E-02 0. -1.
        1   -1    0    0  501    0  0.00000000000E+00  0.00000000000E+00 -0.10284170082E+04  0.10284170082E+04  0.50400001928E-02 0.  1.
    10030    2    1    2    0    0  0.00000000000E+00  0.00000000000E+00 -0.73176133215E+03  0.13250726842E+04  0.11046913466E+04 0.  0.
        4    1    3    3  502    0  0.39155024073E+03 -0.26471747013E+03 -0.70872923036E+03  0.85187185942E+03  0.12699999809E+01 0.  1.
       -4    1    3    3    0  502 -0.39155024073E+03  0.26471747013E+03 -0.23032101790E+02  0.47320082483E+03  0.12699999809E+01 0. -1.
</event>
<event>
 5   0  0.1509004E-03  0.1081701E+04  0.7818609E-02  0.9223213E-01
        1   -1    0    0  501    0  0.00000000000E+00  0.00000000000E+00  0.34263963233E+03  0.34263963237E+03  0.50400001928E-02 0. -1.
       -1   -1    0    0    0  501  0.00000000000E+00  0.00000000000E+00 -0.85372270309E+03  0.85372270311E+03  0.50400001928E-02 0.  1.
    10030    2    1    2    0    0  0.00000000000E+00  0.00000000000E+00 -0.51108307076E+03  0.11963623355E+04  0.10817009441E+04 0.  0.
        3    1    3    3  502    0 -0.16969657463E+03  0.50596372948E+03 -0.35273756813E+03  0.63970307578E+03  0.10100000352E+00 0.  1.
       -3    1    3    3    0  502  0.16969657463E+03 -0.50596372948E+03 -0.15834550264E+03  0.55665925969E+03  0.10100000352E+00 0. -1.
</event>
<event>
 5   0  0.1480937E-03  0.1061621E+04  0.7818609E-02  0.9243428E-01
        1   -1    0    0  501    0  0.00000000000E+00  0.00000000000E+00  0.45490390332E+03  0.45490390334E+03  0.50400001928E-02 0. -1.
       -1   -1    0    0    0  501  0.00000000000E+00  0.00000000000E+00 -0.61938268588E+03  0.61938268590E+03  0.50400001928E-02 0.  1.
    10030    2    1    2    0    0  0.00000000000E+00  0.00000000000E+00 -0.16447878256E+03  0.10742865892E+04  0.10616206507E+04 0.  0.
        1    1    3    3  502    0 -0.71782405177E+02  0.18298712884E+03  0.41671800047E+03  0.46075036077E+03  0.50400001928E-02 0. -1.
       -1    1    3    3    0  502  0.71782405177E+02 -0.18298712884E+03 -0.58119678303E+03  0.61353622847E+03  0.50400001928E-02 0.  1.
</event>
<event>
 5   0  0.9631750E-04  0.1073585E+04  0.7818609E-02  0.9231327E-01
        3   -1    0    0  501    0  0.00000000000E+00  0.00000000000E+00  0.29544383860E+03  0.29544385586E+03  0.10100000352E+00 0. -1.
       -3   -1    0    0    0  501  0.00000000000E+00  0.00000000000E+00 -0.97529876935E+03  0.97529877458E+03  0.10100000352E+00 0.  1.
    10030    2    1    2    0    0  0.00000000000E+00  0.00000000000E+00 -0.67985493076E+03  0.12707426304E+04  0.10735846990E+04 0.  0.
        5    1    3    3  502    0  0.39211699165E+03  0.24979808550E+03 -0.22390436992E+02  0.46548710006E+03  0.46999998093E+01 0. -1.
       -5    1    3    3    0  502 -0.39211699165E+03 -0.24979808550E+03 -0.65746449376E+03  0.80525553038E+03  0.46999998093E+01 0.  1.
</event>
<event>
 5   0  0.1468556E-03  0.1075626E+04  0.7818609E-02  0.9229279E-01
       -1   -1    0    0    0  501  0.00000000000E+00  0.00000000000E+00  0.45920008759E+03  0.45920008762E+03  0.50400001928E-02 0. -1.
        1   -1    0    0  501    0  0.00000000000E+00  0.00000000000E+00 -0.62988456163E+03  0.62988456165E+03  0.50400001928E-02 0.  1.
    10030    2    1    2    0    0  0.00000000000E+00  0.00000000000E+00 -0.17068447403E+03  0.10890846493E+04  0.10756264145E+04 0.  0.
        5    1    3    3  502    0 -0.24738466764E+03  0.26122191908E+03  0.31939021991E+03  0.48111149161E+03  0.46999998093E+01 0. -1.
       -5    1    3    3    0  502  0.24738466764E+03 -0.26122191908E+03 -0.49007469394E+03  0.60797315765E+03  0.46999998093E+01 0.  1.
</event>
<event>
 5   0  0.1509004E-03  0.1100273E+04  0.7818609E-02  0.9204926E-01
       -1   -1    0    0    0  501  0.00000000000E+00  0.00000000000E+00  0.34927512723E+03  0.34927512726E+03  0.50400001928E-02 0.  1.
        1   -1    0    0  501    0  0.00000000000E+00  0.00000000000E+00 -0.86650895531E+03  0.86650895532E+03  0.50400001928E-02 0. -1.
    10030    2    1    2    0    0  0.00000000000E+00  0.00000000000E+00 -0.51723382808E+03  0.12157840826E+04  0.11002727401E+04 0.  0.
        3    1    3    3  502    0  0.36453000796E+03  0.81824651141E+02 -0.70483443390E+03  0.79772739056E+03  0.10100000352E+00 0. -1.
       -3    1    3    3    0  502 -0.36453000796E+03 -0.81824651141E+02  0.18760060582E+03  0.41805669202E+03  0.10100000352E+00 0.  1.
</event>
<event>
 5   0  0.2438115E-03  0.1120205E+04  0.7818609E-02  0.9185720E-01
       -2   -1    0    0    0  501  0.00000000000E+00  0.00000000000E+00  0.24230621912E+03  0.24230621913E+03  0.25500000920E-02 0.  1.
        2   -1    0    0  501    0  0.00000000000E+00  0.00000000000E+00 -0.12947036052E+04  0.12947036052E+04  0.25500000920E-02 0. -1.
    10030    2    1    2    0    0  0.00000000000E+00  0.00000000000E+00 -0.10523973861E+04  0.15370098243E+04  0.11202048660E+04 0.  0.
        4    1    3    3  502    0  0.39239477324E+03  0.39931718138E+03 -0.54937234132E+03  0.78437201105E+03  0.12699999809E+01 0.  1.
       -4    1    3    3    0  502 -0.39239477324E+03 -0.39931718138E+03 -0.50302504475E+03  0.75263781327E+03  0.12699999809E+01 0. -1.
</event>
<event>
 5   0  0.2467448E-03  0.1102680E+04  0.7818609E-02  0.9202584E-01
        2   -1    0    0  501    0  0.00000000000E+00  0.00000000000E+00  0.15317135845E+04  0.15317135845E+04  0.25500000920E-02 0.  1.
       -2   -1    0    0    0  501  0.00000000000E+00  0.00000000000E+00 -0.19845478705E+03  0.19845478707E+03  0.25500000920E-02 0. -1.
    10030    2    1    2    0    0  0.00000000000E+00  0.00000000000E+00  0.13332587974E+04  0.17301683715E+04  0.11026801771E+04 0.  0.
        1    1    3    3  502    0  0.79005340893E+02 -0.22003844987E+03  0.14500858493E+04  0.14688116740E+04  0.50400001928E-02 0.  1.
       -1    1    3    3    0  502 -0.79005340893E+02  0.22003844987E+03 -0.11682705183E+03  0.26135669759E+03  0.50400001928E-02 0. -1.
</event>
<event>
 5   0  0.1479573E-03  0.1105749E+04  0.7818609E-02  0.9199607E-01
       -1   -1    0    0    0  501  0.00000000000E+00  0.00000000000E+00  0.13496022660E+04  0.13496022660E+04  0.50400001928E-02 0. -1.
        1   -1    0    0  501    0  0.00000000000E+00  0.00000000000E+00 -0.22648897285E+03  0.22648897291E+03  0.50400001928E-02 0.  1.
    10030    2    1    2    0    0  0.00000000000E+00  0.00000000000E+00  0.11231132931E+04  0.15760912389E+04  0.11057486713E+04 0.  0.
        4    1    3    3  502    0 -0.20432648099E+03  0.35697163865E+03  0.10881506542E+04  0.11632933941E+04  0.12699999809E+01 0. -1.
       -4    1    3    3    0  502  0.20432648099E+03 -0.35697163865E+03  0.34962638921E+02  0.41279784478E+03  0.12699999809E+01 0.  1.
</event>
<event>
 5   0  0.2392585E-03  0.1098360E+04  0.7818609E-02  0.9206792E-01
        2   -1    0    0  501    0  0.00000000000E+00  0.00000000000E+00  0.10748194974E+04  0.10748194974E+04  0.25500000920E-02 0.  1.
       -2   -1    0    0    0  501  0.00000000000E+00  0.00000000000E+00 -0.28060396038E+03  0.28060396039E+03  0.25500000920E-02 0. -1.
    10030    2    1    2    0    0  0.00000000000E+00  0.00000000000E+00  0.79421553706E+03  0.13554234578E+04  0.10983598822E+04 0.  0.
        5    1    3    3  502    0 -0.38509603945E+03 -0.97501520573E+02 -0.70806188874E+02  0.40353576359E+03  0.46999998093E+01 0. -1.
       -5    1    3    3    0  502  0.38509603945E+03  0.97501520573E+02  0.86502172593E+03  0.95188769424E+03  0.46999998093E+01 0.  1.
</event>
<event>
 5   0  0.1479573E-03  0.1109100E+04  0.7818609E-02  0.9196368E-01
        1   -1    0    0  501    0  0.00000000000E+00  0.00000000000E+00  0.24769531700E+03  0.24769531705E+03  0.50400001928E-02 0.  1.
       -1   -1    0    0    0  501  0.00000000000E+00  0.00000000000E+00 -0.12415482845E+04  0.12415482845E+04  0.50400001928E-02 0. -1.
    10030    2    1    2    0    0  0.00000000000E+00  0.00000000000E+00 -0.99385296746E+03  0.14892436015E+04  0.11090999882E+04 0.  0.
        4    1    3    3  502    0 -0.50987255863E+03  0.21602215912E+03 -0.45690254822E+03  0.71791165943E+03  0.12699999809E+01 0.  1.
       -4    1    3    3    0  502  0.50987255863E+03 -0.21602215912E+03 -0.53695041924E+03  0.77133194209E+03  0.12699999809E+01 0. -1.
</event>
<event>
 5   0  0.1480937E-03  0.1108211E+04  0.7818609E-02  0.9197226E-01
        1   -1    0    0  501    0  0.00000000000E+00  0.00000000000E+00  0.79030727039E+03  0.79030727041E+03  0.50400001928E-02 0. -1.
       -1   -1    0    0    0  501  0.00000000000E+00  0.00000000000E+00 -0.38849787828E+03  0.38849787831E+03  0.50400001928E-02 0.  1.
    10030    2    1    2    0    0  0.00000000000E+00  0.00000000000E+00  0.40180939212E+03  0.11788051487E+04  0.11082106258E+04 0.  0.
        1    1    3    3  502    0 -0.16012252302E+02 -0.55040657058E+03  0.13508476252E+03  0.56696708745E+03  0.50400001928E-02 0.  1.
       -1    1    3    3    0  502  0.16012252302E+02  0.55040657058E+03  0.26672462960E+03  0.61183806127E+03  0.50400001928E-02 0. -1.
</event>
<event>
 5   0  0.1480937E-03  0.1098647E+04  0.7818609E-02  0.9206511E-01
        1   -1    0    0  501    0  0.00000000000E+00  0.00000000000E+00  0.30093028267E+03  0.30093028271E+03  0.50400001928E-02 0. -1.
       -1   -1    0    0    0  501  0.00000000000E+00  0.00000000000E+00 -0.10027452412E+04  0.10027452412E+04  0.50400001928E-02 0.  1.
    10030    2    1    2    0    0  0.00000000000E+00  0.00000000000E+00 -0.70181495849E+03  0.13036755239E+04  0.10986471843E+04 0.  0.
        1    1    3    3  502    0  0.39122348343E+03  0.32692978581E+03 -0.10825186173E+03  0.52120760205E+03  0.50400001928E-02 0. -1.
       -1    1    3    3    0  502 -0.39122348343E+03 -0.32692978581E+03 -0.59356309676E+03  0.78246792183E+03  0.50400001928E-02 0.  1.
</event>
<event>
 5   0  0.1509004E-03  0.1100850E+04  0.7818609E-02  0.9204364E-01
       -1   -1    0    0    0  501  0.00000000000E+00  0.00000000000E+00  0.48722464053E+03  0.48722464056E+03  0.50400001928E-02 0. -1.
        1   -1    0    0  501    0  0.00000000000E+00  0.00000000000E+00 -0.62182283714E+03  0.62182283716E+03  0.50400001928E-02 0.  1.
    10030    2    1    2    0    0  0.00000000000E+00  0.00000000000E+00 -0.13459819661E+03  0.11090474777E+04  0.11008495053E+04 0.  0.
        3    1    3    3  502    0  0.34648358118E+03 -0.38833540503E+02 -0.49639165570E+03  0.60660003457E+03  0.10100000352E+00 0.  1.
       -3    1    3    3    0  502 -0.34648358118E+03  0.38833540503E+02  0.36179345908E+03  0.50244744315E+03  0.10100000352E+00 0. -1.
</event>
<event>
 5   0  0.2392585E-03  0.1095444E+04  0.7818609E-02  0.9209644E-01
       -2   -1    0    0    0  501  0.00000000000E+00  0.00000000000E+00  0.31342213523E+03  0.31342213524E+03  0.25500000920E-02 0. -1.
        2   -1    0    0  501    0  0.00000000000E+00  0.00000000000E+00 -0.95717363735E+03  0.95717363736E+03  0.25500000920E-02 0.  1.
    10030    2    1    2    0    0  0.00000000000E+00  0.00000000000E+00 -0.64375150213E+03  0.12705957726E+04  0.10954440291E+04 0.  0.
        5    1    3    3  502    0 -0.52390515854E+03  0.80241584397E+02 -0.16173520253E+03  0.55416215383E+03  0.46999998093E+01 0. -1.
       -5    1    3    3    0  502  0.52390515854E+03 -0.80241584397E+02 -0.48201629960E+03  0.71643361876E+03  0.46999998093E+01 0.  1.
</event>
<event>
 5   0  0.2467448E-03  0.1097568E+04  0.7818609E-02  0.9207565E-01
       -2   -1    0    0    0  501  0.00000000000E+00  0.00000000000E+00  0.26052667117E+03  0.26052667118E+03  0.25500000920E-02 0.  1.
        2   -1    0    0  501    0  0.00000000000E+00  0.00000000000E+00 -0.11559810148E+04  0.11559810148E+04  0.25500000920E-02 0. -1.
    10030    2    1    2    0    0  0.00000000000E+00  0.00000000000E+00 -0.89545434363E+03  0.14165076860E+04  0.10975680129E+04 0.  0.
        1    1    3    3  502    0  0.25833134893E+03 -0.20325675887E+03 -0.10148747067E+04  0.10667797646E+04  0.50400001928E-02 0. -1.
       -1    1    3    3    0  502 -0.25833134893E+03  0.20325675887E+03  0.11942036304E+03  0.34972792139E+03  0.50400001928E-02 0.  1.
</event>
<event>
 5   0  0.1479573E-03  0.1098825E+04  0.7818609E-02  0.9206338E-01
        1   -1    0    0  501    0  0.00000000000E+00  0.00000000000E+00  0.62581417629E+03  0.62581417631E+03  0.50400001928E-02 0.  1.
       -1   -1    0    0    0  501  0.00000000000E+00  0.00000000000E+00 -0.48233852335E+03  0.48233852338E+03  0.50400001928E-02 0. -1.
    10030    2    1    2    0    0  0.00000000000E+00  0.00000000000E+00  0.14347565294E+03  0.11081526997E+04  0.10988253468E+04 0.  0.
        4    1    3    3  502    0 -0.30850987453E+03 -0.44035921477E+03 -0.42172686159E+02  0.53932803476E+03  0.12699999809E+01 0. -1.
       -4    1    3    3    0  502  0.30850987453E+03  0.44035921477E+03  0.18564833910E+03  0.56882466493E+03  0.12699999809E+01 0.  1.
</event>
<event>
 5   0  0.1509004E-03  0.1098777E+04  0.7818609E-02  0.9206385E-01
        1   -1    0    0  501    0  0.00000000000E+00  0.00000000000E+00  0.19095514541E+04  0.19095514541E+04  0.50400001928E-02 0.  1.
       -1   -1    0    0    0  501  0.00000000000E+00  0.00000000000E+00 -0.15806199475E+03  0.15806199483E+03  0.50400001928E-02 0. -1.
    10030    2    1    2    0    0  0.00000000000E+00  0.00000000000E+00  0.17514894594E+04  0.20676134490E+04  0.10987766142E+04 0.  0.
        3    1    3    3  502    0 -0.23118384026E+03  0.45597232421E+03  0.49718824283E+03  0.71312894167E+03  0.10100000352E+00 0. -1.
       -3    1    3    3    0  502  0.23118384026E+03 -0.45597232421E+03  0.12543012166E+04  0.13544845073E+04  0.10100000352E+00 0.  1.
</event>
<event>
 5   0  0.2392585E-03  0.1100172E+04  0.7818609E-02  0.9205024E-01
       -2   -1    0    0    0  501  0.00000000000E+00  0.00000000000E+00  0.59513919478E+03  0.59513919479E+03  0.25500000920E-02 0.  1.
        2   -1    0    0  501    0  0.00000000000E+00  0.00000000000E+00 -0.50844370441E+03  0.50844370441E+03  0.25500000920E-02 0. -1.
    10030    2    1    2    0    0  0.00000000000E+00  0.00000000000E+00  0.86695490376E+02  0.11035828992E+04  0.11001723080E+04 0.  0.
        5    1    3    3  502    0 -0.32569725864E+03  0.22939524201E+03 -0.33713248854E+03  0.52190160583E+03  0.46999998093E+01 0. -1.
       -5    1    3    3    0  502  0.32569725864E+03 -0.22939524201E+03  0.42382797891E+03  0.58168129337E+03  0.46999998093E+01 0.  1.
</event>
<event>
 5   0  0.1509004E-03  0.1092536E+04  0.7818609E-02  0.9212497E-01
        1   -1    0    0  501    0  0.00000000000E+00  0.00000000000E+00  0.13725405970E+04  0.13725405970E+04  0.50400001928E-02 0.  1.
       -1   -1    0    0    0  501  0.00000000000E+00  0.00000000000E+00 -0.21741354353E+03  0.21741354359E+03  0.50400001928E-02 0. -1.
    10030    2    1    2    0    0  0.00000000000E+00  0.00000000000E+00  0.11551270534E+04  0.15899541406E+04  0.10925363424E+04 0.  0.
        3    1    3    3  502    0 -0.20590866879E+03 -0.42777138796E+03  0.97082015969E+03  0.10806842892E+04  0.10100000352E+00 0.  1.
       -3    1    3    3    0  502  0.20590866879E+03  0.42777138796E+03  0.18430689375E+03  0.50926985138E+03  0.10100000352E+00 0. -1.
</event>
<event>
 5   0  0.1480937E-03  0.1102186E+04  0.7818609E-02  0.9203064E-01
        1   -1    0    0  501    0  0.00000000000E+00  0.00000000000E+00  0.13799881190E+04  0.13799881190E+04  0.50400001928E-02 0.  1.
       -1   -1    0    0    0  501  0.00000000000E+00  0.00000000000E+00 -0.22007680659E+03  0.22007680664E+03  0.50400001928E-02 0. -1.
    10030    2    1    2    0    0  0.00000000000E+00  0.00000000000E+00  0.11599113124E+04  0.16000649256E+04  0.11021857891E+04 0.  0.
        1    1    3    3  502    0  0.36324482179E+03 -0.21385612275E+03  0.64600984445E+02  0.42644405145E+03  0.50400001928E-02 0. -1.
       -1    1    3    3    0  502 -0.36324482179E+03  0.21385612275E+03  0.10953103280E+04  0.11736208742E+04  0.50400001928E-02 0.  1.
</event>
<event>
 5   0  0.2438115E-03  0.1102937E+04  0.7818609E-02  0.9202334E-01
        2   -1    0    0  501    0  0.00000000000E+00  0.00000000000E+00  0.26307899255E+03  0.26307899256E+03  0.25500000920E-02 0. -1.
       -2   -1    0    0    0  501  0.00000000000E+00  0.00000000000E+00 -0.11559937361E+04  0.11559937361E+04  0.25500000920E-02 0.  1.
    10030    2    1    2    0    0  0.00000000000E+00  0.00000000000E+00 -0.89291474360E+03  0.14190727287E+04  0.11029372920E+04 0.  0.
        4    1    3    3  502    0  0.72885571295E+02 -0.12235333904E+03 -0.11319228527E+04  0.11408477565E+04  0.12699999809E+01 0.  1.
       -4    1    3    3    0  502 -0.72885571295E+02  0.12235333904E+03  0.23900810909E+03  0.27822497226E+03  0.12699999809E+01 0. -1.
</event>
<event>
 5   0  0.2488472E-03  0.1123328E+04  0.7818609E-02  0.9182748E-01
        2   -1    0    0  501    0  0.00000000000E+00  0.00000000000E+00  0.10870208923E+04  0.10870208923E+04  0.25500000920E-02 0.  1.
       -2   -1    0    0    0  501  0.00000000000E+00  0.00000000000E+00 -0.29021193195E+03  0.29021193196E+03  0.25500000920E-02 0. -1.
    10030    2    1    2    0    0  0.00000000000E+00  0.00000000000E+00  0.79680896034E+03  0.13772328243E+04  0.11233279721E+04 0.  0.
        2    1    3    3  502    0 -0.43439307933E+03  0.22287394380E+03  0.73882641377E+03  0.88557021849E+03  0.25500000920E-02 0.  1.
       -2    1    3    3    0  502  0.43439307933E+03 -0.22287394380E+03  0.57982546578E+02  0.49166260576E+03  0.25500000920E-02 0. -1.
</event>
<event>
 5   0  0.1415400E-03  0.1124413E+04  0.7818609E-02  0.9181718E-01
        1   -1    0    0  501    0  0.00000000000E+00  0.00000000000E+00  0.72115115660E+03  0.72115115662E+03  0.50400001928E-02 0.  1.
       -1   -1    0    0    0  501  0.00000000000E+00  0.00000000000E+00 -0.43829408296E+03  0.43829408299E+03  0.50400001928E-02 0. -1.
    10030    2    1    2    0    0  0.00000000000E+00  0.00000000000E+00  0.28285707364E+03  0.11594452396E+04  0.11244132423E+04 0.  0.
        2    1    3    3  502    0  0.55501875337E+03 -0.87031157631E+02  0.11940796648E+03  0.57435050401E+03  0.25500000920E-02 0. -1.
       -2    1    3    3    0  502 -0.55501875337E+03  0.87031157631E+02  0.16344910716E+03  0.58509473560E+03  0.25500000920E-02 0.  1.
</event>
<event>
 5   0  0.2488472E-03  0.1109066E+04  0.7818609E-02  0.9196400E-01
        2   -1    0    0  501    0  0.00000000000E+00  0.00000000000E+00  0.12866215529E+04  0.12866215529E+04  0.25500000920E-02 0.  1.
       -2   -1    0    0    0  501  0.00000000000E+00  0.00000000000E+00 -0.23900328707E+03  0.23900328709E+03  0.25500000920E-02 0. -1.
    10030    2    1    2    0    0  0.00000000000E+00  0.00000000000E+00  0.10476182658E+04  0.15256248400E+04  0.11090658779E+04 0.  0.
        2    1    3    3  502    0  0.36153343935E+02 -0.50714857179E+03  0.21930819508E+03  0.55371727676E+03  0.25500000920E-02 0. -1.
       -2    1    3    3    0  502 -0.36153343935E+02  0.50714857179E+03  0.82831007074E+03  0.97190756321E+03  0.25500000920E-02 0.  1.
</event>
<event>
 5   0  0.1415400E-03  0.1099955E+04  0.7818609E-02  0.9205236E-01
       -1   -1    0    0    0  501  0.00000000000E+00  0.00000000000E+00  0.13177719515E+03  0.13177719525E+03  0.50400001928E-02 0. -1.
        1   -1    0    0  501    0  0.00000000000E+00  0.00000000000E+00 -0.22953525567E+04  0.22953525567E+04  0.50400001928E-02 0.  1.
    10030    2    1    2    0    0  0.00000000000E+00  0.00000000000E+00 -0.21635753615E+04  0.24271297519E+04  0.10999547662E+04 0.  0.
        2    1    3    3  502    0 -0.12182871312E+03 -0.47547492473E+03 -0.16292510497E+04  0.17015809186E+04  0.25500000920E-02 0.  1.
       -2    1    3    3    0  502  0.12182871312E+03  0.47547492473E+03 -0.53432431177E+03  0.72554883333E+03  0.25500000920E-02 0. -1.
</event>
<event>
 5   0  0.9631750E-04  0.1104555E+04  0.7818609E-02  0.9200764E-01
       -3   -1    0    0    0  501  0.00000000000E+00  0.00000000000E+00  0.82435284256E+03  0.82435284875E+03  0.10100000352E+00 0.  1.
        3   -1    0    0  501    0  0.00000000000E+00  0.00000000000E+00 -0.36999985147E+03  0.36999986525E+03  0.10100000352E+00 0. -1.
    10030    2    1    2    0    0  0.00000000000E+00  0.00000000000E+00  0.45435299110E+03  0.11943527140E+04  0.11045550077E+04 0.  0.
        2    1    3    3  502    0  0.45507663719E+03 -0.13661879527E+03 -0.77225593150E+02  0.48137639450E+03  0.25500000920E-02 0. -1.
       -2    1    3    3    0  502 -0.45507663719E+03  0.13661879527E+03  0.53157858424E+03  0.71297631950E+03  0.25500000920E-02 0.  1.
</event>
<event>
 5   0  0.1480937E-03  0.1097545E+04  0.7818609E-02  0.9207588E-01
        1   -1    0    0  501    0  0.00000000000E+00  0.00000000000E+00  0.70704700961E+03  0.70704700962E+03  0.50400001928E-02 0.  1.
       -1   -1    0    0    0  501  0.00000000000E+00  0.00000000000E+00 -0.42592807248E+03  0.42592807251E+03  0.50400001928E-02 0. -1.
    10030    2    1    2    0    0  0.00000000000E+00  0.00000000000E+00  0.28111893713E+03  0.11329750821E+04  0.10975448419E+04 0.  0.
        1    1    3    3  502    0  0.39562411256E+03 -0.31912089469E+03  0.35410598954E+03  0.61947367638E+03  0.50400001928E-02 0.  1.
       -1    1    3    3    0  502 -0.39562411256E+03  0.31912089469E+03 -0.72987052417E+02  0.51350140576E+03  0.50400001928E-02 0. -1.
</event>
<event>
 5   0  0.2488472E-03  0.1105844E+04  0.7818609E-02  0.9199515E-01
        2   -1    0    0  501    0  0.00000000000E+00  0.00000000000E+00  0.31020863581E+03  0.31020863582E+03  0.25500000920E-02 0. -1.
       -2   -1    0    0    0  501  0.00000000000E+00  0.00000000000E+00 -0.98553916746E+03  0.98553916746E+03  0.25500000920E-02 0.  1.
    10030    2    1    2    0    0  0.00000000000E+00  0.00000000000E+00 -0.67533053165E+03  0.12957478033E+04  0.11058440409E+04 0.  0.
        2    1    3    3  502    0 -0.87375056868E+02  0.42135289922E+03  0.69162304257E+02  0.43583952388E+03  0.25500000920E-02 0. -1.
       -2    1    3    3    0  502  0.87375056868E+02 -0.42135289922E+03 -0.74449283591E+03  0.85990827939E+03  0.25500000920E-02 0.  1.
</event>
<event>
 5   0  0.2438115E-03  0.1097251E+04  0.7818609E-02  0.9207875E-01
       -2   -1    0    0    0  501  0.00000000000E+00  0.00000000000E+00  0.31790617661E+03  0.31790617662E+03  0.25500000920E-02 0.  1.
        2   -1    0    0  501    0  0.00000000000E+00  0.00000000000E+00 -0.94678871844E+03  0.94678871844E+03  0.25500000920E-02 0. -1.
    10030    2    1    2    0    0  0.00000000000E+00  0.00000000000E+00 -0.62888254183E+03  0.12646948951E+04  0.10972510771E+04 0.  0.
        4    1    3    3  502    0  0.62478101472E+02 -0.47355169443E+03 -0.33801148731E+01  0.47766908895E+03  0.12699999809E+01 0.  1.
       -4    1    3    3    0  502 -0.62478101472E+02  0.47355169443E+03 -0.62550242696E+03  0.78702580611E+03  0.12699999809E+01 0. -1.
</event>
<event>
 5   0  0.2467448E-03  0.1101000E+04  0.7818609E-02  0.9204217E-01
       -2   -1    0    0    0  501  0.00000000000E+00  0.00000000000E+00  0.41882713883E+03  0.41882713883E+03  0.25500000920E-02 0. -1.
        2   -1    0    0  501    0  0.00000000000E+00  0.00000000000E+00 -0.72356931711E+03  0.72356931712E+03  0.25500000920E-02 0.  1.
    10030    2    1    2    0    0  0.00000000000E+00  0.00000000000E+00 -0.30474217829E+03  0.11423964560E+04  0.11010003939E+04 0.  0.
        1    1    3    3  502    0 -0.13696890134E+03 -0.10284950098E+03 -0.69521661866E+03  0.71600603815E+03  0.50400001928E-02 0.  1.
       -1    1    3    3    0  502  0.13696890134E+03  0.10284950098E+03  0.39047444037E+03  0.42639041780E+03  0.50400001928E-02 0. -1.
</event>
<event>
 5   0  0.2467448E-03  0.1100842E+04  0.7818609E-02  0.9204372E-01
        2   -1    0    0  501    0  0.00000000000E+00  0.00000000000E+00  0.48052081566E+03  0.48052081567E+03  0.25500000920E-02 0.  1.
       -2   -1    0    0    0  501  0.00000000000E+00  0.00000000000E+00 -0.63048947171E+03  0.63048947171E+03  0.25500000920E-02 0. -1.
    10030    2    1    2    0    0  0.00000000000E+00  0.00000000000E+00 -0.14996865605E+03  0.11110102874E+04  0.11008420690E+04 0.  0.
        1    1    3    3  502    0  0.35467088422E+03 -0.17680518910E+03  0.31052800493E+03  0.50346713187E+03  0.50400001928E-02 0.  1.
       -1    1    3    3    0  502 -0.35467088422E+03  0.17680518910E+03 -0.46049666098E+03  0.60754315551E+03  0.50400001928E-02 0. -1.
</event>
<event>
 5   0  0.1415400E-03  0.1108318E+04  0.7818609E-02  0.9197123E-01
       -1   -1    0    0    0  501  0.00000000000E+00  0.00000000000E+00  0.19641154214E+03  0.19641154220E+03  0.50400001928E-02 0. -1.
        1   -1    0    0  501    0  0.00000000000E+00  0.00000000000E+00 -0.15635128125E+04  0.15635128125E+04  0.50400001928E-02 0.  1.
    10030    2    1    2    0    0  0.00000000000E+00  0.00000000000E+00 -0.13671012703E+04  0.17599243547E+04  0.11083175767E+04 0.  0.
        2    1    3    3  502    0  0.52501687984E+03  0.17707590921E+03 -0.69889371106E+03  0.89188060922E+03  0.25500000920E-02 0.  1.
       -2    1    3    3    0  502 -0.52501687984E+03 -0.17707590921E+03 -0.66820755926E+03  0.86804374544E+03  0.25500000920E-02 0. -1.
</event>
<event>
 5   0  0.2392585E-03  0.1055652E+04  0.7818609E-02  0.9249528E-01
        2   -1    0    0  501    0  0.00000000000E+00  0.00000000000E+00  0.13383963516E+04  0.13383963516E+04  0.25500000920E-02 0.  1.
       -2   -1    0    0    0  501  0.00000000000E+00  0.00000000000E+00 -0.20815985798E+03  0.20815985800E+03  0.25500000920E-02 0. -1.
    10030    2    1    2    0    0  0.00000000000E+00  0.00000000000E+00  0.11302364936E+04  0.15465562096E+04  0.10556522050E+04 0.  0.
        5    1    3    3  502    0  0.51005353965E+03 -0.13511971044E+03  0.58401393982E+03  0.78708723872E+03  0.46999998093E+01 0. -1.
       -5    1    3    3    0  502 -0.51005353965E+03  0.13511971044E+03  0.54622255382E+03  0.75946897090E+03  0.46999998093E+01 0.  1.
</event>
<event>
 5   0  0.2467448E-03  0.1090551E+04  0.7818609E-02  0.9214451E-01
       -2   -1    0    0    0  501  0.00000000000E+00  0.00000000000E+00  0.31129198510E+03  0.31129198511E+03  0.25500000920E-02 0. -1.
        2   -1    0    0  501    0  0.00000000000E+00  0.00000000000E+00 -0.95513327687E+03  0.95513327688E+03  0.25500000920E-02 0.  1.
    10030    2    1    2    0    0  0.00000000000E+00  0.00000000000E+00 -0.64384129178E+03  0.12664252620E+04  0.10905509320E+04 0.  0.
        1    1    3    3  502    0 -0.10775231710E+03  0.44490078939E+03 -0.66597463667E+03  0.80812715024E+03  0.50400001928E-02 0.  1.
       -1    1    3    3    0  502  0.10775231710E+03 -0.44490078939E+03  0.22133344898E+02  0.45829811174E+03  0.50400001928E-02 0. -1.
</event>
<event>
 5   0  0.2392585E-03  0.1109930E+04  0.7818609E-02  0.9195567E-01
        2   -1    0    0  501    0  0.00000000000E+00  0.00000000000E+00  0.95833462104E+03  0.95833462105E+03  0.25500000920E-02 0.  1.
       -2   -1    0    0    0  501  0.00000000000E+00  0.00000000000E+00 -0.32137625713E+03  0.32137625714E+03  0.25500000920E-02 0. -1.
    10030    2    1    2    0    0  0.00000000000E+00  0.00000000000E+00  0.63695836391E+03  0.12797108782E+04  0.11099297160E+04 0.  0.
        5    1    3    3  502    0  0.15895888311E+03  0.53106385645E+03  0.28869878015E+03  0.62503265660E+03  0.46999998093E+01 0. -1.
       -5    1    3    3    0  502 -0.15895888311E+03 -0.53106385645E+03  0.34825958376E+03  0.65467822159E+03  0.46999998093E+01 0.  1.
</event>
<event>
 5   0  0.2438115E-03  0.1101067E+04  0.7818609E-02  0.9204152E-01
        2   -1    0    0  501    0  0.00000000000E+00  0.00000000000E+00  0.49780304630E+03  0.49780304630E+03  0.25500000920E-02 0.  1.
       -2   -1    0    0    0  501  0.00000000000E+00  0.00000000000E+00 -0.60884970190E+03  0.60884970190E+03  0.25500000920E-02 0. -1.
    10030    2    1    2    0    0  0.00000000000E+00  0.00000000000E+00 -0.11104665560E+03  0.11066527482E+04  0.11010671848E+04 0.  0.
        4    1    3    3  502    0  0.10795759066E+03 -0.47446893290E+03 -0.31433693542E+03  0.57929692864E+03  0.12699999809E+01 0. -1.
       -4    1    3    3    0  502 -0.10795759066E+03  0.47446893290E+03  0.20329027982E+03  0.52735581957E+03  0.12699999809E+01 0.  1.
</event>
<event>
 5   0  0.1480937E-03  0.1104948E+04  0.7818609E-02  0.9200382E-01
        1   -1    0    0  501    0  0.00000000000E+00  0.00000000000E+00  0.26196226269E+03  0.26196226274E+03  0.50400001928E-02 0. -1.
       -1   -1    0    0    0  501  0.00000000000E+00  0.00000000000E+00 -0.11651590302E+04  0.11651590302E+04  0.50400001928E-02 0.  1.
    10030    2    1    2    0    0  0.00000000000E+00  0.00000000000E+00 -0.90319676753E+03  0.14271212930E+04  0.11049483173E+04 0.  0.
        1    1    3    3  502    0  0.23048310336E+03 -0.22169046869E+03  0.13026713189E+03  0.34530949961E+03  0.50400001928E-02 0. -1.
       -1    1    3    3    0  502 -0.23048310336E+03  0.22169046869E+03 -0.10334638994E+04  0.10818117934E+04  0.50400001928E-02 0.  1.
</event>
<event>
 5   0  0.2483036E-03  0.1089299E+04  0.7818609E-02  0.9215685E-01
       -2   -1    0    0    0  501  0.00000000000E+00  0.00000000000E+00  0.56577537185E+03  0.56577537186E+03  0.25500000920E-02 0.  1.
        2   -1    0    0  501    0  0.00000000000E+00  0.00000000000E+00 -0.52431212235E+03  0.52431212236E+03  0.25500000920E-02 0. -1.
    10030    2    1    2    0    0  0.00000000000E+00  0.00000000000E+00  0.41463249500E+02  0.10900874942E+04  0.10892986477E+04 0.  0.
        3    1    3    3  502    0 -0.45083037698E+03 -0.56783315209E+02 -0.27976987015E+03  0.53361368436E+03  0.10100000352E+00 0. -1.
       -3    1    3    3    0  502  0.45083037698E+03  0.56783315209E+02  0.32123311965E+03  0.55647380985E+03  0.10100000352E+00 0.  1.
</event>
<event>
 5   0  0.2467448E-03  0.1101700E+04  0.7818609E-02  0.9203537E-01
       -2   -1    0    0    0  501  0.00000000000E+00  0.00000000000E+00  0.40843509339E+03  0.40843509340E+03  0.25500000920E-02 0. -1.
        2   -1    0    0  501    0  0.00000000000E+00  0.00000000000E+00 -0.74292252481E+03  0.74292252481E+03  0.25500000920E-02 0.  1.
    10030    2    1    2    0    0  0.00000000000E+00  0.00000000000E+00 -0.33448743142E+03  0.11513576182E+04  0.11016998335E+04 0.  0.
        1    1    3    3  502    0 -0.13426867161E+01 -0.42256524389E+03  0.20205709294E+03  0.46839113675E+03  0.50400001928E-02 0. -1.
       -1    1    3    3    0  502  0.13426867161E+01  0.42256524389E+03 -0.53654452436E+03  0.68296648146E+03  0.50400001928E-02 0.  1.
</event>
<event>
 5   0  0.1479573E-03  0.1111009E+04  0.7818609E-02  0.9194528E-01
        1   -1    0    0  501    0  0.00000000000E+00  0.00000000000E+00  0.26972819628E+03  0.26972819632E+03  0.50400001928E-02 0. -1.
       -1   -1    0    0    0  501  0.00000000000E+00  0.00000000000E+00 -0.11440596695E+04  0.11440596696E+04  0.50400001928E-02 0.  1.
    10030    2    1    2    0    0  0.00000000000E+00  0.00000000000E+00 -0.87433147326E+03  0.14137878659E+04  0.11110088229E+04 0.  0.
        4    1    3    3  502    0  0.26606755340E+03  0.47919529590E+02  0.18036400197E+03  0.32499386209E+03  0.12699999809E+01 0. -1.
       -4    1    3    3    0  502 -0.26606755340E+03 -0.47919529590E+02 -0.10546954752E+04  0.10887940038E+04  0.12699999809E+01 0.  1.
</event>
<event>
 5   0  0.2483036E-03  0.1057944E+04  0.7818609E-02  0.9247180E-01
        2   -1    0    0  501    0  0.00000000000E+00  0.00000000000E+00  0.13187310779E+04  0.13187310779E+04  0.25500000920E-02 0. -1.
       -2   -1    0    0    0  501  0.00000000000E+00  0.00000000000E+00 -0.21218247828E+03  0.21218247829E+03  0.25500000920E-02 0.  1.
    10030    2    1    2    0    0  0.00000000000E+00  0.00000000000E+00  0.11065485996E+04  0.15309135562E+04  0.10579444755E+04 0.  0.
        3    1    3    3  502    0 -0.48855639264E+03  0.10862691551E+03  0.80107516831E+03  0.94456793882E+03  0.10100000352E+00 0. -1.
       -3    1    3    3    0  502  0.48855639264E+03 -0.10862691551E+03  0.30547343129E+03  0.58634561735E+03  0.10100000352E+00 0.  1.
</event>
<event>
 5   0  0.2467448E-03  0.1104321E+04  0.7818609E-02  0.9200991E-01
       -2   -1    0    0    0  501  0.00000000000E+00  0.00000000000E+00  0.21330508139E+03  0.21330508140E+03  0.25500000920E-02 0.  1.
        2   -1    0    0  501    0  0.00000000000E+00  0.00000000000E+00 -0.14293195676E+04  0.14293195676E+04  0.25500000920E-02 0. -1.
    10030    2    1    2    0    0  0.00000000000E+00  0.00000000000E+00 -0.12160144862E+04  0.16426246490E+04  0.11043208351E+04 0.  0.
        1    1    3    3  502    0  0.29607223701E+03  0.34776724129E+03 -0.10695498447E+04  0.11629865407E+04  0.50400001928E-02 0. -1.
       -1    1    3    3    0  502 -0.29607223701E+03 -0.34776724129E+03 -0.14646464150E+03  0.47963810824E+03  0.50400001928E-02 0.  1.
</event>
<event>
 5   0  0.1415400E-03  0.1110938E+04  0.7818609E-02  0.9194596E-01
       -1   -1    0    0    0  501  0.00000000000E+00  0.00000000000E+00  0.63508839137E+03  0.63508839139E+03  0.50400001928E-02 0.  1.
        1   -1    0    0  501    0  0.00000000000E+00  0.00000000000E+00 -0.48583110645E+03  0.48583110648E+03  0.50400001928E-02 0. -1.
    10030    2    1    2    0    0  0.00000000000E+00  0.00000000000E+00  0.14925728492E+03  0.11209194979E+04  0.11109377947E+04 0.  0.
        2    1    3    3  502    0 -0.64496227837E+02 -0.20855691023E+03 -0.44073449865E+03  0.49183599555E+03  0.25500000920E-02 0. -1.
       -2    1    3    3    0  502  0.64496227837E+02  0.20855691023E+03  0.58999178357E+03  0.62908350232E+03  0.25500000920E-02 0.  1.
</event>
<event>
 5   0  0.2392585E-03  0.1106421E+04  0.7818609E-02  0.9198956E-01
       -2   -1    0    0    0  501  0.00000000000E+00  0.00000000000E+00  0.27026468406E+03  0.27026468407E+03  0.25500000920E-02 0. -1.
        2   -1    0    0  501    0  0.00000000000E+00  0.00000000000E+00 -0.11323782155E+04  0.11323782155E+04  0.25500000920E-02 0.  1.
    10030    2    1    2    0    0  0.00000000000E+00  0.00000000000E+00 -0.86211353140E+03  0.14026428995E+04  0.11064209699E+04 0.  0.
        5    1    3    3  502    0 -0.64098013052E+02 -0.51195801814E+03 -0.17811310103E+03  0.54585340008E+03  0.46999998093E+01 0.  1.
       -5    1    3    3    0  502  0.64098013052E+02  0.51195801814E+03 -0.68400043036E+03  0.85678949944E+03  0.46999998093E+01 0. -1.
</event>
<event>
 5   0  0.1480937E-03  0.1107325E+04  0.7818609E-02  0.9198082E-01
       -1   -1    0    0    0  501  0.00000000000E+00  0.00000000000E+00  0.31611527419E+03  0.31611527423E+03  0.50400001928E-02 0.  1.
        1   -1    0    0  501    0  0.00000000000E+00  0.00000000000E+00 -0.96971551905E+03  0.96971551906E+03  0.50400001928E-02 0. -1.
    10030    2    1    2    0    0  0.00000000000E+00  0.00000000000E+00 -0.65360024486E+03  0.12858307933E+04  0.11073245003E+04 0.  0.
        1    1    3    3  502    0 -0.48331887053E+03  0.11457097939E+03 -0.61080497126E+03  0.78727781175E+03  0.50400001928E-02 0. -1.
       -1    1    3    3    0  502  0.48331887053E+03 -0.11457097939E+03 -0.42795273601E+02  0.49855298154E+03  0.50400001928E-02 0.  1.
</event>
<event>
 5   0  0.2467448E-03  0.1121643E+04  0.7818609E-02  0.9184350E-01
       -2   -1    0    0    0  501  0.00000000000E+00  0.00000000000E+00  0.30339295518E+03  0.30339295519E+03  0.25500000920E-02 0. -1.
        2   -1    0    0  501    0  0.00000000000E+00  0.00000000000E+00 -0.10366777979E+04  0.10366777979E+04  0.25500000920E-02 0.  1.
    10030    2    1    2    0    0  0.00000000000E+00  0.00000000000E+00 -0.73328484271E+03  0.13400707531E+04  0.11216429747E+04 0.  0.
        1    1    3    3  502    0  0.42318811639E+03  0.20085552615E+03  0.17745568076E+01  0.46843812112E+03  0.50400001928E-02 0. -1.
       -1    1    3    3    0  502 -0.42318811639E+03 -0.20085552615E+03 -0.73505939951E+03  0.87163263195E+03  0.50400001928E-02 0.  1.
</event>
<event>
 5   0  0.2488472E-03  0.1105111E+04  0.7818609E-02  0.9200225E-01
        2   -1    0    0  501    0  0.00000000000E+00  0.00000000000E+00  0.57424373186E+03  0.57424373186E+03  0.25500000920E-02 0.  1.
       -2   -1    0    0    0  501  0.00000000000E+00  0.00000000000E+00 -0.53168629972E+03  0.53168629973E+03  0.25500000920E-02 0. -1.
    10030    2    1    2    0    0  0.00000000000E+00  0.00000000000E+00  0.42557432136E+02  0.11059300316E+04  0.11051108993E+04 0.  0.
        2    1    3    3  502    0 -0.65442898831E+02  0.15493404522E+03 -0.50544799428E+03  0.53269597925E+03  0.25500000920E-02 0. -1.
       -2    1    3    3    0  502  0.65442898831E+02 -0.15493404522E+03  0.54800542642E+03  0.57323405234E+03  0.25500000920E-02 0.  1.
</event>
<event>
 5   0  0.1468556E-03  0.1113162E+04  0.7818609E-02  0.9192457E-01
       -1   -1    0    0    0  501  0.00000000000E+00  0.00000000000E+00  0.50956604836E+03  0.50956604838E+03  0.50400001928E-02 0. -1.
        1   -1    0    0  501    0  0.00000000000E+00  0.00000000000E+00 -0.60793389706E+03  0.60793389708E+03  0.50400001928E-02 0.  1.
    10030    2    1    2    0    0  0.00000000000E+00  0.00000000000E+00 -0.98367848701E+02  0.11174999455E+04  0.11131621151E+04 0.  0.
        5    1    3    3  502    0 -0.35711989938E+03  0.11397755627E+02 -0.47757372279E+03  0.59645895254E+03  0.46999998093E+01 0.  1.
       -5    1    3    3    0  502  0.35711989938E+03 -0.11397755627E+02  0.37920587409E+03  0.52104099292E+03  0.46999998093E+01 0. -1.
</event>
<event>
 5   0  0.1509004E-03  0.1110317E+04  0.7818609E-02  0.9195194E-01
        1   -1    0    0  501    0  0.00000000000E+00  0.00000000000E+00  0.36009400135E+03  0.36009400139E+03  0.50400001928E-02 0.  1.
       -1   -1    0    0    0  501  0.00000000000E+00  0.00000000000E+00 -0.85589027046E+03  0.85589027048E+03  0.50400001928E-02 0. -1.
    10030    2    1    2    0    0  0.00000000000E+00  0.00000000000E+00 -0.49579626911E+03  0.12159842719E+04  0.11103169858E+04 0.  0.
        3    1    3    3  502    0 -0.20100752846E+03 -0.36251286749E+02  0.31744943895E+03  0.37748157409E+03  0.10100000352E+00 0.  1.
       -3    1    3    3    0  502  0.20100752846E+03  0.36251286749E+02 -0.81324570806E+03  0.83850269777E+03  0.10100000352E+00 0. -1.
</event>
<event>
 5   0  0.2483036E-03  0.1030815E+04  0.7818609E-02  0.9275378E-01
        2   -1    0    0  501    0  0.00000000000E+00  0.00000000000E+00  0.72492185648E+03  0.72492185649E+03  0.25500000920E-02 0.  1.
       -2   -1    0    0    0  501  0.00000000000E+00  0.00000000000E+00 -0.36644642050E+03  0.36644642051E+03  0.25500000920E-02 0. -1.
    10030    2    1    2    0    0  0.00000000000E+00  0.00000000000E+00  0.35847543598E+03  0.10913682770E+04  0.10308152491E+04 0.  0.
        3    1    3    3  502    0 -0.36950066120E+03  0.31196547987E+03 -0.95388640404E+01  0.48367778467E+03  0.10100000352E+00 0. -1.
       -3    1    3    3    0  502  0.36950066120E+03 -0.31196547987E+03  0.36801430002E+03  0.60769049233E+03  0.10100000352E+00 0.  1.
</event>
<event>
 5   0  0.2392585E-03  0.1102651E+04  0.7818609E-02  0.9202612E-01
        2   -1    0    0  501    0  0.00000000000E+00  0.00000000000E+00  0.15474098495E+04  0.15474098495E+04  0.25500000920E-02 0.  1.
       -2   -1    0    0    0  501  0.00000000000E+00  0.00000000000E+00 -0.19643146820E+03  0.19643146821E+03  0.25500000920E-02 0. -1.
    10030    2    1    2    0    0  0.00000000000E+00  0.00000000000E+00  0.13509783813E+04  0.17438413177E+04  0.11026513296E+04 0.  0.
        5    1    3    3  502    0  0.17289476482E+03  0.21775997698E+03  0.14283653078E+04  0.14551843697E+04  0.46999998093E+01 0.  1.
       -5    1    3    3    0  502 -0.17289476482E+03 -0.21775997698E+03 -0.77386926457E+02  0.28865694806E+03  0.46999998093E+01 0. -1.
</event>
<event>
 5   0  0.1468556E-03  0.1099469E+04  0.7818609E-02  0.9205709E-01
        1   -1    0    0  501    0  0.00000000000E+00  0.00000000000E+00  0.99955403542E+03  0.99955403544E+03  0.50400001928E-02 0.  1.
       -1   -1    0    0    0  501  0.00000000000E+00  0.00000000000E+00 -0.30234304271E+03  0.30234304275E+03  0.50400001928E-02 0. -1.
    10030    2    1    2    0    0  0.00000000000E+00  0.00000000000E+00  0.69721099272E+03  0.13018970782E+04  0.10994693419E+04 0.  0.
        5    1    3    3  502    0  0.17762794112E+03  0.21734906628E+03 -0.21106073326E+03  0.35122788215E+03  0.46999998093E+01 0. -1.
       -5    1    3    3    0  502 -0.17762794112E+03 -0.21734906628E+03  0.90827172598E+03  0.95066919603E+03  0.46999998093E+01 0.  1.
</event>
<event>
 5   0  0.2467448E-03  0.1110182E+04  0.7818609E-02  0.9195324E-01
       -2   -1    0    0    0  501  0.00000000000E+00  0.00000000000E+00  0.25144819643E+03  0.25144819644E+03  0.25500000920E-02 0.  1.
        2   -1    0    0  501    0  0.00000000000E+00  0.00000000000E+00 -0.12254062249E+04  0.12254062249E+04  0.25500000920E-02 0. -1.
    10030    2    1    2    0    0  0.00000000000E+00  0.00000000000E+00 -0.97395802845E+03  0.14768544213E+04  0.11101823006E+04 0.  0.
        1    1    3    3  502    0  0.48416080246E+02  0.39451336310E+03 -0.10024371961E+04  0.10783622966E+04  0.50400001928E-02 0. -1.
       -1    1    3    3    0  502 -0.48416080246E+02 -0.39451336310E+03  0.28479167646E+02  0.39849212477E+03  0.50400001928E-02 0.  1.
</event>
<event>
 5   0  0.1479573E-03  0.1082758E+04  0.7818609E-02  0.9222162E-01
       -1   -1    0    0    0  501  0.00000000000E+00  0.00000000000E+00  0.22041397583E+03  0.22041397589E+03  0.50400001928E-02 0. -1.
        1   -1    0    0  501    0  0.00000000000E+00  0.00000000000E+00 -0.13297302379E+04  0.13297302379E+04  0.50400001928E-02 0.  1.
    10030    2    1    2    0    0  0.00000000000E+00  0.00000000000E+00 -0.11093162620E+04  0.15501442138E+04  0.10827578281E+04 0.  0.
        4    1    3    3  502    0  0.15416529650E+03 -0.11074239348E+03  0.17120865433E+03  0.25562635344E+03  0.12699999809E+01 0. -1.
       -4    1    3    3    0  502 -0.15416529650E+03  0.11074239348E+03 -0.12805249164E+04  0.12945178603E+04  0.12699999809E+01 0.  1.
</event>
<event>
 5   0  0.2483036E-03  0.1096655E+04  0.7818609E-02  0.9208458E-01
        2   -1    0    0  501    0  0.00000000000E+00  0.00000000000E+00  0.53039265180E+03  0.53039265180E+03  0.25500000920E-02 0. -1.
       -2   -1    0    0    0  501  0.00000000000E+00  0.00000000000E+00 -0.56686915003E+03  0.56686915003E+03  0.25500000920E-02 0.  1.
    10030    2    1    2    0    0  0.00000000000E+00  0.00000000000E+00 -0.36476498231E+02  0.10972618018E+04  0.10966553364E+04 0.  0.
        3    1    3    3  502    0 -0.38766304570E+03 -0.38762176737E+03 -0.29644113223E+02  0.54901006839E+03  0.10100000352E+00 0.  1.
       -3    1    3    3    0  502  0.38766304570E+03  0.38762176737E+03 -0.68323850076E+01  0.54825173345E+03  0.10100000352E+00 0. -1.
</event>
<event>
 5   0  0.2438115E-03  0.1021040E+04  0.7818609E-02  0.9285764E-01
        2   -1    0    0  501    0  0.00000000000E+00  0.00000000000E+00  0.94976421667E+03  0.94976421668E+03  0.25500000920E-02 0.  1.
       -2   -1    0    0    0  501  0.00000000000E+00  0.00000000000E+00 -0.27441644304E+03  0.27441644305E+03  0.25500000920E-02 0. -1.
    10030    2    1    2    0    0  0.00000000000E+00  0.00000000000E+00  0.67534777363E+03  0.12241806597E+04  0.10210404851E+04 0.  0.
        4    1    3    3  502    0  0.22900874414E+03 -0.41733153284E+03  0.55881085797E+03  0.73408569056E+03  0.12699999809E+01 0. -1.
       -4    1    3    3    0  502 -0.22900874414E+03  0.41733153284E+03  0.11653691567E+03  0.49009496917E+03  0.12699999809E+01 0.  1.
</event>
<event>
 5   0  0.2488472E-03  0.1088026E+04  0.7818609E-02  0.9216942E-01
        2   -1    0    0  501    0  0.00000000000E+00  0.00000000000E+00  0.13359372685E+04  0.13359372685E+04  0.25500000920E-02 0. -1.
       -2   -1    0    0    0  501  0.00000000000E+00  0.00000000000E+00 -0.22152996190E+03  0.22152996191E+03  0.25500000920E-02 0.  1.
    10030    2    1    2    0    0  0.00000000000E+00  0.00000000000E+00  0.11144073066E+04  0.15574672304E+04  0.10880259780E+04 0.  0.
        2    1    3    3  502    0  0.42427316267E+03  0.33070337570E+03  0.67329943767E+03  0.86180309354E+03  0.25500000920E-02 0.  1.
       -2    1    3    3    0  502 -0.42427316267E+03 -0.33070337570E+03  0.44110786889E+03  0.69566413683E+03  0.25500000920E-02 0. -1.
</event>
<event>
 5   0  0.2488472E-03  0.1102957E+04  0.7818609E-02  0.9202315E-01
        2   -1    0    0  501    0  0.00000000000E+00  0.00000000000E+00  0.10791264648E+04  0.10791264648E+04  0.25500000920E-02 0. -1.
       -2   -1    0    0    0  501  0.00000000000E+00  0.00000000000E+00 -0.28182845698E+03  0.28182845699E+03  0.25500000920E-02 0.  1.
    10030    2    1    2    0    0  0.00000000000E+00  0.00000000000E+00  0.79729800785E+03  0.13609549218E+04  0.11029570191E+04 0.  0.
        2    1    3    3  502    0  0.53068318807E+02  0.32852216765E+03  0.94127061830E+03  0.99836538300E+03  0.25500000920E-02 0. -1.
       -2    1    3    3    0  502 -0.53068318807E+02 -0.32852216765E+03 -0.14397261044E+03  0.36258953882E+03  0.25500000920E-02 0.  1.
</event>
<event>
 5   0  0.2467448E-03  0.1098277E+04  0.7818609E-02  0.9206873E-01
        2   -1    0    0  501    0  0.00000000000E+00  0.00000000000E+00  0.40162418867E+03  0.40162418867E+03  0.25500000920E-02 0.  1.
       -2   -1    0    0    0  501  0.00000000000E+00  0.00000000000E+00 -0.75083349841E+03  0.75083349842E+03  0.25500000920E-02 0. -1.
    10030    2    1    2    0    0  0.00000000000E+00  0.00000000000E+00 -0.34920930975E+03  0.11524576871E+04  0.10982766403E+04 0.  0.
        1    1    3    3  502    0  0.17082219929E+03 -0.18757931671E+03  0.33643944922E+03  0.42137599225E+03  0.50400001928E-02 0.  1.
       -1    1    3    3    0  502 -0.17082219929E+03  0.18757931671E+03 -0.68564875897E+03  0.73108169484E+03  0.50400001928E-02 0. -1.
</event>
<event>
 5   0  0.1468556E-03  0.1101836E+04  0.7818609E-02  0.9203404E-01
        1   -1    0    0  501    0  0.00000000000E+00  0.00000000000E+00  0.90892950736E+03  0.90892950738E+03  0.50400001928E-02 0. -1.
       -1   -1    0    0    0  501  0.00000000000E+00  0.00000000000E+00 -0.33392100677E+03  0.33392100681E+03  0.50400001928E-02 0.  1.
    10030    2    1    2    0    0  0.00000000000E+00  0.00000000000E+00  0.57500850059E+03  0.12428505142E+04  0.11018360245E+04 0.  0.
        5    1    3    3  502    0 -0.20187156673E+03  0.57596748744E+02  0.86202122143E+03  0.88722724886E+03  0.46999998093E+01 0. -1.
       -5    1    3    3    0  502  0.20187156673E+03 -0.57596748744E+02 -0.28701272084E+03  0.35562326533E+03  0.46999998093E+01 0.  1.
</event>
<event>
 5   0  0.1480937E-03  0.1100316E+04  0.7818609E-02  0.9204884E-01
       -1   -1    0    0    0  501  0.00000000000E+00  0.00000000000E+00  0.31066091419E+03  0.31066091423E+03  0.50400001928E-02 0.  1.
        1   -1    0    0  501    0  0.00000000000E+00  0.00000000000E+00 -0.97429074269E+03  0.97429074270E+03  0.50400001928E-02 0. -1.
    10030    2    1    2    0    0  0.00000000000E+00  0.00000000000E+00 -0.66362982850E+03  0.12849516569E+04  0.11003164142E+04 0.  0.
        1    1    3    3  502    0 -0.43681225269E+03  0.29261766004E+03 -0.52099888014E+03  0.74018232362E+03  0.50400001928E-02 0. -1.
       -1    1    3    3    0  502  0.43681225269E+03 -0.29261766004E+03 -0.14263094836E+03  0.54476933331E+03  0.50400001928E-02 0.  1.
</event>
<event>
 5   0  0.2467448E-03  0.1102587E+04  0.7818609E-02  0.9202674E-01
        2   -1    0    0  501    0  0.00000000000E+00  0.00000000000E+00  0.17292024133E+04  0.17292024133E+04  0.25500000920E-02 0.  1.
       -2   -1    0    0    0  501  0.00000000000E+00  0.00000000000E+00 -0.17576001581E+03  0.17576001583E+03  0.25500000920E-02 0. -1.
    10030    2    1    2    0    0  0.00000000000E+00  0.00000000000E+00  0.15534423975E+04  0.19049624291E+04  0.11025872184E+04 0.  0.
        1    1    3    3  502    0 -0.48609165383E+03 -0.22444955627E+03  0.54972514037E+03  0.76737241885E+03  0.50400001928E-02 0. -1.
       -1    1    3    3    0  502  0.48609165383E+03  0.22444955627E+03  0.10037172571E+04  0.11375900103E+04  0.50400001928E-02 0.  1.
</event>
<event>
 5   0  0.1415400E-03  0.1120106E+04  0.7818609E-02  0.9185814E-01
       -1   -1    0    0    0  501  0.00000000000E+00  0.00000000000E+00  0.17738361001E+03  0.17738361008E+03  0.50400001928E-02 0.  1.
        1   -1    0    0  501    0  0.00000000000E+00  0.00000000000E+00 -0.17682547188E+04  0.17682547188E+04  0.50400001928E-02 0. -1.
    10030    2    1    2    0    0  0.00000000000E+00  0.00000000000E+00 -0.15908711088E+04  0.19456383289E+04  0.11201060762E+04 0.  0.
        2    1    3    3  502    0 -0.22972880026E+03  0.18180631970E+03  0.33668302642E+02  0.29489390322E+03  0.25500000920E-02 0.  1.
       -2    1    3    3    0  502  0.22972880026E+03 -0.18180631970E+03 -0.16245394114E+04  0.16507444257E+04  0.25500000920E-02 0. -1.
</event>
<event>
 5   0  0.1509004E-03  0.1106218E+04  0.7818609E-02  0.9199153E-01
       -1   -1    0    0    0  501  0.00000000000E+00  0.00000000000E+00  0.49394256587E+03  0.49394256589E+03  0.50400001928E-02 0. -1.
        1   -1    0    0  501    0  0.00000000000E+00  0.00000000000E+00 -0.61936213595E+03  0.61936213598E+03  0.50400001928E-02 0.  1.
    10030    2    1    2    0    0  0.00000000000E+00  0.00000000000E+00 -0.12541957009E+03  0.11133047019E+04  0.11062175603E+04 0.  0.
        3    1    3    3  502    0 -0.46547786515E+02  0.55090890077E+03 -0.46419698814E+02  0.55481718792E+03  0.10100000352E+00 0. -1.
       -3    1    3    3    0  502  0.46547786515E+02 -0.55090890077E+03 -0.78999871272E+02  0.55848751395E+03  0.10100000352E+00 0.  1.
</event>
<event>
 5   0  0.1479573E-03  0.1090848E+04  0.7818609E-02  0.9214158E-01
       -1   -1    0    0    0  501  0.00000000000E+00  0.00000000000E+00  0.54073916238E+03  0.54073916240E+03  0.50400001928E-02 0. -1.
        1   -1    0    0  501    0  0.00000000000E+00  0.00000000000E+00 -0.55014952006E+03  0.55014952008E+03  0.50400001928E-02 0.  1.
    10030    2    1    2    0    0  0.00000000000E+00  0.00000000000E+00 -0.94103576845E+01  0.10908886825E+04  0.10908480933E+04 0.  0.
        4    1    3    3  502    0 -0.34129070207E+03  0.28941807545E+03  0.30714550472E+03  0.54275421665E+03  0.12699999809E+01 0. -1.
       -4    1    3    3    0  502  0.34129070207E+03 -0.28941807545E+03 -0.31655586241E+03  0.54813446584E+03  0.12699999809E+01 0.  1.
</event>
<event>
 5   0  0.2467448E-03  0.1102557E+04  0.7818609E-02  0.9202703E-01
       -2   -1    0    0    0  501  0.00000000000E+00  0.00000000000E+00  0.23001880341E+03  0.23001880343E+03  0.25500000920E-02 0. -1.
        2   -1    0    0  501    0  0.00000000000E+00  0.00000000000E+00 -0.13212315039E+04  0.13212315039E+04  0.25500000920E-02 0.  1.
    10030    2    1    2    0    0  0.00000000000E+00  0.00000000000E+00 -0.10912127005E+04  0.15512503073E+04  0.11025571905E+04 0.  0.
        1    1    3    3  502    0 -0.20849820807E+03 -0.36022700333E+03 -0.37009296731E+02  0.41785725405E+03  0.50400001928E-02 0. -1.
       -1    1    3    3    0  502  0.20849820807E+03  0.36022700333E+03 -0.10542034037E+04  0.11333930532E+04  0.50400001928E-02 0.  1.
</event>
<event>
 5   0  0.1415400E-03  0.1085599E+04  0.7818609E-02  0.9219343E-01
       -1   -1    0    0    0  501  0.00000000000E+00  0.00000000000E+00  0.28740234366E+03  0.28740234370E+03  0.50400001928E-02 0. -1.
        1   -1    0    0  501    0  0.00000000000E+00  0.00000000000E+00 -0.10251520777E+04  0.10251520778E+04  0.50400001928E-02 0.  1.
    10030    2    1    2    0    0  0.00000000000E+00  0.00000000000E+00 -0.73774973409E+03  0.13125544215E+04  0.10855986547E+04 0.  0.
        2    1    3    3  502    0 -0.39145510580E+03  0.12184584445E+03  0.61230616503E+02  0.41452707761E+03  0.25500000920E-02 0. -1.
       -2    1    3    3    0  502  0.39145510580E+03 -0.12184584445E+03 -0.79898035059E+03  0.89802734385E+03  0.25500000920E-02 0.  1.
</event>
<event>
 5   0  0.1509004E-03  0.1064341E+04  0.7818609E-02  0.9240662E-01
       -1   -1    0    0    0  501  0.00000000000E+00  0.00000000000E+00  0.18754642930E+03  0.18754642937E+03  0.50400001928E-02 0. -1.
        1   -1    0    0  501    0  0.00000000000E+00  0.00000000000E+00 -0.15100548322E+04  0.15100548322E+04  0.50400001928E-02 0.  1.
    10030    2    1    2    0    0  0.00000000000E+00  0.00000000000E+00 -0.13225084029E+04  0.16976012616E+04  0.10643409076E+04 0.  0.
        3    1    3    3  502    0  0.16143588375E+03 -0.42182762282E+03 -0.11101360450E+04  0.11984999527E+04  0.10100000352E+00 0.  1.
       -3    1    3    3    0  502 -0.16143588375E+03  0.42182762282E+03 -0.21237235788E+03  0.49910130889E+03  0.10100000352E+00 0. -1.
</event>
<event>
 5   0  0.1468556E-03  0.1089611E+04  0.7818609E-02  0.9215377E-01
       -1   -1    0    0    0  501  0.00000000000E+00  0.00000000000E+00  0.50817884138E+03  0.50817884140E+03  0.50400001928E-02 0.  1.
        1   -1    0    0  501    0  0.00000000000E+00  0.00000000000E+00 -0.58407209001E+03  0.58407209003E+03  0.50400001928E-02 0. -1.
    10030    2    1    2    0    0  0.00000000000E+00  0.00000000000E+00 -0.75893248634E+02  0.10922509314E+04  0.10896110829E+04 0.  0.
        5    1    3    3  502    0  0.15126217569E+02 -0.17571413509E+03  0.47875025929E+03  0.51022363773E+03  0.46999998093E+01 0.  1.
       -5    1    3    3    0  502 -0.15126217569E+02  0.17571413509E+03 -0.55464350793E+03  0.58202729370E+03  0.46999998093E+01 0. -1.
</event>
<event>
 5   0  0.2467448E-03  0.1102741E+04  0.7818609E-02  0.9202525E-01
        2   -1    0    0  501    0  0.00000000000E+00  0.00000000000E+00  0.15553342192E+04  0.15553342192E+04  0.25500000920E-02 0. -1.
       -2   -1    0    0    0  501  0.00000000000E+00  0.00000000000E+00 -0.19546237956E+03  0.19546237958E+03  0.25500000920E-02 0.  1.
    10030    2    1    2    0    0  0.00000000000E+00  0.00000000000E+00  0.13598718396E+04  0.17507965987E+04  0.11027408173E+04 0.  0.
        1    1    3    3  502    0  0.46258514627E+03  0.15424677781E+03  0.10885346105E+04  0.11927634654E+04  0.50400001928E-02 0. -1.
       -1    1    3    3    0  502 -0.46258514627E+03 -0.15424677781E+03  0.27133722905E+03  0.55803313334E+03  0.50400001928E-02 0.  1.
</event>
<event>
 5   0  0.9631750E-04  0.1098175E+04  0.7818609E-02  0.9206972E-01
        3   -1    0    0  501    0  0.00000000000E+00  0.00000000000E+00  0.45123365626E+03  0.45123366757E+03  0.10100000352E+00 0. -1.
       -3   -1    0    0    0  501  0.00000000000E+00  0.00000000000E+00 -0.66816228565E+03  0.66816229329E+03  0.10100000352E+00 0.  1.
    10030    2    1    2    0    0  0.00000000000E+00  0.00000000000E+00 -0.21692862939E+03  0.11193959609E+04  0.10981754354E+04 0.  0.
        1    1    3    3  502    0  0.10851075698E+03 -0.12600173995E+03 -0.64187959005E+03  0.66306894890E+03  0.50400001928E-02 0.  1.
       -1    1    3    3    0  502 -0.10851075698E+03  0.12600173995E+03  0.42495096065E+03  0.45632701195E+03  0.50400001928E-02 0. -1.
</event>
<event>
 5   0  0.1468556E-03  0.1097982E+04  0.7818609E-02  0.9207161E-01
       -1   -1    0    0    0  501  0.00000000000E+00  0.00000000000E+00  0.13652294256E+04  0.13652294256E+04  0.50400001928E-02 0.  1.
        1   -1    0    0  501    0  0.00000000000E+00  0.00000000000E+00 -0.22076239280E+03  0.22076239286E+03  0.50400001928E-02 0. -1.
    10030    2    1    2    0    0  0.00000000000E+00  0.00000000000E+00  0.11444670328E+04  0.15859918185E+04  0.10979823583E+04 0.  0.
        5    1    3    3  502    0  0.21557448557E+02  0.44612390733E+03  0.11118598445E+03  0.46029955183E+03  0.46999998093E+01 0. -1.
       -5    1    3    3    0  502 -0.21557448557E+02 -0.44612390733E+03  0.10332810484E+04  0.11256922666E+04  0.46999998093E+01 0.  1.
</event>
<event>
 5   0  0.2488472E-03  0.1020626E+04  0.7818609E-02  0.9286207E-01
        2   -1    0    0  501    0  0.00000000000E+00  0.00000000000E+00  0.56424848764E+03  0.56424848765E+03  0.25500000920E-02 0. -1.
       -2   -1    0    0    0  501  0.00000000000E+00  0.00000000000E+00 -0.46153343307E+03  0.46153343308E+03  0.25500000920E-02 0.  1.
    10030    2    1    2    0    0  0.00000000000E+00  0.00000000000E+00  0.10271505457E+03  0.10257819207E+04  0.10206263599E+04 0.  0.
        2    1    3    3  502    0 -0.13328858458E+03 -0.49004496613E+03  0.10083055036E+01  0.50784932046E+03  0.25500000920E-02 0. -1.
       -2    1    3    3    0  502  0.13328858458E+03  0.49004496613E+03  0.10170674906E+03  0.51793260027E+03  0.25500000920E-02 0.  1.
</event>
<event>
 5   0  0.1415400E-03  0.1101491E+04  0.7818609E-02  0.9203740E-01
       -1   -1    0    0    0  501  0.00000000000E+00  0.00000000000E+00  0.38096821696E+03  0.38096821700E+03  0.50400001928E-02 0. -1.
        1   -1    0    0  501    0  0.00000000000E+00  0.00000000000E+00 -0.79618339525E+03  0.79618339527E+03  0.50400001928E-02 0.  1.
    10030    2    1    2    0    0  0.00000000000E+00  0.00000000000E+00 -0.41521517829E+03  0.11771516123E+04  0.11014909323E+04 0.  0.
        2    1    3    3  502    0  0.77593453091E+02 -0.45013511204E+03  0.12122623588E+03  0.47258667282E+03  0.25500000920E-02 0.  1.
       -2    1    3    3    0  502 -0.77593453091E+02  0.45013511204E+03 -0.53644141417E+03  0.70456493945E+03  0.25500000920E-02 0. -1.
</event>
<event>
 5   0  0.2392585E-03  0.1114270E+04  0.7818609E-02  0.9191393E-01
       -2   -1    0    0    0  501  0.00000000000E+00  0.00000000000E+00  0.14553295634E+04  0.14553295634E+04  0.25500000920E-02 0. -1.
        2   -1    0    0  501    0  0.00000000000E+00  0.00000000000E+00 -0.21328480057E+03  0.21328480059E+03  0.25500000920E-02 0.  1.
    10030    2    1    2    0    0  0.00000000000E+00  0.00000000000E+00  0.12420447629E+04  0.16686143640E+04  0.11142704801E+04 0.  0.
        5    1    3    3  502    0 -0.32881248740E+03 -0.22740008278E+03  0.12020603152E+04  0.12668068285E+04  0.46999998093E+01 0. -1.
       -5    1    3    3    0  502  0.32881248740E+03  0.22740008278E+03  0.39984447688E+02  0.40180753548E+03  0.46999998093E+01 0.  1.
</event>
<event>
 5   0  0.2438115E-03  0.9890050E+03  0.7818609E-02  0.9320687E-01
        2   -1    0    0  501    0  0.00000000000E+00  0.00000000000E+00  0.12509432810E+04  0.12509432810E+04  0.25500000920E-02 0. -1.
       -2   -1    0    0    0  501  0.00000000000E+00  0.00000000000E+00 -0.19547865429E+03  0.19547865430E+03  0.25500000920E-02 0.  1.
    10030    2    1    2    0    0  0.00000000000E+00  0.00000000000E+00  0.10554646267E+04  0.14464219353E+04  0.98900497303E+03 0.  0.
        4    1    3    3  502    0 -0.31925513599E+03 -0.54180429707E+02  0.10743086036E+04  0.11220516697E+04  0.12699999809E+01 0. -1.
       -4    1    3    3    0  502  0.31925513599E+03  0.54180429707E+02 -0.18843976913E+02  0.32437026557E+03  0.12699999809E+01 0.  1.
</event>
<event>
 5   0  0.2438115E-03  0.1107468E+04  0.7818609E-02  0.9197944E-01
        2   -1    0    0  501    0  0.00000000000E+00  0.00000000000E+00  0.12489974058E+04  0.12489974058E+04  0.25500000920E-02 0.  1.
       -2   -1    0    0    0  501  0.00000000000E+00  0.00000000000E+00 -0.24549376529E+03  0.24549376530E+03  0.25500000920E-02 0. -1.
    10030    2    1    2    0    0  0.00000000000E+00  0.00000000000E+00  0.10035036405E+04  0.14944911711E+04  0.11074675183E+04 0.  0.
        4    1    3    3  502    0 -0.47991105626E+03  0.16527327003E+02  0.12965181644E+03  0.49739218014E+03  0.12699999809E+01 0. -1.
       -4    1    3    3    0  502  0.47991105626E+03 -0.16527327003E+02  0.87385182409E+03  0.99709899098E+03  0.12699999809E+01 0.  1.
</event>
<event>
 5   0  0.1468556E-03  0.1072755E+04  0.7818609E-02  0.9232161E-01
       -1   -1    0    0    0  501  0.00000000000E+00  0.00000000000E+00  0.26967442300E+03  0.26967442304E+03  0.50400001928E-02 0.  1.
        1   -1    0    0  501    0  0.00000000000E+00  0.00000000000E+00 -0.10668456344E+04  0.10668456344E+04  0.50400001928E-02 0. -1.
    10030    2    1    2    0    0  0.00000000000E+00  0.00000000000E+00 -0.79717121136E+03  0.13365200574E+04  0.10727552953E+04 0.  0.
        5    1    3    3  502    0  0.39968943528E+03  0.14835777845E+03 -0.80405501259E+03  0.91010341631E+03  0.46999998093E+01 0. -1.
       -5    1    3    3    0  502 -0.39968943528E+03 -0.14835777845E+03  0.68838012324E+01  0.42641664111E+03  0.46999998093E+01 0.  1.
</event>
<event>
 5   0  0.1468556E-03  0.1108480E+04  0.7818609E-02  0.9196966E-01
       -1   -1    0    0    0  501  0.00000000000E+00  0.00000000000E+00  0.31276367265E+03  0.31276367269E+03  0.50400001928E-02 0. -1.
        1   -1    0    0  501    0  0.00000000000E+00  0.00000000000E+00 -0.98215284914E+03  0.98215284915E+03  0.50400001928E-02 0.  1.
    10030    2    1    2    0    0  0.00000000000E+00  0.00000000000E+00 -0.66938917649E+03  0.12949165218E+04  0.11084795573E+04 0.  0.
        5    1    3    3  502    0  0.17572636903E+03  0.37433529240E+03 -0.76574458923E+03  0.87028359392E+03  0.46999998093E+01 0.  1.
       -5    1    3    3    0  502 -0.17572636903E+03 -0.37433529240E+03  0.96355412739E+02  0.42463292792E+03  0.46999998093E+01 0. -1.
</event>
<event>
 5   0  0.1468556E-03  0.1102262E+04  0.7818609E-02  0.9202990E-01
       -1   -1    0    0    0  501  0.00000000000E+00  0.00000000000E+00  0.32893465348E+03  0.32893465352E+03  0.50400001928E-02 0. -1.
        1   -1    0    0  501    0  0.00000000000E+00  0.00000000000E+00 -0.92342151539E+03  0.92342151540E+03  0.50400001928E-02 0.  1.
    10030    2    1    2    0    0  0.00000000000E+00  0.00000000000E+00 -0.59448686190E+03  0.12523561689E+04  0.11022619221E+04 0.  0.
        5    1    3    3  502    0 -0.49391292166E+03 -0.64671838136E+02 -0.56512609896E+03  0.75334057275E+03  0.46999998093E+01 0.  1.
       -5    1    3    3    0  502  0.49391292166E+03  0.64671838136E+02 -0.29360762948E+02  0.49901559618E+03  0.46999998093E+01 0. -1.
</event>
<event>
 5   0  0.2438115E-03  0.1092628E+04  0.7818609E-02  0.9212407E-01
       -2   -1    0    0    0  501  0.00000000000E+00  0.00000000000E+00  0.56997150991E+03  0.56997150992E+03  0.25500000920E-02 0.  1.
        2   -1    0    0  501    0  0.00000000000E+00  0.00000000000E+00 -0.52363831593E+03  0.52363831594E+03  0.25500000920E-02 0. -1.
    10030    2    1    2    0    0  0.00000000000E+00  0.00000000000E+00  0.46333193979E+02  0.10936098259E+04  0.10926278810E+04 0.  0.
        4    1    3    3  502    0 -0.43923608790E+03  0.12845428946E+01  0.34830822426E+03  0.56058025559E+03  0.12699999809E+01 0.  1.
       -4    1    3    3    0  502  0.43923608790E+03 -0.12845428946E+01 -0.30197503029E+03  0.53302957027E+03  0.12699999809E+01 0. -1.
</event>
<event>
 5   0  0.2392585E-03  0.1105341E+04  0.7818609E-02  0.9200002E-01
       -2   -1    0    0    0  501  0.00000000000E+00  0.00000000000E+00  0.19262811134E+03  0.19262811136E+03  0.25500000920E-02 0.  1.
        2   -1    0    0  501    0  0.00000000000E+00  0.00000000000E+00 -0.15856691366E+04  0.15856691366E+04  0.25500000920E-02 0. -1.
    10030    2    1    2    0    0  0.00000000000E+00  0.00000000000E+00 -0.13930410252E+04  0.17782972479E+04  0.11053405828E+04 0.  0.
        5    1    3    3  502    0 -0.24502161300E+03 -0.14787147566E+03  0.64098556799E+02  0.29331259628E+03  0.46999998093E+01 0.  1.
       -5    1    3    3    0  502  0.24502161300E+03  0.14787147566E+03 -0.14571395820E+04  0.14849846516E+04  0.46999998093E+01 0. -1.
</event>
<event>
 5   0  0.1509004E-03  0.1094002E+04  0.7818609E-02  0.9211058E-01
       -1   -1    0    0    0  501  0.00000000000E+00  0.00000000000E+00  0.77017599975E+03  0.77017599977E+03  0.50400001928E-02 0.  1.
        1   -1    0    0  501    0  0.00000000000E+00  0.00000000000E+00 -0.38849560018E+03  0.38849560022E+03  0.50400001928E-02 0. -1.
    10030    2    1    2    0    0  0.00000000000E+00  0.00000000000E+00  0.38168039957E+03  0.11586716000E+04  0.10940018049E+04 0.  0.
        3    1    3    3  502    0  0.21690266767E+02  0.54184544185E+03  0.11488601486E+03  0.55431557541E+03  0.10100000352E+00 0. -1.
       -3    1    3    3    0  502 -0.21690266767E+02 -0.54184544185E+03  0.26679438471E+03  0.60435602458E+03  0.10100000352E+00 0.  1.
</event>
<event>
 5   0  0.2438115E-03  0.1104081E+04  0.7818609E-02  0.9201223E-01
       -2   -1    0    0    0  501  0.00000000000E+00  0.00000000000E+00  0.82062191089E+03  0.82062191089E+03  0.25500000920E-02 0. -1.
        2   -1    0    0  501    0  0.00000000000E+00  0.00000000000E+00 -0.37136320779E+03  0.37136320780E+03  0.25500000920E-02 0.  1.
    10030    2    1    2    0    0  0.00000000000E+00  0.00000000000E+00  0.44925870310E+03  0.11919851187E+04  0.11040811297E+04 0.  0.
        4    1    3    3  502    0 -0.26849318885E+03 -0.22297333091E+03 -0.23714088049E+03  0.42195154800E+03  0.12699999809E+01 0.  1.
       -4    1    3    3    0  502  0.26849318885E+03  0.22297333091E+03  0.68639958358E+03  0.77003357070E+03  0.12699999809E+01 0. -1.
</event>
<event>
 5   0  0.2467448E-03  0.1089909E+04  0.7818609E-02  0.9215083E-01
       -2   -1    0    0    0  501  0.00000000000E+00  0.00000000000E+00  0.15002174252E+04  0.15002174252E+04  0.25500000920E-02 0.  1.
        2   -1    0    0  501    0  0.00000000000E+00  0.00000000000E+00 -0.19795509173E+03  0.19795509175E+03  0.25500000920E-02 0. -1.
    10030    2    1    2    0    0  0.00000000000E+00  0.00000000000E+00  0.13022623334E+04  0.16981725169E+04  0.10899094972E+04 0.  0.
        1    1    3    3  502    0  0.47358027988E+02 -0.47298183448E+02  0.14937888232E+04  0.14952875808E+04  0.50400001928E-02 0.  1.
       -1    1    3    3    0  502 -0.47358027988E+02  0.47298183448E+02 -0.19152648979E+03  0.20288493608E+03  0.50400001928E-02 0. -1.
</event>
<event>
 5   0  0.1480937E-03  0.1095355E+04  0.7818609E-02  0.9209731E-01
       -1   -1    0    0    0  501  0.00000000000E+00  0.00000000000E+00  0.21398538051E+03  0.21398538057E+03  0.50400001928E-02 0. -1.
        1   -1    0    0  501    0  0.00000000000E+00  0.00000000000E+00 -0.14017343884E+04  0.14017343884E+04  0.50400001928E-02 0.  1.
    10030    2    1    2    0    0  0.00000000000E+00  0.00000000000E+00 -0.11877490078E+04  0.16157197689E+04  0.10953550411E+04 0.  0.
        1    1    3    3  502    0 -0.27005884516E+03 -0.77390618212E+02  0.99609304497E+02  0.29806559883E+03  0.50400001928E-02 0. -1.
       -1    1    3    3    0  502  0.27005884516E+03  0.77390618212E+02 -0.12873583123E+04  0.13176541701E+04  0.50400001928E-02 0.  1.
</event>
<event>
 5   0  0.2483036E-03  0.1101744E+04  0.7818609E-02  0.9203493E-01
        2   -1    0    0  501    0  0.00000000000E+00  0.00000000000E+00  0.14357958190E+04  0.14357958190E+04  0.25500000920E-02 0.  1.
       -2   -1    0    0    0  501  0.00000000000E+00  0.00000000000E+00 -0.21135325748E+03  0.21135325749E+03  0.25500000920E-02 0. -1.
    10030    2    1    2    0    0  0.00000000000E+00  0.00000000000E+00  0.12244425615E+04  0.16471490765E+04  0.11017442960E+04 0.  0.
        3    1    3    3  502    0 -0.27240761407E+03  0.46304163989E+03  0.43005572843E+03  0.68815798203E+03  0.10100000352E+00 0. -1.
       -3    1    3    3    0  502  0.27240761407E+03 -0.46304163989E+03  0.79438683311E+03  0.95899109448E+03  0.10100000352E+00 0.  1.
</event>
<event>
 5   0  0.1509004E-03  0.1105086E+04  0.7818609E-02  0.9200249E-01
        1   -1    0    0  501    0  0.00000000000E+00  0.00000000000E+00  0.11058536256E+04  0.11058536256E+04  0.50400001928E-02 0. -1.
       -1   -1    0    0    0  501  0.00000000000E+00  0.00000000000E+00 -0.27607982583E+03  0.27607982587E+03  0.50400001928E-02 0.  1.
    10030    2    1    2    0    0  0.00000000000E+00  0.00000000000E+00  0.82977379977E+03  0.13819334515E+04  0.11050861982E+04 0.  0.
        3    1    3    3  502    0  0.19927481437E+03  0.39251796271E+02  0.10574803434E+04  0.10768081733E+04  0.10100000352E+00 0. -1.
       -3    1    3    3    0  502 -0.19927481437E+03 -0.39251796271E+02 -0.22770654367E+03  0.30512527817E+03  0.10100000352E+00 0.  1.
</event>
<event>
 5   0  0.1468556E-03  0.1203610E+04  0.7818609E-02  0.9109702E-01
       -1   -1    0    0    0  501  0.00000000000E+00  0.00000000000E+00  0.80462491599E+03  0.80462491600E+03  0.50400001928E-02 0. -1.
        1   -1    0    0  501    0  0.00000000000E+00  0.00000000000E+00 -0.45010975411E+03  0.45010975414E+03  0.50400001928E-02 0.  1.
    10030    2    1    2    0    0  0.00000000000E+00  0.00000000000E+00  0.35451516188E+03  0.12547346701E+04  0.12036104405E+04 0.  0.
        5    1    3    3  502    0 -0.15411795875E+03 -0.39903806224E+03 -0.26399877989E+03  0.50269390896E+03  0.46999998093E+01 0.  1.
       -5    1    3    3    0  502  0.15411795875E+03  0.39903806224E+03  0.61851394177E+03  0.75204076118E+03  0.46999998093E+01 0. -1.
</event>
<event>
 5   0  0.1480937E-03  0.1112179E+04  0.7818609E-02  0.9193402E-01
        1   -1    0    0  501    0  0.00000000000E+00  0.00000000000E+00  0.24983014851E+03  0.24983014856E+03  0.50400001928E-02 0.  1.
       -1   -1    0    0    0  501  0.00000000000E+00  0.00000000000E+00 -0.12377835339E+04  0.12377835339E+04  0.50400001928E-02 0. -1.
    10030    2    1    2    0    0  0.00000000000E+00  0.00000000000E+00 -0.98795338535E+03  0.14876136824E+04  0.11121792016E+04 0.  0.
        1    1    3    3  502    0  0.19898237517E+03  0.50815506059E+01 -0.11885020294E+04  0.12050547214E+04  0.50400001928E-02 0. -1.
       -1    1    3    3    0  502 -0.19898237517E+03 -0.50815506059E+01  0.20054864403E+03  0.28255896099E+03  0.50400001928E-02 0.  1.
</event>
<event>
 5   0  0.1480937E-03  0.1108725E+04  0.7818609E-02  0.9196729E-01
       -1   -1    0    0    0  501  0.00000000000E+00  0.00000000000E+00  0.36956446889E+03  0.36956446892E+03  0.50400001928E-02 0. -1.
        1   -1    0    0  501    0  0.00000000000E+00  0.00000000000E+00 -0.83156748318E+03  0.83156748319E+03  0.50400001928E-02 0.  1.
    10030    2    1    2    0    0  0.00000000000E+00  0.00000000000E+00 -0.46200301429E+03  0.12011319521E+04  0.11087250251E+04 0.  0.
        1    1    3    3  502    0  0.22252789334E+03 -0.26635720537E+03 -0.69929365300E+03  0.78068971898E+03  0.50400001928E-02 0.  1.
       -1    1    3    3    0  502 -0.22252789334E+03  0.26635720537E+03  0.23729063871E+03  0.42044223314E+03  0.50400001928E-02 0. -1.
</event>
<event>
 5   0  0.2483036E-03  0.1089353E+04  0.7818609E-02  0.9215632E-01
        2   -1    0    0  501    0  0.00000000000E+00  0.00000000000E+00  0.81451993251E+03  0.81451993252E+03  0.25500000920E-02 0. -1.
       -2   -1    0    0    0  501  0.00000000000E+00  0.00000000000E+00 -0.36422954954E+03  0.36422954954E+03  0.25500000920E-02 0.  1.
    10030    2    1    2    0    0  0.00000000000E+00  0.00000000000E+00  0.45029038298E+03  0.11787494821E+04  0.10893525198E+04 0.  0.
        3    1    3    3  502    0  0.18021213379E+03  0.11951724863E+03  0.76608150146E+03  0.79601611979E+03  0.10100000352E+00 0. -1.
       -3    1    3    3    0  502 -0.18021213379E+03 -0.11951724863E+03 -0.31579111848E+03  0.38273336227E+03  0.10100000352E+00 0.  1.
</event>
<event>
 5   0  0.1480937E-03  0.1096054E+04  0.7818609E-02  0.9209046E-01
       -1   -1    0    0    0  501  0.00000000000E+00  0.00000000000E+00  0.21939505871E+03  0.21939505877E+03  0.50400001928E-02 0.  1.
        1   -1    0    0  501    0  0.00000000000E+00  0.00000000000E+00 -0.13689174552E+04  0.13689174553E+04  0.50400001928E-02 0. -1.
    10030    2    1    2    0    0  0.00000000000E+00  0.00000000000E+00 -0.11495223965E+04  0.15883125140E+04  0.10960542423E+04 0.  0.
        1    1    3    3  502    0  0.39837568795E+03  0.46029699972E+01 -0.11200792495E+04  0.11888237470E+04  0.50400001928E-02 0. -1.
       -1    1    3    3    0  502 -0.39837568795E+03 -0.46029699972E+01 -0.29443147019E+02  0.39948876707E+03  0.50400001928E-02 0.  1.
</event>
<event>
 5   0  0.1415400E-03  0.1092953E+04  0.7818609E-02  0.9212087E-01
       -1   -1    0    0    0  501  0.00000000000E+00  0.00000000000E+00  0.70670876011E+03  0.70670876012E+03  0.50400001928E-02 0.  1.
        1   -1    0    0  501    0  0.00000000000E+00  0.00000000000E+00 -0.42257393901E+03  0.42257393904E+03  0.50400001928E-02 0. -1.
    10030    2    1    2    0    0  0.00000000000E+00  0.00000000000E+00  0.28413482109E+03  0.11292826992E+04  0.10929532552E+04 0.  0.
        2    1    3    3  502    0  0.88003964722E+02 -0.32442230012E+03  0.58725127410E+03  0.67665248507E+03  0.25500000920E-02 0.  1.
       -2    1    3    3    0  502 -0.88003964722E+02  0.32442230012E+03 -0.30311645301E+03  0.45263021409E+03  0.25500000920E-02 0. -1.
</event>
<event>
 5   0  0.1468556E-03  0.1106373E+04  0.7818609E-02  0.9199002E-01
        1   -1    0    0  501    0  0.00000000000E+00  0.00000000000E+00  0.17102455648E+04  0.17102455648E+04  0.50400001928E-02 0.  1.
       -1   -1    0    0    0  501  0.00000000000E+00  0.00000000000E+00 -0.17893065726E+03  0.17893065733E+03  0.50400001928E-02 0. -1.
    10030    2    1    2    0    0  0.00000000000E+00  0.00000000000E+00  0.15313149076E+04  0.18891762222E+04  0.11063731072E+04 0.  0.
        5    1    3    3  502    0  0.35414126405E+03  0.41079600034E+03  0.57998351725E+03  0.79408586380E+03  0.46999998093E+01 0. -1.
       -5    1    3    3    0  502 -0.35414126405E+03 -0.41079600034E+03  0.95133139031E+03  0.10950903584E+04  0.46999998093E+01 0.  1.
</event>
<event>
 5   0  0.2438115E-03  0.1127498E+04  0.7818609E-02  0.9178797E-01
       -2   -1    0    0    0  501  0.00000000000E+00  0.00000000000E+00  0.16204208846E+03  0.16204208848E+03  0.25500000920E-02 0.  1.
        2   -1    0    0  501    0  0.00000000000E+00  0.00000000000E+00 -0.19612997609E+04  0.19612997609E+04  0.25500000920E-02 0. -1.
    10030    2    1    2    0    0  0.00000000000E+00  0.00000000000E+00 -0.17992576724E+04  0.21233418494E+04  0.11274983093E+04 0.  0.
        4    1    3    3  502    0 -0.31362207405E+03  0.20206007414E+03 -0.16955580274E+04  0.17361180017E+04  0.12699999809E+01 0. -1.
       -4    1    3    3    0  502  0.31362207405E+03 -0.20206007414E+03 -0.10369964506E+03  0.38722384763E+03  0.12699999809E+01 0.  1.
</event>
<event>
 5   0  0.2483036E-03  0.1093001E+04  0.7818609E-02  0.9212041E-01
        2   -1    0    0  501    0  0.00000000000E+00  0.00000000000E+00  0.27940397241E+03  0.27940397242E+03  0.25500000920E-02 0. -1.
       -2   -1    0    0    0  501  0.00000000000E+00  0.00000000000E+00 -0.10689280960E+04  0.10689280960E+04  0.25500000920E-02 0.  1.
    10030    2    1    2    0    0  0.00000000000E+00  0.00000000000E+00 -0.78952412355E+03  0.13483320684E+04  0.10930009263E+04 0.  0.
        3    1    3    3  502    0  0.30609153606E+02 -0.26296159018E+03 -0.98454556998E+03  0.10195173896E+04  0.10100000352E+00 0.  1.
       -3    1    3    3    0  502 -0.30609153606E+02  0.26296159018E+03  0.19502144642E+03  0.32881467875E+03  0.10100000352E+00 0. -1.
</event>
<event>
 5   0  0.1479573E-03  0.1121333E+04  0.7818609E-02  0.9184645E-01
       -1   -1    0    0    0  501  0.00000000000E+00  0.00000000000E+00  0.38808379419E+03  0.38808379422E+03  0.50400001928E-02 0. -1.
        1   -1    0    0  501    0  0.00000000000E+00  0.00000000000E+00 -0.80999798843E+03  0.80999798844E+03  0.50400001928E-02 0.  1.
    10030    2    1    2    0    0  0.00000000000E+00  0.00000000000E+00 -0.42191419424E+03  0.11980817827E+04  0.11213333004E+04 0.  0.
        4    1    3    3  502    0  0.18392014049E+03  0.46456255731E+03  0.60815419902E+02  0.50333400037E+03  0.12699999809E+01 0.  1.
       -4    1    3    3    0  502 -0.18392014049E+03 -0.46456255731E+03 -0.48272961414E+03  0.69474778229E+03  0.12699999809E+01 0. -1.
</event>
<event>
 5   0  0.1415400E-03  0.9721099E+03  0.7818609E-02  0.9339674E-01
        1   -1    0    0  501    0  0.00000000000E+00  0.00000000000E+00  0.58258861901E+03  0.58258861903E+03  0.50400001928E-02 0.  1.
       -1   -1    0    0    0  501  0.00000000000E+00  0.00000000000E+00 -0.40551665993E+03  0.40551665997E+03  0.50400001928E-02 0. -1.
    10030    2    1    2    0    0  0.00000000000E+00  0.00000000000E+00  0.17707195907E+03  0.98810527900E+03  0.97210985166E+03 0.  0.
        2    1    3    3  502    0  0.36062732510E+03 -0.25499635771E+03  0.29478901984E+03  0.53101391345E+03  0.25500000920E-02 0.  1.
       -2    1    3    3    0  502 -0.36062732510E+03  0.25499635771E+03 -0.11771706077E+03  0.45709136555E+03  0.25500000920E-02 0. -1.
</event>
<event>
 5   0  0.1415400E-03  0.1104978E+04  0.7818609E-02  0.9200353E-01
        1   -1    0    0  501    0  0.00000000000E+00  0.00000000000E+00  0.16319305699E+04  0.16319305699E+04  0.50400001928E-02 0.  1.
       -1   -1    0    0    0  501  0.00000000000E+00  0.00000000000E+00 -0.18704482168E+03  0.18704482175E+03  0.50400001928E-02 0. -1.
    10030    2    1    2    0    0  0.00000000000E+00  0.00000000000E+00  0.14448857482E+04  0.18189753916E+04  0.11049781220E+04 0.  0.
        2    1    3    3  502    0 -0.35925806520E+03  0.35135986776E+03  0.11004304450E+04  0.12097385165E+04  0.25500000920E-02 0.  1.
       -2    1    3    3    0  502  0.35925806520E+03 -0.35135986776E+03  0.34445530317E+03  0.60923687509E+03  0.25500000920E-02 0. -1.
</event>
<event>
 5   0  0.1480937E-03  0.1099729E+04  0.7818609E-02  0.9205456E-01
        1   -1    0    0  501    0  0.00000000000E+00  0.00000000000E+00  0.71642300396E+03  0.71642300398E+03  0.50400001928E-02 0. -1.
       -1   -1    0    0    0  501  0.00000000000E+00  0.00000000000E+00 -0.42202863301E+03  0.42202863304E+03  0.50400001928E-02 0.  1.
    10030    2    1    2    0    0  0.00000000000E+00  0.00000000000E+00  0.29439437095E+03  0.11384516370E+04  0.10997290958E+04 0.  0.
        1    1    3    3  502    0 -0.20415854742E+03 -0.27020020543E+03 -0.30125611330E+03  0.45325942828E+03  0.50400001928E-02 0.  1.
       -1    1    3    3    0  502  0.20415854742E+03  0.27020020543E+03  0.59565048425E+03  0.68519220874E+03  0.50400001928E-02 0. -1.
</event>
<event>
 5   0  0.9631750E-04  0.1095915E+04  0.7818609E-02  0.9209182E-01
        3   -1    0    0  501    0  0.00000000000E+00  0.00000000000E+00  0.49434586787E+03  0.49434587819E+03  0.10100000352E+00 0. -1.
       -3   -1    0    0    0  501  0.00000000000E+00  0.00000000000E+00 -0.60738382677E+03  0.60738383517E+03  0.10100000352E+00 0.  1.
    10030    2    1    2    0    0  0.00000000000E+00  0.00000000000E+00 -0.11303795890E+03  0.11017297134E+04  0.10959154991E+04 0.  0.
        4    1    3    3  502    0 -0.38728487632E+03 -0.31088607584E+02  0.33192456218E+03  0.51101037644E+03  0.12699999809E+01 0. -1.
       -4    1    3    3    0  502  0.38728487632E+03  0.31088607584E+02 -0.44496252108E+03  0.59071933692E+03  0.12699999809E+01 0.  1.
</event>
<event>
 5   0  0.1479573E-03  0.1101487E+04  0.7818609E-02  0.9203744E-01
       -1   -1    0    0    0  501  0.00000000000E+00  0.00000000000E+00  0.37370867651E+03  0.37370867654E+03  0.50400001928E-02 0. -1.
        1   -1    0    0  501    0  0.00000000000E+00  0.00000000000E+00 -0.81164373780E+03  0.81164373781E+03  0.50400001928E-02 0.  1.
    10030    2    1    2    0    0  0.00000000000E+00  0.00000000000E+00 -0.43793506129E+03  0.11853524144E+04  0.11014868262E+04 0.  0.
        4    1    3    3  502    0  0.23683297603E+01 -0.53263888343E+03 -0.68281600184E+02  0.53700444965E+03  0.12699999809E+01 0.  1.
       -4    1    3    3    0  502 -0.23683297603E+01  0.53263888343E+03 -0.36965346111E+03  0.64834796470E+03  0.12699999809E+01 0. -1.
</event>
<event>
 5   0  0.2438115E-03  0.1109268E+04  0.7818609E-02  0.9196206E-01
       -2   -1    0    0    0  501  0.00000000000E+00  0.00000000000E+00  0.32571471621E+03  0.32571471622E+03  0.25500000920E-02 0.  1.
        2   -1    0    0  501    0  0.00000000000E+00  0.00000000000E+00 -0.94444225593E+03  0.94444225593E+03  0.25500000920E-02 0. -1.
    10030    2    1    2    0    0  0.00000000000E+00  0.00000000000E+00 -0.61872753972E+03  0.12701569722E+04  0.11092677610E+04 0.  0.
        4    1    3    3  502    0  0.36513360687E+02 -0.47719572234E+02 -0.94070276597E+03  0.94262065004E+03  0.12699999809E+01 0. -1.
       -4    1    3    3    0  502 -0.36513360687E+02  0.47719572234E+02  0.32197522625E+03  0.32753632211E+03  0.12699999809E+01 0.  1.
</event>
<event>
 5   0  0.9631750E-04  0.1104291E+04  0.7818609E-02  0.9201020E-01
        3   -1    0    0  501    0  0.00000000000E+00  0.00000000000E+00  0.75370686152E+03  0.75370686829E+03  0.10100000352E+00 0.  1.
       -3   -1    0    0    0  501  0.00000000000E+00  0.00000000000E+00 -0.40448688581E+03  0.40448689842E+03  0.10100000352E+00 0. -1.
    10030    2    1    2    0    0  0.00000000000E+00  0.00000000000E+00  0.34921997572E+03  0.11581937667E+04  0.11042908176E+04 0.  0.
        3    1    3    3  502    0 -0.44295647496E+03  0.24399368971E+03 -0.57841414588E+02  0.50900785728E+03  0.10100000352E+00 0. -1.
       -3    1    3    3    0  502  0.44295647496E+03 -0.24399368971E+03  0.40706139031E+03  0.64918590943E+03  0.10100000352E+00 0.  1.
</event>
<event>
 5   0  0.2438115E-03  0.1095294E+04  0.7818609E-02  0.9209791E-01
       -2   -1    0    0    0  501  0.00000000000E+00  0.00000000000E+00  0.25591768418E+03  0.25591768419E+03  0.25500000920E-02 0. -1.
        2   -1    0    0  501    0  0.00000000000E+00  0.00000000000E+00 -0.11719286418E+04  0.11719286418E+04  0.25500000920E-02 0.  1.
    10030    2    1    2    0    0  0.00000000000E+00  0.00000000000E+00 -0.91601095759E+03  0.14278463260E+04  0.10952940501E+04 0.  0.
        4    1    3    3  502    0 -0.17759769400E+03 -0.18796752544E+03 -0.10873213667E+04  0.11176502578E+04  0.12699999809E+01 0.  1.
       -4    1    3    3    0  502  0.17759769400E+03  0.18796752544E+03  0.17131040907E+03  0.31019606814E+03  0.12699999809E+01 0. -1.
</event>
<event>
 5   0  0.1480937E-03  0.1098296E+04  0.7818609E-02  0.9206854E-01
       -1   -1    0    0    0  501  0.00000000000E+00  0.00000000000E+00  0.24067405193E+03  0.24067405199E+03  0.50400001928E-02 0.  1.
        1   -1    0    0  501    0  0.00000000000E+00  0.00000000000E+00 -0.12529964673E+04  0.12529964673E+04  0.50400001928E-02 0. -1.
    10030    2    1    2    0    0  0.00000000000E+00  0.00000000000E+00 -0.10123224154E+04  0.14936705193E+04  0.10982963842E+04 0.  0.
        1    1    3    3  502    0  0.49727460978E+03 -0.98342772613E+02 -0.21891565956E+03  0.55215704694E+03  0.50400001928E-02 0.  1.
       -1    1    3    3    0  502 -0.49727460978E+03  0.98342772613E+02 -0.79340675584E+03  0.94151347239E+03  0.50400001928E-02 0. -1.
</event>
<event>
 5   0  0.1479573E-03  0.1124699E+04  0.7818609E-02  0.9181447E-01
       -1   -1    0    0    0  501  0.00000000000E+00  0.00000000000E+00  0.33225165828E+03  0.33225165832E+03  0.50400001928E-02 0. -1.
        1   -1    0    0  501    0  0.00000000000E+00  0.00000000000E+00 -0.95180019582E+03  0.95180019584E+03  0.50400001928E-02 0.  1.
    10030    2    1    2    0    0  0.00000000000E+00  0.00000000000E+00 -0.61954853754E+03  0.12840518542E+04  0.11246994149E+04 0.  0.
        4    1    3    3  502    0  0.18269618447E+03  0.20938795899E+03  0.24838494327E+03  0.37271692494E+03  0.12699999809E+01 0. -1.
       -4    1    3    3    0  502 -0.18269618447E+03 -0.20938795899E+03 -0.86793348081E+03  0.91133492922E+03  0.12699999809E+01 0.  1.
</event>
<event>
 5   0  0.2438115E-03  0.1100405E+04  0.7818609E-02  0.9204798E-01
        2   -1    0    0  501    0  0.00000000000E+00  0.00000000000E+00  0.11926681347E+04  0.11926681347E+04  0.25500000920E-02 0.  1.
       -2   -1    0    0    0  501  0.00000000000E+00  0.00000000000E+00 -0.25381961534E+03  0.25381961535E+03  0.25500000920E-02 0. -1.
    10030    2    1    2    0    0  0.00000000000E+00  0.00000000000E+00  0.93884851935E+03  0.14464877500E+04  0.11004045932E+04 0.  0.
        4    1    3    3  502    0 -0.13335044726E+03  0.13839898953E+03 -0.20825946164E+03  0.28339061091E+03  0.12699999809E+01 0. -1.
       -4    1    3    3    0  502  0.13335044726E+03 -0.13839898953E+03  0.11471079810E+04  0.11630971391E+04  0.12699999809E+01 0.  1.
</event>
<event>
 5   0  0.2438115E-03  0.1092128E+04  0.7818609E-02  0.9212899E-01
       -2   -1    0    0    0  501  0.00000000000E+00  0.00000000000E+00  0.39850710078E+03  0.39850710079E+03  0.25500000920E-02 0. -1.
        2   -1    0    0  501    0  0.00000000000E+00  0.00000000000E+00 -0.74825735891E+03  0.74825735891E+03  0.25500000920E-02 0.  1.
    10030    2    1    2    0    0  0.00000000000E+00  0.00000000000E+00 -0.34975025813E+03  0.11467644597E+04  0.10921279609E+04 0.  0.
        4    1    3    3  502    0  0.43467594903E+03 -0.20263608138E+03  0.99300108254E+02  0.48976186718E+03  0.12699999809E+01 0. -1.
       -4    1    3    3    0  502 -0.43467594903E+03  0.20263608138E+03 -0.44905036638E+03  0.65700259253E+03  0.12699999809E+01 0.  1.
</event>
<event>
 5   0  0.2392585E-03  0.1110594E+04  0.7818609E-02  0.9194927E-01
        2   -1    0    0  501    0  0.00000000000E+00  0.00000000000E+00  0.19289489099E+04  0.19289489099E+04  0.25500000920E-02 0. -1.
       -2   -1    0    0    0  501  0.00000000000E+00  0.00000000000E+00 -0.15985633062E+03  0.15985633064E+03  0.25500000920E-02 0.  1.
    10030    2    1    2    0    0  0.00000000000E+00  0.00000000000E+00  0.17690925793E+04  0.20888052406E+04  0.11105938857E+04 0.  0.
        5    1    3    3  502    0  0.17764248638E+03  0.80312762160E+02 -0.93335295146E+02  0.21619565225E+03  0.46999998093E+01 0.  1.
       -5    1    3    3    0  502 -0.17764248638E+03 -0.80312762160E+02  0.18624278744E+04  0.18726095883E+04  0.46999998093E+01 0. -1.
</event>
<event>
 5   0  0.2467448E-03  0.1105228E+04  0.7818609E-02  0.9200112E-01
       -2   -1    0    0    0  501  0.00000000000E+00  0.00000000000E+00  0.26671706703E+03  0.26671706704E+03  0.25500000920E-02 0.  1.
        2   -1    0    0  501    0  0.00000000000E+00  0.00000000000E+00 -0.11449661028E+04  0.11449661028E+04  0.25500000920E-02 0. -1.
    10030    2    1    2    0    0  0.00000000000E+00  0.00000000000E+00 -0.87824903574E+03  0.14116831698E+04  0.11052275798E+04 0.  0.
        1    1    3    3  502    0 -0.50146725297E+03 -0.33232903802E+02 -0.73264342275E+03  0.88844820705E+03  0.50400001928E-02 0. -1.
       -1    1    3    3    0  502  0.50146725297E+03  0.33232903802E+02 -0.14560561299E+03  0.52323496276E+03  0.50400001928E-02 0.  1.
</event>
<event>
 5   0  0.1468556E-03  0.1123575E+04  0.7818609E-02  0.9182514E-01
       -1   -1    0    0    0  501  0.00000000000E+00  0.00000000000E+00  0.53116893118E+03  0.53116893120E+03  0.50400001928E-02 0.  1.
        1   -1    0    0  501    0  0.00000000000E+00  0.00000000000E+00 -0.59417070198E+03  0.59417070200E+03  0.50400001928E-02 0. -1.
    10030    2    1    2    0    0  0.00000000000E+00  0.00000000000E+00 -0.63001770800E+02  0.11253396332E+04  0.11235746824E+04 0.  0.
        5    1    3    3  502    0  0.63673086924E+02 -0.47296044305E+02 -0.58851453418E+03  0.59385404330E+03  0.46999998093E+01 0. -1.
       -5    1    3    3    0  502 -0.63673086924E+02  0.47296044305E+02  0.52551276338E+03  0.53148558990E+03  0.46999998093E+01 0.  1.
</event>
<event>
 5   0  0.2392585E-03  0.1098341E+04  0.7818609E-02  0.9206810E-01
       -2   -1    0    0    0  501  0.00000000000E+00  0.00000000000E+00  0.12038105548E+03  0.12038105551E+03  0.25500000920E-02 0.  1.
        2   -1    0    0  501    0  0.00000000000E+00  0.00000000000E+00 -0.25052810462E+04  0.25052810462E+04  0.25500000920E-02 0. -1.
    10030    2    1    2    0    0  0.00000000000E+00  0.00000000000E+00 -0.23848999907E+04  0.26256621017E+04  0.10983412523E+04 0.  0.
        5    1    3    3  502    0 -0.24749247037E+03 -0.45152907249E+03 -0.73613737594E+03  0.89836036892E+03  0.46999998093E+01 0.  1.
       -5    1    3    3    0  502  0.24749247037E+03  0.45152907249E+03 -0.16487626147E+04  0.17273017327E+04  0.46999998093E+01 0. -1.
</event>
<event>
 5   0  0.9631750E-04  0.1110406E+04  0.7818609E-02  0.9195108E-01
       -4   -1    0    0    0  501  0.00000000000E+00  0.00000000000E+00  0.39306563578E+03  0.39306768747E+03  0.12699999809E+01 0. -1.
        4   -1    0    0  501    0  0.00000000000E+00  0.00000000000E+00 -0.78421692400E+03  0.78421795235E+03  0.12699999809E+01 0.  1.
    10030    2    1    2    0    0  0.00000000000E+00  0.00000000000E+00 -0.39115128822E+03  0.11772856398E+04  0.11104062984E+04 0.  0.
        1    1    3    3  502    0 -0.20279272232E+01 -0.45965106380E+03 -0.52572665793E+03  0.69833497107E+03  0.50400001928E-02 0.  1.
       -1    1    3    3    0  502  0.20279272232E+01  0.45965106380E+03  0.13457536970E+03  0.47895066875E+03  0.50400001928E-02 0. -1.
</event>
<event>
 5   0  0.2392585E-03  0.1081557E+04  0.7818609E-02  0.9223356E-01
       -2   -1    0    0    0  501  0.00000000000E+00  0.00000000000E+00  0.25822450777E+03  0.25822450778E+03  0.25500000920E-02 0.  1.
        2   -1    0    0  501    0  0.00000000000E+00  0.00000000000E+00 -0.11325088474E+04  0.11325088474E+04  0.25500000920E-02 0. -1.
    10030    2    1    2    0    0  0.00000000000E+00  0.00000000000E+00 -0.87428433968E+03  0.13907333552E+04  0.10815572841E+04 0.  0.
        5    1    3    3  502    0  0.37794416563E+02  0.33753935810E+03  0.10392649512E+03  0.35522393300E+03  0.46999998093E+01 0.  1.
       -5    1    3    3    0  502 -0.37794416563E+02 -0.33753935810E+03 -0.97821083480E+03  0.10355094222E+04  0.46999998093E+01 0. -1.
</event>
<event>
 5   0  0.1509004E-03  0.1092966E+04  0.7818609E-02  0.9212075E-01
        1   -1    0    0  501    0  0.00000000000E+00  0.00000000000E+00  0.81000889356E+03  0.81000889358E+03  0.50400001928E-02 0. -1.
       -1   -1    0    0    0  501  0.00000000000E+00  0.00000000000E+00 -0.36869187960E+03  0.36869187964E+03  0.50400001928E-02 0.  1.
    10030    2    1    2    0    0  0.00000000000E+00  0.00000000000E+00  0.44131701396E+03  0.11787007732E+04  0.10929660589E+04 0.  0.
        3    1    3    3  502    0 -0.23861582409E+03  0.19397125673E+03  0.70784869413E+03  0.77175912300E+03  0.10100000352E+00 0. -1.
       -3    1    3    3    0  502  0.23861582409E+03 -0.19397125673E+03 -0.26653168017E+03  0.40694165022E+03  0.10100000352E+00 0.  1.
</event>
<event>
 5   0  0.1415400E-03  0.1086564E+04  0.7818609E-02  0.9218387E-01
        1   -1    0    0  501    0  0.00000000000E+00  0.00000000000E+00  0.46551348323E+03  0.46551348326E+03  0.50400001928E-02 0.  1.
       -1   -1    0    0    0  501  0.00000000000E+00  0.00000000000E+00 -0.63404290024E+03  0.63404290026E+03  0.50400001928E-02 0. -1.
    10030    2    1    2    0    0  0.00000000000E+00  0.00000000000E+00 -0.16852941700E+03  0.10995563835E+04  0.10865643451E+04 0.  0.
        2    1    3    3  502    0 -0.24796700817E+03  0.47467932679E+03  0.81919409391E+01  0.53560732662E+03  0.25500000920E-02 0.  1.
       -2    1    3    3    0  502  0.24796700817E+03 -0.47467932679E+03 -0.17672135794E+03  0.56394905690E+03  0.25500000920E-02 0. -1.
</event>
<event>
 5   0  0.1509004E-03  0.1111507E+04  0.7818609E-02  0.9194049E-01
        1   -1    0    0  501    0  0.00000000000E+00  0.00000000000E+00  0.58781835219E+03  0.58781835221E+03  0.50400001928E-02 0. -1.
       -1   -1    0    0    0  501  0.00000000000E+00  0.00000000000E+00 -0.52543758169E+03  0.52543758172E+03  0.50400001928E-02 0.  1.
    10030    2    1    2    0    0  0.00000000000E+00  0.00000000000E+00  0.62380770500E+02  0.11132559339E+04  0.11115068213E+04 0.  0.
        3    1    3    3  502    0  0.21166043737E+03 -0.16757836148E+03 -0.45535095182E+03  0.52936485292E+03  0.10100000352E+00 0.  1.
       -3    1    3    3    0  502 -0.21166043737E+03  0.16757836148E+03  0.51773172232E+03  0.58389108101E+03  0.10100000352E+00 0. -1.
</event>
<event>
 5   0  0.1509004E-03  0.1104291E+04  0.7818609E-02  0.9201020E-01
       -1   -1    0    0    0  501  0.00000000000E+00  0.00000000000E+00  0.31467509600E+03  0.31467509604E+03  0.50400001928E-02 0. -1.
        1   -1    0    0  501    0  0.00000000000E+00  0.00000000000E+00 -0.96882359627E+03  0.96882359628E+03  0.50400001928E-02 0.  1.
    10030    2    1    2    0    0  0.00000000000E+00  0.00000000000E+00 -0.65414850027E+03  0.12834986923E+04  0.11042910091E+04 0.  0.
        3    1    3    3  502    0 -0.38458401469E+03 -0.39609468101E+03 -0.31743449314E+03  0.63683634344E+03  0.10100000352E+00 0. -1.
       -3    1    3    3    0  502  0.38458401469E+03  0.39609468101E+03 -0.33671400712E+03  0.64666234889E+03  0.10100000352E+00 0.  1.
</event>
<event>
 5   0  0.2488472E-03  0.1092049E+04  0.7818609E-02  0.9212976E-01
       -2   -1    0    0    0  501  0.00000000000E+00  0.00000000000E+00  0.21268203108E+03  0.21268203109E+03  0.25500000920E-02 0.  1.
        2   -1    0    0  501    0  0.00000000000E+00  0.00000000000E+00 -0.14018236085E+04  0.14018236085E+04  0.25500000920E-02 0. -1.
    10030    2    1    2    0    0  0.00000000000E+00  0.00000000000E+00 -0.11891415774E+04  0.16145056396E+04  0.10920488859E+04 0.  0.
        2    1    3    3  502    0 -0.36797483297E+03  0.37422998873E+03 -0.37187786917E+03  0.64323146048E+03  0.25500000920E-02 0. -1.
       -2    1    3    3    0  502  0.36797483297E+03 -0.37422998873E+03 -0.81726370821E+03  0.97127417907E+03  0.25500000920E-02 0.  1.
</event>
<event>
 5   0  0.1468556E-03  0.1099887E+04  0.7818609E-02  0.9205302E-01
       -1   -1    0    0    0  501  0.00000000000E+00  0.00000000000E+00  0.44716075494E+03  0.44716075497E+03  0.50400001928E-02 0.  1.
        1   -1    0    0  501    0  0.00000000000E+00  0.00000000000E+00 -0.67635155212E+03  0.67635155214E+03  0.50400001928E-02 0. -1.
    10030    2    1    2    0    0  0.00000000000E+00  0.00000000000E+00 -0.22919079718E+03  0.11235123071E+04  0.10998870318E+04 0.  0.
        5    1    3    3  502    0 -0.50143728757E+03 -0.66032654763E+02 -0.33514069228E+03  0.60674627191E+03  0.46999998093E+01 0. -1.
       -5    1    3    3    0  502  0.50143728757E+03  0.66032654763E+02  0.10594989510E+03  0.51676603519E+03  0.46999998093E+01 0.  1.
</event>
<event>
 5   0  0.1415400E-03  0.1103422E+04  0.7818609E-02  0.9201863E-01
       -1   -1    0    0    0  501  0.00000000000E+00  0.00000000000E+00  0.34913926401E+03  0.34913926405E+03  0.50400001928E-02 0. -1.
        1   -1    0    0  501    0  0.00000000000E+00  0.00000000000E+00 -0.87181513352E+03  0.87181513354E+03  0.50400001928E-02 0.  1.
    10030    2    1    2    0    0  0.00000000000E+00  0.00000000000E+00 -0.52267586951E+03  0.12209543976E+04  0.11034217582E+04 0.  0.
        2    1    3    3  502    0 -0.51008701980E+03  0.10366013766E+03 -0.58961230376E+02  0.52384216955E+03  0.25500000920E-02 0. -1.
       -2    1    3    3    0  502  0.51008701980E+03 -0.10366013766E+03 -0.46371463914E+03  0.69711222803E+03  0.25500000920E-02 0.  1.
</event>
<event>
 5   0  0.1509004E-03  0.1095962E+04  0.7818609E-02  0.9209137E-01
       -1   -1    0    0    0  501  0.00000000000E+00  0.00000000000E+00  0.41173108842E+03  0.41173108845E+03  0.50400001928E-02 0.  1.
        1   -1    0    0  501    0  0.00000000000E+00  0.00000000000E+00 -0.72931836186E+03  0.72931836187E+03  0.50400001928E-02 0. -1.
    10030    2    1    2    0    0  0.00000000000E+00  0.00000000000E+00 -0.31758727344E+03  0.11410494503E+04  0.10959617566E+04 0.  0.
        3    1    3    3  502    0  0.19155715527E+03  0.31558980688E+03  0.26282553264E+03  0.45317583867E+03  0.10100000352E+00 0.  1.
       -3    1    3    3    0  502 -0.19155715527E+03 -0.31558980688E+03 -0.58041280608E+03  0.68787361165E+03  0.10100000352E+00 0. -1.
</event>
<event>
 5   0  0.2467448E-03  0.1092364E+04  0.7818609E-02  0.9212666E-01
       -2   -1    0    0    0  501  0.00000000000E+00  0.00000000000E+00  0.67839089238E+03  0.67839089239E+03  0.25500000920E-02 0.  1.
        2   -1    0    0  501    0  0.00000000000E+00  0.00000000000E+00 -0.43973906447E+03  0.43973906447E+03  0.25500000920E-02 0. -1.
    10030    2    1    2    0    0  0.00000000000E+00  0.00000000000E+00  0.23865182792E+03  0.11181299569E+04  0.10923643648E+04 0.  0.
        1    1    3    3  502    0  0.39982056596E+03 -0.37004692959E+03  0.15928202634E+03  0.56759314566E+03  0.50400001928E-02 0. -1.
       -1    1    3    3    0  502 -0.39982056596E+03  0.37004692959E+03  0.79369801580E+02  0.55053681120E+03  0.50400001928E-02 0.  1.
</event>
<event>
 5   0  0.2488472E-03  0.1105304E+04  0.7818609E-02  0.9200037E-01
        2   -1    0    0  501    0  0.00000000000E+00  0.00000000000E+00  0.99411241765E+03  0.99411241766E+03  0.25500000920E-02 0.  1.
       -2   -1    0    0    0  501  0.00000000000E+00  0.00000000000E+00 -0.30723335899E+03  0.30723335900E+03  0.25500000920E-02 0. -1.
    10030    2    1    2    0    0  0.00000000000E+00  0.00000000000E+00  0.68687905866E+03  0.13013457767E+04  0.11053044781E+04 0.  0.
        2    1    3    3  502    0 -0.79683988575E+02 -0.49115554732E+03  0.60281175997E+02  0.50121565208E+03  0.25500000920E-02 0. -1.
       -2    1    3    3    0  502  0.79683988575E+02  0.49115554732E+03  0.62659788266E+03  0.80013012458E+03  0.25500000920E-02 0.  1.
</event>
<event>
 5   0  0.1509004E-03  0.1105892E+04  0.7818609E-02  0.9199468E-01
        1   -1    0    0  501    0  0.00000000000E+00  0.00000000000E+00  0.63389210587E+03  0.63389210589E+03  0.50400001928E-02 0.  1.
       -1   -1    0    0    0  501  0.00000000000E+00  0.00000000000E+00 -0.48233682622E+03  0.48233682624E+03  0.50400001928E-02 0. -1.
    10030    2    1    2    0    0  0.00000000000E+00  0.00000000000E+00  0.15155527965E+03  0.11162289321E+04  0.11058924116E+04 0.  0.
        3    1    3    3  502    0  0.36291246639E+03  0.29852744548E+03  0.36992110448E+03  0.59805160957E+03  0.10100000352E+00 0.  1.
       -3    1    3    3    0  502 -0.36291246639E+03 -0.29852744548E+03 -0.21836582483E+03  0.51817732257E+03  0.10100000352E+00 0. -1.
</event>
<event>
 5   0  0.2467448E-03  0.1111278E+04  0.7818609E-02  0.9194268E-01
        2   -1    0    0  501    0  0.00000000000E+00  0.00000000000E+00  0.12737703738E+04  0.12737703738E+04  0.25500000920E-02 0.  1.
       -2   -1    0    0    0  501  0.00000000000E+00  0.00000000000E+00 -0.24237874257E+03  0.24237874259E+03  0.25500000920E-02 0. -1.
    10030    2    1    2    0    0  0.00000000000E+00  0.00000000000E+00  0.10313916312E+04  0.15161491164E+04  0.11112782937E+04 0.  0.
        1    1    3    3  502    0 -0.10087681509E+03  0.49733888031E+03  0.20694493159E+03  0.54804041678E+03  0.50400001928E-02 0. -1.
       -1    1    3    3    0  502  0.10087681509E+03 -0.49733888031E+03  0.82444669963E+03  0.96810869960E+03  0.50400001928E-02 0.  1.
</event>
<event>
 5   0  0.1480937E-03  0.1150273E+04  0.7818609E-02  0.9157532E-01
        1   -1    0    0  501    0  0.00000000000E+00  0.00000000000E+00  0.84650545119E+03  0.84650545120E+03  0.50400001928E-02 0.  1.
       -1   -1    0    0    0  501  0.00000000000E+00  0.00000000000E+00 -0.39076167563E+03  0.39076167566E+03  0.50400001928E-02 0. -1.
    10030    2    1    2    0    0  0.00000000000E+00  0.00000000000E+00  0.45574377556E+03  0.12372671269E+04  0.11502728173E+04 0.  0.
        1    1    3    3  502    0 -0.27208435141E+03  0.46411959442E+03  0.91591403195E+01  0.53807135409E+03  0.50400001928E-02 0. -1.
       -1    1    3    3    0  502  0.27208435141E+03 -0.46411959442E+03  0.44658463524E+03  0.69919577278E+03  0.50400001928E-02 0.  1.
</event>
<event>
 5   0  0.1509004E-03  0.1094301E+04  0.7818609E-02  0.9210765E-01
       -1   -1    0    0    0  501  0.00000000000E+00  0.00000000000E+00  0.50266336401E+03  0.50266336404E+03  0.50400001928E-02 0. -1.
        1   -1    0    0  501    0  0.00000000000E+00  0.00000000000E+00 -0.59557467455E+03  0.59557467458E+03  0.50400001928E-02 0.  1.
    10030    2    1    2    0    0  0.00000000000E+00  0.00000000000E+00 -0.92911310543E+02  0.10982380386E+04  0.10943008169E+04 0.  0.
        3    1    3    3  502    0 -0.24711368254E+02 -0.44406822816E+03 -0.36629700469E+03  0.57617770594E+03  0.10100000352E+00 0.  1.
       -3    1    3    3    0  502  0.24711368254E+02  0.44406822816E+03  0.27338569415E+03  0.52206033267E+03  0.10100000352E+00 0. -1.
</event>
<event>
 5   0  0.2438115E-03  0.1005245E+04  0.7818609E-02  0.9302811E-01
       -2   -1    0    0    0  501  0.00000000000E+00  0.00000000000E+00  0.14646361153E+03  0.14646361155E+03  0.25500000920E-02 0. -1.
        2   -1    0    0  501    0  0.00000000000E+00  0.00000000000E+00 -0.17248596481E+04  0.17248596481E+04  0.25500000920E-02 0.  1.
    10030    2    1    2    0    0  0.00000000000E+00  0.00000000000E+00 -0.15783960366E+04  0.18713232597E+04  0.10052445940E+04 0.  0.
        4    1    3    3  502    0 -0.47040647543E+02 -0.33100952700E+03 -0.90561094982E+02  0.34638570165E+03  0.12699999809E+01 0. -1.
       -4    1    3    3    0  502  0.47040647543E+02  0.33100952700E+03 -0.14878349416E+04  0.15249375580E+04  0.12699999809E+01 0.  1.
</event>
<event>
 5   0  0.2392585E-03  0.1100760E+04  0.7818609E-02  0.9204452E-01
       -2   -1    0    0    0  501  0.00000000000E+00  0.00000000000E+00  0.79160856450E+03  0.79160856451E+03  0.25500000920E-02 0.  1.
        2   -1    0    0  501    0  0.00000000000E+00  0.00000000000E+00 -0.38266141575E+03  0.38266141576E+03  0.25500000920E-02 0. -1.
    10030    2    1    2    0    0  0.00000000000E+00  0.00000000000E+00  0.40894714875E+03  0.11742699803E+04  0.11007598358E+04 0.  0.
        5    1    3    3  502    0  0.11628175027E+03  0.53332956714E+03  0.12953956361E+03  0.56103873411E+03  0.46999998093E+01 0. -1.
       -5    1    3    3    0  502 -0.11628175027E+03 -0.53332956714E+03  0.27940758514E+03  0.61323124616E+03  0.46999998093E+01 0.  1.
</event>
<event>
 5   0  0.9631750E-04  0.1094450E+04  0.7818609E-02  0.9210618E-01
        3   -1    0    0  501    0  0.00000000000E+00  0.00000000000E+00  0.26547827275E+03  0.26547829196E+03  0.10100000352E+00 0. -1.
       -3   -1    0    0    0  501  0.00000000000E+00  0.00000000000E+00 -0.11279840094E+04  0.11279840139E+04  0.10100000352E+00 0.  1.
    10030    2    1    2    0    0  0.00000000000E+00  0.00000000000E+00 -0.86250573667E+03  0.13934623059E+04  0.10944501141E+04 0.  0.
        1    1    3    3  502    0 -0.48032638531E+03  0.14888872428E+03 -0.70602387469E+03  0.86680505323E+03  0.50400001928E-02 0.  1.
       -1    1    3    3    0  502  0.48032638531E+03 -0.14888872428E+03 -0.15648186198E+03  0.52665725268E+03  0.50400001928E-02 0. -1.
</event>
<event>
 5   0  0.2467448E-03  0.1112552E+04  0.7818609E-02  0.9193044E-01
        2   -1    0    0  501    0  0.00000000000E+00  0.00000000000E+00  0.10751445769E+04  0.10751445769E+04  0.25500000920E-02 0. -1.
       -2   -1    0    0    0  501  0.00000000000E+00  0.00000000000E+00 -0.28781512311E+03  0.28781512312E+03  0.25500000920E-02 0.  1.
    10030    2    1    2    0    0  0.00000000000E+00  0.00000000000E+00  0.78732945379E+03  0.13629597000E+04  0.11125517853E+04 0.  0.
        1    1    3    3  502    0  0.27001755447E+03 -0.29741695481E+03  0.86508245951E+03  0.95379976227E+03  0.50400001928E-02 0. -1.
       -1    1    3    3    0  502 -0.27001755447E+03  0.29741695481E+03 -0.77753005726E+02  0.40915993774E+03  0.50400001928E-02 0.  1.
</event>
<event>
 5   0  0.2392585E-03  0.1093768E+04  0.7818609E-02  0.9211287E-01
        2   -1    0    0  501    0  0.00000000000E+00  0.00000000000E+00  0.44094203941E+03  0.44094203942E+03  0.25500000920E-02 0.  1.
       -2   -1    0    0    0  501  0.00000000000E+00  0.00000000000E+00 -0.67828012448E+03  0.67828012448E+03  0.25500000920E-02 0. -1.
    10030    2    1    2    0    0  0.00000000000E+00  0.00000000000E+00 -0.23733808506E+03  0.11192221639E+04  0.10937682047E+04 0.  0.
        5    1    3    3  502    0  0.99824500281E+02  0.28102664406E+03  0.35038610181E+03  0.46014499440E+03  0.46999998093E+01 0.  1.
       -5    1    3    3    0  502 -0.99824500281E+02 -0.28102664406E+03 -0.58772418687E+03  0.65907716950E+03  0.46999998093E+01 0. -1.
</event>
<event>
 5   0  0.2438115E-03  0.1099090E+04  0.7818609E-02  0.9206080E-01
        2   -1    0    0  501    0  0.00000000000E+00  0.00000000000E+00  0.74804711415E+03  0.74804711416E+03  0.25500000920E-02 0. -1.
       -2   -1    0    0    0  501  0.00000000000E+00  0.00000000000E+00 -0.40371724435E+03  0.40371724436E+03  0.25500000920E-02 0.  1.
    10030    2    1    2    0    0  0.00000000000E+00  0.00000000000E+00  0.34432986980E+03  0.11517643585E+04  0.10990896589E+04 0.  0.
        4    1    3    3  502    0 -0.28251441168E+03 -0.36027015100E+03 -0.14635783753E+03  0.48065705447E+03  0.12699999809E+01 0.  1.
       -4    1    3    3    0  502  0.28251441168E+03  0.36027015100E+03  0.49068770733E+03  0.67110730404E+03  0.12699999809E+01 0. -1.
</event>
<event>
 5   0  0.1509004E-03  0.1096512E+04  0.7818609E-02  0.9208598E-01
       -1   -1    0    0    0  501  0.00000000000E+00  0.00000000000E+00  0.58282716895E+03  0.58282716897E+03  0.50400001928E-02 0.  1.
        1   -1    0    0  501    0  0.00000000000E+00  0.00000000000E+00 -0.51573549904E+03  0.51573549906E+03  0.50400001928E-02 0. -1.
    10030    2    1    2    0    0  0.00000000000E+00  0.00000000000E+00  0.67091669913E+02  0.10985626680E+04  0.10965120352E+04 0.  0.
        3    1    3    3  502    0  0.48311712893E+03  0.23363047648E+03 -0.78910644777E+02  0.54241336623E+03  0.10100000352E+00 0. -1.
       -3    1    3    3    0  502 -0.48311712893E+03 -0.23363047648E+03  0.14600231469E+03  0.55614930181E+03  0.10100000352E+00 0.  1.
</event>
<event>
 5   0  0.1509004E-03  0.1099517E+04  0.7818609E-02  0.9205663E-01
        1   -1    0    0  501    0  0.00000000000E+00  0.00000000000E+00  0.15260597952E+04  0.15260597952E+04  0.50400001928E-02 0.  1.
       -1   -1    0    0    0  501  0.00000000000E+00  0.00000000000E+00 -0.19804878116E+03  0.19804878123E+03  0.50400001928E-02 0. -1.
    10030    2    1    2    0    0  0.00000000000E+00  0.00000000000E+00  0.13280110141E+04  0.17241085765E+04  0.10995167711E+04 0.  0.
        3    1    3    3  502    0  0.91260401136E+02 -0.31771385960E+03  0.13528173094E+04  0.13926181243E+04  0.10100000352E+00 0.  1.
       -3    1    3    3    0  502 -0.91260401136E+02  0.31771385960E+03 -0.24806295284E+02  0.33149045218E+03  0.10100000352E+00 0. -1.
</event>
<event>
 5   0  0.2483036E-03  0.1103360E+04  0.7818609E-02  0.9201924E-01
        2   -1    0    0  501    0  0.00000000000E+00  0.00000000000E+00  0.12434124388E+04  0.12434124388E+04  0.25500000920E-02 0. -1.
       -2   -1    0    0    0  501  0.00000000000E+00  0.00000000000E+00 -0.24477042060E+03  0.24477042061E+03  0.25500000920E-02 0.  1.
    10030    2    1    2    0    0  0.00000000000E+00  0.00000000000E+00  0.99864201820E+03  0.14881828594E+04  0.11033595708E+04 0.  0.
        3    1    3    3  502    0  0.20952843105E+02 -0.61369812288E+02 -0.23961189379E+03  0.24823203931E+03  0.10100000352E+00 0.  1.
       -3    1    3    3    0  502 -0.20952843105E+02  0.61369812288E+02  0.12382539120E+04  0.12399508201E+04  0.10100000352E+00 0. -1.
</event>
<event>
 5   0  0.2438115E-03  0.1119228E+04  0.7818609E-02  0.9186651E-01
        2   -1    0    0  501    0  0.00000000000E+00  0.00000000000E+00  0.51419675268E+03  0.51419675269E+03  0.25500000920E-02 0.  1.
       -2   -1    0    0    0  501  0.00000000000E+00  0.00000000000E+00 -0.60904309239E+03  0.60904309239E+03  0.25500000920E-02 0. -1.
    10030    2    1    2    0    0  0.00000000000E+00  0.00000000000E+00 -0.94846339704E+02  0.11232398451E+04  0.11192282705E+04 0.  0.
        4    1    3    3  502    0 -0.48746320757E+03  0.26774394662E+03  0.14921690870E+02  0.55635552432E+03  0.12699999809E+01 0.  1.
       -4    1    3    3    0  502  0.48746320757E+03 -0.26774394662E+03 -0.10976803057E+03  0.56688432076E+03  0.12699999809E+01 0. -1.
</event>
<event>
 5   0  0.1415400E-03  0.1097971E+04  0.7818609E-02  0.9207171E-01
       -1   -1    0    0    0  501  0.00000000000E+00  0.00000000000E+00  0.30911567052E+03  0.30911567056E+03  0.50400001928E-02 0.  1.
        1   -1    0    0  501    0  0.00000000000E+00  0.00000000000E+00 -0.97499190534E+03  0.97499190535E+03  0.50400001928E-02 0. -1.
    10030    2    1    2    0    0  0.00000000000E+00  0.00000000000E+00 -0.66587623483E+03  0.12841075759E+04  0.10979713596E+04 0.  0.
        2    1    3    3  502    0 -0.26257440785E+03  0.32590535581E+03  0.82574498660E+02  0.42658899240E+03  0.25500000920E-02 0.  1.
       -2    1    3    3    0  502  0.26257440785E+03 -0.32590535581E+03 -0.74845073348E+03  0.85751858351E+03  0.25500000920E-02 0. -1.
</event>
<event>
 5   0  0.1480937E-03  0.1106435E+04  0.7818609E-02  0.9198942E-01
       -1   -1    0    0    0  501  0.00000000000E+00  0.00000000000E+00  0.40730856935E+03  0.40730856938E+03  0.50400001928E-02 0. -1.
        1   -1    0    0  501    0  0.00000000000E+00  0.00000000000E+00 -0.75139543396E+03  0.75139543398E+03  0.50400001928E-02 0.  1.
    10030    2    1    2    0    0  0.00000000000E+00  0.00000000000E+00 -0.34408686461E+03  0.11587040034E+04  0.11064353560E+04 0.  0.
        1    1    3    3  502    0  0.35552495085E+03 -0.33379373597E+02  0.27045459624E+03  0.44794850364E+03  0.50400001928E-02 0. -1.
       -1    1    3    3    0  502 -0.35552495085E+03  0.33379373597E+02 -0.61454146085E+03  0.71075549973E+03  0.50400001928E-02 0.  1.
</event>
<event>
 5   0  0.1415400E-03  0.1100532E+04  0.7818609E-02  0.9204674E-01
        1   -1    0    0  501    0  0.00000000000E+00  0.00000000000E+00  0.62800756050E+03  0.62800756052E+03  0.50400001928E-02 0. -1.
       -1   -1    0    0    0  501  0.00000000000E+00  0.00000000000E+00 -0.48214796992E+03  0.48214796995E+03  0.50400001928E-02 0.  1.
    10030    2    1    2    0    0  0.00000000000E+00  0.00000000000E+00  0.14585959058E+03  0.11101555305E+04  0.11005318176E+04 0.  0.
        2    1    3    3  502    0  0.28699306453E+03 -0.17598093225E+03 -0.36614448606E+03  0.49738927641E+03  0.25500000920E-02 0.  1.
       -2    1    3    3    0  502 -0.28699306453E+03  0.17598093225E+03  0.51200407664E+03  0.61276625405E+03  0.25500000920E-02 0. -1.
</event>
<event>
 5   0  0.9631750E-04  0.1113074E+04  0.7818609E-02  0.9192542E-01
       -3   -1    0    0    0  501  0.00000000000E+00  0.00000000000E+00  0.29561755521E+03  0.29561757247E+03  0.10100000352E+00 0. -1.
        3   -1    0    0  501    0  0.00000000000E+00  0.00000000000E+00 -0.10477502352E+04  0.10477502400E+04  0.10100000352E+00 0.  1.
    10030    2    1    2    0    0  0.00000000000E+00  0.00000000000E+00 -0.75213267994E+03  0.13433678125E+04  0.11130739020E+04 0.  0.
        3    1    3    3  502    0 -0.34265377994E+03 -0.25917264947E+03  0.50895054052E+02  0.43263424722E+03  0.10100000352E+00 0. -1.
       -3    1    3    3    0  502  0.34265377994E+03  0.25917264947E+03 -0.80302773399E+03  0.91073356527E+03  0.10100000352E+00 0.  1.
</event>
<event>
 5   0  0.2438115E-03  0.1100356E+04  0.7818609E-02  0.9204845E-01
        2   -1    0    0  501    0  0.00000000000E+00  0.00000000000E+00  0.35614007459E+03  0.35614007460E+03  0.25500000920E-02 0.  1.
       -2   -1    0    0    0  501  0.00000000000E+00  0.00000000000E+00 -0.84993504725E+03  0.84993504725E+03  0.25500000920E-02 0. -1.
    10030    2    1    2    0    0  0.00000000000E+00  0.00000000000E+00 -0.49379497266E+03  0.12060751218E+04  0.11003561808E+04 0.  0.
        4    1    3    3  502    0 -0.31227506740E+02  0.25780032253E+03  0.28473733039E+03  0.38537400495E+03  0.12699999809E+01 0.  1.
       -4    1    3    3    0  502  0.31227506740E+02 -0.25780032253E+03 -0.77853230305E+03  0.82070111690E+03  0.12699999809E+01 0. -1.
</event>
<event>
 5   0  0.2438115E-03  0.1098864E+04  0.7818609E-02  0.9206300E-01
        2   -1    0    0  501    0  0.00000000000E+00  0.00000000000E+00  0.16137679993E+04  0.16137679994E+04  0.25500000920E-02 0. -1.
       -2   -1    0    0    0  501  0.00000000000E+00  0.00000000000E+00 -0.18706247342E+03  0.18706247344E+03  0.25500000920E-02 0.  1.
    10030    2    1    2    0    0  0.00000000000E+00  0.00000000000E+00  0.14267055259E+04  0.18008304728E+04  0.10988638378E+04 0.  0.
        4    1    3    3  502    0 -0.40926080273E+03 -0.25609264658E+03  0.11431963542E+04  0.12409582448E+04  0.12699999809E+01 0. -1.
       -4    1    3    3    0  502  0.40926080273E+03  0.25609264658E+03  0.28350917177E+03  0.55987222798E+03  0.12699999809E+01 0.  1.
</event>
<event>
 5   0  0.2392585E-03  0.1102059E+04  0.7818609E-02  0.9203187E-01
       -2   -1    0    0    0  501  0.00000000000E+00  0.00000000000E+00  0.12427871623E+03  0.12427871626E+03  0.25500000920E-02 0.  1.
        2   -1    0    0  501    0  0.00000000000E+00  0.00000000000E+00 -0.24431661377E+04  0.24431661377E+04  0.25500000920E-02 0. -1.
    10030    2    1    2    0    0  0.00000000000E+00  0.00000000000E+00 -0.23188874214E+04  0.25674448539E+04  0.11020590749E+04 0.  0.
        5    1    3    3  502    0 -0.27582944480E+03  0.15391395563E+03 -0.10762466152E+03  0.33373124834E+03  0.46999998093E+01 0.  1.
       -5    1    3    3    0  502  0.27582944480E+03 -0.15391395563E+03 -0.22112627599E+04  0.22337136056E+04  0.46999998093E+01 0. -1.
</event>
<event>
 5   0  0.1509004E-03  0.1100544E+04  0.7818609E-02  0.9204662E-01
        1   -1    0    0  501    0  0.00000000000E+00  0.00000000000E+00  0.60710344232E+03  0.60710344234E+03  0.50400001928E-02 0. -1.
       -1   -1    0    0    0  501  0.00000000000E+00  0.00000000000E+00 -0.49876032819E+03  0.49876032821E+03  0.50400001928E-02 0.  1.
    10030    2    1    2    0    0  0.00000000000E+00  0.00000000000E+00  0.10834311413E+03  0.11058637706E+04  0.11005437059E+04 0.  0.
        3    1    3    3  502    0  0.58735051344E+02 -0.40310665281E+03  0.42589811892E+03  0.58935048799E+03  0.10100000352E+00 0. -1.
       -3    1    3    3    0  502 -0.58735051344E+02  0.40310665281E+03 -0.31755500478E+03  0.51651328256E+03  0.10100000352E+00 0.  1.
</event>
<event>
 5   0  0.1415400E-03  0.1065143E+04  0.7818609E-02  0.9239848E-01
        1   -1    0    0  501    0  0.00000000000E+00  0.00000000000E+00  0.65967467180E+03  0.65967467182E+03  0.50400001928E-02 0.  1.
       -1   -1    0    0    0  501  0.00000000000E+00  0.00000000000E+00 -0.42995770525E+03  0.42995770528E+03  0.50400001928E-02 0. -1.
    10030    2    1    2    0    0  0.00000000000E+00  0.00000000000E+00  0.22971696656E+03  0.10896323771E+04  0.10651426348E+04 0.  0.
        2    1    3    3  502    0  0.16279680316E+03  0.20969516942E+03 -0.35744634101E+03  0.44524459559E+03  0.25500000920E-02 0. -1.
       -2    1    3    3    0  502 -0.16279680316E+03 -0.20969516942E+03  0.58716330757E+03  0.64438778151E+03  0.25500000920E-02 0.  1.
</event>
<event>
 5   0  0.2467448E-03  0.1088372E+04  0.7818609E-02  0.9216600E-01
        2   -1    0    0  501    0  0.00000000000E+00  0.00000000000E+00  0.54140018279E+03  0.54140018280E+03  0.25500000920E-02 0.  1.
       -2   -1    0    0    0  501  0.00000000000E+00  0.00000000000E+00 -0.54698588098E+03  0.54698588099E+03  0.25500000920E-02 0. -1.
    10030    2    1    2    0    0  0.00000000000E+00  0.00000000000E+00 -0.55856981896E+01  0.10883860638E+04  0.10883717305E+04 0.  0.
        1    1    3    3  502    0 -0.42172519996E+03 -0.91440453371E+02  0.32876054096E+03  0.54249146916E+03  0.50400001928E-02 0.  1.
       -1    1    3    3    0  502  0.42172519996E+03  0.91440453371E+02 -0.33434623915E+03  0.54589459463E+03  0.50400001928E-02 0. -1.
</event>
<event>
 5   0  0.1415400E-03  0.1101648E+04  0.7818609E-02  0.9203587E-01
       -1   -1    0    0    0  501  0.00000000000E+00  0.00000000000E+00  0.38638093942E+03  0.38638093945E+03  0.50400001928E-02 0. -1.
        1   -1    0    0  501    0  0.00000000000E+00  0.00000000000E+00 -0.78525362169E+03  0.78525362171E+03  0.50400001928E-02 0.  1.
    10030    2    1    2    0    0  0.00000000000E+00  0.00000000000E+00 -0.39887268227E+03  0.11716345612E+04  0.11016479148E+04 0.  0.
        2    1    3    3  502    0 -0.50702166586E+03  0.21385338584E+03 -0.22554791277E+03  0.59470673550E+03  0.25500000920E-02 0.  1.
       -2    1    3    3    0  502  0.50702166586E+03 -0.21385338584E+03 -0.17332476950E+03  0.57692782566E+03  0.25500000920E-02 0. -1.
</event>
<event>
 5   0  0.2438115E-03  0.9969820E+03  0.7818609E-02  0.9311861E-01
       -2   -1    0    0    0  501  0.00000000000E+00  0.00000000000E+00  0.26857138283E+03  0.26857138284E+03  0.25500000920E-02 0. -1.
        2   -1    0    0  501    0  0.00000000000E+00  0.00000000000E+00 -0.92524113125E+03  0.92524113126E+03  0.25500000920E-02 0.  1.
    10030    2    1    2    0    0  0.00000000000E+00  0.00000000000E+00 -0.65666974842E+03  0.11938125141E+04  0.99698202608E+03 0.  0.
        4    1    3    3  502    0 -0.16890125291E+03  0.31705274074E+03  0.85499547083E+02  0.36927206650E+03  0.12699999809E+01 0. -1.
       -4    1    3    3    0  502  0.16890125291E+03 -0.31705274074E+03 -0.74216929551E+03  0.82454044760E+03  0.12699999809E+01 0.  1.
</event>
<event>
 5   0  0.9631750E-04  0.1101164E+04  0.7818609E-02  0.9204058E-01
       -3   -1    0    0    0  501  0.00000000000E+00  0.00000000000E+00  0.36568474657E+03  0.36568476052E+03  0.10100000352E+00 0.  1.
        3   -1    0    0  501    0  0.00000000000E+00  0.00000000000E+00 -0.82896753401E+03  0.82896754016E+03  0.10100000352E+00 0. -1.
    10030    2    1    2    0    0  0.00000000000E+00  0.00000000000E+00 -0.46328278744E+03  0.11946523007E+04  0.11011644647E+04 0.  0.
        4    1    3    3  502    0  0.40501163352E+03 -0.29478642963E+03 -0.47952532654E+03  0.69345483924E+03  0.12699999809E+01 0. -1.
       -4    1    3    3    0  502 -0.40501163352E+03  0.29478642963E+03  0.16242539100E+02  0.50119746144E+03  0.12699999809E+01 0.  1.
</event>
<event>
 5   0  0.2488472E-03  0.1104438E+04  0.7818609E-02  0.9200877E-01
        2   -1    0    0  501    0  0.00000000000E+00  0.00000000000E+00  0.33441868246E+03  0.33441868247E+03  0.25500000920E-02 0. -1.
       -2   -1    0    0    0  501  0.00000000000E+00  0.00000000000E+00 -0.91186785796E+03  0.91186785796E+03  0.25500000920E-02 0.  1.
    10030    2    1    2    0    0  0.00000000000E+00  0.00000000000E+00 -0.57744917550E+03  0.12462865404E+04  0.11044376807E+04 0.  0.
        2    1    3    3  502    0  0.14640585849E+03 -0.15004134223E+03  0.28777068660E+03  0.35603236910E+03  0.25500000920E-02 0. -1.
       -2    1    3    3    0  502 -0.14640585849E+03  0.15004134223E+03 -0.86521986210E+03  0.89025417132E+03  0.25500000920E-02 0.  1.
</event>
<event>
 5   0  0.1479573E-03  0.1105208E+04  0.7818609E-02  0.9200130E-01
        1   -1    0    0  501    0  0.00000000000E+00  0.00000000000E+00  0.10503769424E+04  0.10503769424E+04  0.50400001928E-02 0.  1.
       -1   -1    0    0    0  501  0.00000000000E+00  0.00000000000E+00 -0.29072542060E+03  0.29072542064E+03  0.50400001928E-02 0. -1.
    10030    2    1    2    0    0  0.00000000000E+00  0.00000000000E+00  0.75965152176E+03  0.13411023630E+04  0.11052081766E+04 0.  0.
        4    1    3    3  502    0 -0.10375714369E+03  0.18211167990E+03  0.10002709260E+04  0.10219949839E+04  0.12699999809E+01 0.  1.
       -4    1    3    3    0  502  0.10375714369E+03 -0.18211167990E+03 -0.24061940422E+03  0.31910737912E+03  0.12699999809E+01 0. -1.
</event>
<event>
 5   0  0.2438115E-03  0.1100296E+04  0.7818609E-02  0.9204904E-01
       -2   -1    0    0    0  501  0.00000000000E+00  0.00000000000E+00  0.42770917105E+03  0.42770917105E+03  0.25500000920E-02 0.  1.
        2   -1    0    0  501    0  0.00000000000E+00  0.00000000000E+00 -0.70763661599E+03  0.70763661600E+03  0.25500000920E-02 0. -1.
    10030    2    1    2    0    0  0.00000000000E+00  0.00000000000E+00 -0.27992744495E+03  0.11353457871E+04  0.11002957247E+04 0.  0.
        4    1    3    3  502    0 -0.20574502130E+03  0.49041207068E+03 -0.28525407167E+03  0.60349524535E+03  0.12699999809E+01 0. -1.
       -4    1    3    3    0  502  0.20574502130E+03 -0.49041207068E+03  0.53266267173E+01  0.53185054170E+03  0.12699999809E+01 0.  1.
</event>
<event>
 5   0  0.1509004E-03  0.1096785E+04  0.7818609E-02  0.9208332E-01
        1   -1    0    0  501    0  0.00000000000E+00  0.00000000000E+00  0.48987406858E+03  0.48987406861E+03  0.50400001928E-02 0. -1.
       -1   -1    0    0    0  501  0.00000000000E+00  0.00000000000E+00 -0.61390083987E+03  0.61390083989E+03  0.50400001928E-02 0.  1.
    10030    2    1    2    0    0  0.00000000000E+00  0.00000000000E+00 -0.12402677128E+03  0.11037749085E+04  0.10967845771E+04 0.  0.
        3    1    3    3  502    0  0.50842324038E+02  0.37530418453E+03  0.33711986596E+03  0.50703844733E+03  0.10100000352E+00 0. -1.
       -3    1    3    3    0  502 -0.50842324038E+02 -0.37530418453E+03 -0.46114663725E+03  0.59673646117E+03  0.10100000352E+00 0.  1.
</event>
<event>
 5   0  0.2392585E-03  0.1092514E+04  0.7818609E-02  0.9212519E-01
       -2   -1    0    0    0  501  0.00000000000E+00  0.00000000000E+00  0.87787235351E+03  0.87787235352E+03  0.25500000920E-02 0.  1.
        2   -1    0    0  501    0  0.00000000000E+00  0.00000000000E+00 -0.33990877246E+03  0.33990877247E+03  0.25500000920E-02 0. -1.
    10030    2    1    2    0    0  0.00000000000E+00  0.00000000000E+00  0.53796358105E+03  0.12177811260E+04  0.10925136412E+04 0.  0.
        5    1    3    3  502    0 -0.54196308779E+03  0.67304401512E+02  0.25674319664E+03  0.60348407602E+03  0.46999998093E+01 0.  1.
       -5    1    3    3    0  502  0.54196308779E+03 -0.67304401512E+02  0.28122038441E+03  0.61429704997E+03  0.46999998093E+01 0. -1.
</event>
<event>
 5   0  0.2392585E-03  0.1091993E+04  0.7818609E-02  0.9213031E-01
        2   -1    0    0  501    0  0.00000000000E+00  0.00000000000E+00  0.78739939188E+03  0.78739939188E+03  0.25500000920E-02 0. -1.
       -2   -1    0    0    0  501  0.00000000000E+00  0.00000000000E+00 -0.37860369405E+03  0.37860369406E+03  0.25500000920E-02 0.  1.
    10030    2    1    2    0    0  0.00000000000E+00  0.00000000000E+00  0.40879569783E+03  0.11660030859E+04  0.10919932572E+04 0.  0.
        5    1    3    3  502    0  0.30416845962E+03 -0.13377983564E+03 -0.25817767090E+03  0.42082454301E+03  0.46999998093E+01 0.  1.
       -5    1    3    3    0  502 -0.30416845962E+03  0.13377983564E+03  0.66697336873E+03  0.74517854293E+03  0.46999998093E+01 0. -1.
</event>
<event>
 5   0  0.2467448E-03  0.1039306E+04  0.7818609E-02  0.9266455E-01
        2   -1    0    0  501    0  0.00000000000E+00  0.00000000000E+00  0.59918655943E+03  0.59918655943E+03  0.25500000920E-02 0.  1.
       -2   -1    0    0    0  501  0.00000000000E+00  0.00000000000E+00 -0.45067608430E+03  0.45067608431E+03  0.25500000920E-02 0. -1.
    10030    2    1    2    0    0  0.00000000000E+00  0.00000000000E+00  0.14851047513E+03  0.10498626437E+04  0.10393056382E+04 0.  0.
        1    1    3    3  502    0  0.45792815551E+03  0.14167347389E+03  0.27696619713E+03  0.55360621672E+03  0.50400001928E-02 0. -1.
       -1    1    3    3    0  502 -0.45792815551E+03 -0.14167347389E+03 -0.12845572201E+03  0.49625642702E+03  0.50400001928E-02 0.  1.
</event>
<event>
 5   0  0.1415400E-03  0.1102899E+04  0.7818609E-02  0.9202371E-01
        1   -1    0    0  501    0  0.00000000000E+00  0.00000000000E+00  0.43247918370E+03  0.43247918373E+03  0.50400001928E-02 0.  1.
       -1   -1    0    0    0  501  0.00000000000E+00  0.00000000000E+00 -0.70314765373E+03  0.70314765375E+03  0.50400001928E-02 0. -1.
    10030    2    1    2    0    0  0.00000000000E+00  0.00000000000E+00 -0.27066847004E+03  0.11356268375E+04  0.11028993124E+04 0.  0.
        2    1    3    3  502    0  0.49732420413E+02  0.52183071904E+03 -0.31163449602E+03  0.60983331501E+03  0.25500000920E-02 0. -1.
       -2    1    3    3    0  502 -0.49732420413E+02 -0.52183071904E+03  0.40966025982E+02  0.52579352247E+03  0.25500000920E-02 0.  1.
</event>
<event>
 5   0  0.1509004E-03  0.1106383E+04  0.7818609E-02  0.9198992E-01
        1   -1    0    0  501    0  0.00000000000E+00  0.00000000000E+00  0.15135607957E+04  0.15135607958E+04  0.50400001928E-02 0.  1.
       -1   -1    0    0    0  501  0.00000000000E+00  0.00000000000E+00 -0.20218617656E+03  0.20218617663E+03  0.50400001928E-02 0. -1.
    10030    2    1    2    0    0  0.00000000000E+00  0.00000000000E+00  0.13113746192E+04  0.17157469724E+04  0.11063834242E+04 0.  0.
        3    1    3    3  502    0 -0.14738982865E+02 -0.55026723295E+03  0.74076506625E+03  0.92289986393E+03  0.10100000352E+00 0.  1.
       -3    1    3    3    0  502  0.14738982865E+02  0.55026723295E+03  0.57060955293E+03  0.79284710845E+03  0.10100000352E+00 0. -1.
</event>
<event>
 5   0  0.1480937E-03  0.1096396E+04  0.7818609E-02  0.9208712E-01
        1   -1    0    0  501    0  0.00000000000E+00  0.00000000000E+00  0.17397326658E+04  0.17397326658E+04  0.50400001928E-02 0. -1.
       -1   -1    0    0    0  501  0.00000000000E+00  0.00000000000E+00 -0.17273972313E+03  0.17273972321E+03  0.50400001928E-02 0.  1.
    10030    2    1    2    0    0  0.00000000000E+00  0.00000000000E+00  0.15669929427E+04  0.19124723890E+04  0.10963958028E+04 0.  0.
        1    1    3    3  502    0 -0.29792565452E+03 -0.32856964680E+03  0.13454924974E+04  0.14167101923E+04  0.50400001928E-02 0. -1.
       -1    1    3    3    0  502  0.29792565452E+03  0.32856964680E+03  0.22150044530E+03  0.49576219674E+03  0.50400001928E-02 0.  1.
</event>
<event>
 5   0  0.2438115E-03  0.1123106E+04  0.7818609E-02  0.9182959E-01
        2   -1    0    0  501    0  0.00000000000E+00  0.00000000000E+00  0.14119082562E+03  0.14119082565E+03  0.25500000920E-02 0. -1.
       -2   -1    0    0    0  501  0.00000000000E+00  0.00000000000E+00 -0.22334430026E+04  0.22334430026E+04  0.25500000920E-02 0.  1.
    10030    2    1    2    0    0  0.00000000000E+00  0.00000000000E+00 -0.20922521770E+04  0.23746338282E+04  0.11231058036E+04 0.  0.
        4    1    3    3  502    0 -0.40006128914E+03 -0.31665236545E+03 -0.15420845699E+04  0.16242980605E+04  0.12699999809E+01 0.  1.
       -4    1    3    3    0  502  0.40006128914E+03  0.31665236545E+03 -0.55016760702E+03  0.75033576772E+03  0.12699999809E+01 0. -1.
</event>
<event>
 5   0  0.1468556E-03  0.1096552E+04  0.7818609E-02  0.9208559E-01
       -1   -1    0    0    0  501  0.00000000000E+00  0.00000000000E+00  0.34464310975E+03  0.34464310979E+03  0.50400001928E-02 0.  1.
        1   -1    0    0  501    0  0.00000000000E+00  0.00000000000E+00 -0.87222574422E+03  0.87222574423E+03  0.50400001928E-02 0. -1.
    10030    2    1    2    0    0  0.00000000000E+00  0.00000000000E+00 -0.52758263447E+03  0.12168688540E+04  0.10965520378E+04 0.  0.
        5    1    3    3  502    0  0.11090157153E+03 -0.58760169275E+02 -0.85604717678E+03  0.86521140476E+03  0.46999998093E+01 0. -1.
       -5    1    3    3    0  502 -0.11090157153E+03  0.58760169275E+02  0.32846454231E+03  0.35165744926E+03  0.46999998093E+01 0.  1.
</event>
<event>
 5   0  0.1479573E-03  0.1100613E+04  0.7818609E-02  0.9204595E-01
       -1   -1    0    0    0  501  0.00000000000E+00  0.00000000000E+00  0.25521469803E+03  0.25521469808E+03  0.50400001928E-02 0. -1.
        1   -1    0    0  501    0  0.00000000000E+00  0.00000000000E+00 -0.11865972005E+04  0.11865972005E+04  0.50400001928E-02 0.  1.
    10030    2    1    2    0    0  0.00000000000E+00  0.00000000000E+00 -0.93138250246E+03  0.14418118986E+04  0.11006126408E+04 0.  0.
        4    1    3    3  502    0  0.24226399868E+03 -0.19338269029E+03 -0.10613443788E+04  0.11056863087E+04  0.12699999809E+01 0.  1.
       -4    1    3    3    0  502 -0.24226399868E+03  0.19338269029E+03  0.12996187634E+03  0.33612558987E+03  0.12699999809E+01 0. -1.
</event>
<event>
 5   0  0.1415400E-03  0.1102197E+04  0.7818609E-02  0.9203053E-01
       -1   -1    0    0    0  501  0.00000000000E+00  0.00000000000E+00  0.35530129034E+03  0.35530129038E+03  0.50400001928E-02 0. -1.
        1   -1    0    0  501    0  0.00000000000E+00  0.00000000000E+00 -0.85479426517E+03  0.85479426518E+03  0.50400001928E-02 0.  1.
    10030    2    1    2    0    0  0.00000000000E+00  0.00000000000E+00 -0.49949297483E+03  0.12100955556E+04  0.11021969069E+04 0.  0.
        2    1    3    3  502    0 -0.17502829023E+02  0.12185017801E+03 -0.83950646844E+03  0.84848389818E+03  0.25500000920E-02 0.  1.
       -2    1    3    3    0  502  0.17502829023E+02 -0.12185017801E+03  0.34001349362E+03  0.36161165738E+03  0.25500000920E-02 0. -1.
</event>
<event>
 5   0  0.2483036E-03  0.1097569E+04  0.7818609E-02  0.9207564E-01
       -2   -1    0    0    0  501  0.00000000000E+00  0.00000000000E+00  0.25834304274E+03  0.25834304275E+03  0.25500000920E-02 0.  1.
        2   -1    0    0  501    0  0.00000000000E+00  0.00000000000E+00 -0.11657547609E+04  0.11657547609E+04  0.25500000920E-02 0. -1.
    10030    2    1    2    0    0  0.00000000000E+00  0.00000000000E+00 -0.90741171815E+03  0.14240978037E+04  0.10975693728E+04 0.  0.
        3    1    3    3  502    0 -0.53170745275E+03  0.12414867279E+03 -0.52523236504E+03  0.75762441602E+03  0.10100000352E+00 0. -1.
       -3    1    3    3    0  502  0.53170745275E+03 -0.12414867279E+03 -0.38217935311E+03  0.66647338763E+03  0.10100000352E+00 0.  1.
</event>
<event>
 5   0  0.2438115E-03  0.1109804E+04  0.7818609E-02  0.9195688E-01
        2   -1    0    0  501    0  0.00000000000E+00  0.00000000000E+00  0.10010468884E+04  0.10010468884E+04  0.25500000920E-02 0.  1.
       -2   -1    0    0    0  501  0.00000000000E+00  0.00000000000E+00 -0.30759437287E+03  0.30759437288E+03  0.25500000920E-02 0. -1.
    10030    2    1    2    0    0  0.00000000000E+00  0.00000000000E+00  0.69345251553E+03  0.13086412613E+04  0.11098042888E+04 0.  0.
        4    1    3    3  502    0 -0.18949939625E+03  0.47354953812E+02  0.95916803717E+03  0.97885517277E+03  0.12699999809E+01 0.  1.
       -4    1    3    3    0  502  0.18949939625E+03 -0.47354953812E+02 -0.26571552164E+03  0.32978608851E+03  0.12699999809E+01 0. -1.
</event>
<event>
 5   0  0.2467448E-03  0.1109817E+04  0.7818609E-02  0.9195676E-01
        2   -1    0    0  501    0  0.00000000000E+00  0.00000000000E+00  0.16696701119E+04  0.16696701119E+04  0.25500000920E-02 0.  1.
       -2   -1    0    0    0  501  0.00000000000E+00  0.00000000000E+00 -0.18442164039E+03  0.18442164040E+03  0.25500000920E-02 0. -1.
    10030    2    1    2    0    0  0.00000000000E+00  0.00000000000E+00  0.14852484715E+04  0.18540917523E+04  0.11098167434E+04 0.  0.
        1    1    3    3  502    0 -0.23265464649E+02  0.28806915370E+03 -0.48764047796E+02  0.29309222361E+03  0.50400001928E-02 0. -1.
       -1    1    3    3    0  502  0.23265464649E+02 -0.28806915370E+03  0.15340125193E+04  0.15609995287E+04  0.50400001928E-02 0.  1.
</event>
<event>
 5   0  0.2483036E-03  0.1098164E+04  0.7818609E-02  0.9206984E-01
        2   -1    0    0  501    0  0.00000000000E+00  0.00000000000E+00  0.47864109697E+03  0.47864109697E+03  0.25500000920E-02 0. -1.
       -2   -1    0    0    0  501  0.00000000000E+00  0.00000000000E+00 -0.62988907178E+03  0.62988907179E+03  0.25500000920E-02 0.  1.
    10030    2    1    2    0    0  0.00000000000E+00  0.00000000000E+00 -0.15124797482E+03  0.11085301688E+04  0.10981635512E+04 0.  0.
        3    1    3    3  502    0  0.30754583600E+03 -0.43395006849E+03 -0.21326986276E+03  0.57304550234E+03  0.10100000352E+00 0. -1.
       -3    1    3    3    0  502 -0.30754583600E+03  0.43395006849E+03  0.62021887942E+02  0.53548466642E+03  0.10100000352E+00 0.  1.
</event>
<event>
 5   0  0.1468556E-03  0.1084916E+04  0.7818609E-02  0.9220020E-01
       -1   -1    0    0    0  501  0.00000000000E+00  0.00000000000E+00  0.46038657002E+03  0.46038657005E+03  0.50400001928E-02 0. -1.
        1   -1    0    0  501    0  0.00000000000E+00  0.00000000000E+00 -0.63915944432E+03  0.63915944434E+03  0.50400001928E-02 0.  1.
    10030    2    1    2    0    0  0.00000000000E+00  0.00000000000E+00 -0.17877287430E+03  0.10995460144E+04  0.10849155254E+04 0.  0.
        5    1    3    3  502    0 -0.27993751830E+01 -0.50203007084E+03 -0.29757396106E+03  0.58362177892E+03  0.46999998093E+01 0.  1.
       -5    1    3    3    0  502  0.27993751830E+01  0.50203007084E+03  0.11880108676E+03  0.51592423547E+03  0.46999998093E+01 0. -1.
</event>
<event>
 5   0  0.1479573E-03  0.1093057E+04  0.7818609E-02  0.9211985E-01
       -1   -1    0    0    0  501  0.00000000000E+00  0.00000000000E+00  0.28542471939E+03  0.28542471943E+03  0.50400001928E-02 0. -1.
        1   -1    0    0  501    0  0.00000000000E+00  0.00000000000E+00 -0.10464878904E+04  0.10464878905E+04  0.50400001928E-02 0.  1.
    10030    2    1    2    0    0  0.00000000000E+00  0.00000000000E+00 -0.76106317105E+03  0.13319126099E+04  0.10930572035E+04 0.  0.
        4    1    3    3  502    0 -0.38631839710E+03 -0.19052790515E+03 -0.79041317992E+03  0.90016520399E+03  0.12699999809E+01 0.  1.
       -4    1    3    3    0  502  0.38631839710E+03  0.19052790515E+03  0.29350008868E+02  0.43174740590E+03  0.12699999809E+01 0. -1.
</event>
<event>
 5   0  0.1468556E-03  0.1106883E+04  0.7818609E-02  0.9198509E-01
        1   -1    0    0  501    0  0.00000000000E+00  0.00000000000E+00  0.10633549226E+04  0.10633549226E+04  0.50400001928E-02 0.  1.
       -1   -1    0    0    0  501  0.00000000000E+00  0.00000000000E+00 -0.28804827455E+03  0.28804827459E+03  0.50400001928E-02 0. -1.
    10030    2    1    2    0    0  0.00000000000E+00  0.00000000000E+00  0.77530664808E+03  0.13514031972E+04  0.11068831027E+04 0.  0.
        5    1    3    3  502    0  0.51639450581E+03 -0.18282715448E+03  0.48368232658E+03  0.73079390877E+03  0.46999998093E+01 0. -1.
       -5    1    3    3    0  502 -0.51639450581E+03  0.18282715448E+03  0.29162432151E+03  0.62060928847E+03  0.46999998093E+01 0.  1.
</event>
<event>
 5   0  0.1480937E-03  0.1044957E+04  0.7818609E-02  0.9260566E-01
       -1   -1    0    0    0  501  0.00000000000E+00  0.00000000000E+00  0.49078774204E+03  0.49078774207E+03  0.50400001928E-02 0. -1.
        1   -1    0    0  501    0  0.00000000000E+00  0.00000000000E+00 -0.55621534772E+03  0.55621534775E+03  0.50400001928E-02 0.  1.
    10030    2    1    2    0    0  0.00000000000E+00  0.00000000000E+00 -0.65427605678E+02  0.10470030898E+04  0.10449567926E+04 0.  0.
        1    1    3    3  502    0  0.22294890376E+03  0.35459813068E+03  0.28020792658E+03  0.50394695169E+03  0.50400001928E-02 0. -1.
       -1    1    3    3    0  502 -0.22294890376E+03 -0.35459813068E+03 -0.34563553226E+03  0.54305613813E+03  0.50400001928E-02 0.  1.
</event>
<event>
 5   0  0.2438115E-03  0.1093445E+04  0.7818609E-02  0.9211605E-01
        2   -1    0    0  501    0  0.00000000000E+00  0.00000000000E+00  0.26969737339E+03  0.26969737340E+03  0.25500000920E-02 0. -1.
       -2   -1    0    0    0  501  0.00000000000E+00  0.00000000000E+00 -0.11082992199E+04  0.11082992199E+04  0.25500000920E-02 0.  1.
    10030    2    1    2    0    0  0.00000000000E+00  0.00000000000E+00 -0.83860184656E+03  0.13779965933E+04  0.10934448108E+04 0.  0.
        4    1    3    3  502    0  0.21636291442E+03 -0.14378254071E+03 -0.10255475346E+04  0.10579393595E+04  0.12699999809E+01 0.  1.
       -4    1    3    3    0  502 -0.21636291442E+03  0.14378254071E+03  0.18694568805E+03  0.32005723384E+03  0.12699999809E+01 0. -1.
</event>
<event>
 5   0  0.2467448E-03  0.1092742E+04  0.7818609E-02  0.9212295E-01
        2   -1    0    0  501    0  0.00000000000E+00  0.00000000000E+00  0.26527862113E+04  0.26527862113E+04  0.25500000920E-02 0.  1.
       -2   -1    0    0    0  501  0.00000000000E+00  0.00000000000E+00 -0.11253124878E+03  0.11253124881E+03  0.25500000920E-02 0. -1.
    10030    2    1    2    0    0  0.00000000000E+00  0.00000000000E+00  0.25402549625E+04  0.27653174601E+04  0.10927421382E+04 0.  0.
        1    1    3    3  502    0  0.27342364081E+03 -0.25162389751E+03  0.22837870408E+04  0.23138189905E+04  0.50400001928E-02 0.  1.
       -1    1    3    3    0  502 -0.27342364081E+03  0.25162389751E+03  0.25646792173E+03  0.45149846960E+03  0.50400001928E-02 0. -1.
</event>
<event>
 5   0  0.2488472E-03  0.1091217E+04  0.7818609E-02  0.9213795E-01
        2   -1    0    0  501    0  0.00000000000E+00  0.00000000000E+00  0.12108646361E+04  0.12108646362E+04  0.25500000920E-02 0. -1.
       -2   -1    0    0    0  501  0.00000000000E+00  0.00000000000E+00 -0.24584800647E+03  0.24584800648E+03  0.25500000920E-02 0.  1.
    10030    2    1    2    0    0  0.00000000000E+00  0.00000000000E+00  0.96501662968E+03  0.14567126426E+04  0.10912170397E+04 0.  0.
        2    1    3    3  502    0 -0.13040928461E+03  0.43743380694E+03  0.88150612162E+03  0.99267716777E+03  0.25500000920E-02 0.  1.
       -2    1    3    3    0  502  0.13040928461E+03 -0.43743380694E+03  0.83510508064E+02  0.46403547486E+03  0.25500000920E-02 0. -1.
</event>
<event>
 5   0  0.1509004E-03  0.1077231E+04  0.7818609E-02  0.9227673E-01
        1   -1    0    0  501    0  0.00000000000E+00  0.00000000000E+00  0.36896130547E+03  0.36896130550E+03  0.50400001928E-02 0. -1.
       -1   -1    0    0    0  501  0.00000000000E+00  0.00000000000E+00 -0.78627901305E+03  0.78627901307E+03  0.50400001928E-02 0.  1.
    10030    2    1    2    0    0  0.00000000000E+00  0.00000000000E+00 -0.41731770759E+03  0.11552403186E+04  0.10772307666E+04 0.  0.
        3    1    3    3  502    0 -0.37387252446E+03 -0.96557725915E+02  0.19403679475E+03  0.43215083814E+03  0.10100000352E+00 0. -1.
       -3    1    3    3    0  502  0.37387252446E+03  0.96557725915E+02 -0.61135450234E+03  0.72308948043E+03  0.10100000352E+00 0.  1.
</event>
<event>
 5   0  0.2483036E-03  0.1105427E+04  0.7818609E-02  0.9199919E-01
       -2   -1    0    0    0  501  0.00000000000E+00  0.00000000000E+00  0.16512635148E+03  0.16512635150E+03  0.25500000920E-02 0.  1.
        2   -1    0    0  501    0  0.00000000000E+00  0.00000000000E+00 -0.18500498071E+04  0.18500498071E+04  0.25500000920E-02 0. -1.
    10030    2    1    2    0    0  0.00000000000E+00  0.00000000000E+00 -0.16849234556E+04  0.20151761586E+04  0.11054265687E+04 0.  0.
        3    1    3    3  502    0 -0.49118040216E+03 -0.10761641176E+03 -0.42415721080E+03  0.65783647605E+03  0.10100000352E+00 0.  1.
       -3    1    3    3    0  502  0.49118040216E+03  0.10761641176E+03 -0.12607662448E+04  0.13573396825E+04  0.10100000352E+00 0. -1.
</event>
<event>
 5   0  0.2392585E-03  0.1097875E+04  0.7818609E-02  0.9207265E-01
       -2   -1    0    0    0  501  0.00000000000E+00  0.00000000000E+00  0.23866561583E+03  0.23866561584E+03  0.25500000920E-02 0. -1.
        2   -1    0    0  501    0  0.00000000000E+00  0.00000000000E+00 -0.12625715452E+04  0.12625715452E+04  0.25500000920E-02 0.  1.
    10030    2    1    2    0    0  0.00000000000E+00  0.00000000000E+00 -0.10239059294E+04  0.15012371611E+04  0.10978750664E+04 0.  0.
        5    1    3    3  502    0 -0.66930337345E+01  0.25801203459E+03  0.15049016108E+03  0.29880492846E+03  0.46999998093E+01 0. -1.
       -5    1    3    3    0  502  0.66930337345E+01 -0.25801203459E+03 -0.11743960905E+04  0.12024322326E+04  0.46999998093E+01 0.  1.
</event>
<event>
 5   0  0.2467448E-03  0.1105066E+04  0.7818609E-02  0.9200269E-01
       -2   -1    0    0    0  501  0.00000000000E+00  0.00000000000E+00  0.57971676705E+03  0.57971676705E+03  0.25500000920E-02 0. -1.
        2   -1    0    0  501    0  0.00000000000E+00  0.00000000000E+00 -0.52662348822E+03  0.52662348823E+03  0.25500000920E-02 0.  1.
    10030    2    1    2    0    0  0.00000000000E+00  0.00000000000E+00  0.53093278825E+02  0.11063402553E+04  0.11050655475E+04 0.  0.
        1    1    3    3  502    0  0.39640415609E+03 -0.15295446113E+03 -0.32707623480E+03  0.53619976272E+03  0.50400001928E-02 0.  1.
       -1    1    3    3    0  502 -0.39640415609E+03  0.15295446113E+03  0.38016951363E+03  0.57014049256E+03  0.50400001928E-02 0. -1.
</event>
<event>
 5   0  0.1509004E-03  0.1100646E+04  0.7818609E-02  0.9204563E-01
       -1   -1    0    0    0  501  0.00000000000E+00  0.00000000000E+00  0.60981193266E+03  0.60981193268E+03  0.50400001928E-02 0. -1.
        1   -1    0    0  501    0  0.00000000000E+00  0.00000000000E+00 -0.49663694419E+03  0.49663694421E+03  0.50400001928E-02 0.  1.
    10030    2    1    2    0    0  0.00000000000E+00  0.00000000000E+00  0.11317498847E+03  0.11064488769E+04  0.11006455102E+04 0.  0.
        3    1    3    3  502    0  0.45764624067E+03 -0.26888434969E+03 -0.89493016346E+02  0.53828234718E+03  0.10100000352E+00 0.  1.
       -3    1    3    3    0  502 -0.45764624067E+03  0.26888434969E+03  0.20266800482E+03  0.56816652971E+03  0.10100000352E+00 0. -1.
</event>
<event>
 5   0  0.1479573E-03  0.1110823E+04  0.7818609E-02  0.9194707E-01
       -1   -1    0    0    0  501  0.00000000000E+00  0.00000000000E+00  0.29171543083E+03  0.29171543087E+03  0.50400001928E-02 0. -1.
        1   -1    0    0  501    0  0.00000000000E+00  0.00000000000E+00 -0.10574750085E+04  0.10574750085E+04  0.50400001928E-02 0.  1.
    10030    2    1    2    0    0  0.00000000000E+00  0.00000000000E+00 -0.76575957767E+03  0.13491904394E+04  0.11108227181E+04 0.  0.
        4    1    3    3  502    0 -0.42330638471E+03  0.35286012250E+03 -0.29889216781E+03  0.62692639302E+03  0.12699999809E+01 0.  1.
       -4    1    3    3    0  502  0.42330638471E+03 -0.35286012250E+03 -0.46686740987E+03  0.72226404637E+03  0.12699999809E+01 0. -1.
</event>
<event>
 5   0  0.1509004E-03  0.1074284E+04  0.7818609E-02  0.9230625E-01
        1   -1    0    0  501    0  0.00000000000E+00  0.00000000000E+00  0.10382087339E+04  0.10382087339E+04  0.50400001928E-02 0.  1.
       -1   -1    0    0    0  501  0.00000000000E+00  0.00000000000E+00 -0.27790326429E+03  0.27790326434E+03  0.50400001928E-02 0. -1.
    10030    2    1    2    0    0  0.00000000000E+00  0.00000000000E+00  0.76030546963E+03  0.13161119983E+04  0.10742841267E+04 0.  0.
        3    1    3    3  502    0  0.13693847890E+03  0.51776525428E+03  0.43049521063E+03  0.68713837189E+03  0.10100000352E+00 0. -1.
       -3    1    3    3    0  502 -0.13693847890E+03 -0.51776525428E+03  0.32981025900E+03  0.62897362639E+03  0.10100000352E+00 0.  1.
</event>
<event>
 5   0  0.2438115E-03  0.1104073E+04  0.7818609E-02  0.9201231E-01
       -2   -1    0    0    0  501  0.00000000000E+00  0.00000000000E+00  0.40284206780E+03  0.40284206781E+03  0.25500000920E-02 0. -1.
        2   -1    0    0  501    0  0.00000000000E+00  0.00000000000E+00 -0.75648576077E+03  0.75648576077E+03  0.25500000920E-02 0.  1.
    10030    2    1    2    0    0  0.00000000000E+00  0.00000000000E+00 -0.35364369297E+03  0.11593278286E+04  0.11040729833E+04 0.  0.
        4    1    3    3  502    0  0.45704133449E+02  0.46527127965E+03  0.13142792409E+03  0.48563478419E+03  0.12699999809E+01 0. -1.
       -4    1    3    3    0  502 -0.45704133449E+02 -0.46527127965E+03 -0.48507161706E+03  0.67369304439E+03  0.12699999809E+01 0.  1.
</event>
<event>
 5   0  0.2392585E-03  0.1093373E+04  0.7818609E-02  0.9211675E-01
        2   -1    0    0  501    0  0.00000000000E+00  0.00000000000E+00  0.14448086831E+04  0.14448086831E+04  0.25500000920E-02 0. -1.
       -2   -1    0    0    0  501  0.00000000000E+00  0.00000000000E+00 -0.20685507590E+03  0.20685507592E+03  0.25500000920E-02 0.  1.
    10030    2    1    2    0    0  0.00000000000E+00  0.00000000000E+00  0.12379536072E+04  0.16516637590E+04  0.10933727815E+04 0.  0.
        5    1    3    3  502    0  0.70506929486E+02 -0.39391538811E+03  0.56380503580E+02  0.40415518218E+03  0.46999998093E+01 0.  1.
       -5    1    3    3    0  502 -0.70506929486E+02  0.39391538811E+03  0.11815731036E+04  0.12475085768E+04  0.46999998093E+01 0. -1.
</event>
<event>
 5   0  0.2488472E-03  0.1095659E+04  0.7818609E-02  0.9209434E-01
       -2   -1    0    0    0  501  0.00000000000E+00  0.00000000000E+00  0.27250093693E+03  0.27250093695E+03  0.25500000920E-02 0. -1.
        2   -1    0    0  501    0  0.00000000000E+00  0.00000000000E+00 -0.11013427446E+04  0.11013427446E+04  0.25500000920E-02 0.  1.
    10030    2    1    2    0    0  0.00000000000E+00  0.00000000000E+00 -0.82884180770E+03  0.13738436816E+04  0.10956585779E+04 0.  0.
        2    1    3    3  502    0  0.38075299803E+03 -0.45061000817E+02  0.76225870432E+02  0.39091395810E+03  0.25500000920E-02 0. -1.
       -2    1    3    3    0  502 -0.38075299803E+03  0.45061000817E+02 -0.90506767813E+03  0.98292972349E+03  0.25500000920E-02 0.  1.
</event>
<event>
 5   0  0.2483036E-03  0.1098006E+04  0.7818609E-02  0.9207137E-01
        2   -1    0    0  501    0  0.00000000000E+00  0.00000000000E+00  0.92433877608E+03  0.92433877608E+03  0.25500000920E-02 0.  1.
       -2   -1    0    0    0  501  0.00000000000E+00  0.00000000000E+00 -0.32607580827E+03  0.32607580828E+03  0.25500000920E-02 0. -1.
    10030    2    1    2    0    0  0.00000000000E+00  0.00000000000E+00  0.59826296781E+03  0.12504145844E+04  0.10980063999E+04 0.  0.
        3    1    3    3  502    0  0.43434212375E+03 -0.23641030898E+03  0.57068701545E+03  0.75513349446E+03  0.10100000352E+00 0.  1.
       -3    1    3    3    0  502 -0.43434212375E+03  0.23641030898E+03  0.27575952356E+02  0.49528108989E+03  0.10100000352E+00 0. -1.
</event>
<event>
 5   0  0.2488472E-03  0.1061633E+04  0.7818609E-02  0.9243415E-01
       -2   -1    0    0    0  501  0.00000000000E+00  0.00000000000E+00  0.23305477157E+03  0.23305477158E+03  0.25500000920E-02 0.  1.
        2   -1    0    0  501    0  0.00000000000E+00  0.00000000000E+00 -0.12090137423E+04  0.12090137423E+04  0.25500000920E-02 0. -1.
    10030    2    1    2    0    0  0.00000000000E+00  0.00000000000E+00 -0.97595897073E+03  0.14420685139E+04  0.10616334990E+04 0.  0.
        2    1    3    3  502    0 -0.23196053811E+03 -0.16621812127E+03  0.11999693065E+03  0.30956973116E+03  0.25500000920E-02 0.  1.
       -2    1    3    3    0  502  0.23196053811E+03  0.16621812127E+03 -0.10959559014E+04  0.11324987827E+04  0.25500000920E-02 0. -1.
</event>
<event>
 5   0  0.2483036E-03  0.1101977E+04  0.7818609E-02  0.9203267E-01
        2   -1    0    0  501    0  0.00000000000E+00  0.00000000000E+00  0.76489016857E+03  0.76489016858E+03  0.25500000920E-02 0. -1.
       -2   -1    0    0    0  501  0.00000000000E+00  0.00000000000E+00 -0.39690463667E+03  0.39690463668E+03  0.25500000920E-02 0.  1.
    10030    2    1    2    0    0  0.00000000000E+00  0.00000000000E+00  0.36798553191E+03  0.11617948053E+04  0.11019772311E+04 0.  0.
        3    1    3    3  502    0 -0.36997170159E+03 -0.12812748242E+03  0.59271268090E+03  0.71035487190E+03  0.10100000352E+00 0. -1.
       -3    1    3    3    0  502  0.36997170159E+03  0.12812748242E+03 -0.22472714900E+03  0.45143993335E+03  0.10100000352E+00 0.  1.
</event>
<event>
 5   0  0.2483036E-03  0.1095293E+04  0.7818609E-02  0.9209792E-01
       -2   -1    0    0    0  501  0.00000000000E+00  0.00000000000E+00  0.24759094492E+03  0.24759094494E+03  0.25500000920E-02 0.  1.
        2   -1    0    0  501    0  0.00000000000E+00  0.00000000000E+00 -0.12113387555E+04  0.12113387555E+04  0.25500000920E-02 0. -1.
    10030    2    1    2    0    0  0.00000000000E+00  0.00000000000E+00 -0.96374781055E+03  0.14589297004E+04  0.10952926679E+04 0.  0.
        3    1    3    3  502    0  0.28774291594E+03  0.46458986803E+03 -0.52946873714E+03  0.76090530618E+03  0.10100000352E+00 0. -1.
       -3    1    3    3    0  502 -0.28774291594E+03 -0.46458986803E+03 -0.43427907340E+03  0.69802439424E+03  0.10100000352E+00 0.  1.
</event>
<event>
 5   0  0.2438115E-03  0.1103796E+04  0.7818609E-02  0.9201500E-01
       -2   -1    0    0    0  501  0.00000000000E+00  0.00000000000E+00  0.28241654462E+03  0.28241654463E+03  0.25500000920E-02 0.  1.
        2   -1    0    0  501    0  0.00000000000E+00  0.00000000000E+00 -0.10785176295E+04  0.10785176295E+04  0.25500000920E-02 0. -1.
    10030    2    1    2    0    0  0.00000000000E+00  0.00000000000E+00 -0.79610108488E+03  0.13609341741E+04  0.11037956736E+04 0.  0.
        4    1    3    3  502    0 -0.49849091582E+03 -0.14009381380E+03 -0.16259053975E+03  0.54273084152E+03  0.12699999809E+01 0.  1.
       -4    1    3    3    0  502  0.49849091582E+03  0.14009381380E+03 -0.63351054513E+03  0.81820333262E+03  0.12699999809E+01 0. -1.
</event>
<event>
 5   0  0.1509004E-03  0.1096748E+04  0.7818609E-02  0.9208367E-01
        1   -1    0    0  501    0  0.00000000000E+00  0.00000000000E+00  0.10521320982E+04  0.10521320982E+04  0.50400001928E-02 0. -1.
       -1   -1    0    0    0  501  0.00000000000E+00  0.00000000000E+00 -0.28581407904E+03  0.28581407909E+03  0.50400001928E-02 0.  1.
    10030    2    1    2    0    0  0.00000000000E+00  0.00000000000E+00  0.76631801919E+03  0.13379461773E+04  0.10967482240E+04 0.  0.
        3    1    3    3  502    0 -0.30955057738E+03 -0.40231310685E+03  0.63623531781E+03  0.81392431204E+03  0.10100000352E+00 0.  1.
       -3    1    3    3    0  502  0.30955057738E+03  0.40231310685E+03  0.13008270138E+03  0.52402186529E+03  0.10100000352E+00 0. -1.
</event>
<event>
 5   0  0.1415400E-03  0.1100014E+04  0.7818609E-02  0.9205178E-01
        1   -1    0    0  501    0  0.00000000000E+00  0.00000000000E+00  0.60553626147E+03  0.60553626149E+03  0.50400001928E-02 0.  1.
       -1   -1    0    0    0  501  0.00000000000E+00  0.00000000000E+00 -0.49957031146E+03  0.49957031149E+03  0.50400001928E-02 0. -1.
    10030    2    1    2    0    0  0.00000000000E+00  0.00000000000E+00  0.10596595001E+03  0.11051065730E+04  0.11000144340E+04 0.  0.
        2    1    3    3  502    0  0.33265821377E+03 -0.43800246645E+03  0.53524876159E+02  0.55260524806E+03  0.25500000920E-02 0. -1.
       -2    1    3    3    0  502 -0.33265821377E+03  0.43800246645E+03  0.52441073849E+02  0.55250132492E+03  0.25500000920E-02 0.  1.
</event>
<event>
 5   0  0.1415400E-03  0.1102743E+04  0.7818609E-02  0.9202522E-01
       -1   -1    0    0    0  501  0.00000000000E+00  0.00000000000E+00  0.36685605808E+03  0.36685605811E+03  0.50400001928E-02 0. -1.
        1   -1    0    0  501    0  0.00000000000E+00  0.00000000000E+00 -0.82869189356E+03  0.82869189357E+03  0.50400001928E-02 0.  1.
    10030    2    1    2    0    0  0.00000000000E+00  0.00000000000E+00 -0.46183583548E+03  0.11955479517E+04  0.11027432003E+04 0.  0.
        2    1    3    3  502    0 -0.19377303768E+03 -0.48725743447E+03 -0.41567971633E+03  0.66914678820E+03  0.25500000920E-02 0.  1.
       -2    1    3    3    0  502  0.19377303768E+03  0.48725743447E+03 -0.46156119147E+02  0.52640116349E+03  0.25500000920E-02 0. -1.
</event>
<event>
 5   0  0.1509004E-03  0.1169139E+04  0.7818609E-02  0.9140306E-01
       -1   -1    0    0    0  501  0.00000000000E+00  0.00000000000E+00  0.31789080217E+03  0.31789080221E+03  0.50400001928E-02 0. -1.
        1   -1    0    0  501    0  0.00000000000E+00  0.00000000000E+00 -0.10749658977E+04  0.10749658977E+04  0.50400001928E-02 0.  1.
    10030    2    1    2    0    0  0.00000000000E+00  0.00000000000E+00 -0.75707509555E+03  0.13928566999E+04  0.11691394640E+04 0.  0.
        3    1    3    3  502    0 -0.13556577189E+03 -0.24538702981E+03  0.23257947733E+03  0.36426102781E+03  0.10100000352E+00 0. -1.
       -3    1    3    3    0  502  0.13556577189E+03  0.24538702981E+03 -0.98965457288E+03  0.10285956721E+04  0.10100000352E+00 0.  1.
</event>
<event>
 5   0  0.2467448E-03  0.1075928E+04  0.7818609E-02  0.9228976E-01
       -2   -1    0    0    0  501  0.00000000000E+00  0.00000000000E+00  0.39986236520E+03  0.39986236521E+03  0.25500000920E-02 0. -1.
        2   -1    0    0  501    0  0.00000000000E+00  0.00000000000E+00 -0.72376276790E+03  0.72376276791E+03  0.25500000920E-02 0.  1.
    10030    2    1    2    0    0  0.00000000000E+00  0.00000000000E+00 -0.32390040270E+03  0.11236251331E+04  0.10759284218E+04 0.  0.
        1    1    3    3  502    0  0.13954759900E+03  0.29499101277E+03 -0.60859211475E+03  0.69056324269E+03  0.50400001928E-02 0.  1.
       -1    1    3    3    0  502 -0.13954759900E+03 -0.29499101277E+03  0.28469171205E+03  0.43306189042E+03  0.50400001928E-02 0. -1.
</event>
<event>
 5   0  0.1509004E-03  0.1099213E+04  0.7818609E-02  0.9205960E-01
        1   -1    0    0  501    0  0.00000000000E+00  0.00000000000E+00  0.67729136976E+03  0.67729136978E+03  0.50400001928E-02 0. -1.
       -1   -1    0    0    0  501  0.00000000000E+00  0.00000000000E+00 -0.44599277955E+03  0.44599277958E+03  0.50400001928E-02 0.  1.
    10030    2    1    2    0    0  0.00000000000E+00  0.00000000000E+00  0.23129859020E+03  0.11232841494E+04  0.10992125556E+04 0.  0.
        3    1    3    3  502    0  0.46521893445E+03 -0.24613494238E+03  0.27740651642E+03  0.59494995788E+03  0.10100000352E+00 0. -1.
       -3    1    3    3    0  502 -0.46521893445E+03  0.24613494238E+03 -0.46107926211E+02  0.52833419148E+03  0.10100000352E+00 0.  1.
</event>
<event>
 5   0  0.2483036E-03  0.1088319E+04  0.7818609E-02  0.9216653E-01
        2   -1    0    0  501    0  0.00000000000E+00  0.00000000000E+00  0.14014649737E+04  0.14014649737E+04  0.25500000920E-02 0.  1.
       -2   -1    0    0    0  501  0.00000000000E+00  0.00000000000E+00 -0.21128555478E+03  0.21128555480E+03  0.25500000920E-02 0. -1.
    10030    2    1    2    0    0  0.00000000000E+00  0.00000000000E+00  0.11901794189E+04  0.16127505285E+04  0.10883185278E+04 0.  0.
        3    1    3    3  502    0  0.38739731577E+03  0.60613395227E+02  0.11542071901E+04  0.12189934011E+04  0.10100000352E+00 0.  1.
       -3    1    3    3    0  502 -0.38739731577E+03 -0.60613395227E+02  0.35972228786E+02  0.39375712742E+03  0.10100000352E+00 0. -1.
</event>
<event>
 5   0  0.1480937E-03  0.1099439E+04  0.7818609E-02  0.9205739E-01
       -1   -1    0    0    0  501  0.00000000000E+00  0.00000000000E+00  0.16655367452E+03  0.16655367460E+03  0.50400001928E-02 0.  1.
        1   -1    0    0  501    0  0.00000000000E+00  0.00000000000E+00 -0.18143801545E+04  0.18143801545E+04  0.50400001928E-02 0. -1.
    10030    2    1    2    0    0  0.00000000000E+00  0.00000000000E+00 -0.16478264799E+04  0.19809338291E+04  0.10994392785E+04 0.  0.
        1    1    3    3  502    0  0.39497222755E+03 -0.32595922300E+03 -0.11839927711E+04  0.12899966503E+04  0.50400001928E-02 0. -1.
       -1    1    3    3    0  502 -0.39497222755E+03  0.32595922300E+03 -0.46383370880E+03  0.69093717879E+03  0.50400001928E-02 0.  1.
</event>
<event>
 5   0  0.2438115E-03  0.1108043E+04  0.7818609E-02  0.9197388E-01
        2   -1    0    0  501    0  0.00000000000E+00  0.00000000000E+00  0.12251207833E+04  0.12251207833E+04  0.25500000920E-02 0.  1.
       -2   -1    0    0    0  501  0.00000000000E+00  0.00000000000E+00 -0.25053853160E+03  0.25053853161E+03  0.25500000920E-02 0. -1.
    10030    2    1    2    0    0  0.00000000000E+00  0.00000000000E+00  0.97458225175E+03  0.14756593150E+04  0.11080432520E+04 0.  0.
        4    1    3    3  502    0 -0.29636095321E+03  0.28469734999E+03  0.98212219535E+03  0.10646351559E+04  0.12699999809E+01 0.  1.
       -4    1    3    3    0  502  0.29636095321E+03 -0.28469734999E+03 -0.75399436024E+01  0.41102415906E+03  0.12699999809E+01 0. -1.
</event>
<event>
 5   0  0.2438115E-03  0.1095792E+04  0.7818609E-02  0.9209303E-01
        2   -1    0    0  501    0  0.00000000000E+00  0.00000000000E+00  0.16439318567E+04  0.16439318567E+04  0.25500000920E-02 0. -1.
       -2   -1    0    0    0  501  0.00000000000E+00  0.00000000000E+00 -0.18260478779E+03  0.18260478781E+03  0.25500000920E-02 0.  1.
    10030    2    1    2    0    0  0.00000000000E+00  0.00000000000E+00  0.14613270689E+04  0.18265366445E+04  0.10957916369E+04 0.  0.
        4    1    3    3  502    0  0.13256378868E+03  0.51033703818E+03  0.97885946631E+03  0.11118383508E+04  0.12699999809E+01 0.  1.
       -4    1    3    3    0  502 -0.13256378868E+03 -0.51033703818E+03  0.48246760261E+03  0.71469829374E+03  0.12699999809E+01 0. -1.
</event>
<event>
 5   0  0.1468556E-03  0.1098769E+04  0.7818609E-02  0.9206392E-01
        1   -1    0    0  501    0  0.00000000000E+00  0.00000000000E+00  0.17142992257E+04  0.17142992257E+04  0.50400001928E-02 0.  1.
       -1   -1    0    0    0  501  0.00000000000E+00  0.00000000000E+00 -0.17606228615E+03  0.17606228623E+03  0.50400001928E-02 0. -1.
    10030    2    1    2    0    0  0.00000000000E+00  0.00000000000E+00  0.15382369396E+04  0.18903615119E+04  0.10987692040E+04 0.  0.
        5    1    3    3  502    0 -0.34986917268E+03 -0.15327031663E+03  0.14484206516E+04  0.14979468288E+04  0.46999998093E+01 0.  1.
       -5    1    3    3    0  502  0.34986917268E+03  0.15327031663E+03  0.89816287945E+02  0.39241468313E+03  0.46999998093E+01 0. -1.
</event>
<event>
 5   0  0.1509004E-03  0.1134386E+04  0.7818609E-02  0.9172310E-01
        1   -1    0    0  501    0  0.00000000000E+00  0.00000000000E+00  0.50954609659E+03  0.50954609661E+03  0.50400001928E-02 0.  1.
       -1   -1    0    0    0  501  0.00000000000E+00  0.00000000000E+00 -0.63136150006E+03  0.63136150008E+03  0.50400001928E-02 0. -1.
    10030    2    1    2    0    0  0.00000000000E+00  0.00000000000E+00 -0.12181540348E+03  0.11409075967E+04  0.11343858037E+04 0.  0.
        3    1    3    3  502    0 -0.53635704289E+03  0.11712899078E+03 -0.20423913407E+03  0.58575738324E+03  0.10100000352E+00 0. -1.
       -3    1    3    3    0  502  0.53635704289E+03 -0.11712899078E+03  0.82423730596E+02  0.55515021346E+03  0.10100000352E+00 0.  1.
</event>
<event>
 5   0  0.1415400E-03  0.1097463E+04  0.7818609E-02  0.9207668E-01
        1   -1    0    0  501    0  0.00000000000E+00  0.00000000000E+00  0.42660782258E+03  0.42660782261E+03  0.50400001928E-02 0.  1.
       -1   -1    0    0    0  501  0.00000000000E+00  0.00000000000E+00 -0.70581465372E+03  0.70581465373E+03  0.50400001928E-02 0. -1.
    10030    2    1    2    0    0  0.00000000000E+00  0.00000000000E+00 -0.27920683114E+03  0.11324224763E+04  0.10974626237E+04 0.  0.
        2    1    3    3  502    0  0.42303923191E+03  0.20894097247E+03  0.14947726983E+03  0.49493633521E+03  0.25500000920E-02 0.  1.
       -2    1    3    3    0  502 -0.42303923191E+03 -0.20894097247E+03 -0.42868410096E+03  0.63748614113E+03  0.25500000920E-02 0. -1.
</event>
<event>
 5   0  0.2438115E-03  0.1102668E+04  0.7818609E-02  0.9202595E-01
        2   -1    0    0  501    0  0.00000000000E+00  0.00000000000E+00  0.90813090488E+03  0.90813090488E+03  0.25500000920E-02 0. -1.
       -2   -1    0    0    0  501  0.00000000000E+00  0.00000000000E+00 -0.33471960678E+03  0.33471960679E+03  0.25500000920E-02 0.  1.
    10030    2    1    2    0    0  0.00000000000E+00  0.00000000000E+00  0.57341129809E+03  0.12428505117E+04  0.11026680723E+04 0.  0.
        4    1    3    3  502    0 -0.16200130600E+02 -0.42702065390E+03  0.67935893616E+03  0.80258286808E+03  0.12699999809E+01 0. -1.
       -4    1    3    3    0  502  0.16200130600E+02  0.42702065390E+03 -0.10594763807E+03  0.44026764360E+03  0.12699999809E+01 0.  1.
</event>
<event>
 5   0  0.1509004E-03  0.1122374E+04  0.7818609E-02  0.9183655E-01
       -1   -1    0    0    0  501  0.00000000000E+00  0.00000000000E+00  0.23714465663E+03  0.23714465668E+03  0.50400001928E-02 0.  1.
        1   -1    0    0  501    0  0.00000000000E+00  0.00000000000E+00 -0.13280114974E+04  0.13280114974E+04  0.50400001928E-02 0. -1.
    10030    2    1    2    0    0  0.00000000000E+00  0.00000000000E+00 -0.10908668408E+04  0.15651561541E+04  0.11223739673E+04 0.  0.
        3    1    3    3  502    0  0.37241238223E+03 -0.12034894802E+03 -0.11062879679E+04  0.11734768553E+04  0.10100000352E+00 0. -1.
       -3    1    3    3    0  502 -0.37241238223E+03  0.12034894802E+03  0.15421127167E+02  0.39167929878E+03  0.10100000352E+00 0.  1.
</event>
<event>
 5   0  0.2488472E-03  0.1092082E+04  0.7818609E-02  0.9212944E-01
        2   -1    0    0  501    0  0.00000000000E+00  0.00000000000E+00  0.24456912037E+04  0.24456912037E+04  0.25500000920E-02 0.  1.
       -2   -1    0    0    0  501  0.00000000000E+00  0.00000000000E+00 -0.12191273944E+03  0.12191273947E+03  0.25500000920E-02 0. -1.
    10030    2    1    2    0    0  0.00000000000E+00  0.00000000000E+00  0.23237784643E+04  0.25676039432E+04  0.10920822579E+04 0.  0.
        2    1    3    3  502    0  0.12391298811E+03  0.48704859491E+01  0.24121458158E+04  0.24153313617E+04  0.25500000920E-02 0.  1.
       -2    1    3    3    0  502 -0.12391298811E+03 -0.48704859491E+01 -0.88367351501E+02  0.15227258149E+03  0.25500000920E-02 0. -1.
</event>
<event>
 5   0  0.2438115E-03  0.1113099E+04  0.7818609E-02  0.9192518E-01
        2   -1    0    0  501    0  0.00000000000E+00  0.00000000000E+00  0.64065319944E+03  0.64065319945E+03  0.25500000920E-02 0.  1.
       -2   -1    0    0    0  501  0.00000000000E+00  0.00000000000E+00 -0.48348708159E+03  0.48348708160E+03  0.25500000920E-02 0. -1.
    10030    2    1    2    0    0  0.00000000000E+00  0.00000000000E+00  0.15716611785E+03  0.11241402810E+04  0.11130993589E+04 0.  0.
        4    1    3    3  502    0 -0.35485939171E+03 -0.32734013845E+02 -0.35314905506E+03  0.50170964864E+03  0.12699999809E+01 0. -1.
       -4    1    3    3    0  502  0.35485939171E+03  0.32734013845E+02  0.51031517292E+03  0.62243063241E+03  0.12699999809E+01 0.  1.
</event>
<event>
 5   0  0.1468556E-03  0.1097211E+04  0.7818609E-02  0.9207915E-01
       -1   -1    0    0    0  501  0.00000000000E+00  0.00000000000E+00  0.35386540583E+03  0.35386540586E+03  0.50400001928E-02 0. -1.
        1   -1    0    0  501    0  0.00000000000E+00  0.00000000000E+00 -0.85051512161E+03  0.85051512162E+03  0.50400001928E-02 0.  1.
    10030    2    1    2    0    0  0.00000000000E+00  0.00000000000E+00 -0.49664971578E+03  0.12043805275E+04  0.10972107887E+04 0.  0.
        5    1    3    3  502    0 -0.20997087303E+03  0.41339729448E+03 -0.57015270705E+03  0.73490223157E+03  0.46999998093E+01 0.  1.
       -5    1    3    3    0  502  0.20997087303E+03 -0.41339729448E+03  0.73502991269E+02  0.46947829591E+03  0.46999998093E+01 0. -1.
</event>
<event>
 5   0  0.9631750E-04  0.1110252E+04  0.7818609E-02  0.9195257E-01
       -4   -1    0    0    0  501  0.00000000000E+00  0.00000000000E+00  0.11311086368E+04  0.11311093497E+04  0.12699999809E+01 0.  1.
        4   -1    0    0  501    0  0.00000000000E+00  0.00000000000E+00 -0.27244285677E+03  0.27244581683E+03  0.12699999809E+01 0. -1.
    10030    2    1    2    0    0  0.00000000000E+00  0.00000000000E+00  0.85866577999E+03  0.14035551666E+04  0.11102523064E+04 0.  0.
        4    1    3    3  502    0 -0.49587851658E+01  0.33899683468E+03 -0.12635870801E+03  0.36181705248E+03  0.12699999809E+01 0. -1.
       -4    1    3    3    0  502  0.49587851658E+01 -0.33899683468E+03  0.98502448800E+03  0.10417381141E+04  0.12699999809E+01 0.  1.
</event>
<event>
 5   0  0.2488472E-03  0.1094841E+04  0.7818609E-02  0.9210235E-01
       -2   -1    0    0    0  501  0.00000000000E+00  0.00000000000E+00  0.45825938804E+03  0.45825938805E+03  0.25500000920E-02 0. -1.
        2   -1    0    0  501    0  0.00000000000E+00  0.00000000000E+00 -0.65392908881E+03  0.65392908882E+03  0.25500000920E-02 0.  1.
    10030    2    1    2    0    0  0.00000000000E+00  0.00000000000E+00 -0.19566970077E+03  0.11121884769E+04  0.10948408909E+04 0.  0.
        2    1    3    3  502    0  0.11091819606E+03  0.24366357431E+03  0.38721841661E+03  0.47075777831E+03  0.25500000920E-02 0. -1.
       -2    1    3    3    0  502 -0.11091819606E+03 -0.24366357431E+03 -0.58288811738E+03  0.64143069856E+03  0.25500000920E-02 0.  1.
</event>
<event>
 5   0  0.2483036E-03  0.1107960E+04  0.7818609E-02  0.9197468E-01
        2   -1    0    0  501    0  0.00000000000E+00  0.00000000000E+00  0.70405890359E+03  0.70405890360E+03  0.25500000920E-02 0.  1.
       -2   -1    0    0    0  501  0.00000000000E+00  0.00000000000E+00 -0.43589198415E+03  0.43589198416E+03  0.25500000920E-02 0. -1.
    10030    2    1    2    0    0  0.00000000000E+00  0.00000000000E+00  0.26816691944E+03  0.11399508878E+04  0.11079596246E+04 0.  0.
        3    1    3    3  502    0  0.11614102282E+03  0.26150898724E+03  0.62214071559E+03  0.68478811890E+03  0.10100000352E+00 0.  1.
       -3    1    3    3    0  502 -0.11614102282E+03 -0.26150898724E+03 -0.35397379615E+03  0.45516276886E+03  0.10100000352E+00 0. -1.
</event>
<event>
 5   0  0.2392585E-03  0.1098537E+04  0.7818609E-02  0.9206619E-01
        2   -1    0    0  501    0  0.00000000000E+00  0.00000000000E+00  0.68118755912E+03  0.68118755913E+03  0.25500000920E-02 0. -1.
       -2   -1    0    0    0  501  0.00000000000E+00  0.00000000000E+00 -0.44289726510E+03  0.44289726511E+03  0.25500000920E-02 0.  1.
    10030    2    1    2    0    0  0.00000000000E+00  0.00000000000E+00  0.23829029402E+03  0.11240848242E+04  0.10985374039E+04 0.  0.
        5    1    3    3  502    0  0.20873495051E+02 -0.39568739434E+03  0.50834545622E+03  0.64454744565E+03  0.46999998093E+01 0. -1.
       -5    1    3    3    0  502 -0.20873495051E+02  0.39568739434E+03 -0.27005516220E+03  0.47953737859E+03  0.46999998093E+01 0.  1.
</event>
<event>
 5   0  0.1415400E-03  0.1113702E+04  0.7818609E-02  0.9191939E-01
       -1   -1    0    0    0  501  0.00000000000E+00  0.00000000000E+00  0.48085600651E+03  0.48085600654E+03  0.50400001928E-02 0. -1.
        1   -1    0    0  501    0  0.00000000000E+00  0.00000000000E+00 -0.64485593890E+03  0.64485593892E+03  0.50400001928E-02 0.  1.
    10030    2    1    2    0    0  0.00000000000E+00  0.00000000000E+00 -0.16399993239E+03  0.11257119455E+04  0.11137016685E+04 0.  0.
        2    1    3    3  502    0 -0.44186859595E+03  0.30568048903E+03  0.65845770699E+02  0.54131698937E+03  0.25500000920E-02 0. -1.
       -2    1    3    3    0  502  0.44186859595E+03 -0.30568048903E+03 -0.22984570309E+03  0.58439495608E+03  0.25500000920E-02 0.  1.
</event>
<event>
 5   0  0.2488472E-03  0.1116014E+04  0.7818609E-02  0.9189723E-01
        2   -1    0    0  501    0  0.00000000000E+00  0.00000000000E+00  0.14140710449E+04  0.14140710449E+04  0.25500000920E-02 0.  1.
       -2   -1    0    0    0  501  0.00000000000E+00  0.00000000000E+00 -0.22019516811E+03  0.22019516813E+03  0.25500000920E-02 0. -1.
    10030    2    1    2    0    0  0.00000000000E+00  0.00000000000E+00  0.11938758768E+04  0.16342662130E+04  0.11160136405E+04 0.  0.
        2    1    3    3  502    0  0.71440479545E+02 -0.10583049421E+03 -0.19851445127E+03  0.23603352091E+03  0.25500000920E-02 0. -1.
       -2    1    3    3    0  502 -0.71440479545E+02  0.10583049421E+03  0.13923903281E+04  0.13982326921E+04  0.25500000920E-02 0.  1.
</event>
<event>
 5   0  0.9631750E-04  0.1103032E+04  0.7818609E-02  0.9202242E-01
        4   -1    0    0  501    0  0.00000000000E+00  0.00000000000E+00  0.50472231949E+03  0.50472391730E+03  0.12699999809E+01 0. -1.
       -4   -1    0    0    0  501  0.00000000000E+00  0.00000000000E+00 -0.60264469753E+03  0.60264603572E+03  0.12699999809E+01 0.  1.
    10030    2    1    2    0    0  0.00000000000E+00  0.00000000000E+00 -0.97922378037E+02  0.11073699530E+04  0.11030319219E+04 0.  0.
        5    1    3    3  502    0  0.49926905408E+03  0.21031345060E+03  0.54626141625E+02  0.54452496840E+03  0.46999998093E+01 0.  1.
       -5    1    3    3    0  502 -0.49926905408E+03 -0.21031345060E+03 -0.15254851966E+03  0.56284498462E+03  0.46999998093E+01 0. -1.
</event>
<event>
 5   0  0.2392585E-03  0.1096993E+04  0.7818609E-02  0.9208128E-01
        2   -1    0    0  501    0  0.00000000000E+00  0.00000000000E+00  0.42540591630E+03  0.42540591631E+03  0.25500000920E-02 0. -1.
       -2   -1    0    0    0  501  0.00000000000E+00  0.00000000000E+00 -0.70720264908E+03  0.70720264909E+03  0.25500000920E-02 0.  1.
    10030    2    1    2    0    0  0.00000000000E+00  0.00000000000E+00 -0.28179673278E+03  0.11326085654E+04  0.10969925997E+04 0.  0.
        5    1    3    3  502    0 -0.31962797519E+03  0.77481416698E+02 -0.59408041447E+03  0.67905746540E+03  0.46999998093E+01 0.  1.
       -5    1    3    3    0  502  0.31962797519E+03 -0.77481416698E+02  0.31228368169E+03  0.45355109999E+03  0.46999998093E+01 0. -1.
</event>
<event>
 5   0  0.1479573E-03  0.1091759E+04  0.7818609E-02  0.9213261E-01
        1   -1    0    0  501    0  0.00000000000E+00  0.00000000000E+00  0.14400777335E+04  0.14400777335E+04  0.50400001928E-02 0. -1.
       -1   -1    0    0    0  501  0.00000000000E+00  0.00000000000E+00 -0.20692246900E+03  0.20692246906E+03  0.50400001928E-02 0.  1.
    10030    2    1    2    0    0  0.00000000000E+00  0.00000000000E+00  0.12331552645E+04  0.16470002026E+04  0.10917590215E+04 0.  0.
        4    1    3    3  502    0 -0.13954780760E+03  0.40306063954E+03  0.11304934393E+04  0.12082832859E+04  0.12699999809E+01 0. -1.
       -4    1    3    3    0  502  0.13954780760E+03 -0.40306063954E+03  0.10266182523E+03  0.43871691672E+03  0.12699999809E+01 0.  1.
</event>
<event>
 5   0  0.1415400E-03  0.1145233E+04  0.7818609E-02  0.9162193E-01
        1   -1    0    0  501    0  0.00000000000E+00  0.00000000000E+00  0.21816749381E+03  0.21816749387E+03  0.50400001928E-02 0.  1.
       -1   -1    0    0    0  501  0.00000000000E+00  0.00000000000E+00 -0.15029260702E+04  0.15029260702E+04  0.50400001928E-02 0. -1.
    10030    2    1    2    0    0  0.00000000000E+00  0.00000000000E+00 -0.12847585764E+04  0.17210935641E+04  0.11452329268E+04 0.  0.
        2    1    3    3  502    0 -0.96095644236E+02 -0.14167934255E+03  0.17880875111E+03  0.24754793157E+03  0.25500000920E-02 0.  1.
       -2    1    3    3    0  502  0.96095644236E+02  0.14167934255E+03 -0.14635673275E+04  0.14735456325E+04  0.25500000920E-02 0. -1.
</event>
<event>
 5   0  0.1480937E-03  0.1116394E+04  0.7818609E-02  0.9189359E-01
       -1   -1    0    0    0  501  0.00000000000E+00  0.00000000000E+00  0.41505363350E+03  0.41505363353E+03  0.50400001928E-02 0.  1.
        1   -1    0    0  501    0  0.00000000000E+00  0.00000000000E+00 -0.75070767424E+03  0.75070767426E+03  0.50400001928E-02 0. -1.
    10030    2    1    2    0    0  0.00000000000E+00  0.00000000000E+00 -0.33565404075E+03  0.11657613078E+04  0.11163941023E+04 0.  0.
        1    1    3    3  502    0 -0.39330499419E+03 -0.36994932000E+03 -0.20031561971E+02  0.54032636556E+03  0.50400001928E-02 0.  1.
       -1    1    3    3    0  502  0.39330499419E+03  0.36994932000E+03 -0.31562247878E+03  0.62543494222E+03  0.50400001928E-02 0. -1.
</event>
<event>
 5   0  0.2392585E-03  0.1104487E+04  0.7818609E-02  0.9200829E-01
       -2   -1    0    0    0  501  0.00000000000E+00  0.00000000000E+00  0.33791272447E+03  0.33791272448E+03  0.25500000920E-02 0. -1.
        2   -1    0    0  501    0  0.00000000000E+00  0.00000000000E+00 -0.90251992956E+03  0.90251992957E+03  0.25500000920E-02 0.  1.
    10030    2    1    2    0    0  0.00000000000E+00  0.00000000000E+00 -0.56460720510E+03  0.12404326540E+04  0.11044871539E+04 0.  0.
        5    1    3    3  502    0  0.44290338901E+03  0.22993053090E+03 -0.54788266892E+03  0.74109983803E+03  0.46999998093E+01 0.  1.
       -5    1    3    3    0  502 -0.44290338901E+03 -0.22993053090E+03 -0.16724536182E+02  0.49933281601E+03  0.46999998093E+01 0. -1.
</event>
<event>
 5   0  0.1468556E-03  0.1105893E+04  0.7818609E-02  0.9199467E-01
       -1   -1    0    0    0  501  0.00000000000E+00  0.00000000000E+00  0.47806455759E+03  0.47806455762E+03  0.50400001928E-02 0.  1.
        1   -1    0    0  501    0  0.00000000000E+00  0.00000000000E+00 -0.63955721610E+03  0.63955721612E+03  0.50400001928E-02 0. -1.
    10030    2    1    2    0    0  0.00000000000E+00  0.00000000000E+00 -0.16149265851E+03  0.11176217737E+04  0.11058926487E+04 0.  0.
        5    1    3    3  502    0 -0.52976860358E+03 -0.15368634371E+03 -0.11927258755E+03  0.56437780407E+03  0.46999998093E+01 0. -1.
       -5    1    3    3    0  502  0.52976860358E+03  0.15368634371E+03 -0.42220070960E+02  0.55324396967E+03  0.46999998093E+01 0.  1.
</event>
<event>
 5   0  0.1509004E-03  0.1104415E+04  0.7818609E-02  0.9200899E-01
        1   -1    0    0  501    0  0.00000000000E+00  0.00000000000E+00  0.54523821726E+03  0.54523821728E+03  0.50400001928E-02 0.  1.
       -1   -1    0    0    0  501  0.00000000000E+00  0.00000000000E+00 -0.55926622913E+03  0.55926622916E+03  0.50400001928E-02 0. -1.
    10030    2    1    2    0    0  0.00000000000E+00  0.00000000000E+00 -0.14028011877E+02  0.11045044464E+04  0.11044153599E+04 0.  0.
        3    1    3    3  502    0 -0.44415958286E+02  0.49128350446E+03 -0.25522961956E+03  0.55540474251E+03  0.10100000352E+00 0. -1.
       -3    1    3    3    0  502  0.44415958286E+02 -0.49128350446E+03  0.24120160768E+03  0.54909970393E+03  0.10100000352E+00 0.  1.
</event>
<event>
 5   0  0.2467448E-03  0.1035759E+04  0.7818609E-02  0.9270172E-01
       -2   -1    0    0    0  501  0.00000000000E+00  0.00000000000E+00  0.17060937108E+03  0.17060937110E+03  0.25500000920E-02 0. -1.
        2   -1    0    0  501    0  0.00000000000E+00  0.00000000000E+00 -0.15720069331E+04  0.15720069331E+04  0.25500000920E-02 0.  1.
    10030    2    1    2    0    0  0.00000000000E+00  0.00000000000E+00 -0.14013975620E+04  0.17426163042E+04  0.10357588797E+04 0.  0.
        1    1    3    3  502    0  0.26740912814E+03 -0.28285770652E+03 -0.12599125696E+03  0.40913313335E+03  0.50400001928E-02 0. -1.
       -1    1    3    3    0  502 -0.26740912814E+03  0.28285770652E+03 -0.12754063051E+04  0.13334831709E+04  0.50400001928E-02 0.  1.
</event>
<event>
 5   0  0.1480937E-03  0.1082152E+04  0.7818609E-02  0.9222765E-01
       -1   -1    0    0    0  501  0.00000000000E+00  0.00000000000E+00  0.50508740675E+03  0.50508740678E+03  0.50400001928E-02 0.  1.
        1   -1    0    0  501    0  0.00000000000E+00  0.00000000000E+00 -0.57962835166E+03  0.57962835168E+03  0.50400001928E-02 0. -1.
    10030    2    1    2    0    0  0.00000000000E+00  0.00000000000E+00 -0.74540944908E+02  0.10847157585E+04  0.10821515255E+04 0.  0.
        1    1    3    3  502    0  0.39327923517E+03  0.10497780351E+03  0.32004874080E+03  0.51780314074E+03  0.50400001928E-02 0.  1.
       -1    1    3    3    0  502 -0.39327923517E+03 -0.10497780351E+03 -0.39458968571E+03  0.56691261773E+03  0.50400001928E-02 0. -1.
</event>
<event>
 5   0  0.2483036E-03  0.1096425E+04  0.7818609E-02  0.9208683E-01
       -2   -1    0    0    0  501  0.00000000000E+00  0.00000000000E+00  0.45231372338E+03  0.45231372339E+03  0.25500000920E-02 0. -1.
        2   -1    0    0  501    0  0.00000000000E+00  0.00000000000E+00 -0.66444342839E+03  0.66444342840E+03  0.25500000920E-02 0.  1.
    10030    2    1    2    0    0  0.00000000000E+00  0.00000000000E+00 -0.21212970501E+03  0.11167571518E+04  0.10964248831E+04 0.  0.
        3    1    3    3  502    0 -0.27265622148E+03 -0.33913871858E+03 -0.44568539130E+03  0.62289000937E+03  0.10100000352E+00 0.  1.
       -3    1    3    3    0  502  0.27265622148E+03  0.33913871858E+03  0.23355568629E+03  0.49386714241E+03  0.10100000352E+00 0. -1.
</event>
<event>
 5   0  0.1480937E-03  0.1096457E+04  0.7818609E-02  0.9208652E-01
       -1   -1    0    0    0  501  0.00000000000E+00  0.00000000000E+00  0.31206897601E+03  0.31206897605E+03  0.50400001928E-02 0.  1.
        1   -1    0    0  501    0  0.00000000000E+00  0.00000000000E+00 -0.96310269537E+03  0.96310269539E+03  0.50400001928E-02 0. -1.
    10030    2    1    2    0    0  0.00000000000E+00  0.00000000000E+00 -0.65103371936E+03  0.12751716714E+04  0.10964569704E+04 0.  0.
        1    1    3    3  502    0 -0.15838600907E+03  0.18879988330E+03  0.24402078126E+03  0.34681070559E+03  0.50400001928E-02 0.  1.
       -1    1    3    3    0  502  0.15838600907E+03 -0.18879988330E+03 -0.89505450062E+03  0.92836096585E+03  0.50400001928E-02 0. -1.
</event>
<event>
 5   0  0.1479573E-03  0.1088937E+04  0.7818609E-02  0.9216042E-01
        1   -1    0    0  501    0  0.00000000000E+00  0.00000000000E+00  0.70364398674E+03  0.70364398676E+03  0.50400001928E-02 0.  1.
       -1   -1    0    0    0  501  0.00000000000E+00  0.00000000000E+00 -0.42130131104E+03  0.42130131107E+03  0.50400001928E-02 0. -1.
    10030    2    1    2    0    0  0.00000000000E+00  0.00000000000E+00  0.28234267571E+03  0.11249452978E+04  0.10889373428E+04 0.  0.
        4    1    3    3  502    0  0.12044213069E+03 -0.34036542515E+03  0.56218842505E+03  0.66814097887E+03  0.12699999809E+01 0.  1.
       -4    1    3    3    0  502 -0.12044213069E+03  0.34036542515E+03 -0.27984574935E+03  0.45680431895E+03  0.12699999809E+01 0. -1.
</event>
<event>
 5   0  0.2467448E-03  0.1081777E+04  0.7818609E-02  0.9223137E-01
       -2   -1    0    0    0  501  0.00000000000E+00  0.00000000000E+00  0.18563573601E+03  0.18563573603E+03  0.25500000920E-02 0. -1.
        2   -1    0    0  501    0  0.00000000000E+00  0.00000000000E+00 -0.15759918964E+04  0.15759918964E+04  0.25500000920E-02 0.  1.
    10030    2    1    2    0    0  0.00000000000E+00  0.00000000000E+00 -0.13903561604E+04  0.17616276324E+04  0.10817770854E+04 0.  0.
        1    1    3    3  502    0 -0.94796006360E+02  0.24583624041E+03 -0.14644214500E+04  0.14879354567E+04  0.50400001928E-02 0.  1.
       -1    1    3    3    0  502  0.94796006360E+02 -0.24583624041E+03  0.74065289627E+02  0.27369217576E+03  0.50400001928E-02 0. -1.
</event>
<event>
 5   0  0.1480937E-03  0.1109054E+04  0.7818609E-02  0.9196412E-01
        1   -1    0    0  501    0  0.00000000000E+00  0.00000000000E+00  0.91150957976E+03  0.91150957978E+03  0.50400001928E-02 0. -1.
       -1   -1    0    0    0  501  0.00000000000E+00  0.00000000000E+00 -0.33735263857E+03  0.33735263861E+03  0.50400001928E-02 0.  1.
    10030    2    1    2    0    0  0.00000000000E+00  0.00000000000E+00  0.57415694119E+03  0.12488622184E+04  0.11090539425E+04 0.  0.
        1    1    3    3  502    0 -0.40155787187E+03 -0.21501036173E+03  0.64320931101E+03  0.78816013469E+03  0.50400001928E-02 0. -1.
       -1    1    3    3    0  502  0.40155787187E+03  0.21501036173E+03 -0.69052369823E+02  0.46070208369E+03  0.50400001928E-02 0.  1.
</event>
<event>
 5   0  0.1480937E-03  0.1074898E+04  0.7818609E-02  0.9230009E-01
        1   -1    0    0  501    0  0.00000000000E+00  0.00000000000E+00  0.11683595082E+04  0.11683595082E+04  0.50400001928E-02 0.  1.
       -1   -1    0    0    0  501  0.00000000000E+00  0.00000000000E+00 -0.24722825292E+03  0.24722825297E+03  0.50400001928E-02 0. -1.
    10030    2    1    2    0    0  0.00000000000E+00  0.00000000000E+00  0.92113125529E+03  0.14155877612E+04  0.10748980976E+04 0.  0.
        1    1    3    3  502    0 -0.19249418464E+03 -0.10438331250E+03 -0.18581650159E+03  0.28718923959E+03  0.50400001928E-02 0. -1.
       -1    1    3    3    0  502  0.19249418464E+03  0.10438331250E+03  0.11069477569E+04  0.11283985216E+04  0.50400001928E-02 0.  1.
</event>
<event>
 5   0  0.2483036E-03  0.1092347E+04  0.7818609E-02  0.9212683E-01
       -2   -1    0    0    0  501  0.00000000000E+00  0.00000000000E+00  0.62033858730E+03  0.62033858730E+03  0.25500000920E-02 0.  1.
        2   -1    0    0  501    0  0.00000000000E+00  0.00000000000E+00 -0.48087517234E+03  0.48087517235E+03  0.25500000920E-02 0. -1.
    10030    2    1    2    0    0  0.00000000000E+00  0.00000000000E+00  0.13946341496E+03  0.11012137597E+04  0.10923468773E+04 0.  0.
        3    1    3    3  502    0 -0.10756396780E+03 -0.35626081231E+03  0.47274371067E+03  0.60164640757E+03  0.10100000352E+00 0.  1.
       -3    1    3    3    0  502  0.10756396780E+03  0.35626081231E+03 -0.33328029572E+03  0.49956735208E+03  0.10100000352E+00 0. -1.
</event>
<event>
 5   0  0.2392585E-03  0.1106109E+04  0.7818609E-02  0.9199258E-01
        2   -1    0    0  501    0  0.00000000000E+00  0.00000000000E+00  0.16376566817E+04  0.16376566817E+04  0.25500000920E-02 0.  1.
       -2   -1    0    0    0  501  0.00000000000E+00  0.00000000000E+00 -0.18677244374E+03  0.18677244375E+03  0.25500000920E-02 0. -1.
    10030    2    1    2    0    0  0.00000000000E+00  0.00000000000E+00  0.14508842380E+04  0.18244291255E+04  0.11061087478E+04 0.  0.
        5    1    3    3  502    0 -0.10159988910E+03  0.51065163906E+02  0.16181335301E+04  0.16221308207E+04  0.46999998093E+01 0.  1.
       -5    1    3    3    0  502  0.10159988910E+03 -0.51065163906E+02 -0.16724929205E+03  0.20229830479E+03  0.46999998093E+01 0. -1.
</event>
<event>
 5   0  0.2488472E-03  0.1099214E+04  0.7818609E-02  0.9205959E-01
        2   -1    0    0  501    0  0.00000000000E+00  0.00000000000E+00  0.25888284127E+03  0.25888284129E+03  0.25500000920E-02 0.  1.
       -2   -1    0    0    0  501  0.00000000000E+00  0.00000000000E+00 -0.11668123568E+04  0.11668123568E+04  0.25500000920E-02 0. -1.
    10030    2    1    2    0    0  0.00000000000E+00  0.00000000000E+00 -0.90792951557E+03  0.14256951981E+04  0.10992137157E+04 0.  0.
        2    1    3    3  502    0  0.53304572128E+03  0.12420504881E+03 -0.51885515655E+03  0.75417193571E+03  0.25500000920E-02 0. -1.
       -2    1    3    3    0  502 -0.53304572128E+03 -0.12420504881E+03 -0.38907435902E+03  0.67152326243E+03  0.25500000920E-02 0.  1.
</event>
<event>
 5   0  0.2488472E-03  0.1089396E+04  0.7818609E-02  0.9215589E-01
       -2   -1    0    0    0  501  0.00000000000E+00  0.00000000000E+00  0.66839346866E+03  0.66839346866E+03  0.25500000920E-02 0. -1.
        2   -1    0    0  501    0  0.00000000000E+00  0.00000000000E+00 -0.44389403658E+03  0.44389403659E+03  0.25500000920E-02 0.  1.
    10030    2    1    2    0    0  0.00000000000E+00  0.00000000000E+00  0.22449943208E+03  0.11122875053E+04  0.10893959332E+04 0.  0.
        2    1    3    3  502    0  0.18774823587E+03  0.10093806292E+03  0.62403906435E+03  0.65944116224E+03  0.25500000920E-02 0. -1.
       -2    1    3    3    0  502 -0.18774823587E+03 -0.10093806292E+03 -0.39953963227E+03  0.45284634301E+03  0.25500000920E-02 0.  1.
</event>
<event>
 5   0  0.2483036E-03  0.1090911E+04  0.7818609E-02  0.9214096E-01
        2   -1    0    0  501    0  0.00000000000E+00  0.00000000000E+00  0.94653029697E+03  0.94653029697E+03  0.25500000920E-02 0.  1.
       -2   -1    0    0    0  501  0.00000000000E+00  0.00000000000E+00 -0.31432887033E+03  0.31432887034E+03  0.25500000920E-02 0. -1.
    10030    2    1    2    0    0  0.00000000000E+00  0.00000000000E+00  0.63220142664E+03  0.12608591673E+04  0.10909111769E+04 0.  0.
        3    1    3    3  502    0 -0.57664761514E+02 -0.53930424710E+03  0.24922983369E+03  0.59690017244E+03  0.10100000352E+00 0. -1.
       -3    1    3    3    0  502  0.57664761514E+02  0.53930424710E+03  0.38297159295E+03  0.66395899487E+03  0.10100000352E+00 0.  1.
</event>
<event>
 5   0  0.1415400E-03  0.1097841E+04  0.7818609E-02  0.9207299E-01
       -1   -1    0    0    0  501  0.00000000000E+00  0.00000000000E+00  0.11872098449E+04  0.11872098449E+04  0.50400001928E-02 0.  1.
        1   -1    0    0  501    0  0.00000000000E+00  0.00000000000E+00 -0.25379971389E+03  0.25379971394E+03  0.50400001928E-02 0. -1.
    10030    2    1    2    0    0  0.00000000000E+00  0.00000000000E+00  0.93341013098E+03  0.14410095588E+04  0.10978406423E+04 0.  0.
        2    1    3    3  502    0  0.18756542518E+03 -0.51588027172E+03  0.46601609678E+03  0.72005850175E+03  0.25500000920E-02 0.  1.
       -2    1    3    3    0  502 -0.18756542518E+03  0.51588027172E+03  0.46739403420E+03  0.72095105707E+03  0.25500000920E-02 0. -1.
</event>
<event>
 5   0  0.2467448E-03  0.1077160E+04  0.7818609E-02  0.9227744E-01
        2   -1    0    0  501    0  0.00000000000E+00  0.00000000000E+00  0.82612018833E+03  0.82612018833E+03  0.25500000920E-02 0.  1.
       -2   -1    0    0    0  501  0.00000000000E+00  0.00000000000E+00 -0.35112107473E+03  0.35112107474E+03  0.25500000920E-02 0. -1.
    10030    2    1    2    0    0  0.00000000000E+00  0.00000000000E+00  0.47499911360E+03  0.11772412631E+04  0.10771596138E+04 0.  0.
        1    1    3    3  502    0  0.12978866807E+03  0.49987634398E+03  0.40449269925E+03  0.65599984863E+03  0.50400001928E-02 0.  1.
       -1    1    3    3    0  502 -0.12978866807E+03 -0.49987634398E+03  0.70506414347E+02  0.52124141443E+03  0.50400001928E-02 0. -1.
</event>
<event>
 5   0  0.1480937E-03  0.1107374E+04  0.7818609E-02  0.9198034E-01
        1   -1    0    0  501    0  0.00000000000E+00  0.00000000000E+00  0.10592420209E+04  0.10592420209E+04  0.50400001928E-02 0. -1.
       -1   -1    0    0    0  501  0.00000000000E+00  0.00000000000E+00 -0.28942335446E+03  0.28942335450E+03  0.50400001928E-02 0.  1.
    10030    2    1    2    0    0  0.00000000000E+00  0.00000000000E+00  0.76981866641E+03  0.13486653754E+04  0.11073741534E+04 0.  0.
        1    1    3    3  502    0 -0.53655085041E+03  0.13341380278E+03  0.42110604403E+03  0.69499378284E+03  0.50400001928E-02 0. -1.
       -1    1    3    3    0  502  0.53655085041E+03 -0.13341380278E+03  0.34871262238E+03  0.65367159253E+03  0.50400001928E-02 0.  1.
</event>
<event>
 5   0  0.1509004E-03  0.1099598E+04  0.7818609E-02  0.9205584E-01
       -1   -1    0    0    0  501  0.00000000000E+00  0.00000000000E+00  0.80209077652E+03  0.80209077654E+03  0.50400001928E-02 0. -1.
        1   -1    0    0  501    0  0.00000000000E+00  0.00000000000E+00 -0.37686351186E+03  0.37686351189E+03  0.50400001928E-02 0.  1.
    10030    2    1    2    0    0  0.00000000000E+00  0.00000000000E+00  0.42522726466E+03  0.11789542884E+04  0.10995976480E+04 0.  0.
        3    1    3    3  502    0 -0.65910074674E+02 -0.51232159206E+03  0.41451524450E+03  0.66229936566E+03  0.10100000352E+00 0. -1.
       -3    1    3    3    0  502  0.65910074674E+02  0.51232159206E+03  0.10712020167E+02  0.51665492276E+03  0.10100000352E+00 0.  1.
</event>
<event>
 5   0  0.1479573E-03  0.1020193E+04  0.7818609E-02  0.9286670E-01
        1   -1    0    0  501    0  0.00000000000E+00  0.00000000000E+00  0.48658690335E+03  0.48658690338E+03  0.50400001928E-02 0. -1.
       -1   -1    0    0    0  501  0.00000000000E+00  0.00000000000E+00 -0.53474239961E+03  0.53474239964E+03  0.50400001928E-02 0.  1.
    10030    2    1    2    0    0  0.00000000000E+00  0.00000000000E+00 -0.48155496260E+02  0.10213293030E+04  0.10201934098E+04 0.  0.
        4    1    3    3  502    0  0.20706730532E+03  0.44123498774E+02  0.44052223870E+03  0.48875884418E+03  0.12699999809E+01 0. -1.
       -4    1    3    3    0  502 -0.20706730532E+03 -0.44123498774E+02 -0.48867773496E+03  0.53257045883E+03  0.12699999809E+01 0.  1.
</event>
<event>
 5   0  0.2438115E-03  0.1105960E+04  0.7818609E-02  0.9199402E-01
        2   -1    0    0  501    0  0.00000000000E+00  0.00000000000E+00  0.89448630908E+03  0.89448630908E+03  0.25500000920E-02 0. -1.
       -2   -1    0    0    0  501  0.00000000000E+00  0.00000000000E+00 -0.34185764791E+03  0.34185764792E+03  0.25500000920E-02 0.  1.
    10030    2    1    2    0    0  0.00000000000E+00  0.00000000000E+00  0.55262866117E+03  0.12363439570E+04  0.11059601905E+04 0.  0.
        4    1    3    3  502    0 -0.32797945651E+02 -0.45139560501E+03 -0.78872276158E+02  0.45940847435E+03  0.12699999809E+01 0.  1.
       -4    1    3    3    0  502  0.32797945651E+02  0.45139560501E+03  0.63150093733E+03  0.77693548265E+03  0.12699999809E+01 0. -1.
</event>
<event>
 5   0  0.1509004E-03  0.1109290E+04  0.7818609E-02  0.9196184E-01
        1   -1    0    0  501    0  0.00000000000E+00  0.00000000000E+00  0.59492002268E+03  0.59492002270E+03  0.50400001928E-02 0.  1.
       -1   -1    0    0    0  501  0.00000000000E+00  0.00000000000E+00 -0.51709637441E+03  0.51709637444E+03  0.50400001928E-02 0. -1.
    10030    2    1    2    0    0  0.00000000000E+00  0.00000000000E+00  0.77823648263E+02  0.11120163971E+04  0.11092898392E+04 0.  0.
        3    1    3    3  502    0  0.38637614202E+03 -0.39769013828E+03  0.25203146445E+02  0.55504880686E+03  0.10100000352E+00 0. -1.
       -3    1    3    3    0  502 -0.38637614202E+03  0.39769013828E+03  0.52620501818E+02  0.55696759028E+03  0.10100000352E+00 0.  1.
</event>
<event>
 5   0  0.2392585E-03  0.1098886E+04  0.7818609E-02  0.9206278E-01
       -2   -1    0    0    0  501  0.00000000000E+00  0.00000000000E+00  0.17634657227E+03  0.17634657228E+03  0.25500000920E-02 0. -1.
        2   -1    0    0  501    0  0.00000000000E+00  0.00000000000E+00 -0.17119010453E+04  0.17119010453E+04  0.25500000920E-02 0.  1.
    10030    2    1    2    0    0  0.00000000000E+00  0.00000000000E+00 -0.15355544730E+04  0.18882476175E+04  0.10988864935E+04 0.  0.
        5    1    3    3  502    0 -0.16884939141E+03 -0.12177588771E+03  0.10591501005E+03  0.23362269401E+03  0.46999998093E+01 0. -1.
       -5    1    3    3    0  502  0.16884939141E+03  0.12177588771E+03 -0.16414694830E+04  0.16546249235E+04  0.46999998093E+01 0.  1.
</event>
<event>
 5   0  0.1509004E-03  0.1100996E+04  0.7818609E-02  0.9204222E-01
       -1   -1    0    0    0  501  0.00000000000E+00  0.00000000000E+00  0.31131077353E+03  0.31131077357E+03  0.50400001928E-02 0. -1.
        1   -1    0    0  501    0  0.00000000000E+00  0.00000000000E+00 -0.97345851917E+03  0.97345851919E+03  0.50400001928E-02 0.  1.
    10030    2    1    2    0    0  0.00000000000E+00  0.00000000000E+00 -0.66214774564E+03  0.12847692928E+04  0.11009961392E+04 0.  0.
        3    1    3    3  502    0 -0.99584636015E+02  0.10563234714E+03  0.28857116659E+03  0.32303037145E+03  0.10100000352E+00 0. -1.
       -3    1    3    3    0  502  0.99584636015E+02 -0.10563234714E+03 -0.95071891223E+03  0.96173892131E+03  0.10100000352E+00 0.  1.
</event>
<event>
 5   0  0.2467448E-03  0.1153043E+04  0.7818609E-02  0.9154980E-01
       -2   -1    0    0    0  501  0.00000000000E+00  0.00000000000E+00  0.32114933094E+03  0.32114933095E+03  0.25500000920E-02 0.  1.
        2   -1    0    0  501    0  0.00000000000E+00  0.00000000000E+00 -0.10349617250E+04  0.10349617250E+04  0.25500000920E-02 0. -1.
    10030    2    1    2    0    0  0.00000000000E+00  0.00000000000E+00 -0.71381239407E+03  0.13561110560E+04  0.11530433913E+04 0.  0.
        1    1    3    3  502    0 -0.75559475768E+02 -0.24432643970E+03  0.25078503341E+03  0.35818678999E+03  0.50400001928E-02 0.  1.
       -1    1    3    3    0  502  0.75559475768E+02  0.24432643970E+03 -0.96459742748E+03  0.99792426598E+03  0.50400001928E-02 0. -1.
</event>
<event>
 5   0  0.1509004E-03  0.1102963E+04  0.7818609E-02  0.9202308E-01
       -1   -1    0    0    0  501  0.00000000000E+00  0.00000000000E+00  0.36763225249E+03  0.36763225252E+03  0.50400001928E-02 0. -1.
        1   -1    0    0  501    0  0.00000000000E+00  0.00000000000E+00 -0.82727234873E+03  0.82727234875E+03  0.50400001928E-02 0.  1.
    10030    2    1    2    0    0  0.00000000000E+00  0.00000000000E+00 -0.45964009624E+03  0.11949046013E+04  0.11029632759E+04 0.  0.
        3    1    3    3  502    0  0.28651061527E+02 -0.41024837621E+03 -0.62788223524E+03  0.75057359735E+03  0.10100000352E+00 0.  1.
       -3    1    3    3    0  502 -0.28651061527E+02  0.41024837621E+03  0.16824213900E+03  0.44433100392E+03  0.10100000352E+00 0. -1.
</event>
<event>
 5   0  0.2392585E-03  0.1096073E+04  0.7818609E-02  0.9209028E-01
       -2   -1    0    0    0  501  0.00000000000E+00  0.00000000000E+00  0.22826134222E+03  0.22826134224E+03  0.25500000920E-02 0.  1.
        2   -1    0    0  501    0  0.00000000000E+00  0.00000000000E+00 -0.13157897302E+04  0.13157897302E+04  0.25500000920E-02 0. -1.
    10030    2    1    2    0    0  0.00000000000E+00  0.00000000000E+00 -0.10875283880E+04  0.15440510725E+04  0.10960728624E+04 0.  0.
        5    1    3    3  502    0 -0.29453045043E+03 -0.88469769547E+02 -0.11827463521E+04  0.12220826935E+04  0.46999998093E+01 0. -1.
       -5    1    3    3    0  502  0.29453045043E+03  0.88469769547E+02  0.95217964113E+02  0.32196837895E+03  0.46999998093E+01 0.  1.
</event>
<event>
 5   0  0.2483036E-03  0.1094902E+04  0.7818609E-02  0.9210175E-01
        2   -1    0    0  501    0  0.00000000000E+00  0.00000000000E+00  0.21377768973E+04  0.21377768973E+04  0.25500000920E-02 0. -1.
       -2   -1    0    0    0  501  0.00000000000E+00  0.00000000000E+00 -0.14019364313E+03  0.14019364316E+03  0.25500000920E-02 0.  1.
    10030    2    1    2    0    0  0.00000000000E+00  0.00000000000E+00  0.19975832542E+04  0.22779705405E+04  0.10949022449E+04 0.  0.
        3    1    3    3  502    0 -0.31549858936E+02 -0.43156124408E+03  0.30107980180E+03  0.52715231029E+03  0.10100000352E+00 0.  1.
       -3    1    3    3    0  502  0.31549858936E+02  0.43156124408E+03  0.16965034524E+04  0.17508182302E+04  0.10100000352E+00 0. -1.
</event>
<event>
 5   0  0.2483036E-03  0.1096625E+04  0.7818609E-02  0.9208487E-01
       -2   -1    0    0    0  501  0.00000000000E+00  0.00000000000E+00  0.29624729921E+03  0.29624729922E+03  0.25500000920E-02 0. -1.
        2   -1    0    0  501    0  0.00000000000E+00  0.00000000000E+00 -0.10148503410E+04  0.10148503410E+04  0.25500000920E-02 0.  1.
    10030    2    1    2    0    0  0.00000000000E+00  0.00000000000E+00 -0.71860304182E+03  0.13110976403E+04  0.10966251368E+04 0.  0.
        3    1    3    3  502    0 -0.37976007114E+03  0.35991659303E+03 -0.16325274297E+03  0.54809591666E+03  0.10100000352E+00 0. -1.
       -3    1    3    3    0  502  0.37976007114E+03 -0.35991659303E+03 -0.55535029885E+03  0.76300172359E+03  0.10100000352E+00 0.  1.
</event>
<event>
 5   0  0.1479573E-03  0.1093445E+04  0.7818609E-02  0.9211605E-01
        1   -1    0    0  501    0  0.00000000000E+00  0.00000000000E+00  0.59765630923E+03  0.59765630925E+03  0.50400001928E-02 0.  1.
       -1   -1    0    0    0  501  0.00000000000E+00  0.00000000000E+00 -0.50012914849E+03  0.50012914851E+03  0.50400001928E-02 0. -1.
    10030    2    1    2    0    0  0.00000000000E+00  0.00000000000E+00  0.97527160747E+02  0.10977854578E+04  0.10934447239E+04 0.  0.
        4    1    3    3  502    0 -0.17328532309E+03  0.48278365470E+02  0.56709318146E+03  0.59494108375E+03  0.12699999809E+01 0.  1.
       -4    1    3    3    0  502  0.17328532309E+03 -0.48278365470E+02 -0.46956602072E+03  0.50284437402E+03  0.12699999809E+01 0. -1.
</event>
<event>
 5   0  0.1479573E-03  0.1092344E+04  0.7818609E-02  0.9212686E-01
       -1   -1    0    0    0  501  0.00000000000E+00  0.00000000000E+00  0.31998318355E+03  0.31998318359E+03  0.50400001928E-02 0.  1.
        1   -1    0    0  501    0  0.00000000000E+00  0.00000000000E+00 -0.93224935058E+03  0.93224935059E+03  0.50400001928E-02 0. -1.
    10030    2    1    2    0    0  0.00000000000E+00  0.00000000000E+00 -0.61226616703E+03  0.12522325342E+04  0.10923444788E+04 0.  0.
        4    1    3    3  502    0 -0.24433137923E+03 -0.43404870544E+03 -0.56299806969E+03  0.75170774969E+03  0.12699999809E+01 0. -1.
       -4    1    3    3    0  502  0.24433137923E+03  0.43404870544E+03 -0.49268097339E+02  0.50052478449E+03  0.12699999809E+01 0.  1.
</event>
<event>
 5   0  0.1480937E-03  0.1101496E+04  0.7818609E-02  0.9203735E-01
        1   -1    0    0  501    0  0.00000000000E+00  0.00000000000E+00  0.15917900646E+04  0.15917900647E+04  0.50400001928E-02 0.  1.
       -1   -1    0    0    0  501  0.00000000000E+00  0.00000000000E+00 -0.19055499976E+03  0.19055499982E+03  0.50400001928E-02 0. -1.
    10030    2    1    2    0    0  0.00000000000E+00  0.00000000000E+00  0.14012350649E+04  0.17823450645E+04  0.11014963558E+04 0.  0.
        1    1    3    3  502    0 -0.50310272151E+03  0.14771286234E+03  0.42796620671E+03  0.67682088635E+03  0.50400001928E-02 0. -1.
       -1    1    3    3    0  502  0.50310272151E+03 -0.14771286234E+03  0.97326885818E+03  0.11055241781E+04  0.50400001928E-02 0.  1.
</event>
<event>
 5   0  0.1468556E-03  0.1137199E+04  0.7818609E-02  0.9169675E-01
       -1   -1    0    0    0  501  0.00000000000E+00  0.00000000000E+00  0.73743641993E+03  0.73743641995E+03  0.50400001928E-02 0. -1.
        1   -1    0    0  501    0  0.00000000000E+00  0.00000000000E+00 -0.43841826584E+03  0.43841826587E+03  0.50400001928E-02 0.  1.
    10030    2    1    2    0    0  0.00000000000E+00  0.00000000000E+00  0.29901815409E+03  0.11758546858E+04  0.11371993606E+04 0.  0.
        5    1    3    3  502    0 -0.55867325702E+03 -0.48306523242E+02  0.52323879175E+02  0.56321328697E+03  0.46999998093E+01 0.  1.
       -5    1    3    3    0  502  0.55867325702E+03  0.48306523242E+02  0.24669427492E+03  0.61264139884E+03  0.46999998093E+01 0. -1.
</event>
<event>
 5   0  0.1509004E-03  0.1106222E+04  0.7818609E-02  0.9199149E-01
       -1   -1    0    0    0  501  0.00000000000E+00  0.00000000000E+00  0.43969101285E+03  0.43969101288E+03  0.50400001928E-02 0.  1.
        1   -1    0    0  501    0  0.00000000000E+00  0.00000000000E+00 -0.69578752616E+03  0.69578752617E+03  0.50400001928E-02 0. -1.
    10030    2    1    2    0    0  0.00000000000E+00  0.00000000000E+00 -0.25609651330E+03  0.11354785391E+04  0.11062215368E+04 0.  0.
        3    1    3    3  502    0 -0.77400344080E+01 -0.21190537709E+03  0.39631253727E+03  0.44947462038E+03  0.10100000352E+00 0.  1.
       -3    1    3    3    0  502  0.77400344080E+01  0.21190537709E+03 -0.65240905057E+03  0.68600391868E+03  0.10100000352E+00 0. -1.
</event>
<event>
 5   0  0.1415400E-03  0.1099093E+04  0.7818609E-02  0.9206077E-01
       -1   -1    0    0    0  501  0.00000000000E+00  0.00000000000E+00  0.53357280584E+03  0.53357280586E+03  0.50400001928E-02 0. -1.
        1   -1    0    0  501    0  0.00000000000E+00  0.00000000000E+00 -0.56599792934E+03  0.56599792936E+03  0.50400001928E-02 0.  1.
    10030    2    1    2    0    0  0.00000000000E+00  0.00000000000E+00 -0.32425123504E+02  0.10995707352E+04  0.10990925407E+04 0.  0.
        2    1    3    3  502    0 -0.38522287962E+03  0.16696312993E+03  0.33852280002E+03  0.53932461457E+03  0.25500000920E-02 0. -1.
       -2    1    3    3    0  502  0.38522287962E+03 -0.16696312993E+03 -0.37094792353E+03  0.56024612066E+03  0.25500000920E-02 0.  1.
</event>
<event>
 5   0  0.1415400E-03  0.1103597E+04  0.7818609E-02  0.9201693E-01
       -1   -1    0    0    0  501  0.00000000000E+00  0.00000000000E+00  0.77086438644E+03  0.77086438645E+03  0.50400001928E-02 0. -1.
        1   -1    0    0  501    0  0.00000000000E+00  0.00000000000E+00 -0.39498709017E+03  0.39498709020E+03  0.50400001928E-02 0.  1.
    10030    2    1    2    0    0  0.00000000000E+00  0.00000000000E+00  0.37587729627E+03  0.11658514767E+04  0.11035968121E+04 0.  0.
        2    1    3    3  502    0  0.21037423209E+03 -0.31673763764E+03  0.61037274661E+03  0.71912094841E+03  0.25500000920E-02 0. -1.
       -2    1    3    3    0  502 -0.21037423209E+03  0.31673763764E+03 -0.23449545035E+03  0.44673052825E+03  0.25500000920E-02 0.  1.
</event>
<event>
 5   0  0.2488472E-03  0.1103822E+04  0.7818609E-02  0.9201475E-01
        2   -1    0    0  501    0  0.00000000000E+00  0.00000000000E+00  0.31902866959E+03  0.31902866960E+03  0.25500000920E-02 0. -1.
       -2   -1    0    0    0  501  0.00000000000E+00  0.00000000000E+00 -0.95479041587E+03  0.95479041588E+03  0.25500000920E-02 0.  1.
    10030    2    1    2    0    0  0.00000000000E+00  0.00000000000E+00 -0.63576174628E+03  0.12738190855E+04  0.11038215728E+04 0.  0.
        2    1    3    3  502    0  0.20389654203E+03  0.48417605494E+03 -0.51305931868E+03  0.73432289663E+03  0.25500000920E-02 0.  1.
       -2    1    3    3    0  502 -0.20389654203E+03 -0.48417605494E+03 -0.12270242760E+03  0.53949618884E+03  0.25500000920E-02 0. -1.
</event>
<event>
 5   0  0.1468556E-03  0.1110241E+04  0.7818609E-02  0.9195267E-01
       -1   -1    0    0    0  501  0.00000000000E+00  0.00000000000E+00  0.40259706474E+03  0.40259706477E+03  0.50400001928E-02 0. -1.
        1   -1    0    0  501    0  0.00000000000E+00  0.00000000000E+00 -0.76542736892E+03  0.76542736893E+03  0.50400001928E-02 0.  1.
    10030    2    1    2    0    0  0.00000000000E+00  0.00000000000E+00 -0.36283030418E+03  0.11680244337E+04  0.11102410766E+04 0.  0.
        5    1    3    3  502    0  0.44608607713E+02  0.13977830648E+03 -0.74463689405E+03  0.75896910137E+03  0.46999998093E+01 0.  1.
       -5    1    3    3    0  502 -0.44608607713E+02 -0.13977830648E+03  0.38180658987E+03  0.40905533234E+03  0.46999998093E+01 0. -1.
</event>
<event>
 5   0  0.1480937E-03  0.1096125E+04  0.7818609E-02  0.9208977E-01
        1   -1    0    0  501    0  0.00000000000E+00  0.00000000000E+00  0.16073484817E+04  0.16073484817E+04  0.50400001928E-02 0. -1.
       -1   -1    0    0    0  501  0.00000000000E+00  0.00000000000E+00 -0.18687462306E+03  0.18687462313E+03  0.50400001928E-02 0.  1.
    10030    2    1    2    0    0  0.00000000000E+00  0.00000000000E+00  0.14204738586E+04  0.17942231048E+04  0.10961252514E+04 0.  0.
        1    1    3    3  502    0  0.14594267325E+03 -0.39258859416E+03  0.13163460285E+03  0.43903614524E+03  0.50400001928E-02 0.  1.
       -1    1    3    3    0  502 -0.14594267325E+03  0.39258859416E+03  0.12888392558E+04  0.13551869596E+04  0.50400001928E-02 0. -1.
</event>
<event>
 5   0  0.2488472E-03  0.1102742E+04  0.7818609E-02  0.9202523E-01
        2   -1    0    0  501    0  0.00000000000E+00  0.00000000000E+00  0.12041029597E+04  0.12041029597E+04  0.25500000920E-02 0.  1.
       -2   -1    0    0    0  501  0.00000000000E+00  0.00000000000E+00 -0.25247851587E+03  0.25247851588E+03  0.25500000920E-02 0. -1.
    10030    2    1    2    0    0  0.00000000000E+00  0.00000000000E+00  0.95162444386E+03  0.14565814756E+04  0.11027422695E+04 0.  0.
        2    1    3    3  502    0  0.51749252542E+03  0.88972375411E+02  0.69799975289E+03  0.87345191768E+03  0.25500000920E-02 0.  1.
       -2    1    3    3    0  502 -0.51749252542E+03 -0.88972375411E+02  0.25362469097E+03  0.58312955793E+03  0.25500000920E-02 0. -1.
</event>
<event>
 5   0  0.1415400E-03  0.1100294E+04  0.7818609E-02  0.9204906E-01
        1   -1    0    0  501    0  0.00000000000E+00  0.00000000000E+00  0.27748866828E+03  0.27748866833E+03  0.50400001928E-02 0. -1.
       -1   -1    0    0    0  501  0.00000000000E+00  0.00000000000E+00 -0.10907167378E+04  0.10907167378E+04  0.50400001928E-02 0.  1.
    10030    2    1    2    0    0  0.00000000000E+00  0.00000000000E+00 -0.81322806952E+03  0.13682054061E+04  0.11002936610E+04 0.  0.
        2    1    3    3  502    0  0.97217086342E+01  0.44936996679E+03 -0.12143728306E+02  0.44963913177E+03  0.25500000920E-02 0. -1.
       -2    1    3    3    0  502 -0.97217086342E+01 -0.44936996679E+03 -0.80108434122E+03  0.91856627438E+03  0.25500000920E-02 0.  1.
</event>
<event>
 5   0  0.1468556E-03  0.1097206E+04  0.7818609E-02  0.9207919E-01
        1   -1    0    0  501    0  0.00000000000E+00  0.00000000000E+00  0.66135823139E+03  0.66135823141E+03  0.50400001928E-02 0. -1.
       -1   -1    0    0    0  501  0.00000000000E+00  0.00000000000E+00 -0.45507163837E+03  0.45507163840E+03  0.50400001928E-02 0.  1.
    10030    2    1    2    0    0  0.00000000000E+00  0.00000000000E+00  0.20628659301E+03  0.11164298698E+04  0.10972062230E+04 0.  0.
        5    1    3    3  502    0  0.45038438482E+03  0.13924343248E+03 -0.18232237034E+03  0.50546846024E+03  0.46999998093E+01 0.  1.
       -5    1    3    3    0  502 -0.45038438482E+03 -0.13924343248E+03  0.38860896336E+03  0.61096140956E+03  0.46999998093E+01 0. -1.
</event>
<event>
 5   0  0.2467448E-03  0.1083448E+04  0.7818609E-02  0.9221476E-01
        2   -1    0    0  501    0  0.00000000000E+00  0.00000000000E+00  0.18387471918E+04  0.18387471918E+04  0.25500000920E-02 0. -1.
       -2   -1    0    0    0  501  0.00000000000E+00  0.00000000000E+00 -0.15960049470E+03  0.15960049472E+03  0.25500000920E-02 0.  1.
    10030    2    1    2    0    0  0.00000000000E+00  0.00000000000E+00  0.16791466971E+04  0.19983476865E+04  0.10834481279E+04 0.  0.
        1    1    3    3  502    0 -0.32161048837E+03 -0.70827672479E+02  0.46220270086E+02  0.33254500269E+03  0.50400001928E-02 0.  1.
       -1    1    3    3    0  502  0.32161048837E+03  0.70827672479E+02  0.16329264270E+04  0.16658026838E+04  0.50400001928E-02 0. -1.
</event>
<event>
 5   0  0.2488472E-03  0.1114595E+04  0.7818609E-02  0.9191082E-01
        2   -1    0    0  501    0  0.00000000000E+00  0.00000000000E+00  0.17206248174E+03  0.17206248176E+03  0.25500000920E-02 0. -1.
       -2   -1    0    0    0  501  0.00000000000E+00  0.00000000000E+00 -0.18050444116E+04  0.18050444117E+04  0.25500000920E-02 0.  1.
    10030    2    1    2    0    0  0.00000000000E+00  0.00000000000E+00 -0.16329819299E+04  0.19771068934E+04  0.11145948522E+04 0.  0.
        2    1    3    3  502    0  0.47997200150E+03  0.12358852311E+03 -0.12684992963E+04  0.13618875541E+04  0.25500000920E-02 0.  1.
       -2    1    3    3    0  502 -0.47997200150E+03 -0.12358852311E+03 -0.36448263361E+03  0.61521933932E+03  0.25500000920E-02 0. -1.
</event>
<event>
 5   0  0.2438115E-03  0.1099015E+04  0.7818609E-02  0.9206153E-01
       -2   -1    0    0    0  501  0.00000000000E+00  0.00000000000E+00  0.41813234099E+03  0.41813234100E+03  0.25500000920E-02 0.  1.
        2   -1    0    0  501    0  0.00000000000E+00  0.00000000000E+00 -0.72215961576E+03  0.72215961577E+03  0.25500000920E-02 0. -1.
    10030    2    1    2    0    0  0.00000000000E+00  0.00000000000E+00 -0.30402727477E+03  0.11402919568E+04  0.10990146327E+04 0.  0.
        4    1    3    3  502    0 -0.15547453804E+03 -0.14470096803E+03 -0.67784800679E+03  0.71034515226E+03  0.12699999809E+01 0. -1.
       -4    1    3    3    0  502  0.15547453804E+03  0.14470096803E+03  0.37382073202E+03  0.42994680452E+03  0.12699999809E+01 0.  1.
</event>
<event>
 5   0  0.2392585E-03  0.1102234E+04  0.7818609E-02  0.9203017E-01
        2   -1    0    0  501    0  0.00000000000E+00  0.00000000000E+00  0.13021421096E+04  0.13021421096E+04  0.25500000920E-02 0. -1.
       -2   -1    0    0    0  501  0.00000000000E+00  0.00000000000E+00 -0.23325404901E+03  0.23325404902E+03  0.25500000920E-02 0.  1.
    10030    2    1    2    0    0  0.00000000000E+00  0.00000000000E+00  0.10688880606E+04  0.15353961587E+04  0.11022339488E+04 0.  0.
        5    1    3    3  502    0 -0.24124183276E+03  0.44674909214E+03  0.83296401207E+03  0.97551704681E+03  0.46999998093E+01 0. -1.
       -5    1    3    3    0  502  0.24124183276E+03 -0.44674909214E+03  0.23592404855E+03  0.55987911185E+03  0.46999998093E+01 0.  1.
</event>
<event>
 5   0  0.2438115E-03  0.1101714E+04  0.7818609E-02  0.9203523E-01
        2   -1    0    0  501    0  0.00000000000E+00  0.00000000000E+00  0.22068297652E+04  0.22068297652E+04  0.25500000920E-02 0.  1.
       -2   -1    0    0    0  501  0.00000000000E+00  0.00000000000E+00 -0.13750193837E+03  0.13750193839E+03  0.25500000920E-02 0. -1.
    10030    2    1    2    0    0  0.00000000000E+00  0.00000000000E+00  0.20693278269E+04  0.23443317036E+04  0.11017138837E+04 0.  0.
        4    1    3    3  502    0 -0.74881063580E+01  0.48964199648E+03  0.15714522162E+04  0.16459857342E+04  0.12699999809E+01 0.  1.
       -4    1    3    3    0  502  0.74881063580E+01 -0.48964199648E+03  0.49787561069E+03  0.69834596946E+03  0.12699999809E+01 0. -1.
</event>
<event>
 5   0  0.2467448E-03  0.1095833E+04  0.7818609E-02  0.9209263E-01
        2   -1    0    0  501    0  0.00000000000E+00  0.00000000000E+00  0.12856723520E+04  0.12856723520E+04  0.25500000920E-02 0. -1.
       -2   -1    0    0    0  501  0.00000000000E+00  0.00000000000E+00 -0.23350616727E+03  0.23350616728E+03  0.25500000920E-02 0.  1.
    10030    2    1    2    0    0  0.00000000000E+00  0.00000000000E+00  0.10521661847E+04  0.15191785192E+04  0.10958328765E+04 0.  0.
        1    1    3    3  502    0  0.53737669755E+03 -0.98853836222E+02  0.46948735471E+03  0.72039167975E+03  0.50400001928E-02 0. -1.
       -1    1    3    3    0  502 -0.53737669755E+03  0.98853836222E+02  0.58267882999E+03  0.79878683950E+03  0.50400001928E-02 0.  1.
</event>
<event>
 5   0  0.1415400E-03  0.1177660E+04  0.7818609E-02  0.9132638E-01
        1   -1    0    0  501    0  0.00000000000E+00  0.00000000000E+00  0.96532568809E+03  0.96532568810E+03  0.50400001928E-02 0. -1.
       -1   -1    0    0    0  501  0.00000000000E+00  0.00000000000E+00 -0.35917506315E+03  0.35917506319E+03  0.50400001928E-02 0.  1.
    10030    2    1    2    0    0  0.00000000000E+00  0.00000000000E+00  0.60615062493E+03  0.13245007513E+04  0.11776602481E+04 0.  0.
        2    1    3    3  502    0 -0.48238600973E+03 -0.19315571075E+03  0.61458662396E+03  0.80481184717E+03  0.25500000920E-02 0. -1.
       -2    1    3    3    0  502  0.48238600973E+03  0.19315571075E+03 -0.84359990291E+01  0.51968890412E+03  0.25500000920E-02 0.  1.
</event>
<event>
 5   0  0.2488472E-03  0.1088199E+04  0.7818609E-02  0.9216771E-01
        2   -1    0    0  501    0  0.00000000000E+00  0.00000000000E+00  0.11810992725E+04  0.11810992725E+04  0.25500000920E-02 0.  1.
       -2   -1    0    0    0  501  0.00000000000E+00  0.00000000000E+00 -0.25065137622E+03  0.25065137624E+03  0.25500000920E-02 0. -1.
    10030    2    1    2    0    0  0.00000000000E+00  0.00000000000E+00  0.93044789631E+03  0.14317506488E+04  0.10881988019E+04 0.  0.
        2    1    3    3  502    0 -0.51556743829E+03 -0.21595825092E+02  0.23821972465E+03  0.56835270766E+03  0.25500000920E-02 0. -1.
       -2    1    3    3    0  502  0.51556743829E+03  0.21595825092E+02  0.69222817166E+03  0.86339794112E+03  0.25500000920E-02 0.  1.
</event>
<event>
 5   0  0.2483036E-03  0.1097429E+04  0.7818609E-02  0.9207702E-01
       -2   -1    0    0    0  501  0.00000000000E+00  0.00000000000E+00  0.30308863778E+03  0.30308863779E+03  0.25500000920E-02 0. -1.
        2   -1    0    0  501    0  0.00000000000E+00  0.00000000000E+00 -0.99339744857E+03  0.99339744857E+03  0.25500000920E-02 0.  1.
    10030    2    1    2    0    0  0.00000000000E+00  0.00000000000E+00 -0.69030881079E+03  0.12964860864E+04  0.10974287758E+04 0.  0.
        3    1    3    3  502    0 -0.35371432086E+03 -0.36456036908E+03 -0.59032922014E+03  0.77878538882E+03  0.10100000352E+00 0.  1.
       -3    1    3    3    0  502  0.35371432086E+03  0.36456036908E+03 -0.99979590646E+02  0.51770069754E+03  0.10100000352E+00 0. -1.
</event>
<event>
 5   0  0.2392585E-03  0.1109543E+04  0.7818609E-02  0.9195940E-01
        2   -1    0    0  501    0  0.00000000000E+00  0.00000000000E+00  0.13768114064E+04  0.13768114064E+04  0.25500000920E-02 0. -1.
       -2   -1    0    0    0  501  0.00000000000E+00  0.00000000000E+00 -0.22353922945E+03  0.22353922947E+03  0.25500000920E-02 0.  1.
    10030    2    1    2    0    0  0.00000000000E+00  0.00000000000E+00  0.11532721769E+04  0.16003506358E+04  0.11095428985E+04 0.  0.
        5    1    3    3  502    0 -0.48056250846E+03 -0.27193486548E+03  0.65377660771E+03  0.85576564455E+03  0.46999998093E+01 0.  1.
       -5    1    3    3    0  502  0.48056250846E+03  0.27193486548E+03  0.49949556919E+03  0.74458499128E+03  0.46999998093E+01 0. -1.
</event>
<event>
 5   0  0.2467448E-03  0.1096236E+04  0.7818609E-02  0.9208868E-01
       -2   -1    0    0    0  501  0.00000000000E+00  0.00000000000E+00  0.20148262566E+03  0.20148262567E+03  0.25500000920E-02 0. -1.
        2   -1    0    0  501    0  0.00000000000E+00  0.00000000000E+00 -0.14911128665E+04  0.14911128665E+04  0.25500000920E-02 0.  1.
    10030    2    1    2    0    0  0.00000000000E+00  0.00000000000E+00 -0.12896302408E+04  0.16925954922E+04  0.10962359883E+04 0.  0.
        1    1    3    3  502    0  0.17738636812E+03  0.37483263670E+03 -0.91405827341E+02  0.42464155994E+03  0.50400001928E-02 0. -1.
       -1    1    3    3    0  502 -0.17738636812E+03 -0.37483263670E+03 -0.11982244135E+04  0.12679539322E+04  0.50400001928E-02 0.  1.
</event>
<event>
 5   0  0.1480937E-03  0.1099104E+04  0.7818609E-02  0.9206066E-01
       -1   -1    0    0    0  501  0.00000000000E+00  0.00000000000E+00  0.66308991293E+03  0.66308991295E+03  0.50400001928E-02 0.  1.
        1   -1    0    0  501    0  0.00000000000E+00  0.00000000000E+00 -0.45545441184E+03  0.45545441187E+03  0.50400001928E-02 0. -1.
    10030    2    1    2    0    0  0.00000000000E+00  0.00000000000E+00  0.20763550109E+03  0.11185443248E+04  0.10991036827E+04 0.  0.
        1    1    3    3  502    0  0.24181347709E+03  0.46638934911E+03 -0.60325037807E+02  0.52880231928E+03  0.50400001928E-02 0. -1.
       -1    1    3    3    0  502 -0.24181347709E+03 -0.46638934911E+03  0.26796053890E+03  0.58974200554E+03  0.50400001928E-02 0.  1.
</event>
<event>
 5   0  0.2488472E-03  0.1091522E+04  0.7818609E-02  0.9213494E-01
       -2   -1    0    0    0  501  0.00000000000E+00  0.00000000000E+00  0.82804979242E+03  0.82804979243E+03  0.25500000920E-02 0. -1.
        2   -1    0    0  501    0  0.00000000000E+00  0.00000000000E+00 -0.35970685570E+03  0.35970685571E+03  0.25500000920E-02 0.  1.
    10030    2    1    2    0    0  0.00000000000E+00  0.00000000000E+00  0.46834293672E+03  0.11877566481E+04  0.10915222164E+04 0.  0.
        2    1    3    3  502    0  0.37921190676E+03 -0.30400643696E+03 -0.35977721550E+02  0.48735611250E+03  0.25500000920E-02 0.  1.
       -2    1    3    3    0  502 -0.37921190676E+03  0.30400643696E+03  0.50432065827E+03  0.70040053563E+03  0.25500000920E-02 0. -1.
</event>
<event>
 5   0  0.1509004E-03  0.1099728E+04  0.7818609E-02  0.9205457E-01
       -1   -1    0    0    0  501  0.00000000000E+00  0.00000000000E+00  0.84013040850E+03  0.84013040851E+03  0.50400001928E-02 0.  1.
        1   -1    0    0  501    0  0.00000000000E+00  0.00000000000E+00 -0.35988493205E+03  0.35988493208E+03  0.50400001928E-02 0. -1.
    10030    2    1    2    0    0  0.00000000000E+00  0.00000000000E+00  0.48024547645E+03  0.12000153406E+04  0.10997277390E+04 0.  0.
        3    1    3    3  502    0 -0.70796722610E+02 -0.38490722128E+03  0.66158966336E+03  0.76867850093E+03  0.10100000352E+00 0.  1.
       -3    1    3    3    0  502  0.70796722610E+02  0.38490722128E+03 -0.18134418691E+03  0.43133683966E+03  0.10100000352E+00 0. -1.
</event>
<event>
 5   0  0.2392585E-03  0.1054959E+04  0.7818609E-02  0.9250239E-01
       -2   -1    0    0    0  501  0.00000000000E+00  0.00000000000E+00  0.17451495172E+03  0.17451495174E+03  0.25500000920E-02 0. -1.
        2   -1    0    0  501    0  0.00000000000E+00  0.00000000000E+00 -0.15943318569E+04  0.15943318569E+04  0.25500000920E-02 0.  1.
    10030    2    1    2    0    0  0.00000000000E+00  0.00000000000E+00 -0.14198169052E+04  0.17688468087E+04  0.10549592354E+04 0.  0.
        5    1    3    3  502    0  0.35620038897E+03  0.37029988128E+03 -0.51002299702E+03  0.72397946564E+03  0.46999998093E+01 0. -1.
       -5    1    3    3    0  502 -0.35620038897E+03 -0.37029988128E+03 -0.90979390819E+03  0.10448673430E+04  0.46999998093E+01 0.  1.
</event>
<event>
 5   0  0.1415400E-03  0.1094114E+04  0.7818609E-02  0.9210948E-01
       -1   -1    0    0    0  501  0.00000000000E+00  0.00000000000E+00  0.40977310270E+03  0.40977310273E+03  0.50400001928E-02 0. -1.
        1   -1    0    0  501    0  0.00000000000E+00  0.00000000000E+00 -0.73033447190E+03  0.73033447191E+03  0.50400001928E-02 0.  1.
    10030    2    1    2    0    0  0.00000000000E+00  0.00000000000E+00 -0.32056136920E+03  0.11401075746E+04  0.10941141121E+04 0.  0.
        2    1    3    3  502    0  0.10943210940E+02 -0.52874328239E+03 -0.14461702054E+02  0.52905420646E+03  0.25500000920E-02 0.  1.
       -2    1    3    3    0  502 -0.10943210940E+02  0.52874328239E+03 -0.30609966714E+03  0.61105336818E+03  0.25500000920E-02 0. -1.
</event>
<event>
 5   0  0.2438115E-03  0.1104163E+04  0.7818609E-02  0.9201144E-01
       -2   -1    0    0    0  501  0.00000000000E+00  0.00000000000E+00  0.45330073497E+03  0.45330073498E+03  0.25500000920E-02 0.  1.
        2   -1    0    0  501    0  0.00000000000E+00  0.00000000000E+00 -0.67238802681E+03  0.67238802682E+03  0.25500000920E-02 0. -1.
    10030    2    1    2    0    0  0.00000000000E+00  0.00000000000E+00 -0.21908729185E+03  0.11256887618E+04  0.11041630074E+04 0.  0.
        4    1    3    3  502    0 -0.32037331885E+03  0.15317961117E+03  0.32141384297E+03  0.47896923499E+03  0.12699999809E+01 0.  1.
       -4    1    3    3    0  502  0.32037331885E+03 -0.15317961117E+03 -0.54050113482E+03  0.64671952681E+03  0.12699999809E+01 0. -1.
</event>
<event>
 5   0  0.1480937E-03  0.1107876E+04  0.7818609E-02  0.9197549E-01
        1   -1    0    0  501    0  0.00000000000E+00  0.00000000000E+00  0.96975221643E+03  0.96975221644E+03  0.50400001928E-02 0. -1.
       -1   -1    0    0    0  501  0.00000000000E+00  0.00000000000E+00 -0.31641844655E+03  0.31641844659E+03  0.50400001928E-02 0.  1.
    10030    2    1    2    0    0  0.00000000000E+00  0.00000000000E+00  0.65333376988E+03  0.12861706630E+04  0.11078763287E+04 0.  0.
        1    1    3    3  502    0 -0.26901945093E+03 -0.44717552459E+03  0.54233218221E+03  0.75263643989E+03  0.50400001928E-02 0. -1.
       -1    1    3    3    0  502  0.26901945093E+03  0.44717552459E+03  0.11100158767E+03  0.53353422314E+03  0.50400001928E-02 0.  1.
</event>
<event>
 5   0  0.2467448E-03  0.1127765E+04  0.7818609E-02  0.9178545E-01
       -2   -1    0    0    0  501  0.00000000000E+00  0.00000000000E+00  0.19794118453E+03  0.19794118454E+03  0.25500000920E-02 0. -1.
        2   -1    0    0  501    0  0.00000000000E+00  0.00000000000E+00 -0.16063532582E+04  0.16063532582E+04  0.25500000920E-02 0.  1.
    10030    2    1    2    0    0  0.00000000000E+00  0.00000000000E+00 -0.14084120737E+04  0.18042944428E+04  0.11277649874E+04 0.  0.
        1    1    3    3  502    0 -0.15188367263E+03 -0.24562149569E+03 -0.14790608133E+04  0.15069901986E+04  0.50400001928E-02 0.  1.
       -1    1    3    3    0  502  0.15188367263E+03  0.24562149569E+03  0.70648739634E+02  0.29730424416E+03  0.50400001928E-02 0. -1.
</event>
<event>
 5   0  0.1479573E-03  0.1105520E+04  0.7818609E-02  0.9199828E-01
       -1   -1    0    0    0  501  0.00000000000E+00  0.00000000000E+00  0.26586361196E+03  0.26586361200E+03  0.50400001928E-02 0. -1.
        1   -1    0    0  501    0  0.00000000000E+00  0.00000000000E+00 -0.11492497113E+04  0.11492497114E+04  0.50400001928E-02 0.  1.
    10030    2    1    2    0    0  0.00000000000E+00  0.00000000000E+00 -0.88338609939E+03  0.14151133234E+04  0.11055201117E+04 0.  0.
        4    1    3    3  502    0  0.22761717950E+03 -0.10173690391E+03 -0.10731865412E+04  0.11017671910E+04  0.12699999809E+01 0.  1.
       -4    1    3    3    0  502 -0.22761717950E+03  0.10173690391E+03  0.18980044185E+03  0.31334613234E+03  0.12699999809E+01 0. -1.
</event>
<event>
 5   0  0.9631750E-04  0.1098555E+04  0.7818609E-02  0.9206602E-01
        3   -1    0    0  501    0  0.00000000000E+00  0.00000000000E+00  0.56021631050E+03  0.56021631960E+03  0.10100000352E+00 0.  1.
       -3   -1    0    0    0  501  0.00000000000E+00  0.00000000000E+00 -0.53855183228E+03  0.53855184175E+03  0.10100000352E+00 0. -1.
    10030    2    1    2    0    0  0.00000000000E+00  0.00000000000E+00  0.21664478221E+02  0.10987681614E+04  0.10985545607E+04 0.  0.
        1    1    3    3  502    0 -0.40919506033E+03 -0.98426155805E+02 -0.34219137896E+03  0.54242349267E+03  0.50400001928E-02 0. -1.
       -1    1    3    3    0  502  0.40919506033E+03  0.98426155805E+02  0.36385585718E+03  0.55634466868E+03  0.50400001928E-02 0.  1.
</event>
<event>
 5   0  0.2483036E-03  0.1100938E+04  0.7818609E-02  0.9204279E-01
        2   -1    0    0  501    0  0.00000000000E+00  0.00000000000E+00  0.12418165345E+04  0.12418165345E+04  0.25500000920E-02 0.  1.
       -2   -1    0    0    0  501  0.00000000000E+00  0.00000000000E+00 -0.24401016944E+03  0.24401016946E+03  0.25500000920E-02 0. -1.
    10030    2    1    2    0    0  0.00000000000E+00  0.00000000000E+00  0.99780636507E+03  0.14858267040E+04  0.11009375332E+04 0.  0.
        3    1    3    3  502    0 -0.12433171029E+02 -0.37058150154E+03  0.10479945956E+04  0.11116554842E+04  0.10100000352E+00 0.  1.
       -3    1    3    3    0  502  0.12433171029E+02  0.37058150154E+03 -0.50188230492E+02  0.37417121977E+03  0.10100000352E+00 0. -1.
</event>
<event>
 5   0  0.1509004E-03  0.1097910E+04  0.7818609E-02  0.9207232E-01
        1   -1    0    0  501    0  0.00000000000E+00  0.00000000000E+00  0.93020763251E+03  0.93020763252E+03  0.50400001928E-02 0.  1.
       -1   -1    0    0    0  501  0.00000000000E+00  0.00000000000E+00 -0.32396151533E+03  0.32396151537E+03  0.50400001928E-02 0. -1.
    10030    2    1    2    0    0  0.00000000000E+00  0.00000000000E+00  0.60624611717E+03  0.12541691479E+04  0.10979097854E+04 0.  0.
        3    1    3    3  502    0  0.22716429286E+03  0.40789043274E+03  0.63296266570E+03  0.78652397766E+03  0.10100000352E+00 0.  1.
       -3    1    3    3    0  502 -0.22716429286E+03 -0.40789043274E+03 -0.26716548522E+02  0.46764517023E+03  0.10100000352E+00 0. -1.
</event>
<event>
 5   0  0.2467448E-03  0.1099568E+04  0.7818609E-02  0.9205613E-01
       -2   -1    0    0    0  501  0.00000000000E+00  0.00000000000E+00  0.45506505409E+03  0.45506505410E+03  0.25500000920E-02 0.  1.
        2   -1    0    0  501    0  0.00000000000E+00  0.00000000000E+00 -0.66421776074E+03  0.66421776075E+03  0.25500000920E-02 0. -1.
    10030    2    1    2    0    0  0.00000000000E+00  0.00000000000E+00 -0.20915270665E+03  0.11192828148E+04  0.10995677173E+04 0.  0.
        1    1    3    3  502    0 -0.49936481802E+03  0.17427034411E+03  0.48204430374E+02  0.53109230973E+03  0.50400001928E-02 0.  1.
       -1    1    3    3    0  502  0.49936481802E+03 -0.17427034411E+03 -0.25735713702E+03  0.58819050512E+03  0.50400001928E-02 0. -1.
</event>
<event>
 5   0  0.1479573E-03  0.1133627E+04  0.7818609E-02  0.9173023E-01
       -1   -1    0    0    0  501  0.00000000000E+00  0.00000000000E+00  0.33738222580E+03  0.33738222584E+03  0.50400001928E-02 0.  1.
        1   -1    0    0  501    0  0.00000000000E+00  0.00000000000E+00 -0.95226523838E+03  0.95226523839E+03  0.50400001928E-02 0. -1.
    10030    2    1    2    0    0  0.00000000000E+00  0.00000000000E+00 -0.61488301258E+03  0.12896474642E+04  0.11336266858E+04 0.  0.
        4    1    3    3  502    0 -0.32785983195E+02  0.46418798405E+02 -0.94901439528E+03  0.95071528908E+03  0.12699999809E+01 0. -1.
       -4    1    3    3    0  502  0.32785983195E+02 -0.46418798405E+02  0.33413138271E+03  0.33893217515E+03  0.12699999809E+01 0.  1.
</event>
<event>
 5   0  0.2483036E-03  0.1101439E+04  0.7818609E-02  0.9203791E-01
       -2   -1    0    0    0  501  0.00000000000E+00  0.00000000000E+00  0.10679956335E+04  0.10679956335E+04  0.25500000920E-02 0.  1.
        2   -1    0    0  501    0  0.00000000000E+00  0.00000000000E+00 -0.28398227534E+03  0.28398227535E+03  0.25500000920E-02 0. -1.
    10030    2    1    2    0    0  0.00000000000E+00  0.00000000000E+00  0.78401335814E+03  0.13519779088E+04  0.11014387501E+04 0.  0.
        3    1    3    3  502    0  0.49858695069E+03  0.23373057527E+03  0.38152706900E+03  0.66991181792E+03  0.10100000352E+00 0. -1.
       -3    1    3    3    0  502 -0.49858695069E+03 -0.23373057527E+03  0.40248628914E+03  0.68206609091E+03  0.10100000352E+00 0.  1.
</event>
<event>
 5   0  0.1479573E-03  0.1106332E+04  0.7818609E-02  0.9199042E-01
       -1   -1    0    0    0  501  0.00000000000E+00  0.00000000000E+00  0.21525524944E+04  0.21525524945E+04  0.50400001928E-02 0. -1.
        1   -1    0    0  501    0  0.00000000000E+00  0.00000000000E+00 -0.14215338770E+03  0.14215338778E+03  0.50400001928E-02 0.  1.
    10030    2    1    2    0    0  0.00000000000E+00  0.00000000000E+00  0.20103991067E+04  0.22947058822E+04  0.11063320105E+04 0.  0.
        4    1    3    3  502    0 -0.43244843058E+03 -0.32272489524E+03  0.12577702924E+04  0.13686309672E+04  0.12699999809E+01 0. -1.
       -4    1    3    3    0  502  0.43244843058E+03  0.32272489524E+03  0.75262881438E+03  0.92607491503E+03  0.12699999809E+01 0.  1.
</event>
<event>
 5   0  0.1468556E-03  0.1098986E+04  0.7818609E-02  0.9206181E-01
       -1   -1    0    0    0  501  0.00000000000E+00  0.00000000000E+00  0.17119749777E+03  0.17119749784E+03  0.50400001928E-02 0. -1.
        1   -1    0    0  501    0  0.00000000000E+00  0.00000000000E+00 -0.17637079276E+04  0.17637079276E+04  0.50400001928E-02 0.  1.
    10030    2    1    2    0    0  0.00000000000E+00  0.00000000000E+00 -0.15925104299E+04  0.19349054255E+04  0.10989856852E+04 0.  0.
        5    1    3    3  502    0  0.23243662957E+03  0.49080521573E+03 -0.94359938197E+03  0.10887233029E+04  0.46999998093E+01 0.  1.
       -5    1    3    3    0  502 -0.23243662957E+03 -0.49080521573E+03 -0.64891104788E+03  0.84618212261E+03  0.46999998093E+01 0. -1.
</event>
<event>
 5   0  0.1479573E-03  0.1103165E+04  0.7818609E-02  0.9202112E-01
        1   -1    0    0  501    0  0.00000000000E+00  0.00000000000E+00  0.10750660362E+04  0.10750660362E+04  0.50400001928E-02 0.  1.
       -1   -1    0    0    0  501  0.00000000000E+00  0.00000000000E+00 -0.28299967831E+03  0.28299967835E+03  0.50400001928E-02 0. -1.
    10030    2    1    2    0    0  0.00000000000E+00  0.00000000000E+00  0.79206635790E+03  0.13580657146E+04  0.11031651598E+04 0.  0.
        4    1    3    3  502    0 -0.87735936816E+02 -0.21160082542E+03  0.10137388234E+04  0.10392980895E+04  0.12699999809E+01 0.  1.
       -4    1    3    3    0  502  0.87735936816E+02  0.21160082542E+03 -0.22167246549E+03  0.31876762505E+03  0.12699999809E+01 0. -1.
</event>
<event>
 5   0  0.1509004E-03  0.1105071E+04  0.7818609E-02  0.9200264E-01
        1   -1    0    0  501    0  0.00000000000E+00  0.00000000000E+00  0.42512106909E+03  0.42512106912E+03  0.50400001928E-02 0.  1.
       -1   -1    0    0    0  501  0.00000000000E+00  0.00000000000E+00 -0.71813729182E+03  0.71813729184E+03  0.50400001928E-02 0. -1.
    10030    2    1    2    0    0  0.00000000000E+00  0.00000000000E+00 -0.29301622273E+03  0.11432583610E+04  0.11050706643E+04 0.  0.
        3    1    3    3  502    0  0.51229489705E+03 -0.45989705606E+02 -0.35530968333E+03  0.62514485988E+03  0.10100000352E+00 0. -1.
       -3    1    3    3    0  502 -0.51229489705E+03  0.45989705606E+02  0.62293460600E+02  0.51811350107E+03  0.10100000352E+00 0.  1.
</event>
<event>
 5   0  0.2488472E-03  0.1095889E+04  0.7818609E-02  0.9209208E-01
        2   -1    0    0  501    0  0.00000000000E+00  0.00000000000E+00  0.69243220949E+03  0.69243220949E+03  0.25500000920E-02 0.  1.
       -2   -1    0    0    0  501  0.00000000000E+00  0.00000000000E+00 -0.43360638383E+03  0.43360638384E+03  0.25500000920E-02 0. -1.
    10030    2    1    2    0    0  0.00000000000E+00  0.00000000000E+00  0.25882582566E+03  0.11260385933E+04  0.10958887287E+04 0.  0.
        2    1    3    3  502    0 -0.60047685102E+02  0.33285667216E+03  0.57236910905E+03  0.66483508158E+03  0.25500000920E-02 0.  1.
       -2    1    3    3    0  502  0.60047685102E+02 -0.33285667216E+03 -0.31354328339E+03  0.46120351176E+03  0.25500000920E-02 0. -1.
</event>
<event>
 5   0  0.2438115E-03  0.1105187E+04  0.7818609E-02  0.9200151E-01
        2   -1    0    0  501    0  0.00000000000E+00  0.00000000000E+00  0.57497677579E+03  0.57497677579E+03  0.25500000920E-02 0. -1.
       -2   -1    0    0    0  501  0.00000000000E+00  0.00000000000E+00 -0.53108145626E+03  0.53108145627E+03  0.25500000920E-02 0.  1.
    10030    2    1    2    0    0  0.00000000000E+00  0.00000000000E+00  0.43895319520E+02  0.11060582321E+04  0.11051868682E+04 0.  0.
        4    1    3    3  502    0 -0.13505756045E+03  0.37074968720E+03 -0.36521910634E+03  0.53766391336E+03  0.12699999809E+01 0.  1.
       -4    1    3    3    0  502  0.13505756045E+03 -0.37074968720E+03  0.40911442586E+03  0.56839431871E+03  0.12699999809E+01 0. -1.
</event>
<event>
 5   0  0.2392585E-03  0.1101975E+04  0.7818609E-02  0.9203269E-01
       -2   -1    0    0    0  501  0.00000000000E+00  0.00000000000E+00  0.35751149806E+03  0.35751149807E+03  0.25500000920E-02 0.  1.
        2   -1    0    0  501    0  0.00000000000E+00  0.00000000000E+00 -0.84916810638E+03  0.84916810639E+03  0.25500000920E-02 0. -1.
    10030    2    1    2    0    0  0.00000000000E+00  0.00000000000E+00 -0.49165660833E+03  0.12066796045E+04  0.11019752480E+04 0.  0.
        5    1    3    3  502    0 -0.25445319883E+03 -0.47243677019E+03 -0.38269354619E+03  0.65910497837E+03  0.46999998093E+01 0. -1.
       -5    1    3    3    0  502  0.25445319883E+03  0.47243677019E+03 -0.10896306214E+03  0.54757462608E+03  0.46999998093E+01 0.  1.
</event>
<event>
 5   0  0.2392585E-03  0.1052236E+04  0.7818609E-02  0.9253039E-01
       -2   -1    0    0    0  501  0.00000000000E+00  0.00000000000E+00  0.16631211473E+03  0.16631211475E+03  0.25500000920E-02 0.  1.
        2   -1    0    0  501    0  0.00000000000E+00  0.00000000000E+00 -0.16643414973E+04  0.16643414973E+04  0.25500000920E-02 0. -1.
    10030    2    1    2    0    0  0.00000000000E+00  0.00000000000E+00 -0.14980293826E+04  0.18306536121E+04  0.10522360079E+04 0.  0.
        5    1    3    3  502    0  0.37057117820E+02  0.16948325874E+03  0.11507776841E+03  0.20823733516E+03  0.46999998093E+01 0.  1.
       -5    1    3    3    0  502 -0.37057117820E+02 -0.16948325874E+03 -0.16131071510E+04  0.16224162769E+04  0.46999998093E+01 0. -1.
</event>
<event>
 5   0  0.1415400E-03  0.1096246E+04  0.7818609E-02  0.9208859E-01
       -1   -1    0    0    0  501  0.00000000000E+00  0.00000000000E+00  0.17948347895E+04  0.17948347895E+04  0.50400001928E-02 0. -1.
        1   -1    0    0  501    0  0.00000000000E+00  0.00000000000E+00 -0.16739077784E+03  0.16739077791E+03  0.50400001928E-02 0.  1.
    10030    2    1    2    0    0  0.00000000000E+00  0.00000000000E+00  0.16274440117E+04  0.19622255675E+04  0.10962459425E+04 0.  0.
        2    1    3    3  502    0  0.18823641396E+03 -0.51473404428E+03  0.80048270077E+03  0.97013227867E+03  0.25500000920E-02 0. -1.
       -2    1    3    3    0  502 -0.18823641396E+03  0.51473404428E+03  0.82696131093E+03  0.99209328879E+03  0.25500000920E-02 0.  1.
</event>
<event>
 5   0  0.1480937E-03  0.1101507E+04  0.7818609E-02  0.9203724E-01
        1   -1    0    0  501    0  0.00000000000E+00  0.00000000000E+00  0.93798086126E+03  0.93798086127E+03  0.50400001928E-02 0. -1.
       -1   -1    0    0    0  501  0.00000000000E+00  0.00000000000E+00 -0.32338558403E+03  0.32338558407E+03  0.50400001928E-02 0.  1.
    10030    2    1    2    0    0  0.00000000000E+00  0.00000000000E+00  0.61459527722E+03  0.12613664453E+04  0.11015071287E+04 0.  0.
        1    1    3    3  502    0 -0.44345681965E+03  0.27169001124E+03  0.51487894478E+03  0.73182630515E+03  0.50400001928E-02 0. -1.
       -1    1    3    3    0  502  0.44345681965E+03 -0.27169001124E+03  0.99716332441E+02  0.52954014020E+03  0.50400001928E-02 0.  1.
</event>
<event>
 5   0  0.2483036E-03  0.1104396E+04  0.7818609E-02  0.9200918E-01
        2   -1    0    0  501    0  0.00000000000E+00  0.00000000000E+00  0.53604585858E+03  0.53604585859E+03  0.25500000920E-02 0. -1.
       -2   -1    0    0    0  501  0.00000000000E+00  0.00000000000E+00 -0.56883664998E+03  0.56883664999E+03  0.25500000920E-02 0.  1.
    10030    2    1    2    0    0  0.00000000000E+00  0.00000000000E+00 -0.32790791405E+02  0.11048825086E+04  0.11043958175E+04 0.  0.
        3    1    3    3  502    0 -0.13331142586E+03 -0.15359152164E+03  0.49721201653E+03  0.53719837245E+03  0.10100000352E+00 0. -1.
       -3    1    3    3    0  502  0.13331142586E+03  0.15359152164E+03 -0.53000280794E+03  0.56768413612E+03  0.10100000352E+00 0.  1.
</event>
<event>
 5   0  0.2467448E-03  0.1105754E+04  0.7818609E-02  0.9199602E-01
       -2   -1    0    0    0  501  0.00000000000E+00  0.00000000000E+00  0.26751994042E+03  0.26751994043E+03  0.25500000920E-02 0. -1.
        2   -1    0    0  501    0  0.00000000000E+00  0.00000000000E+00 -0.11426173499E+04  0.11426173499E+04  0.25500000920E-02 0.  1.
    10030    2    1    2    0    0  0.00000000000E+00  0.00000000000E+00 -0.87509740945E+03  0.14101372903E+04  0.11057539064E+04 0.  0.
        1    1    3    3  502    0  0.96235869691E+02 -0.48343324616E+03 -0.11821105841E+03  0.50689535455E+03  0.50400001928E-02 0.  1.
       -1    1    3    3    0  502 -0.96235869691E+02  0.48343324616E+03 -0.75688635104E+03  0.90324193576E+03  0.50400001928E-02 0. -1.
</event>
<event>
 5   0  0.9631750E-04  0.1021528E+04  0.7818609E-02  0.9285243E-01
       -3   -1    0    0    0  501  0.00000000000E+00  0.00000000000E+00  0.22104071470E+03  0.22104073778E+03  0.10100000352E+00 0.  1.
        3   -1    0    0  501    0  0.00000000000E+00  0.00000000000E+00 -0.11802351795E+04  0.11802351838E+04  0.10100000352E+00 0. -1.
    10030    2    1    2    0    0  0.00000000000E+00  0.00000000000E+00 -0.95919446481E+03  0.14012759216E+04  0.10215283585E+04 0.  0.
        1    1    3    3  502    0  0.37313050247E+03 -0.15070838159E+03 -0.48117271723E+02  0.40528343171E+03  0.50400001928E-02 0.  1.
       -1    1    3    3    0  502 -0.37313050247E+03  0.15070838159E+03 -0.91107719309E+03  0.99599248990E+03  0.50400001928E-02 0. -1.
</event>
<event>
 5   0  0.2392585E-03  0.1118931E+04  0.7818609E-02  0.9186934E-01
       -2   -1    0    0    0  501  0.00000000000E+00  0.00000000000E+00  0.32195607189E+03  0.32195607190E+03  0.25500000920E-02 0.  1.
        2   -1    0    0  501    0  0.00000000000E+00  0.00000000000E+00 -0.97218768189E+03  0.97218768189E+03  0.25500000920E-02 0. -1.
    10030    2    1    2    0    0  0.00000000000E+00  0.00000000000E+00 -0.65023161000E+03  0.12941437538E+04  0.11189311457E+04 0.  0.
        5    1    3    3  502    0  0.59468206898E+02  0.18700563031E+03  0.28082225451E+03  0.34262341138E+03  0.46999998093E+01 0.  1.
       -5    1    3    3    0  502 -0.59468206898E+02 -0.18700563031E+03 -0.93105386451E+03  0.95152034241E+03  0.46999998093E+01 0. -1.
</event>
<event>
 5   0  0.1509004E-03  0.1095506E+04  0.7818609E-02  0.9209583E-01
        1   -1    0    0  501    0  0.00000000000E+00  0.00000000000E+00  0.94271358443E+03  0.94271358445E+03  0.50400001928E-02 0.  1.
       -1   -1    0    0    0  501  0.00000000000E+00  0.00000000000E+00 -0.31826563620E+03  0.31826563624E+03  0.50400001928E-02 0. -1.
    10030    2    1    2    0    0  0.00000000000E+00  0.00000000000E+00  0.62444794823E+03  0.12609792207E+04  0.10955059813E+04 0.  0.
        3    1    3    3  502    0 -0.29767860362E+03 -0.29943958074E+03 -0.89418504064E+02  0.43159273932E+03  0.10100000352E+00 0. -1.
       -3    1    3    3    0  502  0.29767860362E+03  0.29943958074E+03  0.71386645230E+03  0.82938648137E+03  0.10100000352E+00 0.  1.
</event>
<event>
 5   0  0.9631750E-04  0.1110406E+04  0.7818609E-02  0.9195108E-01
        3   -1    0    0  501    0  0.00000000000E+00  0.00000000000E+00  0.11459733348E+04  0.11459733393E+04  0.10100000352E+00 0. -1.
       -3   -1    0    0    0  501  0.00000000000E+00  0.00000000000E+00 -0.26898563840E+03  0.26898565736E+03  0.10100000352E+00 0.  1.
    10030    2    1    2    0    0  0.00000000000E+00  0.00000000000E+00  0.87698769643E+03  0.14149589966E+04  0.11104060260E+04 0.  0.
        3    1    3    3  502    0  0.25839644554E+03  0.39490694247E+02 -0.18566798109E+03  0.32062571233E+03  0.10100000352E+00 0.  1.
       -3    1    3    3    0  502 -0.25839644554E+03 -0.39490694247E+02  0.10626556775E+04  0.10943332843E+04  0.10100000352E+00 0. -1.
</event>
<event>
 5   0  0.2488472E-03  0.1105809E+04  0.7818609E-02  0.9199548E-01
        2   -1    0    0  501    0  0.00000000000E+00  0.00000000000E+00  0.13232724555E+04  0.13232724555E+04  0.25500000920E-02 0. -1.
       -2   -1    0    0    0  501  0.00000000000E+00  0.00000000000E+00 -0.23102082890E+03  0.23102082891E+03  0.25500000920E-02 0.  1.
    10030    2    1    2    0    0  0.00000000000E+00  0.00000000000E+00  0.10922516266E+04  0.15542932844E+04  0.11058092051E+04 0.  0.
        2    1    3    3  502    0  0.41268412282E+03  0.24645184747E+03  0.93017553841E+03  0.10470306732E+04  0.25500000920E-02 0. -1.
       -2    1    3    3    0  502 -0.41268412282E+03 -0.24645184747E+03  0.16207608817E+03  0.50726261119E+03  0.25500000920E-02 0.  1.
</event>
<event>
 5   0  0.1480937E-03  0.1090807E+04  0.7818609E-02  0.9214199E-01
        1   -1    0    0  501    0  0.00000000000E+00  0.00000000000E+00  0.91442879320E+03  0.91442879321E+03  0.50400001928E-02 0. -1.
       -1   -1    0    0    0  501  0.00000000000E+00  0.00000000000E+00 -0.32530137363E+03  0.32530137367E+03  0.50400001928E-02 0.  1.
    10030    2    1    2    0    0  0.00000000000E+00  0.00000000000E+00  0.58912741956E+03  0.12397301669E+04  0.10908069353E+04 0.  0.
        1    1    3    3  502    0 -0.28035663746E+03  0.34653169340E+03 -0.62639812333E+02  0.45011976719E+03  0.50400001928E-02 0.  1.
       -1    1    3    3    0  502  0.28035663746E+03 -0.34653169340E+03  0.65176723190E+03  0.78961039969E+03  0.50400001928E-02 0. -1.
</event>
<event>
 5   0  0.2483036E-03  0.1099305E+04  0.7818609E-02  0.9205869E-01
        2   -1    0    0  501    0  0.00000000000E+00  0.00000000000E+00  0.60960250444E+03  0.60960250445E+03  0.25500000920E-02 0.  1.
       -2   -1    0    0    0  501  0.00000000000E+00  0.00000000000E+00 -0.49559855457E+03  0.49559855457E+03  0.25500000920E-02 0. -1.
    10030    2    1    2    0    0  0.00000000000E+00  0.00000000000E+00  0.11400394988E+03  0.11052010590E+04  0.10993054536E+04 0.  0.
        3    1    3    3  502    0  0.35085589639E+02  0.54845981658E+03  0.65934492019E+02  0.55352193853E+03  0.10100000352E+00 0.  1.
       -3    1    3    3    0  502 -0.35085589639E+02 -0.54845981658E+03  0.48069457859E+02  0.55167912049E+03  0.10100000352E+00 0. -1.
</event>
<event>
 5   0  0.2488472E-03  0.1099891E+04  0.7818609E-02  0.9205298E-01
       -2   -1    0    0    0  501  0.00000000000E+00  0.00000000000E+00  0.65322216635E+03  0.65322216636E+03  0.25500000920E-02 0.  1.
        2   -1    0    0  501    0  0.00000000000E+00  0.00000000000E+00 -0.46299689447E+03  0.46299689448E+03  0.25500000920E-02 0. -1.
    10030    2    1    2    0    0  0.00000000000E+00  0.00000000000E+00  0.19022527188E+03  0.11162190608E+04  0.10998906026E+04 0.  0.
        2    1    3    3  502    0 -0.10282341708E+03  0.32942844650E+03 -0.33943099236E+03  0.48405490912E+03  0.25500000920E-02 0. -1.
       -2    1    3    3    0  502  0.10282341708E+03 -0.32942844650E+03  0.52965626424E+03  0.63216415172E+03  0.25500000920E-02 0.  1.
</event>
<event>
 5   0  0.1480937E-03  0.1104911E+04  0.7818609E-02  0.9200419E-01
        1   -1    0    0  501    0  0.00000000000E+00  0.00000000000E+00  0.42424324911E+03  0.42424324914E+03  0.50400001928E-02 0.  1.
       -1   -1    0    0    0  501  0.00000000000E+00  0.00000000000E+00 -0.71941499282E+03  0.71941499284E+03  0.50400001928E-02 0. -1.
    10030    2    1    2    0    0  0.00000000000E+00  0.00000000000E+00 -0.29517174371E+03  0.11436582420E+04  0.11049107729E+04 0.  0.
        1    1    3    3  502    0  0.25213387362E+03 -0.48950664525E+03 -0.19409153193E+03  0.58383196963E+03  0.50400001928E-02 0. -1.
       -1    1    3    3    0  502 -0.25213387362E+03  0.48950664525E+03 -0.10108021178E+03  0.55982627235E+03  0.50400001928E-02 0.  1.
</event>
<event>
 5   0  0.2392585E-03  0.1097501E+04  0.7818609E-02  0.9207631E-01
       -2   -1    0    0    0  501  0.00000000000E+00  0.00000000000E+00  0.45656691269E+03  0.45656691270E+03  0.25500000920E-02 0. -1.
        2   -1    0    0  501    0  0.00000000000E+00  0.00000000000E+00 -0.65954700294E+03  0.65954700294E+03  0.25500000920E-02 0.  1.
    10030    2    1    2    0    0  0.00000000000E+00  0.00000000000E+00 -0.20298009025E+03  0.11161139156E+04  0.10975014149E+04 0.  0.
        5    1    3    3  502    0  0.63637471095E+02  0.26415119569E+03 -0.58631361642E+03  0.64622854217E+03  0.46999998093E+01 0.  1.
       -5    1    3    3    0  502 -0.63637471095E+02 -0.26415119569E+03  0.38333352618E+03  0.46988537347E+03  0.46999998093E+01 0. -1.
</event>
<event>
 5   0  0.2488472E-03  0.1096999E+04  0.7818609E-02  0.9208122E-01
        2   -1    0    0  501    0  0.00000000000E+00  0.00000000000E+00  0.30544380685E+03  0.30544380686E+03  0.25500000920E-02 0. -1.
       -2   -1    0    0    0  501  0.00000000000E+00  0.00000000000E+00 -0.98496526703E+03  0.98496526703E+03  0.25500000920E-02 0.  1.
    10030    2    1    2    0    0  0.00000000000E+00  0.00000000000E+00 -0.67952146018E+03  0.12904090739E+04  0.10969987070E+04 0.  0.
        2    1    3    3  502    0  0.72951472373E+02 -0.30747408199E+03 -0.86712144540E+03  0.92290943732E+03  0.25500000920E-02 0.  1.
       -2    1    3    3    0  502 -0.72951472373E+02  0.30747408199E+03  0.18759998522E+03  0.36749963657E+03  0.25500000920E-02 0. -1.
</event>
<event>
 5   0  0.2392585E-03  0.1100381E+04  0.7818609E-02  0.9204820E-01
        2   -1    0    0  501    0  0.00000000000E+00  0.00000000000E+00  0.13432756328E+04  0.13432756328E+04  0.25500000920E-02 0.  1.
       -2   -1    0    0    0  501  0.00000000000E+00  0.00000000000E+00 -0.22535196817E+03  0.22535196818E+03  0.25500000920E-02 0. -1.
    10030    2    1    2    0    0  0.00000000000E+00  0.00000000000E+00  0.11179236646E+04  0.15686276010E+04  0.11003814023E+04 0.  0.
        5    1    3    3  502    0  0.37641851324E+03  0.30307664084E+03  0.18412211469E+03  0.51717442942E+03  0.46999998093E+01 0. -1.
       -5    1    3    3    0  502 -0.37641851324E+03 -0.30307664084E+03  0.93380154994E+03  0.10514531716E+04  0.46999998093E+01 0.  1.
</event>
<event>
 5   0  0.1480937E-03  0.1102170E+04  0.7818609E-02  0.9203080E-01
        1   -1    0    0  501    0  0.00000000000E+00  0.00000000000E+00  0.24649139616E+03  0.24649139621E+03  0.50400001928E-02 0. -1.
       -1   -1    0    0    0  501  0.00000000000E+00  0.00000000000E+00 -0.12320690267E+04  0.12320690267E+04  0.50400001928E-02 0.  1.
    10030    2    1    2    0    0  0.00000000000E+00  0.00000000000E+00 -0.98557763055E+03  0.14785604229E+04  0.11021695234E+04 0.  0.
        1    1    3    3  502    0 -0.37172987987E+02  0.22178694270E+03  0.18213787055E+03  0.28938811811E+03  0.50400001928E-02 0. -1.
       -1    1    3    3    0  502  0.37172987987E+02 -0.22178694270E+03 -0.11677155011E+04  0.11891723048E+04  0.50400001928E-02 0.  1.
</event>
<event>
 5   0  0.2438115E-03  0.1102535E+04  0.7818609E-02  0.9202724E-01
        2   -1    0    0  501    0  0.00000000000E+00  0.00000000000E+00  0.49906697195E+03  0.49906697196E+03  0.25500000920E-02 0.  1.
       -2   -1    0    0    0  501  0.00000000000E+00  0.00000000000E+00 -0.60892838520E+03  0.60892838521E+03  0.25500000920E-02 0. -1.
    10030    2    1    2    0    0  0.00000000000E+00  0.00000000000E+00 -0.10986141325E+03  0.11079953572E+04  0.11025353425E+04 0.  0.
        4    1    3    3  502    0  0.54049702778E+03  0.52421485663E+02 -0.15031853276E+03  0.56345569781E+03  0.12699999809E+01 0.  1.
       -4    1    3    3    0  502 -0.54049702778E+03 -0.52421485663E+02  0.40457119510E+02  0.54453965936E+03  0.12699999809E+01 0. -1.
</event>
<event>
 5   0  0.2483036E-03  0.1093162E+04  0.7818609E-02  0.9211882E-01
       -2   -1    0    0    0  501  0.00000000000E+00  0.00000000000E+00  0.64969235539E+03  0.64969235540E+03  0.25500000920E-02 0.  1.
        2   -1    0    0  501    0  0.00000000000E+00  0.00000000000E+00 -0.45983454884E+03  0.45983454885E+03  0.25500000920E-02 0. -1.
    10030    2    1    2    0    0  0.00000000000E+00  0.00000000000E+00  0.18985780655E+03  0.11095269042E+04  0.10931623688E+04 0.  0.
        3    1    3    3  502    0 -0.37358071866E+03 -0.38916093550E+02  0.49795499155E+03  0.62372766454E+03  0.10100000352E+00 0.  1.
       -3    1    3    3    0  502  0.37358071866E+03  0.38916093550E+02 -0.30809718501E+03  0.48579923971E+03  0.10100000352E+00 0. -1.
</event>
<event>
 5   0  0.2392585E-03  0.1107809E+04  0.7818609E-02  0.9197614E-01
        2   -1    0    0  501    0  0.00000000000E+00  0.00000000000E+00  0.26252934751E+04  0.26252934751E+04  0.25500000920E-02 0. -1.
       -2   -1    0    0    0  501  0.00000000000E+00  0.00000000000E+00 -0.11686707679E+03  0.11686707682E+03  0.25500000920E-02 0.  1.
    10030    2    1    2    0    0  0.00000000000E+00  0.00000000000E+00  0.25084263983E+04  0.27421605519E+04  0.11078093233E+04 0.  0.
        5    1    3    3  502    0  0.50613190649E+03 -0.41518219180E+02  0.18015569380E+04  0.18717699539E+04  0.46999998093E+01 0. -1.
       -5    1    3    3    0  502 -0.50613190649E+03  0.41518219180E+02  0.70686946030E+03  0.87039059806E+03  0.46999998093E+01 0.  1.
</event>
<event>
 5   0  0.2483036E-03  0.1105428E+04  0.7818609E-02  0.9199918E-01
        2   -1    0    0  501    0  0.00000000000E+00  0.00000000000E+00  0.95295886327E+03  0.95295886328E+03  0.25500000920E-02 0. -1.
       -2   -1    0    0    0  501  0.00000000000E+00  0.00000000000E+00 -0.32057266260E+03  0.32057266261E+03  0.25500000920E-02 0.  1.
    10030    2    1    2    0    0  0.00000000000E+00  0.00000000000E+00  0.63238620067E+03  0.12735315259E+04  0.11054276279E+04 0.  0.
        3    1    3    3  502    0  0.60875228027E+02  0.31060447189E+02  0.94807248487E+03  0.95053247790E+03  0.10100000352E+00 0. -1.
       -3    1    3    3    0  502 -0.60875228027E+02 -0.31060447189E+02 -0.31568628420E+03  0.32299904799E+03  0.10100000352E+00 0.  1.
</event>
<event>
 5   0  0.1509004E-03  0.1114681E+04  0.7818609E-02  0.9190999E-01
       -1   -1    0    0    0  501  0.00000000000E+00  0.00000000000E+00  0.61491461144E+03  0.61491461146E+03  0.50400001928E-02 0.  1.
        1   -1    0    0  501    0  0.00000000000E+00  0.00000000000E+00 -0.50515738366E+03  0.50515738369E+03  0.50400001928E-02 0. -1.
    10030    2    1    2    0    0  0.00000000000E+00  0.00000000000E+00  0.10975722777E+03  0.11200719951E+04  0.11146814008E+04 0.  0.
        3    1    3    3  502    0 -0.41122400888E+03  0.37301741026E+03  0.58422850146E+01  0.55523086760E+03  0.10100000352E+00 0.  1.
       -3    1    3    3    0  502  0.41122400888E+03 -0.37301741026E+03  0.10391494276E+03  0.56484112755E+03  0.10100000352E+00 0. -1.
</event>
<event>
 5   0  0.1509004E-03  0.1101244E+04  0.7818609E-02  0.9203981E-01
        1   -1    0    0  501    0  0.00000000000E+00  0.00000000000E+00  0.15074272056E+04  0.15074272056E+04  0.50400001928E-02 0. -1.
       -1   -1    0    0    0  501  0.00000000000E+00  0.00000000000E+00 -0.20112707225E+03  0.20112707232E+03  0.50400001928E-02 0.  1.
    10030    2    1    2    0    0  0.00000000000E+00  0.00000000000E+00  0.13063001333E+04  0.17085542779E+04  0.11012436979E+04 0.  0.
        3    1    3    3  502    0  0.40874986351E+03  0.15230494743E+03  0.13181878686E+03  0.45568569289E+03  0.10100000352E+00 0.  1.
       -3    1    3    3    0  502 -0.40874986351E+03 -0.15230494743E+03  0.11744813465E+04  0.12528685850E+04  0.10100000352E+00 0. -1.
</event>
<event>
 5   0  0.2438115E-03  0.1131110E+04  0.7818609E-02  0.9175389E-01
        2   -1    0    0  501    0  0.00000000000E+00  0.00000000000E+00  0.17887465618E+04  0.17887465618E+04  0.25500000920E-02 0.  1.
       -2   -1    0    0    0  501  0.00000000000E+00  0.00000000000E+00 -0.17881378102E+03  0.17881378103E+03  0.25500000920E-02 0. -1.
    10030    2    1    2    0    0  0.00000000000E+00  0.00000000000E+00  0.16099327808E+04  0.19675603429E+04  0.11311101379E+04 0.  0.
        4    1    3    3  502    0 -0.14390304725E+03  0.51339823340E+03  0.11330126740E+04  0.12522001299E+04  0.12699999809E+01 0. -1.
       -4    1    3    3    0  502  0.14390304725E+03 -0.51339823340E+03  0.47692010684E+03  0.71536021295E+03  0.12699999809E+01 0.  1.
</event>
<event>
 5   0  0.1468556E-03  0.1102048E+04  0.7818609E-02  0.9203198E-01
        1   -1    0    0  501    0  0.00000000000E+00  0.00000000000E+00  0.16934174695E+04  0.16934174695E+04  0.50400001928E-02 0. -1.
       -1   -1    0    0    0  501  0.00000000000E+00  0.00000000000E+00 -0.17929860969E+03  0.17929860977E+03  0.50400001928E-02 0.  1.
    10030    2    1    2    0    0  0.00000000000E+00  0.00000000000E+00  0.15141188598E+04  0.18727160793E+04  0.11020479082E+04 0.  0.
        5    1    3    3  502    0  0.35671255766E+03  0.21552088871E+03  0.14457303939E+03  0.44115366482E+03  0.46999998093E+01 0.  1.
       -5    1    3    3    0  502 -0.35671255766E+03 -0.21552088871E+03  0.13695458204E+04  0.14315624145E+04  0.46999998093E+01 0. -1.
</event>
<event>
 5   0  0.9631750E-04  0.1102826E+04  0.7818609E-02  0.9202442E-01
       -3   -1    0    0    0  501  0.00000000000E+00  0.00000000000E+00  0.60845016786E+03  0.60845017624E+03  0.10100000352E+00 0. -1.
        3   -1    0    0  501    0  0.00000000000E+00  0.00000000000E+00 -0.49972259646E+03  0.49972260666E+03  0.10100000352E+00 0.  1.
    10030    2    1    2    0    0  0.00000000000E+00  0.00000000000E+00  0.10872757140E+03  0.11081727829E+04  0.11028260207E+04 0.  0.
        4    1    3    3  502    0  0.17537943755E+03  0.21590763042E+03 -0.42405441462E+03  0.50714673562E+03  0.12699999809E+01 0.  1.
       -4    1    3    3    0  502 -0.17537943755E+03 -0.21590763042E+03  0.53278198603E+03  0.60102604729E+03  0.12699999809E+01 0. -1.
</event>
<event>
 5   0  0.1509004E-03  0.1084561E+04  0.7818609E-02  0.9220372E-01
       -1   -1    0    0    0  501  0.00000000000E+00  0.00000000000E+00  0.55470491217E+03  0.55470491219E+03  0.50400001928E-02 0.  1.
        1   -1    0    0  501    0  0.00000000000E+00  0.00000000000E+00 -0.53013444023E+03  0.53013444025E+03  0.50400001928E-02 0. -1.
    10030    2    1    2    0    0  0.00000000000E+00  0.00000000000E+00  0.24570471943E+02  0.10848393524E+04  0.10845610691E+04 0.  0.
        3    1    3    3  502    0  0.16867817041E+03  0.20497228362E+03 -0.46070204388E+03  0.53170701110E+03  0.10100000352E+00 0. -1.
       -3    1    3    3    0  502 -0.16867817041E+03 -0.20497228362E+03  0.48527251582E+03  0.55313234134E+03  0.10100000352E+00 0.  1.
</event>
<event>
 5   0  0.9631750E-04  0.1100280E+04  0.7818609E-02  0.9204919E-01
        3   -1    0    0  501    0  0.00000000000E+00  0.00000000000E+00  0.57162961364E+03  0.57162962256E+03  0.10100000352E+00 0. -1.
       -3   -1    0    0    0  501  0.00000000000E+00  0.00000000000E+00 -0.52945866146E+03  0.52945867110E+03  0.10100000352E+00 0.  1.
    10030    2    1    2    0    0  0.00000000000E+00  0.00000000000E+00  0.42170952176E+02  0.11010882937E+04  0.11002804375E+04 0.  0.
        2    1    3    3  502    0  0.40533302556E+03 -0.94551091556E+00  0.39332431408E+03  0.56480064772E+03  0.25500000920E-02 0. -1.
       -2    1    3    3    0  502 -0.40533302556E+03  0.94551091556E+00 -0.35115336191E+03  0.53628764594E+03  0.25500000920E-02 0.  1.
</event>
<event>
 5   0  0.1509004E-03  0.1097862E+04  0.7818609E-02  0.9207278E-01
        1   -1    0    0  501    0  0.00000000000E+00  0.00000000000E+00  0.62322611145E+03  0.62322611147E+03  0.50400001928E-02 0.  1.
       -1   -1    0    0    0  501  0.00000000000E+00  0.00000000000E+00 -0.48349267095E+03  0.48349267098E+03  0.50400001928E-02 0. -1.
    10030    2    1    2    0    0  0.00000000000E+00  0.00000000000E+00  0.13973344050E+03  0.11067187824E+04  0.10978620264E+04 0.  0.
        3    1    3    3  502    0 -0.18205754891E+03  0.43599646334E+03 -0.21182880118E+03  0.51779273689E+03  0.10100000352E+00 0. -1.
       -3    1    3    3    0  502  0.18205754891E+03 -0.43599646334E+03  0.35156224168E+03  0.58892604556E+03  0.10100000352E+00 0.  1.
</event>
<event>
 5   0  0.2467448E-03  0.1098163E+04  0.7818609E-02  0.9206984E-01
       -2   -1    0    0    0  501  0.00000000000E+00  0.00000000000E+00  0.53576937266E+03  0.53576937267E+03  0.25500000920E-02 0.  1.
        2   -1    0    0  501    0  0.00000000000E+00  0.00000000000E+00 -0.56272467935E+03  0.56272467936E+03  0.25500000920E-02 0. -1.
    10030    2    1    2    0    0  0.00000000000E+00  0.00000000000E+00 -0.26955306694E+02  0.10984940520E+04  0.10981632819E+04 0.  0.
        1    1    3    3  502    0 -0.37274218398E+03 -0.17777107575E+03 -0.37545866817E+03  0.55812946762E+03  0.50400001928E-02 0. -1.
       -1    1    3    3    0  502  0.37274218398E+03  0.17777107575E+03  0.34850336148E+03  0.54036458441E+03  0.50400001928E-02 0.  1.
</event>
<event>
 5   0  0.1415400E-03  0.1094752E+04  0.7818609E-02  0.9210322E-01
        1   -1    0    0  501    0  0.00000000000E+00  0.00000000000E+00  0.75086594578E+03  0.75086594580E+03  0.50400001928E-02 0. -1.
       -1   -1    0    0    0  501  0.00000000000E+00  0.00000000000E+00 -0.39903301738E+03  0.39903301742E+03  0.50400001928E-02 0.  1.
    10030    2    1    2    0    0  0.00000000000E+00  0.00000000000E+00  0.35183292840E+03  0.11498989632E+04  0.10947516687E+04 0.  0.
        2    1    3    3  502    0  0.33586577878E+02  0.14928481533E+03 -0.37611120782E+03  0.40604637045E+03  0.25500000920E-02 0.  1.
       -2    1    3    3    0  502 -0.33586577878E+02 -0.14928481533E+03  0.72794413622E+03  0.74385259276E+03  0.25500000920E-02 0. -1.
</event>
<event>
 5   0  0.1509004E-03  0.1094883E+04  0.7818609E-02  0.9210193E-01
       -1   -1    0    0    0  501  0.00000000000E+00  0.00000000000E+00  0.36711893760E+03  0.36711893764E+03  0.50400001928E-02 0. -1.
        1   -1    0    0  501    0  0.00000000000E+00  0.00000000000E+00 -0.81633609914E+03  0.81633609916E+03  0.50400001928E-02 0.  1.
    10030    2    1    2    0    0  0.00000000000E+00  0.00000000000E+00 -0.44921716154E+03  0.11834550368E+04  0.10948834485E+04 0.  0.
        3    1    3    3  502    0  0.41855397201E+03  0.35283387352E+03 -0.22067235647E+03  0.59023340206E+03  0.10100000352E+00 0. -1.
       -3    1    3    3    0  502 -0.41855397201E+03 -0.35283387352E+03 -0.22854480507E+03  0.59322163474E+03  0.10100000352E+00 0.  1.
</event>
<event>
 5   0  0.1415400E-03  0.1105498E+04  0.7818609E-02  0.9199850E-01
        1   -1    0    0  501    0  0.00000000000E+00  0.00000000000E+00  0.45467207724E+03  0.45467207727E+03  0.50400001928E-02 0. -1.
       -1   -1    0    0    0  501  0.00000000000E+00  0.00000000000E+00 -0.67198143288E+03  0.67198143290E+03  0.50400001928E-02 0.  1.
    10030    2    1    2    0    0  0.00000000000E+00  0.00000000000E+00 -0.21730935564E+03  0.11266535102E+04  0.11054975242E+04 0.  0.
        2    1    3    3  502    0 -0.36829399724E+03 -0.27957962412E+03 -0.41731352597E+03  0.62286099059E+03  0.25500000920E-02 0.  1.
       -2    1    3    3    0  502  0.36829399724E+03  0.27957962412E+03  0.20000417033E+03  0.50379251958E+03  0.25500000920E-02 0. -1.
</event>
<event>
 5   0  0.1509004E-03  0.1115066E+04  0.7818609E-02  0.9190631E-01
        1   -1    0    0  501    0  0.00000000000E+00  0.00000000000E+00  0.98969838617E+03  0.98969838619E+03  0.50400001928E-02 0.  1.
       -1   -1    0    0    0  501  0.00000000000E+00  0.00000000000E+00 -0.31407854400E+03  0.31407854404E+03  0.50400001928E-02 0. -1.
    10030    2    1    2    0    0  0.00000000000E+00  0.00000000000E+00  0.67561984217E+03  0.13037769302E+04  0.11150659679E+04 0.  0.
        3    1    3    3  502    0  0.18493775643E+03 -0.47991503670E+03  0.58946123539E+03  0.78229468516E+03  0.10100000352E+00 0.  1.
       -3    1    3    3    0  502 -0.18493775643E+03  0.47991503670E+03  0.86158606781E+02  0.52148224507E+03  0.10100000352E+00 0. -1.
</event>
<event>
 5   0  0.2392585E-03  0.1113387E+04  0.7818609E-02  0.9192241E-01
        2   -1    0    0  501    0  0.00000000000E+00  0.00000000000E+00  0.17258740464E+04  0.17258740464E+04  0.25500000920E-02 0. -1.
       -2   -1    0    0    0  501  0.00000000000E+00  0.00000000000E+00 -0.17956567672E+03  0.17956567673E+03  0.25500000920E-02 0.  1.
    10030    2    1    2    0    0  0.00000000000E+00  0.00000000000E+00  0.15463083697E+04  0.19054397232E+04  0.11133871584E+04 0.  0.
        5    1    3    3  502    0  0.38556618238E+03  0.39129305302E+03  0.92731345069E+03  0.10778236684E+04  0.46999998093E+01 0.  1.
       -5    1    3    3    0  502 -0.38556618238E+03 -0.39129305302E+03  0.61899491903E+03  0.82761605477E+03  0.46999998093E+01 0. -1.
</event>
<event>
 5   0  0.2467448E-03  0.1090455E+04  0.7818609E-02  0.9214545E-01
       -2   -1    0    0    0  501  0.00000000000E+00  0.00000000000E+00  0.20902051365E+03  0.20902051366E+03  0.25500000920E-02 0.  1.
        2   -1    0    0  501    0  0.00000000000E+00  0.00000000000E+00 -0.14222189083E+04  0.14222189083E+04  0.25500000920E-02 0. -1.
    10030    2    1    2    0    0  0.00000000000E+00  0.00000000000E+00 -0.12131983946E+04  0.16312394220E+04  0.10904548166E+04 0.  0.
        1    1    3    3  502    0  0.18612972771E+03 -0.13552146269E+03 -0.13459295005E+04  0.13654803414E+04  0.50400001928E-02 0. -1.
       -1    1    3    3    0  502 -0.18612972771E+03  0.13552146269E+03  0.13273110589E+03  0.26575908053E+03  0.50400001928E-02 0.  1.
</event>
<event>
 5   0  0.1480937E-03  0.1100115E+04  0.7818609E-02  0.9205079E-01
        1   -1    0    0  501    0  0.00000000000E+00  0.00000000000E+00  0.75750464314E+03  0.75750464315E+03  0.50400001928E-02 0. -1.
       -1   -1    0    0    0  501  0.00000000000E+00  0.00000000000E+00 -0.39942129934E+03  0.39942129937E+03  0.50400001928E-02 0.  1.
    10030    2    1    2    0    0  0.00000000000E+00  0.00000000000E+00  0.35808334380E+03  0.11569259425E+04  0.11001154282E+04 0.  0.
        1    1    3    3  502    0 -0.17505331028E+03 -0.39220391985E+03 -0.18235549000E+03  0.46660593754E+03  0.50400001928E-02 0.  1.
       -1    1    3    3    0  502  0.17505331028E+03  0.39220391985E+03  0.54043883380E+03  0.69032000499E+03  0.50400001928E-02 0. -1.
</event>
<event>
 5   0  0.2488472E-03  0.1089441E+04  0.7818609E-02  0.9215545E-01
       -2   -1    0    0    0  501  0.00000000000E+00  0.00000000000E+00  0.16947789364E+03  0.16947789366E+03  0.25500000920E-02 0. -1.
        2   -1    0    0  501    0  0.00000000000E+00  0.00000000000E+00 -0.17507899124E+04  0.17507899124E+04  0.25500000920E-02 0.  1.
    10030    2    1    2    0    0  0.00000000000E+00  0.00000000000E+00 -0.15813120188E+04  0.19202678061E+04  0.10894405657E+04 0.  0.
        2    1    3    3  502    0  0.51690888677E+03  0.17714275255E+02 -0.48939988476E+03  0.71205395861E+03  0.25500000920E-02 0. -1.
       -2    1    3    3    0  502 -0.51690888677E+03 -0.17714275255E+02 -0.10919121340E+04  0.12082138474E+04  0.25500000920E-02 0.  1.
</event>
<event>
 5   0  0.2392585E-03  0.1098026E+04  0.7818609E-02  0.9207118E-01
        2   -1    0    0  501    0  0.00000000000E+00  0.00000000000E+00  0.18222900461E+04  0.18222900461E+04  0.25500000920E-02 0.  1.
       -2   -1    0    0    0  501  0.00000000000E+00  0.00000000000E+00 -0.16540462805E+03  0.16540462807E+03  0.25500000920E-02 0. -1.
    10030    2    1    2    0    0  0.00000000000E+00  0.00000000000E+00  0.16568854181E+04  0.19876946742E+04  0.10980258782E+04 0.  0.
        5    1    3    3  502    0  0.77433874056E+02 -0.51338870021E+03  0.11514033904E+04  0.12630581221E+04  0.46999998093E+01 0.  1.
       -5    1    3    3    0  502 -0.77433874056E+02  0.51338870021E+03  0.50548202766E+03  0.72463655210E+03  0.46999998093E+01 0. -1.
</event>
<event>
 5   0  0.1415400E-03  0.1100250E+04  0.7818609E-02  0.9204948E-01
       -1   -1    0    0    0  501  0.00000000000E+00  0.00000000000E+00  0.27450742463E+03  0.27450742468E+03  0.50400001928E-02 0. -1.
        1   -1    0    0  501    0  0.00000000000E+00  0.00000000000E+00 -0.11024749305E+04  0.11024749305E+04  0.50400001928E-02 0.  1.
    10030    2    1    2    0    0  0.00000000000E+00  0.00000000000E+00 -0.82796750586E+03  0.13769823552E+04  0.11002500696E+04 0.  0.
        2    1    3    3  502    0  0.10851755874E+03  0.32976873914E+03 -0.94806671434E+03  0.10096306140E+04  0.25500000920E-02 0.  1.
       -2    1    3    3    0  502 -0.10851755874E+03 -0.32976873914E+03  0.12009920849E+03  0.36735174118E+03  0.25500000920E-02 0. -1.
</event>
<event>
 5   0  0.2488472E-03  0.1084146E+04  0.7818609E-02  0.9220784E-01
        2   -1    0    0  501    0  0.00000000000E+00  0.00000000000E+00  0.94356150737E+03  0.94356150737E+03  0.25500000920E-02 0.  1.
       -2   -1    0    0    0  501  0.00000000000E+00  0.00000000000E+00 -0.31141904055E+03  0.31141904056E+03  0.25500000920E-02 0. -1.
    10030    2    1    2    0    0  0.00000000000E+00  0.00000000000E+00  0.63214246682E+03  0.12549805479E+04  0.10841457823E+04 0.  0.
        2    1    3    3  502    0  0.15507603278E+02 -0.53204068814E+03  0.19725616541E+03  0.56764229441E+03  0.25500000920E-02 0. -1.
       -2    1    3    3    0  502 -0.15507603278E+02  0.53204068814E+03  0.43488630141E+03  0.68733825352E+03  0.25500000920E-02 0.  1.
</event>
<event>
 5   0  0.2483036E-03  0.1098635E+04  0.7818609E-02  0.9206523E-01
       -2   -1    0    0    0  501  0.00000000000E+00  0.00000000000E+00  0.14048974689E+03  0.14048974691E+03  0.25500000920E-02 0.  1.
        2   -1    0    0  501    0  0.00000000000E+00  0.00000000000E+00 -0.21478434130E+04  0.21478434130E+04  0.25500000920E-02 0. -1.
    10030    2    1    2    0    0  0.00000000000E+00  0.00000000000E+00 -0.20073536661E+04  0.22883331599E+04  0.10986354763E+04 0.  0.
        3    1    3    3  502    0  0.22118378982E+03 -0.43868639585E+03 -0.49185455865E+03  0.69518985886E+03  0.10100000352E+00 0.  1.
       -3    1    3    3    0  502 -0.22118378982E+03  0.43868639585E+03 -0.15154991074E+04  0.15931433010E+04  0.10100000352E+00 0. -1.
</event>
<event>
 5   0  0.1468556E-03  0.1102835E+04  0.7818609E-02  0.9202433E-01
       -1   -1    0    0    0  501  0.00000000000E+00  0.00000000000E+00  0.25657813430E+03  0.25657813435E+03  0.50400001928E-02 0.  1.
        1   -1    0    0  501    0  0.00000000000E+00  0.00000000000E+00 -0.11850639063E+04  0.11850639063E+04  0.50400001928E-02 0. -1.
    10030    2    1    2    0    0  0.00000000000E+00  0.00000000000E+00 -0.92848577196E+03  0.14416420406E+04  0.11028354114E+04 0.  0.
        5    1    3    3  502    0  0.49428099349E+03  0.20545246378E+03 -0.63724506295E+03  0.83224261826E+03  0.46999998093E+01 0. -1.
       -5    1    3    3    0  502 -0.49428099349E+03 -0.20545246378E+03 -0.29124070901E+03  0.60939942236E+03  0.46999998093E+01 0.  1.
</event>
<event>
 5   0  0.1468556E-03  0.1084696E+04  0.7818609E-02  0.9220238E-01
        1   -1    0    0  501    0  0.00000000000E+00  0.00000000000E+00  0.69566754078E+03  0.69566754080E+03  0.50400001928E-02 0. -1.
       -1   -1    0    0    0  501  0.00000000000E+00  0.00000000000E+00 -0.42281895711E+03  0.42281895714E+03  0.50400001928E-02 0.  1.
    10030    2    1    2    0    0  0.00000000000E+00  0.00000000000E+00  0.27284858367E+03  0.11184864979E+04  0.10846961309E+04 0.  0.
        5    1    3    3  502    0 -0.38432613128E+02 -0.69993968519E+02 -0.41670304574E+03  0.42431089983E+03  0.46999998093E+01 0.  1.
       -5    1    3    3    0  502  0.38432613128E+02  0.69993968519E+02  0.68955162942E+03  0.69417559811E+03  0.46999998093E+01 0. -1.
</event>
<event>
 5   0  0.2467448E-03  0.1091562E+04  0.7818609E-02  0.9213456E-01
       -2   -1    0    0    0  501  0.00000000000E+00  0.00000000000E+00  0.16027471764E+04  0.16027471764E+04  0.25500000920E-02 0. -1.
        2   -1    0    0  501    0  0.00000000000E+00  0.00000000000E+00 -0.18585385402E+03  0.18585385403E+03  0.25500000920E-02 0.  1.
    10030    2    1    2    0    0  0.00000000000E+00  0.00000000000E+00  0.14168933223E+04  0.17886010304E+04  0.10915617065E+04 0.  0.
        1    1    3    3  502    0 -0.15815508437E+03 -0.44743524161E+03  0.11501483501E+04  0.12442076006E+04  0.50400001928E-02 0. -1.
       -1    1    3    3    0  502  0.15815508437E+03  0.44743524161E+03  0.26674497222E+03  0.54439342977E+03  0.50400001928E-02 0.  1.
</event>
<event>
 5   0  0.1479573E-03  0.1103238E+04  0.7818609E-02  0.9202042E-01
        1   -1    0    0  501    0  0.00000000000E+00  0.00000000000E+00  0.44718592734E+03  0.44718592736E+03  0.50400001928E-02 0. -1.
       -1   -1    0    0    0  501  0.00000000000E+00  0.00000000000E+00 -0.68044054821E+03  0.68044054823E+03  0.50400001928E-02 0.  1.
    10030    2    1    2    0    0  0.00000000000E+00  0.00000000000E+00 -0.23325462087E+03  0.11276264756E+04  0.11032378485E+04 0.  0.
        4    1    3    3  502    0  0.62386877445E+02  0.51251032724E+03 -0.31514465433E+03  0.60487744548E+03  0.12699999809E+01 0.  1.
       -4    1    3    3    0  502 -0.62386877445E+02 -0.51251032724E+03  0.81890033456E+02  0.52274903011E+03  0.12699999809E+01 0. -1.
</event>
<event>
 5   0  0.1415400E-03  0.1101608E+04  0.7818609E-02  0.9203626E-01
        1   -1    0    0  501    0  0.00000000000E+00  0.00000000000E+00  0.16134911949E+04  0.16134911949E+04  0.50400001928E-02 0.  1.
       -1   -1    0    0    0  501  0.00000000000E+00  0.00000000000E+00 -0.18803026966E+03  0.18803026973E+03  0.50400001928E-02 0. -1.
    10030    2    1    2    0    0  0.00000000000E+00  0.00000000000E+00  0.14254609252E+04  0.18015214646E+04  0.11016082508E+04 0.  0.
        2    1    3    3  502    0  0.11757550705E+03  0.27705194178E+03  0.14671302348E+04  0.14976825111E+04  0.25500000920E-02 0.  1.
       -2    1    3    3    0  502 -0.11757550705E+03 -0.27705194178E+03 -0.41669309555E+02  0.30383895351E+03  0.25500000920E-02 0. -1.
</event>
<event>
 5   0  0.2438115E-03  0.1098319E+04  0.7818609E-02  0.9206832E-01
       -2   -1    0    0    0  501  0.00000000000E+00  0.00000000000E+00  0.64451848774E+03  0.64451848774E+03  0.25500000920E-02 0.  1.
        2   -1    0    0  501    0  0.00000000000E+00  0.00000000000E+00 -0.46790946016E+03  0.46790946017E+03  0.25500000920E-02 0. -1.
    10030    2    1    2    0    0  0.00000000000E+00  0.00000000000E+00  0.17660902758E+03  0.11124279479E+04  0.10983192572E+04 0.  0.
        4    1    3    3  502    0 -0.11340417685E+03  0.43915454821E+03 -0.22528118768E+03  0.50642911742E+03  0.12699999809E+01 0. -1.
       -4    1    3    3    0  502  0.11340417685E+03 -0.43915454821E+03  0.40189021526E+03  0.60599883050E+03  0.12699999809E+01 0.  1.
</event>
<event>
 5   0  0.2488472E-03  0.1095686E+04  0.7818609E-02  0.9209407E-01
        2   -1    0    0  501    0  0.00000000000E+00  0.00000000000E+00  0.71137566141E+03  0.71137566141E+03  0.25500000920E-02 0. -1.
       -2   -1    0    0    0  501  0.00000000000E+00  0.00000000000E+00 -0.42190348522E+03  0.42190348522E+03  0.25500000920E-02 0.  1.
    10030    2    1    2    0    0  0.00000000000E+00  0.00000000000E+00  0.28947217619E+03  0.11332791466E+04  0.10956858507E+04 0.  0.
        2    1    3    3  502    0 -0.22323964985E+03 -0.34358844795E+03 -0.23139310255E+03  0.47056533100E+03  0.25500000920E-02 0.  1.
       -2    1    3    3    0  502  0.22323964985E+03  0.34358844795E+03  0.52086527874E+03  0.66271381564E+03  0.25500000920E-02 0. -1.
</event>
<event>
 5   0  0.2483036E-03  0.1081771E+04  0.7818609E-02  0.9223143E-01
        2   -1    0    0  501    0  0.00000000000E+00  0.00000000000E+00  0.95805813673E+03  0.95805813673E+03  0.25500000920E-02 0.  1.
       -2   -1    0    0    0  501  0.00000000000E+00  0.00000000000E+00 -0.30536487063E+03  0.30536487064E+03  0.25500000920E-02 0. -1.
    10030    2    1    2    0    0  0.00000000000E+00  0.00000000000E+00  0.65269326610E+03  0.12634230074E+04  0.10817713233E+04 0.  0.
        3    1    3    3  502    0 -0.23639403121E+03  0.48444335663E+03  0.37844407440E+03  0.65862541055E+03  0.10100000352E+00 0. -1.
       -3    1    3    3    0  502  0.23639403121E+03 -0.48444335663E+03  0.27424919170E+03  0.60479759682E+03  0.10100000352E+00 0.  1.
</event>
<event>
 5   0  0.9631750E-04  0.1104802E+04  0.7818609E-02  0.9200524E-01
        4   -1    0    0  501    0  0.00000000000E+00  0.00000000000E+00  0.44336086266E+03  0.44336268160E+03  0.12699999809E+01 0.  1.
       -4   -1    0    0    0  501  0.00000000000E+00  0.00000000000E+00 -0.68825488576E+03  0.68825605749E+03  0.12699999809E+01 0. -1.
    10030    2    1    2    0    0  0.00000000000E+00  0.00000000000E+00 -0.24489402310E+03  0.11316187391E+04  0.11048021941E+04 0.  0.
        2    1    3    3  502    0 -0.23314502453E+03 -0.15700281088E+03  0.36463799798E+03  0.46039912540E+03  0.25500000920E-02 0.  1.
       -2    1    3    3    0  502  0.23314502453E+03  0.15700281088E+03 -0.60953202108E+03  0.67121961370E+03  0.25500000920E-02 0. -1.
</event>
<event>
 5   0  0.2438115E-03  0.1102372E+04  0.7818609E-02  0.9202883E-01
        2   -1    0    0  501    0  0.00000000000E+00  0.00000000000E+00  0.12216454344E+04  0.12216454344E+04  0.25500000920E-02 0.  1.
       -2   -1    0    0    0  501  0.00000000000E+00  0.00000000000E+00 -0.24868573675E+03  0.24868573676E+03  0.25500000920E-02 0. -1.
    10030    2    1    2    0    0  0.00000000000E+00  0.00000000000E+00  0.97295969761E+03  0.14703311711E+04  0.11023716159E+04 0.  0.
        4    1    3    3  502    0 -0.20008602483E+03 -0.19792393520E+03 -0.14562341847E+03  0.31688498602E+03  0.12699999809E+01 0. -1.
       -4    1    3    3    0  502  0.20008602483E+03  0.19792393520E+03  0.11185831161E+04  0.11534461851E+04  0.12699999809E+01 0.  1.
</event>
<event>
 5   0  0.2483036E-03  0.1094291E+04  0.7818609E-02  0.9210774E-01
        2   -1    0    0  501    0  0.00000000000E+00  0.00000000000E+00  0.46595531328E+03  0.46595531329E+03  0.25500000920E-02 0.  1.
       -2   -1    0    0    0  501  0.00000000000E+00  0.00000000000E+00 -0.64248284894E+03  0.64248284894E+03  0.25500000920E-02 0. -1.
    10030    2    1    2    0    0  0.00000000000E+00  0.00000000000E+00 -0.17652753565E+03  0.11084381622E+04  0.10942911809E+04 0.  0.
        3    1    3    3  502    0  0.29678061561E+02 -0.97083809099E+02 -0.63285951751E+03  0.64095025737E+03  0.10100000352E+00 0. -1.
       -3    1    3    3    0  502 -0.29678061561E+02  0.97083809099E+02  0.45633198185E+03  0.46748790486E+03  0.10100000352E+00 0.  1.
</event>
<event>
 5   0  0.1509004E-03  0.1071924E+04  0.7818609E-02  0.9232997E-01
        1   -1    0    0  501    0  0.00000000000E+00  0.00000000000E+00  0.21733441332E+04  0.21733441332E+04  0.50400001928E-02 0. -1.
       -1   -1    0    0    0  501  0.00000000000E+00  0.00000000000E+00 -0.13217210887E+03  0.13217210897E+03  0.50400001928E-02 0.  1.
    10030    2    1    2    0    0  0.00000000000E+00  0.00000000000E+00  0.20411720244E+04  0.23055162422E+04  0.10719243957E+04 0.  0.
        3    1    3    3  502    0 -0.29886635226E+03 -0.21417976073E+03  0.18592993020E+04  0.18953068277E+04  0.10100000352E+00 0. -1.
       -3    1    3    3    0  502  0.29886635226E+03  0.21417976073E+03  0.18187272235E+03  0.41020941451E+03  0.10100000352E+00 0.  1.
</event>
<event>
 5   0  0.2483036E-03  0.1114566E+04  0.7818609E-02  0.9191110E-01
        2   -1    0    0  501    0  0.00000000000E+00  0.00000000000E+00  0.20159389891E+04  0.20159389891E+04  0.25500000920E-02 0.  1.
       -2   -1    0    0    0  501  0.00000000000E+00  0.00000000000E+00 -0.15405445301E+03  0.15405445303E+03  0.25500000920E-02 0. -1.
    10030    2    1    2    0    0  0.00000000000E+00  0.00000000000E+00  0.18618845361E+04  0.21699934421E+04  0.11145660650E+04 0.  0.
        3    1    3    3  502    0 -0.17509436663E+03  0.78137347735E+02 -0.87813380549E+02  0.21089021395E+03  0.10100000352E+00 0. -1.
       -3    1    3    3    0  502  0.17509436663E+03 -0.78137347735E+02  0.19496979166E+04  0.19591032282E+04  0.10100000352E+00 0.  1.
</event>
<event>
 5   0  0.1415400E-03  0.1096875E+04  0.7818609E-02  0.9208243E-01
       -1   -1    0    0    0  501  0.00000000000E+00  0.00000000000E+00  0.35093673311E+03  0.35093673315E+03  0.50400001928E-02 0.  1.
        1   -1    0    0  501    0  0.00000000000E+00  0.00000000000E+00 -0.85708740517E+03  0.85708740518E+03  0.50400001928E-02 0. -1.
    10030    2    1    2    0    0  0.00000000000E+00  0.00000000000E+00 -0.50615067206E+03  0.12080241383E+04  0.10968745671E+04 0.  0.
        2    1    3    3  502    0 -0.21913453710E+03 -0.10509952617E+03  0.28839264551E+03  0.37714211346E+03  0.25500000920E-02 0.  1.
       -2    1    3    3    0  502  0.21913453710E+03  0.10509952617E+03 -0.79454331757E+03  0.83088202487E+03  0.25500000920E-02 0. -1.
</event>
<event>
 5   0  0.1480937E-03  0.1085776E+04  0.7818609E-02  0.9219167E-01
       -1   -1    0    0    0  501  0.00000000000E+00  0.00000000000E+00  0.51747500353E+03  0.51747500355E+03  0.50400001928E-02 0.  1.
        1   -1    0    0  501    0  0.00000000000E+00  0.00000000000E+00 -0.56954952623E+03  0.56954952625E+03  0.50400001928E-02 0. -1.
    10030    2    1    2    0    0  0.00000000000E+00  0.00000000000E+00 -0.52074522703E+02  0.10870245298E+04  0.10857764837E+04 0.  0.
        1    1    3    3  502    0 -0.23077876629E+02  0.48096286564E+03  0.22498941257E+03  0.53148669062E+03  0.50400001928E-02 0.  1.
       -1    1    3    3    0  502  0.23077876629E+02 -0.48096286564E+03 -0.27706393527E+03  0.55553783918E+03  0.50400001928E-02 0. -1.
</event>
<event>
 5   0  0.2438115E-03  0.1177745E+04  0.7818609E-02  0.9132563E-01
        2   -1    0    0  501    0  0.00000000000E+00  0.00000000000E+00  0.80707222077E+03  0.80707222077E+03  0.25500000920E-02 0.  1.
       -2   -1    0    0    0  501  0.00000000000E+00  0.00000000000E+00 -0.42966480727E+03  0.42966480728E+03  0.25500000920E-02 0. -1.
    10030    2    1    2    0    0  0.00000000000E+00  0.00000000000E+00  0.37740741350E+03  0.12367370281E+04  0.11777445057E+04 0.  0.
        4    1    3    3  502    0 -0.43932914438E+03  0.19560181474E+03 -0.16817030212E+03  0.50946347312E+03  0.12699999809E+01 0. -1.
       -4    1    3    3    0  502  0.43932914438E+03 -0.19560181474E+03  0.54557771562E+03  0.72727355493E+03  0.12699999809E+01 0.  1.
</event>
<event>
 5   0  0.2438115E-03  0.1101022E+04  0.7818609E-02  0.9204197E-01
        2   -1    0    0  501    0  0.00000000000E+00  0.00000000000E+00  0.23197645725E+04  0.23197645725E+04  0.25500000920E-02 0.  1.
       -2   -1    0    0    0  501  0.00000000000E+00  0.00000000000E+00 -0.13064349704E+03  0.13064349706E+03  0.25500000920E-02 0. -1.
    10030    2    1    2    0    0  0.00000000000E+00  0.00000000000E+00  0.21891210755E+04  0.24504080696E+04  0.11010216276E+04 0.  0.
        4    1    3    3  502    0 -0.38313184655E+03 -0.39530738074E+03  0.10981533674E+04  0.12284137611E+04  0.12699999809E+01 0. -1.
       -4    1    3    3    0  502  0.38313184655E+03  0.39530738074E+03  0.10909677080E+04  0.12219943085E+04  0.12699999809E+01 0.  1.
</event>
<event>
 5   0  0.2438115E-03  0.1008144E+04  0.7818609E-02  0.9299657E-01
       -2   -1    0    0    0  501  0.00000000000E+00  0.00000000000E+00  0.43801631514E+03  0.43801631515E+03  0.25500000920E-02 0.  1.
        2   -1    0    0  501    0  0.00000000000E+00  0.00000000000E+00 -0.58008926101E+03  0.58008926101E+03  0.25500000920E-02 0. -1.
    10030    2    1    2    0    0  0.00000000000E+00  0.00000000000E+00 -0.14207294587E+03  0.10181055762E+04  0.10081439591E+04 0.  0.
        4    1    3    3  502    0 -0.52309168325E+02  0.35505313836E+03 -0.42849441104E+03  0.55893474873E+03  0.12699999809E+01 0. -1.
       -4    1    3    3    0  502  0.52309168325E+02 -0.35505313836E+03  0.28642146517E+03  0.45917082743E+03  0.12699999809E+01 0.  1.
</event>
<event>
 5   0  0.9631750E-04  0.1101849E+04  0.7818609E-02  0.9203392E-01
        3   -1    0    0  501    0  0.00000000000E+00  0.00000000000E+00  0.35185236923E+03  0.35185238372E+03  0.10100000352E+00 0. -1.
       -3   -1    0    0    0  501  0.00000000000E+00  0.00000000000E+00 -0.86262813112E+03  0.86262813703E+03  0.10100000352E+00 0.  1.
    10030    2    1    2    0    0  0.00000000000E+00  0.00000000000E+00 -0.51077576189E+03  0.12144805208E+04  0.11018489263E+04 0.  0.
        4    1    3    3  502    0 -0.54110623132E+03 -0.10205369216E+03 -0.23613080626E+03  0.59914128569E+03  0.12699999809E+01 0. -1.
       -4    1    3    3    0  502  0.54110623132E+03  0.10205369216E+03 -0.27464495563E+03  0.61533923506E+03  0.12699999809E+01 0.  1.
</event>
<event>
 5   0  0.1480937E-03  0.1098618E+04  0.7818609E-02  0.9206540E-01
        1   -1    0    0  501    0  0.00000000000E+00  0.00000000000E+00  0.43522192533E+03  0.43522192536E+03  0.50400001928E-02 0.  1.
       -1   -1    0    0    0  501  0.00000000000E+00  0.00000000000E+00 -0.69330210837E+03  0.69330210839E+03  0.50400001928E-02 0. -1.
    10030    2    1    2    0    0  0.00000000000E+00  0.00000000000E+00 -0.25808018304E+03  0.11285240337E+04  0.10986178197E+04 0.  0.
        1    1    3    3  502    0 -0.41868597206E+03  0.23728720425E+03  0.14300326928E+03  0.50204889757E+03  0.50400001928E-02 0.  1.
       -1    1    3    3    0  502  0.41868597206E+03 -0.23728720425E+03 -0.40108345232E+03  0.62647513618E+03  0.50400001928E-02 0. -1.
</event>
<event>
 5   0  0.9631750E-04  0.1106253E+04  0.7818609E-02  0.9199119E-01
       -3   -1    0    0    0  501  0.00000000000E+00  0.00000000000E+00  0.70216179001E+03  0.70216179727E+03  0.10100000352E+00 0.  1.
        3   -1    0    0  501    0  0.00000000000E+00  0.00000000000E+00 -0.43572416602E+03  0.43572417772E+03  0.10100000352E+00 0. -1.
    10030    2    1    2    0    0  0.00000000000E+00  0.00000000000E+00  0.26643762399E+03  0.11378859750E+04  0.11062529026E+04 0.  0.
        1    1    3    3  502    0 -0.15052677259E+03 -0.35229333368E+03  0.54360102500E+03  0.66503456799E+03  0.50400001928E-02 0. -1.
       -1    1    3    3    0  502  0.15052677259E+03  0.35229333368E+03 -0.27716340101E+03  0.47285140700E+03  0.50400001928E-02 0.  1.
</event>
<event>
 5   0  0.2483036E-03  0.1101639E+04  0.7818609E-02  0.9203596E-01
        2   -1    0    0  501    0  0.00000000000E+00  0.00000000000E+00  0.11389529539E+04  0.11389529539E+04  0.25500000920E-02 0. -1.
       -2   -1    0    0    0  501  0.00000000000E+00  0.00000000000E+00 -0.26638688779E+03  0.26638688780E+03  0.25500000920E-02 0.  1.
    10030    2    1    2    0    0  0.00000000000E+00  0.00000000000E+00  0.87256606615E+03  0.14053398417E+04  0.11016390203E+04 0.  0.
        3    1    3    3  502    0 -0.38020320732E+03 -0.30525491390E+03  0.76318377412E+03  0.90564039475E+03  0.10100000352E+00 0. -1.
       -3    1    3    3    0  502  0.38020320732E+03  0.30525491390E+03  0.10938229204E+03  0.49969944700E+03  0.10100000352E+00 0.  1.
</event>
<event>
 5   0  0.2467448E-03  0.1105160E+04  0.7818609E-02  0.9200177E-01
        2   -1    0    0  501    0  0.00000000000E+00  0.00000000000E+00  0.20648037577E+03  0.20648037579E+03  0.25500000920E-02 0.  1.
       -2   -1    0    0    0  501  0.00000000000E+00  0.00000000000E+00 -0.14788070588E+04  0.14788070588E+04  0.25500000920E-02 0. -1.
    10030    2    1    2    0    0  0.00000000000E+00  0.00000000000E+00 -0.12723266831E+04  0.16852874346E+04  0.11051599653E+04 0.  0.
        1    1    3    3  502    0 -0.13911572872E+03 -0.24853030491E+03  0.85924480851E+02  0.29749540311E+03  0.50400001928E-02 0.  1.
       -1    1    3    3    0  502  0.13911572872E+03  0.24853030491E+03 -0.13582511639E+04  0.13877920315E+04  0.50400001928E-02 0. -1.
</event>
<event>
 5   0  0.9631750E-04  0.1099482E+04  0.7818609E-02  0.9205697E-01
       -4   -1    0    0    0  501  0.00000000000E+00  0.00000000000E+00  0.30627414059E+03  0.30627677367E+03  0.12699999809E+01 0. -1.
        4   -1    0    0  501    0  0.00000000000E+00  0.00000000000E+00 -0.98674013296E+03  0.98674095025E+03  0.12699999809E+01 0.  1.
    10030    2    1    2    0    0  0.00000000000E+00  0.00000000000E+00 -0.68046599238E+03  0.12930177239E+04  0.10994820906E+04 0.  0.
        4    1    3    3  502    0  0.18010079280E+03  0.24932056198E+03  0.19562204395E+03  0.36450875870E+03  0.12699999809E+01 0. -1.
       -4    1    3    3    0  502 -0.18010079280E+03 -0.24932056198E+03 -0.87608803633E+03  0.92850896522E+03  0.12699999809E+01 0.  1.
</event>
<event>
 5   0  0.1480937E-03  0.1161890E+04  0.7818609E-02  0.9146884E-01
        1   -1    0    0  501    0  0.00000000000E+00  0.00000000000E+00  0.11154386068E+04  0.11154386068E+04  0.50400001928E-02 0. -1.
       -1   -1    0    0    0  501  0.00000000000E+00  0.00000000000E+00 -0.30256877880E+03  0.30256877884E+03  0.50400001928E-02 0.  1.
    10030    2    1    2    0    0  0.00000000000E+00  0.00000000000E+00  0.81286982801E+03  0.14180073857E+04  0.11618896628E+04 0.  0.
        1    1    3    3  502    0  0.52344238360E+03  0.11535014979E+03  0.13299463809E+03  0.55225461501E+03  0.50400001928E-02 0.  1.
       -1    1    3    3    0  502 -0.52344238360E+03 -0.11535014979E+03  0.67987518992E+03  0.86575277066E+03  0.50400001928E-02 0. -1.
</event>
<event>
 5   0  0.1415400E-03  0.1099397E+04  0.7818609E-02  0.9205780E-01
        1   -1    0    0  501    0  0.00000000000E+00  0.00000000000E+00  0.16017270666E+04  0.16017270667E+04  0.50400001928E-02 0. -1.
       -1   -1    0    0    0  501  0.00000000000E+00  0.00000000000E+00 -0.18865153128E+03  0.18865153135E+03  0.50400001928E-02 0.  1.
    10030    2    1    2    0    0  0.00000000000E+00  0.00000000000E+00  0.14130755354E+04  0.17903785980E+04  0.10993966780E+04 0.  0.
        2    1    3    3  502    0  0.52690270576E+03  0.11267447845E+03  0.88378569654E+03  0.10350841303E+04  0.25500000920E-02 0. -1.
       -2    1    3    3    0  502 -0.52690270576E+03 -0.11267447845E+03  0.52928983883E+03  0.75529446769E+03  0.25500000920E-02 0.  1.
</event>
<event>
 5   0  0.2483036E-03  0.1106582E+04  0.7818609E-02  0.9198800E-01
       -2   -1    0    0    0  501  0.00000000000E+00  0.00000000000E+00  0.65297223765E+03  0.65297223765E+03  0.25500000920E-02 0.  1.
        2   -1    0    0  501    0  0.00000000000E+00  0.00000000000E+00 -0.46882678277E+03  0.46882678278E+03  0.25500000920E-02 0. -1.
    10030    2    1    2    0    0  0.00000000000E+00  0.00000000000E+00  0.18414545488E+03  0.11217990204E+04  0.11065818965E+04 0.  0.
        3    1    3    3  502    0  0.46465797304E+03 -0.33722548605E+02 -0.21050554497E+03  0.51123070806E+03  0.10100000352E+00 0. -1.
       -3    1    3    3    0  502 -0.46465797304E+03  0.33722548605E+02  0.39465099985E+03  0.61056831237E+03  0.10100000352E+00 0.  1.
</event>
<event>
 5   0  0.1415400E-03  0.1099889E+04  0.7818609E-02  0.9205300E-01
        1   -1    0    0  501    0  0.00000000000E+00  0.00000000000E+00  0.13948854037E+04  0.13948854037E+04  0.50400001928E-02 0.  1.
       -1   -1    0    0    0  501  0.00000000000E+00  0.00000000000E+00 -0.21682008420E+03  0.21682008426E+03  0.50400001928E-02 0. -1.
    10030    2    1    2    0    0  0.00000000000E+00  0.00000000000E+00  0.11780653195E+04  0.16117054880E+04  0.10998893958E+04 0.  0.
        2    1    3    3  502    0 -0.20488102072E+03 -0.24255967922E+03 -0.68946003986E+02  0.32490765166E+03  0.25500000920E-02 0. -1.
       -2    1    3    3    0  502  0.20488102072E+03  0.24255967922E+03  0.12470113235E+04  0.12867978363E+04  0.25500000920E-02 0.  1.
</event>
<event>
 5   0  0.2438115E-03  0.1102039E+04  0.7818609E-02  0.9203207E-01
        2   -1    0    0  501    0  0.00000000000E+00  0.00000000000E+00  0.79913035898E+03  0.79913035898E+03  0.25500000920E-02 0. -1.
       -2   -1    0    0    0  501  0.00000000000E+00  0.00000000000E+00 -0.37994102205E+03  0.37994102206E+03  0.25500000920E-02 0.  1.
    10030    2    1    2    0    0  0.00000000000E+00  0.00000000000E+00  0.41918933693E+03  0.11790713810E+04  0.11020388475E+04 0.  0.
        4    1    3    3  502    0  0.38025099110E+03  0.39494603008E+03  0.15053066842E+03  0.56853696269E+03  0.12699999809E+01 0.  1.
       -4    1    3    3    0  502 -0.38025099110E+03 -0.39494603008E+03  0.26865866851E+03  0.61053441834E+03  0.12699999809E+01 0. -1.
</event>
<event>
 5   0  0.1509004E-03  0.1099006E+04  0.7818609E-02  0.9206162E-01
       -1   -1    0    0    0  501  0.00000000000E+00  0.00000000000E+00  0.50183641681E+03  0.50183641683E+03  0.50400001928E-02 0. -1.
        1   -1    0    0  501    0  0.00000000000E+00  0.00000000000E+00 -0.60169669316E+03  0.60169669318E+03  0.50400001928E-02 0.  1.
    10030    2    1    2    0    0  0.00000000000E+00  0.00000000000E+00 -0.99860276356E+02  0.11035331100E+04  0.10990055733E+04 0.  0.
        3    1    3    3  502    0  0.55816413250E+02 -0.41526834864E+03 -0.40690848991E+03  0.58407003239E+03  0.10100000352E+00 0.  1.
       -3    1    3    3    0  502 -0.55816413250E+02  0.41526834864E+03  0.30704821356E+03  0.51946307763E+03  0.10100000352E+00 0. -1.
</event>
<event>
 5   0  0.1480937E-03  0.1101818E+04  0.7818609E-02  0.9203421E-01
        1   -1    0    0  501    0  0.00000000000E+00  0.00000000000E+00  0.87033502905E+03  0.87033502907E+03  0.50400001928E-02 0.  1.
       -1   -1    0    0    0  501  0.00000000000E+00  0.00000000000E+00 -0.34871743443E+03  0.34871743446E+03  0.50400001928E-02 0. -1.
    10030    2    1    2    0    0  0.00000000000E+00  0.00000000000E+00  0.52161759463E+03  0.12190524635E+04  0.11018184940E+04 0.  0.
        1    1    3    3  502    0  0.31156935528E+03 -0.27817783230E+03  0.65825553791E+03  0.77958881646E+03  0.50400001928E-02 0.  1.
       -1    1    3    3    0  502 -0.31156935528E+03  0.27817783230E+03 -0.13663794328E+03  0.43946364708E+03  0.50400001928E-02 0. -1.
</event>
<event>
 5   0  0.2438115E-03  0.1099693E+04  0.7818609E-02  0.9205491E-01
       -2   -1    0    0    0  501  0.00000000000E+00  0.00000000000E+00  0.16883640128E+03  0.16883640129E+03  0.25500000920E-02 0. -1.
        2   -1    0    0  501    0  0.00000000000E+00  0.00000000000E+00 -0.17906756041E+04  0.17906756041E+04  0.25500000920E-02 0.  1.
    10030    2    1    2    0    0  0.00000000000E+00  0.00000000000E+00 -0.16218392029E+04  0.19595120054E+04  0.10996930933E+04 0.  0.
        4    1    3    3  502    0  0.29930286291E+02  0.48083241418E+03 -0.33869341201E+03  0.58890616638E+03  0.12699999809E+01 0. -1.
       -4    1    3    3    0  502 -0.29930286291E+02 -0.48083241418E+03 -0.12831457908E+04  0.13706058390E+04  0.12699999809E+01 0.  1.
</event>
<event>
 5   0  0.2392585E-03  0.1094486E+04  0.7818609E-02  0.9210583E-01
       -2   -1    0    0    0  501  0.00000000000E+00  0.00000000000E+00  0.21640800534E+03  0.21640800535E+03  0.25500000920E-02 0.  1.
        2   -1    0    0  501    0  0.00000000000E+00  0.00000000000E+00 -0.13838443019E+04  0.13838443019E+04  0.25500000920E-02 0. -1.
    10030    2    1    2    0    0  0.00000000000E+00  0.00000000000E+00 -0.11674362965E+04  0.16002523072E+04  0.10944861536E+04 0.  0.
        5    1    3    3  502    0 -0.81736077263E+02 -0.16231328910E+03  0.17096891283E+03  0.24955730664E+03  0.46999998093E+01 0.  1.
       -5    1    3    3    0  502  0.81736077263E+02  0.16231328910E+03 -0.13384052094E+04  0.13506950006E+04  0.46999998093E+01 0. -1.
</event>
<event>
 5   0  0.1415400E-03  0.1130612E+04  0.7818609E-02  0.9175858E-01
        1   -1    0    0  501    0  0.00000000000E+00  0.00000000000E+00  0.89272286641E+03  0.89272286643E+03  0.50400001928E-02 0.  1.
       -1   -1    0    0    0  501  0.00000000000E+00  0.00000000000E+00 -0.35797340881E+03  0.35797340884E+03  0.50400001928E-02 0. -1.
    10030    2    1    2    0    0  0.00000000000E+00  0.00000000000E+00  0.53474945761E+03  0.12506962753E+04  0.11306123078E+04 0.  0.
        2    1    3    3  502    0 -0.38113947956E+03 -0.31737347834E+03  0.56743714754E+03  0.75364324720E+03  0.25500000920E-02 0. -1.
       -2    1    3    3    0  502  0.38113947956E+03  0.31737347834E+03 -0.32687689933E+02  0.49705302807E+03  0.25500000920E-02 0.  1.
</event>
<event>
 5   0  0.1415400E-03  0.1089837E+04  0.7818609E-02  0.9215155E-01
        1   -1    0    0  501    0  0.00000000000E+00  0.00000000000E+00  0.12545977347E+04  0.12545977347E+04  0.50400001928E-02 0. -1.
       -1   -1    0    0    0  501  0.00000000000E+00  0.00000000000E+00 -0.23667823487E+03  0.23667823493E+03  0.50400001928E-02 0.  1.
    10030    2    1    2    0    0  0.00000000000E+00  0.00000000000E+00  0.10179194998E+04  0.14912759696E+04  0.10898366435E+04 0.  0.
        2    1    3    3  502    0  0.23838170066E+03 -0.24583820005E+03  0.10889743094E+04  0.11415460141E+04  0.25500000920E-02 0. -1.
       -2    1    3    3    0  502 -0.23838170066E+03  0.24583820005E+03 -0.71054809576E+02  0.34972995551E+03  0.25500000920E-02 0.  1.
</event>
<event>
 5   0  0.1480937E-03  0.1100047E+04  0.7818609E-02  0.9205146E-01
       -1   -1    0    0    0  501  0.00000000000E+00  0.00000000000E+00  0.84994955463E+03  0.84994955464E+03  0.50400001928E-02 0. -1.
        1   -1    0    0  501    0  0.00000000000E+00  0.00000000000E+00 -0.35593371577E+03  0.35593371581E+03  0.50400001928E-02 0.  1.
    10030    2    1    2    0    0  0.00000000000E+00  0.00000000000E+00  0.49401583886E+03  0.12058832704E+04  0.11000467321E+04 0.  0.
        1    1    3    3  502    0 -0.45122081344E+03  0.30853255578E+03  0.18003003386E+03  0.57550271378E+03  0.50400001928E-02 0.  1.
       -1    1    3    3    0  502  0.45122081344E+03 -0.30853255578E+03  0.31398580500E+03  0.63038055666E+03  0.50400001928E-02 0. -1.
</event>
<event>
 5   0  0.1468556E-03  0.1106428E+04  0.7818609E-02  0.9198949E-01
       -1   -1    0    0    0  501  0.00000000000E+00  0.00000000000E+00  0.26522696087E+03  0.26522696091E+03  0.50400001928E-02 0. -1.
        1   -1    0    0  501    0  0.00000000000E+00  0.00000000000E+00 -0.11539011185E+04  0.11539011185E+04  0.50400001928E-02 0.  1.
    10030    2    1    2    0    0  0.00000000000E+00  0.00000000000E+00 -0.88867415761E+03  0.14191280794E+04  0.11064279223E+04 0.  0.
        5    1    3    3  502    0  0.13326712227E+03  0.46326872309E+03 -0.79241121483E+03  0.92753202590E+03  0.46999998093E+01 0. -1.
       -5    1    3    3    0  502 -0.13326712227E+03 -0.46326872309E+03 -0.96262942780E+02  0.49159605351E+03  0.46999998093E+01 0.  1.
</event>
<event>
 5   0  0.1509004E-03  0.1105343E+04  0.7818609E-02  0.9200000E-01
        1   -1    0    0  501    0  0.00000000000E+00  0.00000000000E+00  0.36134560810E+03  0.36134560814E+03  0.50400001928E-02 0. -1.
       -1   -1    0    0    0  501  0.00000000000E+00  0.00000000000E+00 -0.84530098441E+03  0.84530098443E+03  0.50400001928E-02 0.  1.
    10030    2    1    2    0    0  0.00000000000E+00  0.00000000000E+00 -0.48395537631E+03  0.12066465926E+04  0.11053430206E+04 0.  0.
        3    1    3    3  502    0 -0.17629477489E+03  0.29833610718E+03  0.22801683160E+03  0.41482040234E+03  0.10100000352E+00 0. -1.
       -3    1    3    3    0  502  0.17629477489E+03 -0.29833610718E+03 -0.71197220791E+03  0.79182619023E+03  0.10100000352E+00 0.  1.
</event>
<event>
 5   0  0.2467448E-03  0.1092698E+04  0.7818609E-02  0.9212338E-01
       -2   -1    0    0    0  501  0.00000000000E+00  0.00000000000E+00  0.10147639806E+04  0.10147639806E+04  0.25500000920E-02 0.  1.
        2   -1    0    0  501    0  0.00000000000E+00  0.00000000000E+00 -0.29415423737E+03  0.29415423738E+03  0.25500000920E-02 0. -1.
    10030    2    1    2    0    0  0.00000000000E+00  0.00000000000E+00  0.72060974319E+03  0.13089182179E+04  0.10926978079E+04 0.  0.
        1    1    3    3  502    0 -0.27392931139E+03  0.27169288210E+03 -0.10307845632E+03  0.39934879242E+03  0.50400001928E-02 0. -1.
       -1    1    3    3    0  502  0.27392931139E+03 -0.27169288210E+03  0.82368819950E+03  0.90956942552E+03  0.50400001928E-02 0.  1.
</event>
<event>
 5   0  0.1509004E-03  0.1100891E+04  0.7818609E-02  0.9204323E-01
       -1   -1    0    0    0  501  0.00000000000E+00  0.00000000000E+00  0.51759113985E+03  0.51759113987E+03  0.50400001928E-02 0. -1.
        1   -1    0    0  501    0  0.00000000000E+00  0.00000000000E+00 -0.58538572629E+03  0.58538572631E+03  0.50400001928E-02 0.  1.
    10030    2    1    2    0    0  0.00000000000E+00  0.00000000000E+00 -0.67794586443E+02  0.11029768662E+04  0.11008913940E+04 0.  0.
        3    1    3    3  502    0 -0.10936386483E+03 -0.62065427990E+02 -0.57080226015E+03  0.58448935206E+03  0.10100000352E+00 0.  1.
       -3    1    3    3    0  502  0.10936386483E+03  0.62065427990E+02  0.50300767371E+03  0.51848751411E+03  0.10100000352E+00 0. -1.
</event>
<event>
 5   0  0.1480937E-03  0.1112276E+04  0.7818609E-02  0.9193308E-01
       -1   -1    0    0    0  501  0.00000000000E+00  0.00000000000E+00  0.20092583511E+03  0.20092583517E+03  0.50400001928E-02 0.  1.
        1   -1    0    0  501    0  0.00000000000E+00  0.00000000000E+00 -0.15393225035E+04  0.15393225035E+04  0.50400001928E-02 0. -1.
    10030    2    1    2    0    0  0.00000000000E+00  0.00000000000E+00 -0.13383966684E+04  0.17402483387E+04  0.11122763318E+04 0.  0.
        1    1    3    3  502    0  0.80584752617E+01 -0.44404489041E+03 -0.14547461302E+03  0.46733678090E+03  0.50400001928E-02 0.  1.
       -1    1    3    3    0  502 -0.80584752617E+01  0.44404489041E+03 -0.11929220554E+04  0.12729115578E+04  0.50400001928E-02 0. -1.
</event>
<event>
 5   0  0.1480937E-03  0.1102398E+04  0.7818609E-02  0.9202858E-01
        1   -1    0    0  501    0  0.00000000000E+00  0.00000000000E+00  0.61228023072E+03  0.61228023074E+03  0.50400001928E-02 0. -1.
       -1   -1    0    0    0  501  0.00000000000E+00  0.00000000000E+00 -0.49621086303E+03  0.49621086305E+03  0.50400001928E-02 0.  1.
    10030    2    1    2    0    0  0.00000000000E+00  0.00000000000E+00  0.11606936770E+03  0.11084910938E+04  0.11023975721E+04 0.  0.
        1    1    3    3  502    0  0.54508969046E+03  0.42128316048E+02 -0.12513918153E+02  0.54685844954E+03  0.50400001928E-02 0.  1.
       -1    1    3    3    0  502 -0.54508969046E+03 -0.42128316048E+02  0.12858328585E+03  0.56163264425E+03  0.50400001928E-02 0. -1.
</event>
<event>
 5   0  0.1415400E-03  0.1090721E+04  0.7818609E-02  0.9214283E-01
        1   -1    0    0  501    0  0.00000000000E+00  0.00000000000E+00  0.91184623152E+03  0.91184623154E+03  0.50400001928E-02 0.  1.
       -1   -1    0    0    0  501  0.00000000000E+00  0.00000000000E+00 -0.32617136749E+03  0.32617136753E+03  0.50400001928E-02 0. -1.
    10030    2    1    2    0    0  0.00000000000E+00  0.00000000000E+00  0.58567486403E+03  0.12380175991E+04  0.10907211052E+04 0.  0.
        2    1    3    3  502    0 -0.11385972169E+03 -0.12546029003E+03 -0.29554283156E+03  0.34066095446E+03  0.25500000920E-02 0. -1.
       -2    1    3    3    0  502  0.11385972169E+03  0.12546029003E+03  0.88121769559E+03  0.89735664461E+03  0.25500000920E-02 0.  1.
</event>
<event>
 5   0  0.1509004E-03  0.1100632E+04  0.7818609E-02  0.9204576E-01
       -1   -1    0    0    0  501  0.00000000000E+00  0.00000000000E+00  0.10030968678E+04  0.10030968678E+04  0.50400001928E-02 0. -1.
        1   -1    0    0  501    0  0.00000000000E+00  0.00000000000E+00 -0.30191250363E+03  0.30191250367E+03  0.50400001928E-02 0.  1.
    10030    2    1    2    0    0  0.00000000000E+00  0.00000000000E+00  0.70118436420E+03  0.13050093715E+04  0.11006316128E+04 0.  0.
        3    1    3    3  502    0 -0.26224021363E+03  0.45701623788E+03  0.16231834075E+03  0.55134474268E+03  0.10100000352E+00 0.  1.
       -3    1    3    3    0  502  0.26224021363E+03 -0.45701623788E+03  0.53886602345E+03  0.75366462884E+03  0.10100000352E+00 0. -1.
</event>
<event>
 5   0  0.2467448E-03  0.1102754E+04  0.7818609E-02  0.9202512E-01
        2   -1    0    0  501    0  0.00000000000E+00  0.00000000000E+00  0.65730748006E+03  0.65730748006E+03  0.25500000920E-02 0. -1.
       -2   -1    0    0    0  501  0.00000000000E+00  0.00000000000E+00 -0.46251829387E+03  0.46251829388E+03  0.25500000920E-02 0.  1.
    10030    2    1    2    0    0  0.00000000000E+00  0.00000000000E+00  0.19478918619E+03  0.11198257739E+04  0.11027542505E+04 0.  0.
        1    1    3    3  502    0 -0.40270701445E+03  0.37249575110E+03  0.15384939087E+03  0.56973297182E+03  0.50400001928E-02 0. -1.
       -1    1    3    3    0  502  0.40270701445E+03 -0.37249575110E+03  0.40939795324E+02  0.55009280212E+03  0.50400001928E-02 0.  1.
</event>
<event>
 5   0  0.2483036E-03  0.1102285E+04  0.7818609E-02  0.9202968E-01
        2   -1    0    0  501    0  0.00000000000E+00  0.00000000000E+00  0.62082339273E+03  0.62082339274E+03  0.25500000920E-02 0. -1.
       -2   -1    0    0    0  501  0.00000000000E+00  0.00000000000E+00 -0.48928262949E+03  0.48928262949E+03  0.25500000920E-02 0.  1.
    10030    2    1    2    0    0  0.00000000000E+00  0.00000000000E+00  0.13154076325E+03  0.11101060222E+04  0.11022850848E+04 0.  0.
        3    1    3    3  502    0 -0.37087275738E+03 -0.27616035565E+03  0.36780988172E+03  0.59084284162E+03  0.10100000352E+00 0. -1.
       -3    1    3    3    0  502  0.37087275738E+03  0.27616035565E+03 -0.23626911847E+03  0.51926318062E+03  0.10100000352E+00 0.  1.
</event>
<event>
 5   0  0.1509004E-03  0.1098841E+04  0.7818609E-02  0.9206323E-01
        1   -1    0    0  501    0  0.00000000000E+00  0.00000000000E+00  0.30074441410E+03  0.30074441414E+03  0.50400001928E-02 0.  1.
       -1   -1    0    0    0  501  0.00000000000E+00  0.00000000000E+00 -0.10037183834E+04  0.10037183834E+04  0.50400001928E-02 0. -1.
    10030    2    1    2    0    0  0.00000000000E+00  0.00000000000E+00 -0.70297396931E+03  0.13044627976E+04  0.10988406566E+04 0.  0.
        3    1    3    3  502    0  0.13541366592E+03  0.15501634483E+03 -0.95621781479E+03  0.97812036458E+03  0.10100000352E+00 0. -1.
       -3    1    3    3    0  502 -0.13541366592E+03 -0.15501634483E+03  0.25324384548E+03  0.32634243297E+03  0.10100000352E+00 0.  1.
</event>
<event>
 5   0  0.2392585E-03  0.1056906E+04  0.7818609E-02  0.9248243E-01
        2   -1    0    0  501    0  0.00000000000E+00  0.00000000000E+00  0.12757111039E+04  0.12757111039E+04  0.25500000920E-02 0. -1.
       -2   -1    0    0    0  501  0.00000000000E+00  0.00000000000E+00 -0.21890721306E+03  0.21890721307E+03  0.25500000920E-02 0.  1.
    10030    2    1    2    0    0  0.00000000000E+00  0.00000000000E+00  0.10568038909E+04  0.14946183170E+04  0.10569056012E+04 0.  0.
        5    1    3    3  502    0 -0.39346786142E+03 -0.34795046580E+03  0.61029779506E+03  0.80521548251E+03  0.46999998093E+01 0. -1.
       -5    1    3    3    0  502  0.39346786142E+03  0.34795046580E+03  0.44650609582E+03  0.68940283450E+03  0.46999998093E+01 0.  1.
</event>
<event>
 5   0  0.1415400E-03  0.1080531E+04  0.7818609E-02  0.9224379E-01
       -1   -1    0    0    0  501  0.00000000000E+00  0.00000000000E+00  0.23072235727E+03  0.23072235732E+03  0.50400001928E-02 0.  1.
        1   -1    0    0  501    0  0.00000000000E+00  0.00000000000E+00 -0.12650986748E+04  0.12650986748E+04  0.50400001928E-02 0. -1.
    10030    2    1    2    0    0  0.00000000000E+00  0.00000000000E+00 -0.10343763175E+04  0.14958210321E+04  0.10805305150E+04 0.  0.
        2    1    3    3  502    0  0.83099970098E+02 -0.50823928916E+03 -0.74327994610E+03  0.90425541655E+03  0.25500000920E-02 0. -1.
       -2    1    3    3    0  502 -0.83099970098E+02  0.50823928916E+03 -0.29109637145E+03  0.59156561560E+03  0.25500000920E-02 0.  1.
</event>
<event>
 5   0  0.1415400E-03  0.1080561E+04  0.7818609E-02  0.9224349E-01
       -1   -1    0    0    0  501  0.00000000000E+00  0.00000000000E+00  0.43369655990E+03  0.43369655993E+03  0.50400001928E-02 0.  1.
        1   -1    0    0  501    0  0.00000000000E+00  0.00000000000E+00 -0.67305777995E+03  0.67305777997E+03  0.50400001928E-02 0. -1.
    10030    2    1    2    0    0  0.00000000000E+00  0.00000000000E+00 -0.23936122005E+03  0.11067543399E+04  0.10805606763E+04 0.  0.
        2    1    3    3  502    0  0.49297110572E+03 -0.17310209692E+03 -0.26055746526E+03  0.58384504772E+03  0.25500000920E-02 0. -1.
       -2    1    3    3    0  502 -0.49297110572E+03  0.17310209692E+03  0.21196245214E+02  0.52290929218E+03  0.25500000920E-02 0.  1.
</event>
<event>
 5   0  0.1480937E-03  0.1102605E+04  0.7818609E-02  0.9202656E-01
       -1   -1    0    0    0  501  0.00000000000E+00  0.00000000000E+00  0.22699066658E+03  0.22699066663E+03  0.50400001928E-02 0.  1.
        1   -1    0    0  501    0  0.00000000000E+00  0.00000000000E+00 -0.13389736363E+04  0.13389736363E+04  0.50400001928E-02 0. -1.
    10030    2    1    2    0    0  0.00000000000E+00  0.00000000000E+00 -0.11119829697E+04  0.15659643029E+04  0.11026051302E+04 0.  0.
        1    1    3    3  502    0  0.26153348590E+03 -0.42600602048E+03 -0.88618934866E+03  0.10174539083E+04  0.50400001928E-02 0. -1.
       -1    1    3    3    0  502 -0.26153348590E+03  0.42600602048E+03 -0.22579362105E+03  0.54851039467E+03  0.50400001928E-02 0.  1.
</event>
<event>
 5   0  0.1468556E-03  0.1122688E+04  0.7818609E-02  0.9183356E-01
        1   -1    0    0  501    0  0.00000000000E+00  0.00000000000E+00  0.36158143552E+03  0.36158143556E+03  0.50400001928E-02 0. -1.
       -1   -1    0    0    0  501  0.00000000000E+00  0.00000000000E+00 -0.87146988259E+03  0.87146988260E+03  0.50400001928E-02 0.  1.
    10030    2    1    2    0    0  0.00000000000E+00  0.00000000000E+00 -0.50988844706E+03  0.12330513182E+04  0.11226884362E+04 0.  0.
        5    1    3    3  502    0  0.27539085743E+03  0.17129411041E+03 -0.75813385680E+03  0.82460343890E+03  0.46999998093E+01 0.  1.
       -5    1    3    3    0  502 -0.27539085743E+03 -0.17129411041E+03  0.24824540974E+03  0.40844787926E+03  0.46999998093E+01 0. -1.
</event>
<event>
 5   0  0.2392585E-03  0.1101172E+04  0.7818609E-02  0.9204051E-01
       -2   -1    0    0    0  501  0.00000000000E+00  0.00000000000E+00  0.46079253793E+03  0.46079253794E+03  0.25500000920E-02 0.  1.
        2   -1    0    0  501    0  0.00000000000E+00  0.00000000000E+00 -0.65787678952E+03  0.65787678953E+03  0.25500000920E-02 0. -1.
    10030    2    1    2    0    0  0.00000000000E+00  0.00000000000E+00 -0.19708425159E+03  0.11186693275E+04  0.11011715861E+04 0.  0.
        5    1    3    3  502    0  0.16315027008E+03  0.32490593208E+03  0.32147745446E+03  0.48533670688E+03  0.46999998093E+01 0.  1.
       -5    1    3    3    0  502 -0.16315027008E+03 -0.32490593208E+03 -0.51856170605E+03  0.63333262059E+03  0.46999998093E+01 0. -1.
</event>
<event>
 5   0  0.2438115E-03  0.1095524E+04  0.7818609E-02  0.9209565E-01
       -2   -1    0    0    0  501  0.00000000000E+00  0.00000000000E+00  0.53724084526E+03  0.53724084526E+03  0.25500000920E-02 0.  1.
        2   -1    0    0  501    0  0.00000000000E+00  0.00000000000E+00 -0.55848925691E+03  0.55848925692E+03  0.25500000920E-02 0. -1.
    10030    2    1    2    0    0  0.00000000000E+00  0.00000000000E+00 -0.21248411653E+02  0.10957301022E+04  0.10955240581E+04 0.  0.
        4    1    3    3  502    0 -0.42044256578E+03 -0.19113128985E+02  0.34001891806E+03  0.54106537531E+03  0.12699999809E+01 0.  1.
       -4    1    3    3    0  502  0.42044256578E+03  0.19113128985E+02 -0.36126732971E+03  0.55466472687E+03  0.12699999809E+01 0. -1.
</event>
<event>
 5   0  0.1468556E-03  0.1110062E+04  0.7818609E-02  0.9195440E-01
       -1   -1    0    0    0  501  0.00000000000E+00  0.00000000000E+00  0.29859510009E+03  0.29859510013E+03  0.50400001928E-02 0. -1.
        1   -1    0    0  501    0  0.00000000000E+00  0.00000000000E+00 -0.10316965886E+04  0.10316965886E+04  0.50400001928E-02 0.  1.
    10030    2    1    2    0    0  0.00000000000E+00  0.00000000000E+00 -0.73310148850E+03  0.13302916887E+04  0.11100622436E+04 0.  0.
        5    1    3    3  502    0 -0.29982195220E+03  0.68784938156E+02  0.18706682644E+03  0.36005646542E+03  0.46999998093E+01 0. -1.
       -5    1    3    3    0  502  0.29982195220E+03 -0.68784938156E+02 -0.92016831494E+03  0.97023522332E+03  0.46999998093E+01 0.  1.
</event>
<event>
 5   0  0.1468556E-03  0.1095249E+04  0.7818609E-02  0.9209835E-01
       -1   -1    0    0    0  501  0.00000000000E+00  0.00000000000E+00  0.63880798178E+03  0.63880798180E+03  0.50400001928E-02 0. -1.
        1   -1    0    0  501    0  0.00000000000E+00  0.00000000000E+00 -0.46945677521E+03  0.46945677524E+03  0.50400001928E-02 0.  1.
    10030    2    1    2    0    0  0.00000000000E+00  0.00000000000E+00  0.16935120657E+03  0.11082647570E+04  0.10952492595E+04 0.  0.
        5    1    3    3  502    0  0.18618919260E+03 -0.17377918449E+03 -0.40585841254E+03  0.47917508432E+03  0.46999998093E+01 0.  1.
       -5    1    3    3    0  502 -0.18618919260E+03  0.17377918449E+03  0.57520961911E+03  0.62908967272E+03  0.46999998093E+01 0. -1.
</event>
<event>
 5   0  0.2467448E-03  0.1096232E+04  0.7818609E-02  0.9208873E-01
        2   -1    0    0  501    0  0.00000000000E+00  0.00000000000E+00  0.82722344825E+03  0.82722344826E+03  0.25500000920E-02 0.  1.
       -2   -1    0    0    0  501  0.00000000000E+00  0.00000000000E+00 -0.36317988084E+03  0.36317988085E+03  0.25500000920E-02 0. -1.
    10030    2    1    2    0    0  0.00000000000E+00  0.00000000000E+00  0.46404356741E+03  0.11904033291E+04  0.10962315693E+04 0.  0.
        1    1    3    3  502    0 -0.25977577646E+03  0.40890539339E+03  0.51045391822E+03  0.70374020592E+03  0.50400001928E-02 0.  1.
       -1    1    3    3    0  502  0.25977577646E+03 -0.40890539339E+03 -0.46410350817E+02  0.48666312318E+03  0.50400001928E-02 0. -1.
</event>
<event>
 5   0  0.2438115E-03  0.1112684E+04  0.7818609E-02  0.9192916E-01
       -2   -1    0    0    0  501  0.00000000000E+00  0.00000000000E+00  0.11964166274E+03  0.11964166277E+03  0.25500000920E-02 0. -1.
        2   -1    0    0  501    0  0.00000000000E+00  0.00000000000E+00 -0.25870296705E+04  0.25870296705E+04  0.25500000920E-02 0.  1.
    10030    2    1    2    0    0  0.00000000000E+00  0.00000000000E+00 -0.24673880077E+04  0.27066713333E+04  0.11126841985E+04 0.  0.
        4    1    3    3  502    0 -0.34318327175E+03 -0.25744826305E+03 -0.37207116878E+03  0.56788461301E+03  0.12699999809E+01 0. -1.
       -4    1    3    3    0  502  0.34318327175E+03  0.25744826305E+03 -0.20953168390E+04  0.21387867202E+04  0.12699999809E+01 0.  1.
</event>
<event>
 5   0  0.2438115E-03  0.1090014E+04  0.7818609E-02  0.9214980E-01
        2   -1    0    0  501    0  0.00000000000E+00  0.00000000000E+00  0.73184226025E+03  0.73184226025E+03  0.25500000920E-02 0.  1.
       -2   -1    0    0    0  501  0.00000000000E+00  0.00000000000E+00 -0.40586989398E+03  0.40586989399E+03  0.25500000920E-02 0. -1.
    10030    2    1    2    0    0  0.00000000000E+00  0.00000000000E+00  0.32597236627E+03  0.11377121542E+04  0.10900142028E+04 0.  0.
        4    1    3    3  502    0 -0.31392725899E+03 -0.14933539554E+03  0.60109120101E+03  0.69438003221E+03  0.12699999809E+01 0.  1.
       -4    1    3    3    0  502  0.31392725899E+03  0.14933539554E+03 -0.27511883474E+03  0.44333212203E+03  0.12699999809E+01 0. -1.
</event>
<event>
 5   0  0.1479573E-03  0.1107075E+04  0.7818609E-02  0.9198323E-01
       -1   -1    0    0    0  501  0.00000000000E+00  0.00000000000E+00  0.65875863117E+03  0.65875863119E+03  0.50400001928E-02 0. -1.
        1   -1    0    0  501    0  0.00000000000E+00  0.00000000000E+00 -0.46512294182E+03  0.46512294185E+03  0.50400001928E-02 0.  1.
    10030    2    1    2    0    0  0.00000000000E+00  0.00000000000E+00  0.19363568935E+03  0.11238815730E+04  0.11070749794E+04 0.  0.
        4    1    3    3  502    0  0.19790819271E+03 -0.49463796986E+03  0.24932414888E+03  0.58821638713E+03  0.12699999809E+01 0.  1.
       -4    1    3    3    0  502 -0.19790819271E+03  0.49463796986E+03 -0.55688459532E+02  0.53566518591E+03  0.12699999809E+01 0. -1.
</event>
<event>
 5   0  0.1509004E-03  0.1115881E+04  0.7818609E-02  0.9189850E-01
       -1   -1    0    0    0  501  0.00000000000E+00  0.00000000000E+00  0.48903475079E+03  0.48903475082E+03  0.50400001928E-02 0. -1.
        1   -1    0    0  501    0  0.00000000000E+00  0.00000000000E+00 -0.63655472814E+03  0.63655472816E+03  0.50400001928E-02 0.  1.
    10030    2    1    2    0    0  0.00000000000E+00  0.00000000000E+00 -0.14751997734E+03  0.11255894790E+04  0.11158806081E+04 0.  0.
        3    1    3    3  502    0  0.35768039414E+03  0.31011877864E+03  0.22408601458E+03  0.52375898403E+03  0.10100000352E+00 0. -1.
       -3    1    3    3    0  502 -0.35768039414E+03 -0.31011877864E+03 -0.37160599192E+03  0.60183049495E+03  0.10100000352E+00 0.  1.
</event>
<event>
 5   0  0.1509004E-03  0.1103790E+04  0.7818609E-02  0.9201505E-01
        1   -1    0    0  501    0  0.00000000000E+00  0.00000000000E+00  0.19375368857E+04  0.19375368857E+04  0.50400001928E-02 0. -1.
       -1   -1    0    0    0  501  0.00000000000E+00  0.00000000000E+00 -0.15720385938E+03  0.15720385946E+03  0.50400001928E-02 0.  1.
    10030    2    1    2    0    0  0.00000000000E+00  0.00000000000E+00  0.17803330263E+04  0.20947407451E+04  0.11037903356E+04 0.  0.
        3    1    3    3  502    0  0.43281588090E+03  0.21333710280E+02  0.24157431813E+03  0.49612788203E+03  0.10100000352E+00 0.  1.
       -3    1    3    3    0  502 -0.43281588090E+03 -0.21333710280E+02  0.15387587082E+04  0.15986128631E+04  0.10100000352E+00 0. -1.
</event>
<event>
 5   0  0.2438115E-03  0.1100618E+04  0.7818609E-02  0.9204590E-01
       -2   -1    0    0    0  501  0.00000000000E+00  0.00000000000E+00  0.36899937026E+03  0.36899937027E+03  0.25500000920E-02 0. -1.
        2   -1    0    0  501    0  0.00000000000E+00  0.00000000000E+00 -0.82070572864E+03  0.82070572864E+03  0.25500000920E-02 0.  1.
    10030    2    1    2    0    0  0.00000000000E+00  0.00000000000E+00 -0.45170635838E+03  0.11897050989E+04  0.11006178211E+04 0.  0.
        4    1    3    3  502    0 -0.48251961240E+03  0.34258554751E+02 -0.50946315793E+03  0.70253337793E+03  0.12699999809E+01 0.  1.
       -4    1    3    3    0  502  0.48251961240E+03 -0.34258554751E+02  0.57756799555E+02  0.48717172097E+03  0.12699999809E+01 0. -1.
</event>
<event>
 5   0  0.1479573E-03  0.1112301E+04  0.7818609E-02  0.9193284E-01
       -1   -1    0    0    0  501  0.00000000000E+00  0.00000000000E+00  0.65434708357E+03  0.65434708358E+03  0.50400001928E-02 0.  1.
        1   -1    0    0  501    0  0.00000000000E+00  0.00000000000E+00 -0.47269042747E+03  0.47269042749E+03  0.50400001928E-02 0. -1.
    10030    2    1    2    0    0  0.00000000000E+00  0.00000000000E+00  0.18165665610E+03  0.11270375111E+04  0.11123014028E+04 0.  0.
        4    1    3    3  502    0 -0.10817446018E+03 -0.52410117910E+03  0.24422163936E+03  0.58824279154E+03  0.12699999809E+01 0. -1.
       -4    1    3    3    0  502  0.10817446018E+03  0.52410117910E+03 -0.62564983263E+02  0.53879471954E+03  0.12699999809E+01 0.  1.
</event>
<event>
 5   0  0.2467448E-03  0.1102977E+04  0.7818609E-02  0.9202296E-01
        2   -1    0    0  501    0  0.00000000000E+00  0.00000000000E+00  0.74283405051E+03  0.74283405051E+03  0.25500000920E-02 0. -1.
       -2   -1    0    0    0  501  0.00000000000E+00  0.00000000000E+00 -0.40943106282E+03  0.40943106283E+03  0.25500000920E-02 0.  1.
    10030    2    1    2    0    0  0.00000000000E+00  0.00000000000E+00  0.33340298769E+03  0.11522651133E+04  0.11029765814E+04 0.  0.
        1    1    3    3  502    0 -0.27896227701E+03  0.21267579029E+03  0.61126256130E+03  0.70476440223E+03  0.50400001928E-02 0. -1.
       -1    1    3    3    0  502  0.27896227701E+03 -0.21267579029E+03 -0.27785957362E+03  0.44750071111E+03  0.50400001928E-02 0.  1.
</event>
<event>
 5   0  0.1468556E-03  0.1006542E+04  0.7818609E-02  0.9301399E-01
       -1   -1    0    0    0  501  0.00000000000E+00  0.00000000000E+00  0.27039233944E+03  0.27039233949E+03  0.50400001928E-02 0.  1.
        1   -1    0    0  501    0  0.00000000000E+00  0.00000000000E+00 -0.93671845282E+03  0.93671845283E+03  0.50400001928E-02 0. -1.
    10030    2    1    2    0    0  0.00000000000E+00  0.00000000000E+00 -0.66632611338E+03  0.12071107923E+04  0.10065415916E+04 0.  0.
        5    1    3    3  502    0 -0.20296187727E+03 -0.31168984748E+03  0.73377962467E+02  0.37914443161E+03  0.46999998093E+01 0.  1.
       -5    1    3    3    0  502  0.20296187727E+03  0.31168984748E+03 -0.73970407584E+03  0.82796636071E+03  0.46999998093E+01 0. -1.
</event>
<event>
 5   0  0.2483036E-03  0.1097446E+04  0.7818609E-02  0.9207685E-01
       -2   -1    0    0    0  501  0.00000000000E+00  0.00000000000E+00  0.29792751100E+03  0.29792751101E+03  0.25500000920E-02 0. -1.
        2   -1    0    0  501    0  0.00000000000E+00  0.00000000000E+00 -0.10106379282E+04  0.10106379282E+04  0.25500000920E-02 0.  1.
    10030    2    1    2    0    0  0.00000000000E+00  0.00000000000E+00 -0.71271041721E+03  0.13085654392E+04  0.10974458392E+04 0.  0.
        3    1    3    3  502    0  0.38546127870E+03  0.24619280332E+03 -0.71783430803E+03  0.85116238038E+03  0.10100000352E+00 0.  1.
       -3    1    3    3    0  502 -0.38546127870E+03 -0.24619280332E+03  0.51238908235E+01  0.45740305885E+03  0.10100000352E+00 0. -1.
</event>
<event>
 5   0  0.2467448E-03  0.1127019E+04  0.7818609E-02  0.9179251E-01
       -2   -1    0    0    0  501  0.00000000000E+00  0.00000000000E+00  0.13614074037E+03  0.13614074040E+03  0.25500000920E-02 0. -1.
        2   -1    0    0  501    0  0.00000000000E+00  0.00000000000E+00 -0.23324595106E+04  0.23324595106E+04  0.25500000920E-02 0.  1.
    10030    2    1    2    0    0  0.00000000000E+00  0.00000000000E+00 -0.21963187702E+04  0.24686002510E+04  0.11270186595E+04 0.  0.
        1    1    3    3  502    0 -0.96529893349E+02  0.49417542706E+03 -0.54396532619E+03  0.74123252029E+03  0.50400001928E-02 0.  1.
       -1    1    3    3    0  502  0.96529893349E+02 -0.49417542706E+03 -0.16523534440E+04  0.17273677307E+04  0.50400001928E-02 0. -1.
</event>
<event>
 5   0  0.1468556E-03  0.1095576E+04  0.7818609E-02  0.9209514E-01
        1   -1    0    0  501    0  0.00000000000E+00  0.00000000000E+00  0.33474762536E+03  0.33474762540E+03  0.50400001928E-02 0. -1.
       -1   -1    0    0    0  501  0.00000000000E+00  0.00000000000E+00 -0.89641195731E+03  0.89641195732E+03  0.50400001928E-02 0.  1.
    10030    2    1    2    0    0  0.00000000000E+00  0.00000000000E+00 -0.56166433195E+03  0.12311595827E+04  0.10955761481E+04 0.  0.
        5    1    3    3  502    0 -0.48324790159E+03 -0.25323049470E+03 -0.22583164425E+03  0.59048813653E+03  0.46999998093E+01 0. -1.
       -5    1    3    3    0  502  0.48324790159E+03  0.25323049470E+03 -0.33583268770E+03  0.64067144619E+03  0.46999998093E+01 0.  1.
</event>
<event>
 5   0  0.1415400E-03  0.1098922E+04  0.7818609E-02  0.9206243E-01
        1   -1    0    0  501    0  0.00000000000E+00  0.00000000000E+00  0.71095319405E+03  0.71095319406E+03  0.50400001928E-02 0.  1.
       -1   -1    0    0    0  501  0.00000000000E+00  0.00000000000E+00 -0.42465175085E+03  0.42465175088E+03  0.50400001928E-02 0. -1.
    10030    2    1    2    0    0  0.00000000000E+00  0.00000000000E+00  0.28630144319E+03  0.11356049449E+04  0.10989222332E+04 0.  0.
        2    1    3    3  502    0  0.47727437864E+03  0.96368250800E+02  0.40626705662E+03  0.63413767714E+03  0.25500000920E-02 0. -1.
       -2    1    3    3    0  502 -0.47727437864E+03 -0.96368250800E+02 -0.11996561342E+03  0.50146726781E+03  0.25500000920E-02 0.  1.
</event>
<event>
 5   0  0.2488472E-03  0.1141398E+04  0.7818609E-02  0.9165756E-01
        2   -1    0    0  501    0  0.00000000000E+00  0.00000000000E+00  0.10447511207E+04  0.10447511207E+04  0.25500000920E-02 0. -1.
       -2   -1    0    0    0  501  0.00000000000E+00  0.00000000000E+00 -0.31174613552E+03  0.31174613553E+03  0.25500000920E-02 0.  1.
    10030    2    1    2    0    0  0.00000000000E+00  0.00000000000E+00  0.73300498516E+03  0.13564972562E+04  0.11413976073E+04 0.  0.
        2    1    3    3  502    0  0.31650542245E+03  0.46996252741E+03  0.44760223085E+03  0.72207216861E+03  0.25500000920E-02 0. -1.
       -2    1    3    3    0  502 -0.31650542245E+03 -0.46996252741E+03  0.28540275431E+03  0.63442508761E+03  0.25500000920E-02 0.  1.
</event>
<event>
 5   0  0.2488472E-03  0.1097775E+04  0.7818609E-02  0.9207363E-01
        2   -1    0    0  501    0  0.00000000000E+00  0.00000000000E+00  0.19468916029E+04  0.19468916029E+04  0.25500000920E-02 0. -1.
       -2   -1    0    0    0  501  0.00000000000E+00  0.00000000000E+00 -0.15474789117E+03  0.15474789119E+03  0.25500000920E-02 0.  1.
    10030    2    1    2    0    0  0.00000000000E+00  0.00000000000E+00  0.17921437117E+04  0.21016394941E+04  0.10977747855E+04 0.  0.
        2    1    3    3  502    0 -0.41551847298E+03  0.17556522539E+03  0.14947747168E+04  0.15613552458E+04  0.25500000920E-02 0. -1.
       -2    1    3    3    0  502  0.41551847298E+03 -0.17556522539E+03  0.29736899495E+03  0.54028424826E+03  0.25500000920E-02 0.  1.
</event>
<event>
 5   0  0.1480937E-03  0.1108101E+04  0.7818609E-02  0.9197332E-01
       -1   -1    0    0    0  501  0.00000000000E+00  0.00000000000E+00  0.20879289544E+03  0.20879289550E+03  0.50400001928E-02 0. -1.
        1   -1    0    0  501    0  0.00000000000E+00  0.00000000000E+00 -0.14702223039E+04  0.14702223039E+04  0.50400001928E-02 0.  1.
    10030    2    1    2    0    0  0.00000000000E+00  0.00000000000E+00 -0.12614294085E+04  0.16790151994E+04  0.11081010276E+04 0.  0.
        1    1    3    3  502    0 -0.42171629444E+02  0.29220706600E+03 -0.13411058940E+04  0.13732182764E+04  0.50400001928E-02 0.  1.
       -1    1    3    3    0  502  0.42171629444E+02 -0.29220706600E+03  0.79676485523E+02  0.30579692301E+03  0.50400001928E-02 0. -1.
</event>
<event>
 5   0  0.1415400E-03  0.1087420E+04  0.7818609E-02  0.9217541E-01
        1   -1    0    0  501    0  0.00000000000E+00  0.00000000000E+00  0.86067742239E+03  0.86067742240E+03  0.50400001928E-02 0.  1.
       -1   -1    0    0    0  501  0.00000000000E+00  0.00000000000E+00 -0.34347423798E+03  0.34347423802E+03  0.50400001928E-02 0. -1.
    10030    2    1    2    0    0  0.00000000000E+00  0.00000000000E+00  0.51720318441E+03  0.12041516604E+04  0.10874199223E+04 0.  0.
        2    1    3    3  502    0  0.50257167607E+03 -0.93648764761E+02  0.53601280152E+02  0.51402478342E+03  0.25500000920E-02 0. -1.
       -2    1    3    3    0  502 -0.50257167607E+03  0.93648764761E+02  0.46360190425E+03  0.69012687700E+03  0.25500000920E-02 0.  1.
</event>
<event>
 5   0  0.2467448E-03  0.1100612E+04  0.7818609E-02  0.9204595E-01
       -2   -1    0    0    0  501  0.00000000000E+00  0.00000000000E+00  0.16728023841E+03  0.16728023843E+03  0.25500000920E-02 0. -1.
        2   -1    0    0  501    0  0.00000000000E+00  0.00000000000E+00 -0.18103564701E+04  0.18103564701E+04  0.25500000920E-02 0.  1.
    10030    2    1    2    0    0  0.00000000000E+00  0.00000000000E+00 -0.16430762317E+04  0.19776367086E+04  0.11006123059E+04 0.  0.
        1    1    3    3  502    0  0.33707256090E+03 -0.13542143430E+03 -0.15643139232E+04  0.16059373980E+04  0.50400001928E-02 0.  1.
       -1    1    3    3    0  502 -0.33707256090E+03  0.13542143430E+03 -0.78762308566E+02  0.37169931054E+03  0.50400001928E-02 0. -1.
</event>
<event>
 5   0  0.1479573E-03  0.1117197E+04  0.7818609E-02  0.9188591E-01
        1   -1    0    0  501    0  0.00000000000E+00  0.00000000000E+00  0.76089809291E+03  0.76089809293E+03  0.50400001928E-02 0.  1.
       -1   -1    0    0    0  501  0.00000000000E+00  0.00000000000E+00 -0.41008400446E+03  0.41008400449E+03  0.50400001928E-02 0. -1.
    10030    2    1    2    0    0  0.00000000000E+00  0.00000000000E+00  0.35081408845E+03  0.11709820974E+04  0.11171967364E+04 0.  0.
        4    1    3    3  502    0  0.28404171776E+03 -0.23128948888E+03  0.61744021046E+03  0.71791959960E+03  0.12699999809E+01 0.  1.
       -4    1    3    3    0  502 -0.28404171776E+03  0.23128948888E+03 -0.26662612201E+03  0.45306249782E+03  0.12699999809E+01 0. -1.
</event>
<event>
 5   0  0.2467448E-03  0.1100226E+04  0.7818609E-02  0.9204972E-01
       -2   -1    0    0    0  501  0.00000000000E+00  0.00000000000E+00  0.83878426961E+03  0.83878426961E+03  0.25500000920E-02 0. -1.
        2   -1    0    0  501    0  0.00000000000E+00  0.00000000000E+00 -0.36078919268E+03  0.36078919269E+03  0.25500000920E-02 0.  1.
    10030    2    1    2    0    0  0.00000000000E+00  0.00000000000E+00  0.47799507692E+03  0.11995734623E+04  0.11002259758E+04 0.  0.
        1    1    3    3  502    0  0.24823302127E+03 -0.48210222920E+03  0.34000231747E+03  0.64003419296E+03  0.50400001928E-02 0.  1.
       -1    1    3    3    0  502 -0.24823302127E+03  0.48210222920E+03  0.13799275946E+03  0.55953926934E+03  0.50400001928E-02 0. -1.
</event>
<event>
 5   0  0.1480937E-03  0.1100824E+04  0.7818609E-02  0.9204389E-01
        1   -1    0    0  501    0  0.00000000000E+00  0.00000000000E+00  0.24327711113E+03  0.24327711119E+03  0.50400001928E-02 0. -1.
       -1   -1    0    0    0  501  0.00000000000E+00  0.00000000000E+00 -0.12453017652E+04  0.12453017652E+04  0.50400001928E-02 0.  1.
    10030    2    1    2    0    0  0.00000000000E+00  0.00000000000E+00 -0.10020246541E+04  0.14885788764E+04  0.11008240840E+04 0.  0.
        1    1    3    3  502    0 -0.28653863140E+03 -0.41092785900E+02 -0.11340579102E+04  0.11704188772E+04  0.50400001928E-02 0.  1.
       -1    1    3    3    0  502  0.28653863140E+03  0.41092785900E+02  0.13203325615E+03  0.31815999921E+03  0.50400001928E-02 0. -1.
</event>
<event>
 5   0  0.2438115E-03  0.1080255E+04  0.7818609E-02  0.9224653E-01
        2   -1    0    0  501    0  0.00000000000E+00  0.00000000000E+00  0.88632406415E+03  0.88632406415E+03  0.25500000920E-02 0.  1.
       -2   -1    0    0    0  501  0.00000000000E+00  0.00000000000E+00 -0.32915487693E+03  0.32915487694E+03  0.25500000920E-02 0. -1.
    10030    2    1    2    0    0  0.00000000000E+00  0.00000000000E+00  0.55716918721E+03  0.12154789411E+04  0.10802553185E+04 0.  0.
        4    1    3    3  502    0 -0.33907865923E+03 -0.37878756797E+03  0.48385445520E+03  0.70183410113E+03  0.12699999809E+01 0.  1.
       -4    1    3    3    0  502  0.33907865923E+03  0.37878756797E+03  0.73314732010E+02  0.51364483996E+03  0.12699999809E+01 0. -1.
</event>
<event>
 5   0  0.1468556E-03  0.1095751E+04  0.7818609E-02  0.9209343E-01
        1   -1    0    0  501    0  0.00000000000E+00  0.00000000000E+00  0.89967626811E+03  0.89967626813E+03  0.50400001928E-02 0.  1.
       -1   -1    0    0    0  501  0.00000000000E+00  0.00000000000E+00 -0.33363942454E+03  0.33363942458E+03  0.50400001928E-02 0. -1.
    10030    2    1    2    0    0  0.00000000000E+00  0.00000000000E+00  0.56603684357E+03  0.12333156927E+04  0.10957508337E+04 0.  0.
        5    1    3    3  502    0  0.52415238162E+02 -0.81965959406E+01  0.89675559314E+03  0.89833580870E+03  0.46999998093E+01 0.  1.
       -5    1    3    3    0  502 -0.52415238162E+02  0.81965959406E+01 -0.33071874956E+03  0.33497988401E+03  0.46999998093E+01 0. -1.
</event>
<event>
 5   0  0.2483036E-03  0.1100782E+04  0.7818609E-02  0.9204430E-01
       -2   -1    0    0    0  501  0.00000000000E+00  0.00000000000E+00  0.31129513710E+03  0.31129513711E+03  0.25500000920E-02 0. -1.
        2   -1    0    0  501    0  0.00000000000E+00  0.00000000000E+00 -0.97312943023E+03  0.97312943023E+03  0.25500000920E-02 0.  1.
    10030    2    1    2    0    0  0.00000000000E+00  0.00000000000E+00 -0.66183429313E+03  0.12844245673E+04  0.11007823752E+04 0.  0.
        3    1    3    3  502    0  0.24388000734E+03 -0.45025781681E+02 -0.90423947925E+03  0.93763203072E+03  0.10100000352E+00 0.  1.
       -3    1    3    3    0  502 -0.24388000734E+03  0.45025781681E+02  0.24240518613E+03  0.34679253662E+03  0.10100000352E+00 0. -1.
</event>
<event>
 5   0  0.2488472E-03  0.1098157E+04  0.7818609E-02  0.9206990E-01
        2   -1    0    0  501    0  0.00000000000E+00  0.00000000000E+00  0.21402432484E+03  0.21402432485E+03  0.25500000920E-02 0.  1.
       -2   -1    0    0    0  501  0.00000000000E+00  0.00000000000E+00 -0.14086586200E+04  0.14086586200E+04  0.25500000920E-02 0. -1.
    10030    2    1    2    0    0  0.00000000000E+00  0.00000000000E+00 -0.11946342951E+04  0.16226829448E+04  0.10981570199E+04 0.  0.
        2    1    3    3  502    0 -0.18717604826E+03 -0.50796264721E+02  0.16172509618E+03  0.25252750403E+03  0.25500000920E-02 0.  1.
       -2    1    3    3    0  502  0.18717604826E+03  0.50796264721E+02 -0.13563593913E+04  0.13701554408E+04  0.25500000920E-02 0. -1.
</event>
<event>
 5   0  0.2467448E-03  0.1093682E+04  0.7818609E-02  0.9211371E-01
        2   -1    0    0  501    0  0.00000000000E+00  0.00000000000E+00  0.70366417899E+03  0.70366417899E+03  0.25500000920E-02 0.  1.
       -2   -1    0    0    0  501  0.00000000000E+00  0.00000000000E+00 -0.42496878203E+03  0.42496878204E+03  0.25500000920E-02 0. -1.
    10030    2    1    2    0    0  0.00000000000E+00  0.00000000000E+00  0.27869539696E+03  0.11286329610E+04  0.10936824203E+04 0.  0.
        1    1    3    3  502    0  0.46922422999E+03  0.11221070716E+03 -0.12631390635E+03  0.49871617557E+03  0.50400001928E-02 0. -1.
       -1    1    3    3    0  502 -0.46922422999E+03 -0.11221070716E+03  0.40500930331E+03  0.62991678546E+03  0.50400001928E-02 0.  1.
</event>
<event>
 5   0  0.1415400E-03  0.1116449E+04  0.7818609E-02  0.9189306E-01
       -1   -1    0    0    0  501  0.00000000000E+00  0.00000000000E+00  0.17444056618E+03  0.17444056625E+03  0.50400001928E-02 0.  1.
        1   -1    0    0  501    0  0.00000000000E+00  0.00000000000E+00 -0.17863667890E+04  0.17863667890E+04  0.50400001928E-02 0. -1.
    10030    2    1    2    0    0  0.00000000000E+00  0.00000000000E+00 -0.16119262228E+04  0.19608073553E+04  0.11164494331E+04 0.  0.
        2    1    3    3  502    0  0.17610385686E+03  0.11024419064E+02 -0.17361011014E+04  0.17450447388E+04  0.25500000920E-02 0. -1.
       -2    1    3    3    0  502 -0.17610385686E+03 -0.11024419064E+02  0.12417487852E+03  0.21576261650E+03  0.25500000920E-02 0.  1.
</event>
<event>
 5   0  0.2488472E-03  0.1100999E+04  0.7818609E-02  0.9204219E-01
       -2   -1    0    0    0  501  0.00000000000E+00  0.00000000000E+00  0.35021134730E+03  0.35021134731E+03  0.25500000920E-02 0. -1.
        2   -1    0    0  501    0  0.00000000000E+00  0.00000000000E+00 -0.86533337472E+03  0.86533337472E+03  0.25500000920E-02 0.  1.
    10030    2    1    2    0    0  0.00000000000E+00  0.00000000000E+00 -0.51512202742E+03  0.12155447220E+04  0.11009987594E+04 0.  0.
        2    1    3    3  502    0  0.13986176840E+03 -0.34080171632E+03  0.19407354322E+03  0.41637923134E+03  0.25500000920E-02 0. -1.
       -2    1    3    3    0  502 -0.13986176840E+03  0.34080171632E+03 -0.70919557063E+03  0.79916549070E+03  0.25500000920E-02 0.  1.
</event>
<event>
 5   0  0.1509004E-03  0.1098391E+04  0.7818609E-02  0.9206762E-01
        1   -1    0    0  501    0  0.00000000000E+00  0.00000000000E+00  0.19109587008E+04  0.19109587008E+04  0.50400001928E-02 0.  1.
       -1   -1    0    0    0  501  0.00000000000E+00  0.00000000000E+00 -0.15783472056E+03  0.15783472064E+03  0.50400001928E-02 0. -1.
    10030    2    1    2    0    0  0.00000000000E+00  0.00000000000E+00  0.17531239803E+04  0.20687934215E+04  0.10983908824E+04 0.  0.
        3    1    3    3  502    0 -0.30314654128E+03  0.13239469723E+03  0.17022670943E+04  0.17341105650E+04  0.10100000352E+00 0.  1.
       -3    1    3    3    0  502  0.30314654128E+03 -0.13239469723E+03  0.50856886011E+02  0.33468285645E+03  0.10100000352E+00 0. -1.
</event>
<event>
 5   0  0.1415400E-03  0.1094041E+04  0.7818609E-02  0.9211020E-01
       -1   -1    0    0    0  501  0.00000000000E+00  0.00000000000E+00  0.14386988071E+04  0.14386988071E+04  0.50400001928E-02 0.  1.
        1   -1    0    0  501    0  0.00000000000E+00  0.00000000000E+00 -0.20798739762E+03  0.20798739768E+03  0.50400001928E-02 0. -1.
    10030    2    1    2    0    0  0.00000000000E+00  0.00000000000E+00  0.12307114095E+04  0.16466862048E+04  0.10940406225E+04 0.  0.
        2    1    3    3  502    0 -0.82869086090E+02  0.88179462883E+02 -0.18758954569E+03  0.22323248143E+03  0.25500000920E-02 0. -1.
       -2    1    3    3    0  502  0.82869086090E+02 -0.88179462883E+02  0.14183009552E+04  0.14234537234E+04  0.25500000920E-02 0.  1.
</event>
<event>
 5   0  0.1415400E-03  0.1087801E+04  0.7818609E-02  0.9217164E-01
       -1   -1    0    0    0  501  0.00000000000E+00  0.00000000000E+00  0.69314252212E+03  0.69314252214E+03  0.50400001928E-02 0.  1.
        1   -1    0    0  501    0  0.00000000000E+00  0.00000000000E+00 -0.42679175292E+03  0.42679175295E+03  0.50400001928E-02 0. -1.
    10030    2    1    2    0    0  0.00000000000E+00  0.00000000000E+00  0.26635076920E+03  0.11199342751E+04  0.10878005554E+04 0.  0.
        2    1    3    3  502    0  0.48001529132E+03  0.25540457406E+03  0.14703926892E+03  0.56326434555E+03  0.25500000920E-02 0. -1.
       -2    1    3    3    0  502 -0.48001529132E+03 -0.25540457406E+03  0.11931150028E+03  0.55666992954E+03  0.25500000920E-02 0.  1.
</event>
<event>
 5   0  0.1468556E-03  0.1088736E+04  0.7818609E-02  0.9216241E-01
        1   -1    0    0  501    0  0.00000000000E+00  0.00000000000E+00  0.93261405966E+03  0.93261405967E+03  0.50400001928E-02 0. -1.
       -1   -1    0    0    0  501  0.00000000000E+00  0.00000000000E+00 -0.31774806382E+03  0.31774806386E+03  0.50400001928E-02 0.  1.
    10030    2    1    2    0    0  0.00000000000E+00  0.00000000000E+00  0.61486599584E+03  0.12503621235E+04  0.10887356186E+04 0.  0.
        5    1    3    3  502    0 -0.37519501201E+03  0.67900276061E+02 -0.13874148412E+03  0.40577460978E+03  0.46999998093E+01 0.  1.
       -5    1    3    3    0  502  0.37519501201E+03 -0.67900276061E+02  0.75360747996E+03  0.84458751375E+03  0.46999998093E+01 0. -1.
</event>
<event>
 5   0  0.2467448E-03  0.1095287E+04  0.7818609E-02  0.9209798E-01
        2   -1    0    0  501    0  0.00000000000E+00  0.00000000000E+00  0.58305876859E+03  0.58305876860E+03  0.25500000920E-02 0. -1.
       -2   -1    0    0    0  501  0.00000000000E+00  0.00000000000E+00 -0.51437894488E+03  0.51437894489E+03  0.25500000920E-02 0.  1.
    10030    2    1    2    0    0  0.00000000000E+00  0.00000000000E+00  0.68679823711E+02  0.10974377135E+04  0.10952865455E+04 0.  0.
        1    1    3    3  502    0 -0.50212152524E+03  0.56133903391E+01  0.25329969900E+03  0.56242179350E+03  0.50400001928E-02 0. -1.
       -1    1    3    3    0  502  0.50212152524E+03 -0.56133903391E+01 -0.18461987529E+03  0.53501591999E+03  0.50400001928E-02 0.  1.
</event>
<event>
 5   0  0.2438115E-03  0.1098637E+04  0.7818609E-02  0.9206521E-01
        2   -1    0    0  501    0  0.00000000000E+00  0.00000000000E+00  0.17999429673E+04  0.17999429673E+04  0.25500000920E-02 0. -1.
       -2   -1    0    0    0  501  0.00000000000E+00  0.00000000000E+00 -0.16764463333E+03  0.16764463335E+03  0.25500000920E-02 0.  1.
    10030    2    1    2    0    0  0.00000000000E+00  0.00000000000E+00  0.16322983339E+04  0.19675876006E+04  0.10986369351E+04 0.  0.
        4    1    3    3  502    0  0.12665073478E+03  0.48410414347E+03  0.41030595138E+03  0.64710881387E+03  0.12699999809E+01 0.  1.
       -4    1    3    3    0  502 -0.12665073478E+03 -0.48410414347E+03  0.12219923826E+04  0.13204787868E+04  0.12699999809E+01 0. -1.
</event>
<event>
 5   0  0.2483036E-03  0.1139729E+04  0.7818609E-02  0.9167312E-01
        2   -1    0    0  501    0  0.00000000000E+00  0.00000000000E+00  0.76495253838E+03  0.76495253838E+03  0.25500000920E-02 0. -1.
       -2   -1    0    0    0  501  0.00000000000E+00  0.00000000000E+00 -0.42453011671E+03  0.42453011672E+03  0.25500000920E-02 0.  1.
    10030    2    1    2    0    0  0.00000000000E+00  0.00000000000E+00  0.34042242167E+03  0.11894826551E+04  0.11397287228E+04 0.  0.
        3    1    3    3  502    0 -0.26134149067E+03 -0.36703371524E+03 -0.19392130189E+03  0.49052890271E+03  0.10100000352E+00 0.  1.
       -3    1    3    3    0  502  0.26134149067E+03  0.36703371524E+03  0.53434372356E+03  0.69895375239E+03  0.10100000352E+00 0. -1.
</event>
<event>
 5   0  0.1415400E-03  0.1096549E+04  0.7818609E-02  0.9208562E-01
       -1   -1    0    0    0  501  0.00000000000E+00  0.00000000000E+00  0.41244251291E+03  0.41244251294E+03  0.50400001928E-02 0.  1.
        1   -1    0    0  501    0  0.00000000000E+00  0.00000000000E+00 -0.72884015213E+03  0.72884015215E+03  0.50400001928E-02 0. -1.
    10030    2    1    2    0    0  0.00000000000E+00  0.00000000000E+00 -0.31639763922E+03  0.11412826651E+04  0.10965485195E+04 0.  0.
        2    1    3    3  502    0 -0.55390585254E+02 -0.52892709153E+03 -0.29695163813E+03  0.60910775770E+03  0.25500000920E-02 0. -1.
       -2    1    3    3    0  502  0.55390585254E+02  0.52892709153E+03 -0.19446001090E+02  0.53217490739E+03  0.25500000920E-02 0.  1.
</event>
<event>
 5   0  0.9631750E-04  0.1103257E+04  0.7818609E-02  0.9202024E-01
        4   -1    0    0  501    0  0.00000000000E+00  0.00000000000E+00  0.37518212712E+03  0.37518427661E+03  0.12699999809E+01 0. -1.
       -4   -1    0    0    0  501  0.00000000000E+00  0.00000000000E+00 -0.81105120855E+03  0.81105220287E+03  0.12699999809E+01 0.  1.
    10030    2    1    2    0    0  0.00000000000E+00  0.00000000000E+00 -0.43586908142E+03  0.11862364795E+04  0.11032566017E+04 0.  0.
        2    1    3    3  502    0  0.38256750741E+02  0.41358177093E+03 -0.60825383768E+03  0.73653661910E+03  0.25500000920E-02 0.  1.
       -2    1    3    3    0  502 -0.38256750741E+02 -0.41358177093E+03  0.17238475625E+03  0.44969986037E+03  0.25500000920E-02 0. -1.
</event>
<event>
 5   0  0.9631750E-04  0.1085747E+04  0.7818609E-02  0.9219196E-01
       -3   -1    0    0    0  501  0.00000000000E+00  0.00000000000E+00  0.83904068566E+03  0.83904069174E+03  0.10100000352E+00 0.  1.
        3   -1    0    0  501    0  0.00000000000E+00  0.00000000000E+00 -0.35124826384E+03  0.35124827836E+03  0.10100000352E+00 0. -1.
    10030    2    1    2    0    0  0.00000000000E+00  0.00000000000E+00  0.48779242182E+03  0.11902889701E+04  0.10857469252E+04 0.  0.
        2    1    3    3  502    0  0.13403204145E+03 -0.37696509106E+03  0.64616638480E+03  0.75999885846E+03  0.25500000920E-02 0.  1.
       -2    1    3    3    0  502 -0.13403204145E+03  0.37696509106E+03 -0.15837396298E+03  0.43029011164E+03  0.25500000920E-02 0. -1.
</event>
<event>
 5   0  0.1468556E-03  0.1106519E+04  0.7818609E-02  0.9198861E-01
       -1   -1    0    0    0  501  0.00000000000E+00  0.00000000000E+00  0.46787853402E+03  0.46787853405E+03  0.50400001928E-02 0.  1.
        1   -1    0    0  501    0  0.00000000000E+00  0.00000000000E+00 -0.65422167581E+03  0.65422167582E+03  0.50400001928E-02 0. -1.
    10030    2    1    2    0    0  0.00000000000E+00  0.00000000000E+00 -0.18634314178E+03  0.11221002099E+04  0.11065193692E+04 0.  0.
        5    1    3    3  502    0  0.63055436022E+02 -0.54957967238E+03 -0.10105172532E+03  0.56235873381E+03  0.46999998093E+01 0. -1.
       -5    1    3    3    0  502 -0.63055436022E+02  0.54957967238E+03 -0.85291416469E+02  0.55974147606E+03  0.46999998093E+01 0.  1.
</event>
<event>
 5   0  0.1479573E-03  0.1070334E+04  0.7818609E-02  0.9234598E-01
        1   -1    0    0  501    0  0.00000000000E+00  0.00000000000E+00  0.77713104785E+03  0.77713104787E+03  0.50400001928E-02 0.  1.
       -1   -1    0    0    0  501  0.00000000000E+00  0.00000000000E+00 -0.36853997942E+03  0.36853997946E+03  0.50400001928E-02 0. -1.
    10030    2    1    2    0    0  0.00000000000E+00  0.00000000000E+00  0.40859106843E+03  0.11456710273E+04  0.10703342663E+04 0.  0.
        4    1    3    3  502    0  0.15540891782E+03  0.51068722618E+03  0.16355228791E+03  0.55830487953E+03  0.12699999809E+01 0.  1.
       -4    1    3    3    0  502 -0.15540891782E+03 -0.51068722618E+03  0.24503878052E+03  0.58736614780E+03  0.12699999809E+01 0. -1.
</event>
<event>
 5   0  0.1480937E-03  0.1101539E+04  0.7818609E-02  0.9203694E-01
        1   -1    0    0  501    0  0.00000000000E+00  0.00000000000E+00  0.73140198814E+03  0.73140198816E+03  0.50400001928E-02 0. -1.
       -1   -1    0    0    0  501  0.00000000000E+00  0.00000000000E+00 -0.41474707768E+03  0.41474707771E+03  0.50400001928E-02 0.  1.
    10030    2    1    2    0    0  0.00000000000E+00  0.00000000000E+00  0.31665491046E+03  0.11461490659E+04  0.11015386280E+04 0.  0.
        1    1    3    3  502    0 -0.11015128518E+03  0.34816360549E+03 -0.27067547546E+03  0.45455078358E+03  0.50400001928E-02 0.  1.
       -1    1    3    3    0  502  0.11015128518E+03 -0.34816360549E+03  0.58733038592E+03  0.69159828229E+03  0.50400001928E-02 0. -1.
</event>
<event>
 5   0  0.2438115E-03  0.1028824E+04  0.7818609E-02  0.9277484E-01
       -2   -1    0    0    0  501  0.00000000000E+00  0.00000000000E+00  0.10221527727E+04  0.10221527727E+04  0.25500000920E-02 0. -1.
        2   -1    0    0  501    0  0.00000000000E+00  0.00000000000E+00 -0.25888464176E+03  0.25888464177E+03  0.25500000920E-02 0.  1.
    10030    2    1    2    0    0  0.00000000000E+00  0.00000000000E+00  0.76326813093E+03  0.12810374145E+04  0.10288239002E+04 0.  0.
        4    1    3    3  502    0 -0.29788604943E+02  0.43735803922E+03  0.71678145907E+03  0.84020633682E+03  0.12699999809E+01 0. -1.
       -4    1    3    3    0  502  0.29788604943E+02 -0.43735803922E+03  0.46486671854E+02  0.44083107764E+03  0.12699999809E+01 0.  1.
</event>
<event>
 5   0  0.2392585E-03  0.1109525E+04  0.7818609E-02  0.9195957E-01
        2   -1    0    0  501    0  0.00000000000E+00  0.00000000000E+00  0.17781872192E+04  0.17781872192E+04  0.25500000920E-02 0. -1.
       -2   -1    0    0    0  501  0.00000000000E+00  0.00000000000E+00 -0.17307607127E+03  0.17307607129E+03  0.25500000920E-02 0.  1.
    10030    2    1    2    0    0  0.00000000000E+00  0.00000000000E+00  0.16051111479E+04  0.19512632905E+04  0.11095254083E+04 0.  0.
        5    1    3    3  502    0 -0.16241969215E+03  0.51053455895E+03  0.54944557376E+03  0.76742310416E+03  0.46999998093E+01 0.  1.
       -5    1    3    3    0  502  0.16241969215E+03 -0.51053455895E+03  0.10556655742E+04  0.11838401863E+04  0.46999998093E+01 0. -1.
</event>
<event>
 5   0  0.1468556E-03  0.1097811E+04  0.7818609E-02  0.9207328E-01
        1   -1    0    0  501    0  0.00000000000E+00  0.00000000000E+00  0.24746633701E+04  0.24746633701E+04  0.50400001928E-02 0.  1.
       -1   -1    0    0    0  501  0.00000000000E+00  0.00000000000E+00 -0.12175287907E+03  0.12175287918E+03  0.50400001928E-02 0. -1.
    10030    2    1    2    0    0  0.00000000000E+00  0.00000000000E+00  0.23529104910E+04  0.25964162493E+04  0.10978112592E+04 0.  0.
        5    1    3    3  502    0  0.36722163550E+02  0.42647942105E+03  0.36387721502E+03  0.56183799398E+03  0.46999998093E+01 0. -1.
       -5    1    3    3    0  502 -0.36722163550E+02 -0.42647942105E+03  0.19890332760E+04  0.20345782553E+04  0.46999998093E+01 0.  1.
</event>
<event>
 5   0  0.2467448E-03  0.1085702E+04  0.7818609E-02  0.9219241E-01
        2   -1    0    0  501    0  0.00000000000E+00  0.00000000000E+00  0.14818703626E+04  0.14818703626E+04  0.25500000920E-02 0. -1.
       -2   -1    0    0    0  501  0.00000000000E+00  0.00000000000E+00 -0.19886166459E+03  0.19886166461E+03  0.25500000920E-02 0.  1.
    10030    2    1    2    0    0  0.00000000000E+00  0.00000000000E+00  0.12830086980E+04  0.16807320272E+04  0.10857019978E+04 0.  0.
        1    1    3    3  502    0  0.40810769220E+03  0.28213801530E+03  0.30046188234E+03  0.58002680186E+03  0.50400001928E-02 0.  1.
       -1    1    3    3    0  502 -0.40810769220E+03 -0.28213801530E+03  0.98254681566E+03  0.11007052253E+04  0.50400001928E-02 0. -1.
</event>
<event>
 5   0  0.2488472E-03  0.1096701E+04  0.7818609E-02  0.9208414E-01
        2   -1    0    0  501    0  0.00000000000E+00  0.00000000000E+00  0.10239697778E+04  0.10239697778E+04  0.25500000920E-02 0. -1.
       -2   -1    0    0    0  501  0.00000000000E+00  0.00000000000E+00 -0.29364936882E+03  0.29364936883E+03  0.25500000920E-02 0.  1.
    10030    2    1    2    0    0  0.00000000000E+00  0.00000000000E+00  0.73032040895E+03  0.13176191466E+04  0.10967006500E+04 0.  0.
        2    1    3    3  502    0 -0.19939459794E+03 -0.17057524262E+02  0.97852864268E+03  0.99878299414E+03  0.25500000920E-02 0. -1.
       -2    1    3    3    0  502  0.19939459794E+03  0.17057524262E+02 -0.24820823373E+03  0.31883615247E+03  0.25500000920E-02 0.  1.
</event>
<event>
 5   0  0.2488472E-03  0.1094760E+04  0.7818609E-02  0.9210315E-01
       -2   -1    0    0    0  501  0.00000000000E+00  0.00000000000E+00  0.30764614222E+03  0.30764614223E+03  0.25500000920E-02 0.  1.
        2   -1    0    0  501    0  0.00000000000E+00  0.00000000000E+00 -0.97392635699E+03  0.97392635699E+03  0.25500000920E-02 0. -1.
    10030    2    1    2    0    0  0.00000000000E+00  0.00000000000E+00 -0.66628021476E+03  0.12815724992E+04  0.10947596751E+04 0.  0.
        2    1    3    3  502    0 -0.34650619809E+03  0.41769427890E+03 -0.41665569064E+03  0.68420539350E+03  0.25500000920E-02 0. -1.
       -2    1    3    3    0  502  0.34650619809E+03 -0.41769427890E+03 -0.24962452413E+03  0.59736710572E+03  0.25500000920E-02 0.  1.
</event>
<event>
 5   0  0.1479573E-03  0.1099842E+04  0.7818609E-02  0.9205346E-01
        1   -1    0    0  501    0  0.00000000000E+00  0.00000000000E+00  0.87500764533E+03  0.87500764535E+03  0.50400001928E-02 0. -1.
       -1   -1    0    0    0  501  0.00000000000E+00  0.00000000000E+00 -0.34561176160E+03  0.34561176164E+03  0.50400001928E-02 0.  1.
    10030    2    1    2    0    0  0.00000000000E+00  0.00000000000E+00  0.52939588373E+03  0.12206194070E+04  0.10998416863E+04 0.  0.
        4    1    3    3  502    0  0.29199871824E+03 -0.46991769727E+02  0.77922540211E+03  0.83346584697E+03  0.12699999809E+01 0. -1.
       -4    1    3    3    0  502 -0.29199871824E+03  0.46991769727E+02 -0.24982951837E+03  0.38715356001E+03  0.12699999809E+01 0.  1.
</event>
<event>
 5   0  0.1480937E-03  0.9734744E+03  0.7818609E-02  0.9338126E-01
       -1   -1    0    0    0  501  0.00000000000E+00  0.00000000000E+00  0.66125275730E+03  0.66125275732E+03  0.50400001928E-02 0. -1.
        1   -1    0    0  501    0  0.00000000000E+00  0.00000000000E+00 -0.35827922105E+03  0.35827922108E+03  0.50400001928E-02 0.  1.
    10030    2    1    2    0    0  0.00000000000E+00  0.00000000000E+00  0.30297353625E+03  0.10195319784E+04  0.97347444307E+03 0.  0.
        1    1    3    3  502    0 -0.22573087255E+03 -0.36088999298E+03  0.39869935820E+03  0.58322996503E+03  0.50400001928E-02 0. -1.
       -1    1    3    3    0  502  0.22573087255E+03  0.36088999298E+03 -0.95725821945E+02  0.43630201337E+03  0.50400001928E-02 0.  1.
</event>
<event>
 5   0  0.2392585E-03  0.1137685E+04  0.7818609E-02  0.9169221E-01
        2   -1    0    0  501    0  0.00000000000E+00  0.00000000000E+00  0.43442387444E+03  0.43442387445E+03  0.25500000920E-02 0. -1.
       -2   -1    0    0    0  501  0.00000000000E+00  0.00000000000E+00 -0.74485240385E+03  0.74485240385E+03  0.25500000920E-02 0.  1.
    10030    2    1    2    0    0  0.00000000000E+00  0.00000000000E+00 -0.31042852940E+03  0.11792762783E+04  0.11376847844E+04 0.  0.
        5    1    3    3  502    0  0.50245612508E+02 -0.77023011601E+02 -0.73707556892E+03  0.74280525725E+03  0.46999998093E+01 0.  1.
       -5    1    3    3    0  502 -0.50245612508E+02  0.77023011601E+02  0.42664703952E+03  0.43647102105E+03  0.46999998093E+01 0. -1.
</event>
<event>
 5   0  0.1468556E-03  0.1099344E+04  0.7818609E-02  0.9205831E-01
       -1   -1    0    0    0  501  0.00000000000E+00  0.00000000000E+00  0.82920110346E+03  0.82920110348E+03  0.50400001928E-02 0.  1.
        1   -1    0    0  501    0  0.00000000000E+00  0.00000000000E+00 -0.36437415564E+03  0.36437415568E+03  0.50400001928E-02 0. -1.
    10030    2    1    2    0    0  0.00000000000E+00  0.00000000000E+00  0.46482694782E+03  0.11935752592E+04  0.10993442627E+04 0.  0.
        5    1    3    3  502    0 -0.45352796787E+03  0.93171361909E+02  0.55402883971E+03  0.72203778679E+03  0.46999998093E+01 0.  1.
       -5    1    3    3    0  502  0.45352796787E+03 -0.93171361909E+02 -0.89201891894E+02  0.47153747236E+03  0.46999998093E+01 0. -1.
</event>
<event>
 5   0  0.2488472E-03  0.1105575E+04  0.7818609E-02  0.9199775E-01
       -2   -1    0    0    0  501  0.00000000000E+00  0.00000000000E+00  0.20214345751E+03  0.20214345753E+03  0.25500000920E-02 0.  1.
        2   -1    0    0  501    0  0.00000000000E+00  0.00000000000E+00 -0.15116692787E+04  0.15116692787E+04  0.25500000920E-02 0. -1.
    10030    2    1    2    0    0  0.00000000000E+00  0.00000000000E+00 -0.13095258212E+04  0.17138127362E+04  0.11055750624E+04 0.  0.
        2    1    3    3  502    0 -0.27648609532E+03  0.55951267252E+02 -0.13916964829E+04  0.14199979598E+04  0.25500000920E-02 0. -1.
       -2    1    3    3    0  502  0.27648609532E+03 -0.55951267252E+02  0.82170661722E+02  0.29381477646E+03  0.25500000920E-02 0.  1.
</event>
<event>
 5   0  0.2438115E-03  0.1102633E+04  0.7818609E-02  0.9202629E-01
        2   -1    0    0  501    0  0.00000000000E+00  0.00000000000E+00  0.30823964669E+03  0.30823964670E+03  0.25500000920E-02 0.  1.
       -2   -1    0    0    0  501  0.00000000000E+00  0.00000000000E+00 -0.98608294800E+03  0.98608294800E+03  0.25500000920E-02 0. -1.
    10030    2    1    2    0    0  0.00000000000E+00  0.00000000000E+00 -0.67784330131E+03  0.12943225947E+04  0.11026329571E+04 0.  0.
        4    1    3    3  502    0 -0.13480447612E+03  0.53336328828E+03 -0.29660445899E+03  0.62499956965E+03  0.12699999809E+01 0.  1.
       -4    1    3    3    0  502  0.13480447612E+03 -0.53336328828E+03 -0.38123884232E+03  0.66932302505E+03  0.12699999809E+01 0. -1.
</event>
<event>
 5   0  0.1479573E-03  0.1108740E+04  0.7818609E-02  0.9196715E-01
       -1   -1    0    0    0  501  0.00000000000E+00  0.00000000000E+00  0.12356645753E+04  0.12356645753E+04  0.50400001928E-02 0.  1.
        1   -1    0    0  501    0  0.00000000000E+00  0.00000000000E+00 -0.24871328237E+03  0.24871328242E+03  0.50400001928E-02 0. -1.
    10030    2    1    2    0    0  0.00000000000E+00  0.00000000000E+00  0.98695129291E+03  0.14843778577E+04  0.11087401724E+04 0.  0.
        4    1    3    3  502    0 -0.19535678087E+03  0.37439179904E+03  0.12642345441E+02  0.42248660668E+03  0.12699999809E+01 0. -1.
       -4    1    3    3    0  502  0.19535678087E+03 -0.37439179904E+03  0.97430894747E+03  0.10618912510E+04  0.12699999809E+01 0.  1.
</event>
<event>
 5   0  0.2392585E-03  0.1095081E+04  0.7818609E-02  0.9210000E-01
        2   -1    0    0  501    0  0.00000000000E+00  0.00000000000E+00  0.18981222552E+04  0.18981222552E+04  0.25500000920E-02 0. -1.
       -2   -1    0    0    0  501  0.00000000000E+00  0.00000000000E+00 -0.15794574708E+03  0.15794574710E+03  0.25500000920E-02 0.  1.
    10030    2    1    2    0    0  0.00000000000E+00  0.00000000000E+00  0.17401765081E+04  0.20560680023E+04  0.10950805225E+04 0.  0.
        5    1    3    3  502    0  0.42489296887E+03  0.45303727472E+02  0.15128351744E+04  0.15720301580E+04  0.46999998093E+01 0. -1.
       -5    1    3    3    0  502 -0.42489296887E+03 -0.45303727472E+02  0.22734133374E+03  0.48403784434E+03  0.46999998093E+01 0.  1.
</event>
<event>
 5   0  0.2483036E-03  0.1088902E+04  0.7818609E-02  0.9216077E-01
       -2   -1    0    0    0  501  0.00000000000E+00  0.00000000000E+00  0.43191133299E+03  0.43191133299E+03  0.25500000920E-02 0.  1.
        2   -1    0    0  501    0  0.00000000000E+00  0.00000000000E+00 -0.68631384705E+03  0.68631384706E+03  0.25500000920E-02 0. -1.
    10030    2    1    2    0    0  0.00000000000E+00  0.00000000000E+00 -0.25440251406E+03  0.11182251801E+04  0.10889017009E+04 0.  0.
        3    1    3    3  502    0 -0.22247982113E+03  0.79408952939E+02  0.37654259704E+03  0.44450803165E+03  0.10100000352E+00 0.  1.
       -3    1    3    3    0  502  0.22247982113E+03 -0.79408952939E+02 -0.63094511110E+03  0.67371714840E+03  0.10100000352E+00 0. -1.
</event>
<event>
 5   0  0.2438115E-03  0.1107232E+04  0.7818609E-02  0.9198172E-01
        2   -1    0    0  501    0  0.00000000000E+00  0.00000000000E+00  0.39645696755E+03  0.39645696756E+03  0.25500000920E-02 0. -1.
       -2   -1    0    0    0  501  0.00000000000E+00  0.00000000000E+00 -0.77307384435E+03  0.77307384435E+03  0.25500000920E-02 0.  1.
    10030    2    1    2    0    0  0.00000000000E+00  0.00000000000E+00 -0.37661687679E+03  0.11695308119E+04  0.11072317048E+04 0.  0.
        4    1    3    3  502    0  0.37491132364E+03  0.85451035060E+02  0.23238311268E+03  0.44929267070E+03  0.12699999809E+01 0. -1.
       -4    1    3    3    0  502 -0.37491132364E+03 -0.85451035060E+02 -0.60899998947E+03  0.72023814122E+03  0.12699999809E+01 0.  1.
</event>
<event>
 5   0  0.1415400E-03  0.1098788E+04  0.7818609E-02  0.9206374E-01
       -1   -1    0    0    0  501  0.00000000000E+00  0.00000000000E+00  0.18742225041E+04  0.18742225041E+04  0.50400001928E-02 0. -1.
        1   -1    0    0  501    0  0.00000000000E+00  0.00000000000E+00 -0.16104474057E+03  0.16104474065E+03  0.50400001928E-02 0.  1.
    10030    2    1    2    0    0  0.00000000000E+00  0.00000000000E+00  0.17131777635E+04  0.20352672447E+04  0.10987878358E+04 0.  0.
        2    1    3    3  502    0 -0.79180742749E+01  0.34712990106E+03  0.16452178748E+04  0.16814588070E+04  0.25500000920E-02 0. -1.
       -2    1    3    3    0  502  0.79180742749E+01 -0.34712990106E+03  0.67959888692E+02  0.35380843770E+03  0.25500000920E-02 0.  1.
</event>
<event>
 5   0  0.2483036E-03  0.1042742E+04  0.7818609E-02  0.9262870E-01
        2   -1    0    0  501    0  0.00000000000E+00  0.00000000000E+00  0.18901726590E+04  0.18901726590E+04  0.25500000920E-02 0. -1.
       -2   -1    0    0    0  501  0.00000000000E+00  0.00000000000E+00 -0.14381096935E+03  0.14381096937E+03  0.25500000920E-02 0.  1.
    10030    2    1    2    0    0  0.00000000000E+00  0.00000000000E+00  0.17463616896E+04  0.20339836284E+04  0.10427416983E+04 0.  0.
        3    1    3    3  502    0  0.30932918419E+03 -0.33848269449E+03  0.13572016304E+04  0.14325680977E+04  0.10100000352E+00 0. -1.
       -3    1    3    3    0  502 -0.30932918419E+03  0.33848269449E+03  0.38916005925E+03  0.60141553071E+03  0.10100000352E+00 0.  1.
</event>
<event>
 5   0  0.1509004E-03  0.1101507E+04  0.7818609E-02  0.9203724E-01
        1   -1    0    0  501    0  0.00000000000E+00  0.00000000000E+00  0.97093930291E+03  0.97093930292E+03  0.50400001928E-02 0.  1.
       -1   -1    0    0    0  501  0.00000000000E+00  0.00000000000E+00 -0.31240848244E+03  0.31240848248E+03  0.50400001928E-02 0. -1.
    10030    2    1    2    0    0  0.00000000000E+00  0.00000000000E+00  0.65853082047E+03  0.12833477854E+04  0.11015074656E+04 0.  0.
        3    1    3    3  502    0  0.42992208645E+02  0.12775564760E+03  0.95142398768E+03  0.96092530929E+03  0.10100000352E+00 0.  1.
       -3    1    3    3    0  502 -0.42992208645E+02 -0.12775564760E+03 -0.29289316721E+03  0.32242247610E+03  0.10100000352E+00 0. -1.
</event>
<event>
 5   0  0.2438115E-03  0.1097498E+04  0.7818609E-02  0.9207634E-01
        2   -1    0    0  501    0  0.00000000000E+00  0.00000000000E+00  0.19938305592E+04  0.19938305592E+04  0.25500000920E-02 0. -1.
       -2   -1    0    0    0  501  0.00000000000E+00  0.00000000000E+00 -0.15102862801E+03  0.15102862803E+03  0.25500000920E-02 0.  1.
    10030    2    1    2    0    0  0.00000000000E+00  0.00000000000E+00  0.18428019312E+04  0.21448591872E+04  0.10974980526E+04 0.  0.
        4    1    3    3  502    0 -0.15007102045E+03 -0.17258974864E+03  0.18962415706E+04  0.19099848794E+04  0.12699999809E+01 0. -1.
       -4    1    3    3    0  502  0.15007102045E+03  0.17258974864E+03 -0.53439639424E+02  0.23487430783E+03  0.12699999809E+01 0.  1.
</event>
<event>
 5   0  0.1480937E-03  0.1071163E+04  0.7818609E-02  0.9233763E-01
       -1   -1    0    0    0  501  0.00000000000E+00  0.00000000000E+00  0.98102743923E+03  0.98102743925E+03  0.50400001928E-02 0.  1.
        1   -1    0    0  501    0  0.00000000000E+00  0.00000000000E+00 -0.29239513284E+03  0.29239513288E+03  0.50400001928E-02 0. -1.
    10030    2    1    2    0    0  0.00000000000E+00  0.00000000000E+00  0.68863230640E+03  0.12734225721E+04  0.10711631966E+04 0.  0.
        1    1    3    3  502    0 -0.36638749864E+03  0.94255652837E+02  0.79500947987E+03  0.88043398411E+03  0.50400001928E-02 0.  1.
       -1    1    3    3    0  502  0.36638749864E+03 -0.94255652837E+02 -0.10637717348E+03  0.39298858802E+03  0.50400001928E-02 0. -1.
</event>
<event>
 5   0  0.2392585E-03  0.1091052E+04  0.7818609E-02  0.9213957E-01
        2   -1    0    0  501    0  0.00000000000E+00  0.00000000000E+00  0.72925785248E+03  0.72925785249E+03  0.25500000920E-02 0.  1.
       -2   -1    0    0    0  501  0.00000000000E+00  0.00000000000E+00 -0.40808414187E+03  0.40808414188E+03  0.25500000920E-02 0. -1.
    10030    2    1    2    0    0  0.00000000000E+00  0.00000000000E+00  0.32117371062E+03  0.11373419944E+04  0.10910519052E+04 0.  0.
        5    1    3    3  502    0 -0.13451570972E+03  0.52403245082E+03  0.87825827599E+02  0.54812402945E+03  0.46999998093E+01 0. -1.
       -5    1    3    3    0  502  0.13451570972E+03 -0.52403245082E+03  0.23334788302E+03  0.58921796491E+03  0.46999998093E+01 0.  1.
</event>
<event>
 5   0  0.1468556E-03  0.1091192E+04  0.7818609E-02  0.9213820E-01
        1   -1    0    0  501    0  0.00000000000E+00  0.00000000000E+00  0.13852952377E+04  0.13852952377E+04  0.50400001928E-02 0.  1.
       -1   -1    0    0    0  501  0.00000000000E+00  0.00000000000E+00 -0.21488181006E+03  0.21488181012E+03  0.50400001928E-02 0. -1.
    10030    2    1    2    0    0  0.00000000000E+00  0.00000000000E+00  0.11704134277E+04  0.16001770478E+04  0.10911915473E+04 0.  0.
        5    1    3    3  502    0 -0.24559958981E+03 -0.23235460444E+03  0.12131224783E+04  0.12593633543E+04  0.46999998093E+01 0.  1.
       -5    1    3    3    0  502  0.24559958981E+03  0.23235460444E+03 -0.42709050648E+02  0.34081369357E+03  0.46999998093E+01 0. -1.
</event>
<event>
 5   0  0.1468556E-03  0.1150164E+04  0.7818609E-02  0.9157632E-01
       -1   -1    0    0    0  501  0.00000000000E+00  0.00000000000E+00  0.97476477664E+03  0.97476477665E+03  0.50400001928E-02 0.  1.
        1   -1    0    0  501    0  0.00000000000E+00  0.00000000000E+00 -0.33928107507E+03  0.33928107511E+03  0.50400001928E-02 0. -1.
    10030    2    1    2    0    0  0.00000000000E+00  0.00000000000E+00  0.63548370157E+03  0.13140458518E+04  0.11501638864E+04 0.  0.
        5    1    3    3  502    0 -0.23576190783E+02  0.57317281444E+03  0.36364418436E+03  0.67922168311E+03  0.46999998093E+01 0. -1.
       -5    1    3    3    0  502  0.23576190783E+02 -0.57317281444E+03  0.27183951720E+03  0.63482416865E+03  0.46999998093E+01 0.  1.
</event>
<event>
 5   0  0.2392585E-03  0.1102470E+04  0.7818609E-02  0.9202787E-01
        2   -1    0    0  501    0  0.00000000000E+00  0.00000000000E+00  0.16563657061E+04  0.16563657061E+04  0.25500000920E-02 0. -1.
       -2   -1    0    0    0  501  0.00000000000E+00  0.00000000000E+00 -0.18344997329E+03  0.18344997331E+03  0.25500000920E-02 0.  1.
    10030    2    1    2    0    0  0.00000000000E+00  0.00000000000E+00  0.14729157328E+04  0.18398156794E+04  0.11024703979E+04 0.  0.
        5    1    3    3  502    0 -0.35558507057E+03  0.16740676666E+03  0.13814323575E+04  0.14362601493E+04  0.46999998093E+01 0. -1.
       -5    1    3    3    0  502  0.35558507057E+03 -0.16740676666E+03  0.91483375223E+02  0.40355553010E+03  0.46999998093E+01 0.  1.
</event>
<event>
 5   0  0.1479573E-03  0.1036532E+04  0.7818609E-02  0.9269360E-01
       -1   -1    0    0    0  501  0.00000000000E+00  0.00000000000E+00  0.15010896912E+03  0.15010896920E+03  0.50400001928E-02 0. -1.
        1   -1    0    0  501    0  0.00000000000E+00  0.00000000000E+00 -0.17893649267E+04  0.17893649267E+04  0.50400001928E-02 0.  1.
    10030    2    1    2    0    0  0.00000000000E+00  0.00000000000E+00 -0.16392559576E+04  0.19394738959E+04  0.10365321502E+04 0.  0.
        4    1    3    3  502    0 -0.22483452855E+03  0.27819218235E+03 -0.11787978127E+03  0.37661480491E+03  0.12699999809E+01 0. -1.
       -4    1    3    3    0  502  0.22483452855E+03 -0.27819218235E+03 -0.15213761763E+04  0.15628590910E+04  0.12699999809E+01 0.  1.
</event>
<event>
 5   0  0.1479573E-03  0.1096060E+04  0.7818609E-02  0.9209041E-01
        1   -1    0    0  501    0  0.00000000000E+00  0.00000000000E+00  0.11957013145E+03  0.11957013156E+03  0.50400001928E-02 0.  1.
       -1   -1    0    0    0  501  0.00000000000E+00  0.00000000000E+00 -0.25118044877E+04  0.25118044877E+04  0.50400001928E-02 0. -1.
    10030    2    1    2    0    0  0.00000000000E+00  0.00000000000E+00 -0.23922343562E+04  0.26313746192E+04  0.10960598395E+04 0.  0.
        4    1    3    3  502    0  0.35604637623E+03  0.18773922497E+03 -0.20889931347E+04  0.21274183811E+04  0.12699999809E+01 0. -1.
       -4    1    3    3    0  502 -0.35604637623E+03 -0.18773922497E+03 -0.30324122157E+03  0.50395623816E+03  0.12699999809E+01 0.  1.
</event>
<event>
 5   0  0.1468556E-03  0.1101271E+04  0.7818609E-02  0.9203954E-01
        1   -1    0    0  501    0  0.00000000000E+00  0.00000000000E+00  0.44094657723E+03  0.44094657726E+03  0.50400001928E-02 0.  1.
       -1   -1    0    0    0  501  0.00000000000E+00  0.00000000000E+00 -0.68761077106E+03  0.68761077108E+03  0.50400001928E-02 0. -1.
    10030    2    1    2    0    0  0.00000000000E+00  0.00000000000E+00 -0.24666419383E+03  0.11285573483E+04  0.11012712944E+04 0.  0.
        5    1    3    3  502    0  0.57265237850E+02  0.13756838065E+03 -0.66653456068E+03  0.68300422942E+03  0.46999998093E+01 0. -1.
       -5    1    3    3    0  502 -0.57265237850E+02 -0.13756838065E+03  0.41987036685E+03  0.44555311892E+03  0.46999998093E+01 0.  1.
</event>
<event>
 5   0  0.1415400E-03  0.1098782E+04  0.7818609E-02  0.9206380E-01
        1   -1    0    0  501    0  0.00000000000E+00  0.00000000000E+00  0.43158790473E+03  0.43158790476E+03  0.50400001928E-02 0. -1.
       -1   -1    0    0    0  501  0.00000000000E+00  0.00000000000E+00 -0.69934824398E+03  0.69934824399E+03  0.50400001928E-02 0.  1.
    10030    2    1    2    0    0  0.00000000000E+00  0.00000000000E+00 -0.26776033924E+03  0.11309361488E+04  0.10987815858E+04 0.  0.
        2    1    3    3  502    0  0.27551233565E+03  0.40789101792E+02  0.35353841610E+03  0.45006689456E+03  0.25500000920E-02 0. -1.
       -2    1    3    3    0  502 -0.27551233565E+03 -0.40789101792E+02 -0.62129875534E+03  0.68086925420E+03  0.25500000920E-02 0.  1.
</event>
<event>
 5   0  0.1479573E-03  0.1068059E+04  0.7818609E-02  0.9236895E-01
       -1   -1    0    0    0  501  0.00000000000E+00  0.00000000000E+00  0.53682159700E+03  0.53682159702E+03  0.50400001928E-02 0.  1.
        1   -1    0    0  501    0  0.00000000000E+00  0.00000000000E+00 -0.53125206015E+03  0.53125206017E+03  0.50400001928E-02 0. -1.
    10030    2    1    2    0    0  0.00000000000E+00  0.00000000000E+00  0.55695368463E+01  0.10680736572E+04  0.10680591357E+04 0.  0.
        4    1    3    3  502    0 -0.23533734769E+03  0.22762171962E+03  0.42467988808E+03  0.53623682707E+03  0.12699999809E+01 0.  1.
       -4    1    3    3    0  502  0.23533734769E+03 -0.22762171962E+03 -0.41911035124E+03  0.53183683012E+03  0.12699999809E+01 0. -1.
</event>
<event>
 5   0  0.1479573E-03  0.1100558E+04  0.7818609E-02  0.9204648E-01
        1   -1    0    0  501    0  0.00000000000E+00  0.00000000000E+00  0.12257084413E+04  0.12257084413E+04  0.50400001928E-02 0. -1.
       -1   -1    0    0    0  501  0.00000000000E+00  0.00000000000E+00 -0.24704640219E+03  0.24704640224E+03  0.50400001928E-02 0.  1.
    10030    2    1    2    0    0  0.00000000000E+00  0.00000000000E+00  0.97866203912E+03  0.14727548436E+04  0.11005577870E+04 0.  0.
        4    1    3    3  502    0 -0.10401245156E+02  0.60508076962E+02  0.12211088125E+04  0.12226519366E+04  0.12699999809E+01 0. -1.
       -4    1    3    3    0  502  0.10401245156E+02 -0.60508076962E+02 -0.24244677334E+03  0.25010290698E+03  0.12699999809E+01 0.  1.
</event>
<event>
 5   0  0.1480937E-03  0.1085209E+04  0.7818609E-02  0.9219729E-01
       -1   -1    0    0    0  501  0.00000000000E+00  0.00000000000E+00  0.30332713733E+03  0.30332713738E+03  0.50400001928E-02 0. -1.
        1   -1    0    0  501    0  0.00000000000E+00  0.00000000000E+00 -0.97063492503E+03  0.97063492504E+03  0.50400001928E-02 0.  1.
    10030    2    1    2    0    0  0.00000000000E+00  0.00000000000E+00 -0.66730778769E+03  0.12739620624E+04  0.10852094973E+04 0.  0.
        1    1    3    3  502    0  0.38228039677E+03 -0.58848961606E+02 -0.78039385142E+03  0.87098568610E+03  0.50400001928E-02 0.  1.
       -1    1    3    3    0  502 -0.38228039677E+03  0.58848961606E+02  0.11308606372E+03  0.40297637632E+03  0.50400001928E-02 0. -1.
</event>
<event>
 5   0  0.2488472E-03  0.1044493E+04  0.7818609E-02  0.9261048E-01
       -2   -1    0    0    0  501  0.00000000000E+00  0.00000000000E+00  0.38220710662E+03  0.38220710663E+03  0.25500000920E-02 0. -1.
        2   -1    0    0  501    0  0.00000000000E+00  0.00000000000E+00 -0.71359583208E+03  0.71359583208E+03  0.25500000920E-02 0.  1.
    10030    2    1    2    0    0  0.00000000000E+00  0.00000000000E+00 -0.33138872546E+03  0.10958029387E+04  0.10444929838E+04 0.  0.
        2    1    3    3  502    0  0.36871473237E+03  0.28656087274E+03 -0.41100490284E+03  0.62208738761E+03  0.25500000920E-02 0. -1.
       -2    1    3    3    0  502 -0.36871473237E+03 -0.28656087274E+03  0.79616177387E+02  0.47371555111E+03  0.25500000920E-02 0.  1.
</event>
<event>
 5   0  0.1480937E-03  0.1102793E+04  0.7818609E-02  0.9202474E-01
       -1   -1    0    0    0  501  0.00000000000E+00  0.00000000000E+00  0.40070808858E+03  0.40070808861E+03  0.50400001928E-02 0. -1.
        1   -1    0    0  501    0  0.00000000000E+00  0.00000000000E+00 -0.75875181025E+03  0.75875181027E+03  0.50400001928E-02 0.  1.
    10030    2    1    2    0    0  0.00000000000E+00  0.00000000000E+00 -0.35804372167E+03  0.11594598989E+04  0.11027927958E+04 0.  0.
        1    1    3    3  502    0  0.34663028717E+03  0.67619498516E+02  0.26619104286E+03  0.44224724294E+03  0.50400001928E-02 0. -1.
       -1    1    3    3    0  502 -0.34663028717E+03 -0.67619498516E+02 -0.62423476453E+03  0.71721265594E+03  0.50400001928E-02 0.  1.
</event>
<event>
 5   0  0.1479573E-03  0.1101609E+04  0.7818609E-02  0.9203625E-01
       -1   -1    0    0    0  501  0.00000000000E+00  0.00000000000E+00  0.25098220035E+03  0.25098220040E+03  0.50400001928E-02 0.  1.
        1   -1    0    0  501    0  0.00000000000E+00  0.00000000000E+00 -0.12087940920E+04  0.12087940921E+04  0.50400001928E-02 0. -1.
    10030    2    1    2    0    0  0.00000000000E+00  0.00000000000E+00 -0.95781189169E+03  0.14597762925E+04  0.11016093700E+04 0.  0.
        4    1    3    3  502    0 -0.53106129660E+03  0.12428469294E+03 -0.37702242377E+03  0.66303869161E+03  0.12699999809E+01 0.  1.
       -4    1    3    3    0  502  0.53106129660E+03 -0.12428469294E+03 -0.58078946793E+03  0.79673760084E+03  0.12699999809E+01 0. -1.
</event>
<event>
 5   0  0.2392585E-03  0.1094449E+04  0.7818609E-02  0.9210619E-01
       -2   -1    0    0    0  501  0.00000000000E+00  0.00000000000E+00  0.46190918820E+03  0.46190918821E+03  0.25500000920E-02 0. -1.
        2   -1    0    0  501    0  0.00000000000E+00  0.00000000000E+00 -0.64829749738E+03  0.64829749739E+03  0.25500000920E-02 0.  1.
    10030    2    1    2    0    0  0.00000000000E+00  0.00000000000E+00 -0.18638830918E+03  0.11102066856E+04  0.10944488489E+04 0.  0.
        5    1    3    3  502    0  0.58963568613E+02  0.11688295526E+03  0.44576929126E+03  0.46461885312E+03  0.46999998093E+01 0. -1.
       -5    1    3    3    0  502 -0.58963568613E+02 -0.11688295526E+03 -0.63215760044E+03  0.64558783248E+03  0.46999998093E+01 0.  1.
</event>
<event>
 5   0  0.2392585E-03  0.1102644E+04  0.7818609E-02  0.9202619E-01
       -2   -1    0    0    0  501  0.00000000000E+00  0.00000000000E+00  0.12108039764E+03  0.12108039767E+03  0.25500000920E-02 0.  1.
        2   -1    0    0  501    0  0.00000000000E+00  0.00000000000E+00 -0.25103654040E+04  0.25103654040E+04  0.25500000920E-02 0. -1.
    10030    2    1    2    0    0  0.00000000000E+00  0.00000000000E+00 -0.23892850064E+04  0.26314458017E+04  0.11026441699E+04 0.  0.
        5    1    3    3  502    0  0.82748129476E+02 -0.51719416654E+03 -0.78407733482E+03  0.94294030342E+03  0.46999998093E+01 0.  1.
       -5    1    3    3    0  502 -0.82748129476E+02  0.51719416654E+03 -0.16052076716E+04  0.16885054983E+04  0.46999998093E+01 0. -1.
</event>
<event>
 5   0  0.1509004E-03  0.1225259E+04  0.7818609E-02  0.9091030E-01
       -1   -1    0    0    0  501  0.00000000000E+00  0.00000000000E+00  0.58310530822E+03  0.58310530824E+03  0.50400001928E-02 0. -1.
        1   -1    0    0  501    0  0.00000000000E+00  0.00000000000E+00 -0.64364839215E+03  0.64364839217E+03  0.50400001928E-02 0.  1.
    10030    2    1    2    0    0  0.00000000000E+00  0.00000000000E+00 -0.60543083933E+02  0.12267537004E+04  0.12252588202E+04 0.  0.
        3    1    3    3  502    0 -0.47320633772E+03 -0.14164053139E+03  0.33256334690E+03  0.59547012360E+03  0.10100000352E+00 0. -1.
       -3    1    3    3    0  502  0.47320633772E+03  0.14164053139E+03 -0.39310643083E+03  0.63128357681E+03  0.10100000352E+00 0.  1.
</event>
<event>
 5   0  0.1479573E-03  0.9941626E+03  0.7818609E-02  0.9314970E-01
        1   -1    0    0  501    0  0.00000000000E+00  0.00000000000E+00  0.72435043890E+03  0.72435043891E+03  0.50400001928E-02 0.  1.
       -1   -1    0    0    0  501  0.00000000000E+00  0.00000000000E+00 -0.34111918284E+03  0.34111918288E+03  0.50400001928E-02 0. -1.
    10030    2    1    2    0    0  0.00000000000E+00  0.00000000000E+00  0.38323125606E+03  0.10654696218E+04  0.99416262218E+03 0.  0.
        4    1    3    3  502    0 -0.35256714587E+03  0.34945474104E+03  0.21927380449E+03  0.54268298538E+03  0.12699999809E+01 0.  1.
       -4    1    3    3    0  502  0.35256714587E+03 -0.34945474104E+03  0.16395745157E+03  0.52278663641E+03  0.12699999809E+01 0. -1.
</event>
<event>
 5   0  0.1415400E-03  0.1131734E+04  0.7818609E-02  0.9174802E-01
       -1   -1    0    0    0  501  0.00000000000E+00  0.00000000000E+00  0.69222829979E+03  0.69222829981E+03  0.50400001928E-02 0. -1.
        1   -1    0    0  501    0  0.00000000000E+00  0.00000000000E+00 -0.46257190527E+03  0.46257190529E+03  0.50400001928E-02 0.  1.
    10030    2    1    2    0    0  0.00000000000E+00  0.00000000000E+00  0.22965639452E+03  0.11548002051E+04  0.11317338266E+04 0.  0.
        2    1    3    3  502    0  0.13588631183E+02  0.49525628952E+03 -0.16413356731E+03  0.52192266777E+03  0.25500000920E-02 0.  1.
       -2    1    3    3    0  502 -0.13588631183E+02 -0.49525628952E+03  0.39378996184E+03  0.63287753733E+03  0.25500000920E-02 0. -1.
</event>
<event>
 5   0  0.2438115E-03  0.1108910E+04  0.7818609E-02  0.9196551E-01
        2   -1    0    0  501    0  0.00000000000E+00  0.00000000000E+00  0.10730394975E+04  0.10730394975E+04  0.25500000920E-02 0. -1.
       -2   -1    0    0    0  501  0.00000000000E+00  0.00000000000E+00 -0.28649484538E+03  0.28649484539E+03  0.25500000920E-02 0.  1.
    10030    2    1    2    0    0  0.00000000000E+00  0.00000000000E+00  0.78654465209E+03  0.13595343429E+04  0.11089098880E+04 0.  0.
        4    1    3    3  502    0  0.31406392440E+03  0.18887371788E+03 -0.11682618298E+03  0.38465491008E+03  0.12699999809E+01 0.  1.
       -4    1    3    3    0  502 -0.31406392440E+03 -0.18887371788E+03  0.90337083507E+03  0.97487943278E+03  0.12699999809E+01 0. -1.
</event>
<event>
 5   0  0.9631750E-04  0.1104799E+04  0.7818609E-02  0.9200527E-01
       -3   -1    0    0    0  501  0.00000000000E+00  0.00000000000E+00  0.31803109332E+03  0.31803110936E+03  0.10100000352E+00 0. -1.
        3   -1    0    0  501    0  0.00000000000E+00  0.00000000000E+00 -0.95948312931E+03  0.95948313463E+03  0.10100000352E+00 0.  1.
    10030    2    1    2    0    0  0.00000000000E+00  0.00000000000E+00 -0.64145203599E+03  0.12775142440E+04  0.11047994972E+04 0.  0.
        2    1    3    3  502    0 -0.37195535812E+02 -0.53624547516E+03 -0.46791552357E+03  0.71266237078E+03  0.25500000920E-02 0.  1.
       -2    1    3    3    0  502  0.37195535812E+02  0.53624547516E+03 -0.17353651242E+03  0.56485187321E+03  0.25500000920E-02 0. -1.
</event>
<event>
 5   0  0.1509004E-03  0.1078623E+04  0.7818609E-02  0.9226282E-01
       -1   -1    0    0    0  501  0.00000000000E+00  0.00000000000E+00  0.28964653300E+03  0.28964653304E+03  0.50400001928E-02 0. -1.
        1   -1    0    0  501    0  0.00000000000E+00  0.00000000000E+00 -0.10041783337E+04  0.10041783337E+04  0.50400001928E-02 0.  1.
    10030    2    1    2    0    0  0.00000000000E+00  0.00000000000E+00 -0.71453180073E+03  0.12938248668E+04  0.10786227754E+04 0.  0.
        3    1    3    3  502    0 -0.19945721808E+03 -0.47721429831E+03 -0.54052148195E+03  0.74811773873E+03  0.10100000352E+00 0. -1.
       -3    1    3    3    0  502  0.19945721808E+03  0.47721429831E+03 -0.17401031878E+03  0.54570712805E+03  0.10100000352E+00 0.  1.
</event>
<event>
 5   0  0.2488472E-03  0.1098426E+04  0.7818609E-02  0.9206728E-01
        2   -1    0    0  501    0  0.00000000000E+00  0.00000000000E+00  0.69798685611E+03  0.69798685612E+03  0.25500000920E-02 0.  1.
       -2   -1    0    0    0  501  0.00000000000E+00  0.00000000000E+00 -0.43214952809E+03  0.43214952810E+03  0.25500000920E-02 0. -1.
    10030    2    1    2    0    0  0.00000000000E+00  0.00000000000E+00  0.26583732803E+03  0.11301363842E+04  0.10984255833E+04 0.  0.
        2    1    3    3  502    0 -0.13524888378E+02 -0.20573748023E+03 -0.39081913337E+03  0.44187150666E+03  0.25500000920E-02 0. -1.
       -2    1    3    3    0  502  0.13524888378E+02  0.20573748023E+03  0.65665646140E+03  0.68826487756E+03  0.25500000920E-02 0.  1.
</event>
<event>
 5   0  0.2392585E-03  0.1106418E+04  0.7818609E-02  0.9198958E-01
       -2   -1    0    0    0  501  0.00000000000E+00  0.00000000000E+00  0.11367223020E+04  0.11367223020E+04  0.25500000920E-02 0.  1.
        2   -1    0    0  501    0  0.00000000000E+00  0.00000000000E+00 -0.26923062418E+03  0.26923062419E+03  0.25500000920E-02 0. -1.
    10030    2    1    2    0    0  0.00000000000E+00  0.00000000000E+00  0.86749167786E+03  0.14059529262E+04  0.11064184650E+04 0.  0.
        5    1    3    3  502    0  0.18823935745E+03 -0.43735220642E+03  0.75890004214E+02  0.48217464771E+03  0.46999998093E+01 0. -1.
       -5    1    3    3    0  502 -0.18823935745E+03  0.43735220642E+03  0.79160167364E+03  0.92377827852E+03  0.46999998093E+01 0.  1.
</event>
<event>
 5   0  0.2483036E-03  0.1097961E+04  0.7818609E-02  0.9207182E-01
       -2   -1    0    0    0  501  0.00000000000E+00  0.00000000000E+00  0.24703355111E+03  0.24703355112E+03  0.25500000920E-02 0.  1.
        2   -1    0    0  501    0  0.00000000000E+00  0.00000000000E+00 -0.12199940438E+04  0.12199940438E+04  0.25500000920E-02 0. -1.
    10030    2    1    2    0    0  0.00000000000E+00  0.00000000000E+00 -0.97296049269E+03  0.14670275949E+04  0.10979607661E+04 0.  0.
        3    1    3    3  502    0  0.35712861163E+03 -0.29684367033E+03 -0.95280354586E+02  0.47406261826E+03  0.10100000352E+00 0. -1.
       -3    1    3    3    0  502 -0.35712861163E+03  0.29684367033E+03 -0.87768013811E+03  0.99296497667E+03  0.10100000352E+00 0.  1.
</event>
<event>
 5   0  0.9631750E-04  0.1100466E+04  0.7818609E-02  0.9204738E-01
        4   -1    0    0  501    0  0.00000000000E+00  0.00000000000E+00  0.21002188914E+03  0.21002572894E+03  0.12699999809E+01 0. -1.
       -4   -1    0    0    0  501  0.00000000000E+00  0.00000000000E+00 -0.14415290850E+04  0.14415296445E+04  0.12699999809E+01 0.  1.
    10030    2    1    2    0    0  0.00000000000E+00  0.00000000000E+00 -0.12315071959E+04  0.16515553734E+04  0.11004658913E+04 0.  0.
        5    1    3    3  502    0  0.40048879608E+03 -0.21402433509E+03 -0.14945688267E+03  0.47807650180E+03  0.46999998093E+01 0. -1.
       -5    1    3    3    0  502 -0.40048879608E+03  0.21402433509E+03 -0.10820503132E+04  0.11734788716E+04  0.46999998093E+01 0.  1.
</event>
<event>
 5   0  0.2483036E-03  0.1094616E+04  0.7818609E-02  0.9210455E-01
       -2   -1    0    0    0  501  0.00000000000E+00  0.00000000000E+00  0.49239522091E+03  0.49239522092E+03  0.25500000920E-02 0. -1.
        2   -1    0    0  501    0  0.00000000000E+00  0.00000000000E+00 -0.60834478063E+03  0.60834478064E+03  0.25500000920E-02 0.  1.
    10030    2    1    2    0    0  0.00000000000E+00  0.00000000000E+00 -0.11594955972E+03  0.11007400016E+04  0.10946160289E+04 0.  0.
        3    1    3    3  502    0  0.23682808547E+03 -0.43490137089E+03 -0.29234372221E+03  0.57505791585E+03  0.10100000352E+00 0.  1.
       -3    1    3    3    0  502 -0.23682808547E+03  0.43490137089E+03  0.17639416249E+03  0.52568208570E+03  0.10100000352E+00 0. -1.
</event>
<event>
 5   0  0.1468556E-03  0.1098302E+04  0.7818609E-02  0.9206848E-01
       -1   -1    0    0    0  501  0.00000000000E+00  0.00000000000E+00  0.22380323603E+03  0.22380323608E+03  0.50400001928E-02 0.  1.
        1   -1    0    0  501    0  0.00000000000E+00  0.00000000000E+00 -0.13474648698E+04  0.13474648698E+04  0.50400001928E-02 0. -1.
    10030    2    1    2    0    0  0.00000000000E+00  0.00000000000E+00 -0.11236616338E+04  0.15712681059E+04  0.10983023233E+04 0.  0.
        5    1    3    3  502    0  0.46628948853E+03 -0.56844802124E+02 -0.15494775731E+03  0.49465959622E+03  0.46999998093E+01 0.  1.
       -5    1    3    3    0  502 -0.46628948853E+03  0.56844802124E+02 -0.96871387647E+03  0.10766085097E+04  0.46999998093E+01 0. -1.
</event>
<event>
 5   0  0.1509004E-03  0.1094932E+04  0.7818609E-02  0.9210145E-01
        1   -1    0    0  501    0  0.00000000000E+00  0.00000000000E+00  0.10063521511E+04  0.10063521511E+04  0.50400001928E-02 0. -1.
       -1   -1    0    0    0  501  0.00000000000E+00  0.00000000000E+00 -0.29782730636E+03  0.29782730640E+03  0.50400001928E-02 0.  1.
    10030    2    1    2    0    0  0.00000000000E+00  0.00000000000E+00  0.70852484470E+03  0.13041794575E+04  0.10949322361E+04 0.  0.
        3    1    3    3  502    0  0.14972715510E+03  0.16338888531E+03  0.95053518499E+03  0.97602832793E+03  0.10100000352E+00 0. -1.
       -3    1    3    3    0  502 -0.14972715510E+03 -0.16338888531E+03 -0.24201034029E+03  0.32815112955E+03  0.10100000352E+00 0.  1.
</event>
<event>
 5   0  0.9631750E-04  0.1102064E+04  0.7818609E-02  0.9203183E-01
        3   -1    0    0  501    0  0.00000000000E+00  0.00000000000E+00  0.56906917922E+03  0.56906918818E+03  0.10100000352E+00 0. -1.
       -3   -1    0    0    0  501  0.00000000000E+00  0.00000000000E+00 -0.53356608516E+03  0.53356609472E+03  0.10100000352E+00 0.  1.
    10030    2    1    2    0    0  0.00000000000E+00  0.00000000000E+00  0.35503094063E+02  0.11026352829E+04  0.11020635632E+04 0.  0.
        5    1    3    3  502    0 -0.47053873513E+03  0.24584629121E+03  0.16536395877E+03  0.55607052522E+03  0.46999998093E+01 0. -1.
       -5    1    3    3    0  502  0.47053873513E+03 -0.24584629121E+03 -0.12986086470E+03  0.54656475768E+03  0.46999998093E+01 0.  1.
</event>
<event>
 5   0  0.1479573E-03  0.1101577E+04  0.7818609E-02  0.9203656E-01
       -1   -1    0    0    0  501  0.00000000000E+00  0.00000000000E+00  0.66616544332E+03  0.66616544334E+03  0.50400001928E-02 0.  1.
        1   -1    0    0  501    0  0.00000000000E+00  0.00000000000E+00 -0.45539465998E+03  0.45539466001E+03  0.50400001928E-02 0. -1.
    10030    2    1    2    0    0  0.00000000000E+00  0.00000000000E+00  0.21077078334E+03  0.11215601033E+04  0.11015773883E+04 0.  0.
        4    1    3    3  502    0 -0.51816376063E+03  0.18652379147E+03  0.11459182550E+03  0.56251018389E+03  0.12699999809E+01 0. -1.
       -4    1    3    3    0  502  0.51816376063E+03 -0.18652379147E+03  0.96178957835E+02  0.55904991946E+03  0.12699999809E+01 0.  1.
</event>
<event>
 5   0  0.2438115E-03  0.1088318E+04  0.7818609E-02  0.9216653E-01
        2   -1    0    0  501    0  0.00000000000E+00  0.00000000000E+00  0.10044185102E+04  0.10044185102E+04  0.25500000920E-02 0. -1.
       -2   -1    0    0    0  501  0.00000000000E+00  0.00000000000E+00 -0.29480639351E+03  0.29480639353E+03  0.25500000920E-02 0.  1.
    10030    2    1    2    0    0  0.00000000000E+00  0.00000000000E+00  0.70961211664E+03  0.12992249037E+04  0.10883179656E+04 0.  0.
        4    1    3    3  502    0  0.93988715793E+02 -0.13389716848E+02 -0.28484152666E+03  0.30024901569E+03  0.12699999809E+01 0.  1.
       -4    1    3    3    0  502 -0.93988715793E+02  0.13389716848E+02  0.99445364330E+03  0.99897588799E+03  0.12699999809E+01 0. -1.
</event>
<event>
 5   0  0.1479573E-03  0.1088145E+04  0.7818609E-02  0.9216824E-01
        1   -1    0    0  501    0  0.00000000000E+00  0.00000000000E+00  0.69226884227E+03  0.69226884229E+03  0.50400001928E-02 0. -1.
       -1   -1    0    0    0  501  0.00000000000E+00  0.00000000000E+00 -0.42760107120E+03  0.42760107123E+03  0.50400001928E-02 0.  1.
    10030    2    1    2    0    0  0.00000000000E+00  0.00000000000E+00  0.26466777107E+03  0.11198699135E+04  0.10881450244E+04 0.  0.
        4    1    3    3  502    0  0.25580717926E+03  0.12015896767E+03 -0.34612668620E+03  0.44685656119E+03  0.12699999809E+01 0.  1.
       -4    1    3    3    0  502 -0.25580717926E+03 -0.12015896767E+03  0.61079445727E+03  0.67301335233E+03  0.12699999809E+01 0. -1.
</event>
<event>
 5   0  0.2392585E-03  0.1080970E+04  0.7818609E-02  0.9223941E-01
       -2   -1    0    0    0  501  0.00000000000E+00  0.00000000000E+00  0.12621284608E+03  0.12621284611E+03  0.25500000920E-02 0.  1.
        2   -1    0    0  501    0  0.00000000000E+00  0.00000000000E+00 -0.23145352450E+04  0.23145352450E+04  0.25500000920E-02 0. -1.
    10030    2    1    2    0    0  0.00000000000E+00  0.00000000000E+00 -0.21883223989E+04  0.24407480911E+04  0.10809700841E+04 0.  0.
        5    1    3    3  502    0 -0.44581980915E+03 -0.20638732609E+03 -0.58549671653E+03  0.76431637800E+03  0.46999998093E+01 0.  1.
       -5    1    3    3    0  502  0.44581980915E+03  0.20638732609E+03 -0.16028256824E+04  0.16764317131E+04  0.46999998093E+01 0. -1.
</event>
<event>
 5   0  0.1509004E-03  0.1084440E+04  0.7818609E-02  0.9220492E-01
        1   -1    0    0  501    0  0.00000000000E+00  0.00000000000E+00  0.10854652254E+04  0.10854652254E+04  0.50400001928E-02 0. -1.
       -1   -1    0    0    0  501  0.00000000000E+00  0.00000000000E+00 -0.27085375162E+03  0.27085375167E+03  0.50400001928E-02 0.  1.
    10030    2    1    2    0    0  0.00000000000E+00  0.00000000000E+00  0.81461147381E+03  0.13563189771E+04  0.10844396315E+04 0.  0.
        3    1    3    3  502    0  0.26683340573E+03 -0.43552359303E+03  0.63492611509E+03  0.81486934433E+03  0.10100000352E+00 0. -1.
       -3    1    3    3    0  502 -0.26683340573E+03  0.43552359303E+03  0.17968535872E+03  0.54144963278E+03  0.10100000352E+00 0.  1.
</event>
<event>
 5   0  0.2488472E-03  0.1112251E+04  0.7818609E-02  0.9193333E-01
       -2   -1    0    0    0  501  0.00000000000E+00  0.00000000000E+00  0.53227751169E+03  0.53227751170E+03  0.25500000920E-02 0. -1.
        2   -1    0    0  501    0  0.00000000000E+00  0.00000000000E+00 -0.58104196709E+03  0.58104196709E+03  0.25500000920E-02 0.  1.
    10030    2    1    2    0    0  0.00000000000E+00  0.00000000000E+00 -0.48764455399E+02  0.11133194788E+04  0.11122510012E+04 0.  0.
        2    1    3    3  502    0 -0.94638982338E+02 -0.31396312347E+03 -0.47397536753E+03  0.57635234788E+03  0.25500000920E-02 0.  1.
       -2    1    3    3    0  502  0.94638982338E+02  0.31396312347E+03  0.42521091213E+03  0.53696713091E+03  0.25500000920E-02 0. -1.
</event>
<event>
 5   0  0.2438115E-03  0.1129700E+04  0.7818609E-02  0.9176718E-01
        2   -1    0    0  501    0  0.00000000000E+00  0.00000000000E+00  0.10802102709E+04  0.10802102709E+04  0.25500000920E-02 0. -1.
       -2   -1    0    0    0  501  0.00000000000E+00  0.00000000000E+00 -0.29536443287E+03  0.29536443288E+03  0.25500000920E-02 0.  1.
    10030    2    1    2    0    0  0.00000000000E+00  0.00000000000E+00  0.78484583807E+03  0.13755747038E+04  0.11297003037E+04 0.  0.
        4    1    3    3  502    0 -0.33922906166E+03 -0.15446011812E+03  0.90919811388E+03  0.98263783133E+03  0.12699999809E+01 0. -1.
       -4    1    3    3    0  502  0.33922906166E+03  0.15446011812E+03 -0.12435227581E+03  0.39293687249E+03  0.12699999809E+01 0.  1.
</event>
<event>
 5   0  0.2488472E-03  0.1105703E+04  0.7818609E-02  0.9199651E-01
       -2   -1    0    0    0  501  0.00000000000E+00  0.00000000000E+00  0.30773526953E+03  0.30773526954E+03  0.25500000920E-02 0.  1.
        2   -1    0    0  501    0  0.00000000000E+00  0.00000000000E+00 -0.99320766279E+03  0.99320766279E+03  0.25500000920E-02 0. -1.
    10030    2    1    2    0    0  0.00000000000E+00  0.00000000000E+00 -0.68547239326E+03  0.13009429323E+04  0.11057034463E+04 0.  0.
        2    1    3    3  502    0  0.42820225657E+03 -0.74908568404E+02  0.59157684449E+02  0.43871186192E+03  0.25500000920E-02 0.  1.
       -2    1    3    3    0  502 -0.42820225657E+03  0.74908568404E+02 -0.74463007771E+03  0.86223107041E+03  0.25500000920E-02 0. -1.
</event>
<event>
 5   0  0.1479573E-03  0.1100682E+04  0.7818609E-02  0.9204527E-01
        1   -1    0    0  501    0  0.00000000000E+00  0.00000000000E+00  0.53625666260E+03  0.53625666263E+03  0.50400001928E-02 0.  1.
       -1   -1    0    0    0  501  0.00000000000E+00  0.00000000000E+00 -0.56479574478E+03  0.56479574480E+03  0.50400001928E-02 0. -1.
    10030    2    1    2    0    0  0.00000000000E+00  0.00000000000E+00 -0.28539082177E+02  0.11010524074E+04  0.11006824813E+04 0.  0.
        4    1    3    3  502    0 -0.49768381297E+02 -0.25105838784E+03 -0.50163618064E+03  0.56315866016E+03  0.12699999809E+01 0. -1.
       -4    1    3    3    0  502  0.49768381297E+02  0.25105838784E+03  0.47309709846E+03  0.53789374727E+03  0.12699999809E+01 0.  1.
</event>
<event>
 5   0  0.2392585E-03  0.1096481E+04  0.7818609E-02  0.9208628E-01
        2   -1    0    0  501    0  0.00000000000E+00  0.00000000000E+00  0.13553549950E+04  0.13553549950E+04  0.25500000920E-02 0. -1.
       -2   -1    0    0    0  501  0.00000000000E+00  0.00000000000E+00 -0.22176323563E+03  0.22176323565E+03  0.25500000920E-02 0.  1.
    10030    2    1    2    0    0  0.00000000000E+00  0.00000000000E+00  0.11335917593E+04  0.15771182306E+04  0.10964814802E+04 0.  0.
        5    1    3    3  502    0 -0.29268094968E+03 -0.44723063909E+03  0.39140960671E+03  0.66249600231E+03  0.46999998093E+01 0.  1.
       -5    1    3    3    0  502  0.29268094968E+03  0.44723063909E+03  0.74218215262E+03  0.91462222831E+03  0.46999998093E+01 0. -1.
</event>
<event>
 5   0  0.1415400E-03  0.1099310E+04  0.7818609E-02  0.9205865E-01
        1   -1    0    0  501    0  0.00000000000E+00  0.00000000000E+00  0.33120339591E+03  0.33120339595E+03  0.50400001928E-02 0.  1.
       -1   -1    0    0    0  501  0.00000000000E+00  0.00000000000E+00 -0.91219029210E+03  0.91219029212E+03  0.50400001928E-02 0. -1.
    10030    2    1    2    0    0  0.00000000000E+00  0.00000000000E+00 -0.58098689619E+03  0.12433936881E+04  0.10993098244E+04 0.  0.
        2    1    3    3  502    0  0.12351876700E+02  0.52695859695E+03 -0.11424063421E+03  0.53934112978E+03  0.25500000920E-02 0.  1.
       -2    1    3    3    0  502 -0.12351876700E+02 -0.52695859695E+03 -0.46674626198E+03  0.70405255829E+03  0.25500000920E-02 0. -1.
</event>
<event>
 5   0  0.1480937E-03  0.1108817E+04  0.7818609E-02  0.9196641E-01
        1   -1    0    0  501    0  0.00000000000E+00  0.00000000000E+00  0.40950039335E+03  0.40950039339E+03  0.50400001928E-02 0.  1.
       -1   -1    0    0    0  501  0.00000000000E+00  0.00000000000E+00 -0.75059396086E+03  0.75059396088E+03  0.50400001928E-02 0. -1.
    10030    2    1    2    0    0  0.00000000000E+00  0.00000000000E+00 -0.34109356751E+03  0.11600943543E+04  0.11088165263E+04 0.  0.
        1    1    3    3  502    0 -0.44933181688E+03  0.10299076124E+03  0.15169403184E+03  0.48530120325E+03  0.50400001928E-02 0.  1.
       -1    1    3    3    0  502  0.44933181688E+03 -0.10299076124E+03 -0.49278759934E+03  0.67479315101E+03  0.50400001928E-02 0. -1.
</event>
<event>
 5   0  0.1468556E-03  0.1099205E+04  0.7818609E-02  0.9205967E-01
       -1   -1    0    0    0  501  0.00000000000E+00  0.00000000000E+00  0.45792802161E+03  0.45792802164E+03  0.50400001928E-02 0.  1.
        1   -1    0    0  501    0  0.00000000000E+00  0.00000000000E+00 -0.65963004164E+03  0.65963004166E+03  0.50400001928E-02 0. -1.
    10030    2    1    2    0    0  0.00000000000E+00  0.00000000000E+00 -0.20170202003E+03  0.11175580633E+04  0.10992053129E+04 0.  0.
        5    1    3    3  502    0 -0.26792624336E+02  0.45434227796E+03  0.21234468178E+03  0.50225203249E+03  0.46999998093E+01 0.  1.
       -5    1    3    3    0  502  0.26792624336E+02 -0.45434227796E+03 -0.41404670181E+03  0.61530603080E+03  0.46999998093E+01 0. -1.
</event>
<event>
 5   0  0.1415400E-03  0.1095874E+04  0.7818609E-02  0.9209223E-01
       -1   -1    0    0    0  501  0.00000000000E+00  0.00000000000E+00  0.34826498683E+03  0.34826498687E+03  0.50400001928E-02 0.  1.
        1   -1    0    0  501    0  0.00000000000E+00  0.00000000000E+00 -0.86208746340E+03  0.86208746341E+03  0.50400001928E-02 0. -1.
    10030    2    1    2    0    0  0.00000000000E+00  0.00000000000E+00 -0.51382247657E+03  0.12103524503E+04  0.10958738598E+04 0.  0.
        2    1    3    3  502    0  0.43015705509E+01  0.16551888894E+03  0.31997381559E+03  0.36027524030E+03  0.25500000920E-02 0.  1.
       -2    1    3    3    0  502 -0.43015705509E+01 -0.16551888894E+03 -0.83379629216E+03  0.85007720998E+03  0.25500000920E-02 0. -1.
</event>
<event>
 5   0  0.2467448E-03  0.1095698E+04  0.7818609E-02  0.9209395E-01
        2   -1    0    0  501    0  0.00000000000E+00  0.00000000000E+00  0.20494035769E+04  0.20494035769E+04  0.25500000920E-02 0. -1.
       -2   -1    0    0    0  501  0.00000000000E+00  0.00000000000E+00 -0.14645165822E+03  0.14645165824E+03  0.25500000920E-02 0.  1.
    10030    2    1    2    0    0  0.00000000000E+00  0.00000000000E+00  0.19029519186E+04  0.21958552351E+04  0.10956980464E+04 0.  0.
        1    1    3    3  502    0 -0.11599990643E+02  0.47280763139E+03  0.15056182085E+04  0.15781532897E+04  0.50400001928E-02 0. -1.
       -1    1    3    3    0  502  0.11599990643E+02 -0.47280763139E+03  0.39733371017E+03  0.61770194540E+03  0.50400001928E-02 0.  1.
</event>
<event>
 5   0  0.1479573E-03  0.1091991E+04  0.7818609E-02  0.9213033E-01
       -1   -1    0    0    0  501  0.00000000000E+00  0.00000000000E+00  0.40982204119E+03  0.40982204122E+03  0.50400001928E-02 0.  1.
        1   -1    0    0  501    0  0.00000000000E+00  0.00000000000E+00 -0.72741607534E+03  0.72741607535E+03  0.50400001928E-02 0. -1.
    10030    2    1    2    0    0  0.00000000000E+00  0.00000000000E+00 -0.31759403414E+03  0.11372381166E+04  0.10919911004E+04 0.  0.
        4    1    3    3  502    0 -0.37507096100E+02  0.23992096450E+03  0.35048581365E+03  0.42639274141E+03  0.12699999809E+01 0.  1.
       -4    1    3    3    0  502  0.37507096100E+02 -0.23992096450E+03 -0.66807984779E+03  0.71084537516E+03  0.12699999809E+01 0. -1.
</event>
<event>
 5   0  0.2483036E-03  0.1099882E+04  0.7818609E-02  0.9205307E-01
        2   -1    0    0  501    0  0.00000000000E+00  0.00000000000E+00  0.45292010092E+03  0.45292010093E+03  0.25500000920E-02 0.  1.
       -2   -1    0    0    0  501  0.00000000000E+00  0.00000000000E+00 -0.66774523431E+03  0.66774523431E+03  0.25500000920E-02 0. -1.
    10030    2    1    2    0    0  0.00000000000E+00  0.00000000000E+00 -0.21482513339E+03  0.11206653352E+04  0.10998822463E+04 0.  0.
        3    1    3    3  502    0  0.23143798684E+03 -0.47106631233E+03 -0.27473564978E+03  0.59240754538E+03  0.10100000352E+00 0. -1.
       -3    1    3    3    0  502 -0.23143798684E+03  0.47106631233E+03  0.59910516388E+02  0.52825778986E+03  0.10100000352E+00 0.  1.
</event>
<event>
 5   0  0.2467448E-03  0.1105089E+04  0.7818609E-02  0.9200246E-01
        2   -1    0    0  501    0  0.00000000000E+00  0.00000000000E+00  0.41711681275E+03  0.41711681275E+03  0.25500000920E-02 0.  1.
       -2   -1    0    0    0  501  0.00000000000E+00  0.00000000000E+00 -0.73194237265E+03  0.73194237265E+03  0.25500000920E-02 0. -1.
    10030    2    1    2    0    0  0.00000000000E+00  0.00000000000E+00 -0.31482555990E+03  0.11490591854E+04  0.11050890817E+04 0.  0.
        1    1    3    3  502    0 -0.22473426624E+03  0.43230523834E+03  0.11355576718E+03  0.50028813878E+03  0.50400001928E-02 0.  1.
       -1    1    3    3    0  502  0.22473426624E+03 -0.43230523834E+03 -0.42838132709E+03  0.64877104663E+03  0.50400001928E-02 0. -1.
</event>
<event>
 5   0  0.2467448E-03  0.1103604E+04  0.7818609E-02  0.9201687E-01
       -2   -1    0    0    0  501  0.00000000000E+00  0.00000000000E+00  0.23666299550E+03  0.23666299551E+03  0.25500000920E-02 0. -1.
        2   -1    0    0  501    0  0.00000000000E+00  0.00000000000E+00 -0.12865772294E+04  0.12865772294E+04  0.25500000920E-02 0.  1.
    10030    2    1    2    0    0  0.00000000000E+00  0.00000000000E+00 -0.10499142339E+04  0.15232402249E+04  0.11036035902E+04 0.  0.
        1    1    3    3  502    0  0.40210823452E+02  0.30622940944E+03  0.10618019765E+03  0.32660005501E+03  0.50400001928E-02 0. -1.
       -1    1    3    3    0  502 -0.40210823452E+02 -0.30622940944E+03 -0.11560944316E+04  0.11966401699E+04  0.50400001928E-02 0.  1.
</event>
<event>
 5   0  0.2392585E-03  0.1103674E+04  0.7818609E-02  0.9201618E-01
        2   -1    0    0  501    0  0.00000000000E+00  0.00000000000E+00  0.73044286098E+03  0.73044286098E+03  0.25500000920E-02 0. -1.
       -2   -1    0    0    0  501  0.00000000000E+00  0.00000000000E+00 -0.41690344435E+03  0.41690344436E+03  0.25500000920E-02 0.  1.
    10030    2    1    2    0    0  0.00000000000E+00  0.00000000000E+00  0.31353941663E+03  0.11473463053E+04  0.11036741270E+04 0.  0.
        5    1    3    3  502    0  0.78565061520E+02 -0.95902992104E+02 -0.40221752811E+03  0.42091671707E+03  0.46999998093E+01 0.  1.
       -5    1    3    3    0  502 -0.78565061520E+02  0.95902992104E+02  0.71575694474E+03  0.72642958828E+03  0.46999998093E+01 0. -1.
</event>
<event>
 5   0  0.1468556E-03  0.1104125E+04  0.7818609E-02  0.9201180E-01
       -1   -1    0    0    0  501  0.00000000000E+00  0.00000000000E+00  0.41544197255E+03  0.41544197258E+03  0.50400001928E-02 0.  1.
        1   -1    0    0  501    0  0.00000000000E+00  0.00000000000E+00 -0.73361200009E+03  0.73361200010E+03  0.50400001928E-02 0. -1.
    10030    2    1    2    0    0  0.00000000000E+00  0.00000000000E+00 -0.31817002754E+03  0.11490539727E+04  0.11041253850E+04 0.  0.
        5    1    3    3  502    0  0.55546984760E+02 -0.70139270669E+02 -0.72599560948E+03  0.73150304155E+03  0.46999998093E+01 0. -1.
       -5    1    3    3    0  502 -0.55546984760E+02  0.70139270669E+02  0.40782558194E+03  0.41755093114E+03  0.46999998093E+01 0.  1.
</event>
<event>
 5   0  0.2483036E-03  0.1096500E+04  0.7818609E-02  0.9208610E-01
       -2   -1    0    0    0  501  0.00000000000E+00  0.00000000000E+00  0.21687624020E+03  0.21687624021E+03  0.25500000920E-02 0. -1.
        2   -1    0    0  501    0  0.00000000000E+00  0.00000000000E+00 -0.13859419720E+04  0.13859419720E+04  0.25500000920E-02 0.  1.
    10030    2    1    2    0    0  0.00000000000E+00  0.00000000000E+00 -0.11690657318E+04  0.16028182122E+04  0.10964996745E+04 0.  0.
        3    1    3    3  502    0  0.10743503363E+03 -0.65623152194E+02 -0.13645277553E+04  0.13703228415E+04  0.10100000352E+00 0.  1.
       -3    1    3    3    0  502 -0.10743503363E+03  0.65623152194E+02  0.19546202356E+03  0.23249537073E+03  0.10100000352E+00 0. -1.
</event>
<event>
 5   0  0.1415400E-03  0.1099111E+04  0.7818609E-02  0.9206059E-01
        1   -1    0    0  501    0  0.00000000000E+00  0.00000000000E+00  0.12102724832E+04  0.12102724832E+04  0.50400001928E-02 0. -1.
       -1   -1    0    0    0  501  0.00000000000E+00  0.00000000000E+00 -0.24953983533E+03  0.24953983538E+03  0.50400001928E-02 0.  1.
    10030    2    1    2    0    0  0.00000000000E+00  0.00000000000E+00  0.96073264790E+03  0.14598123186E+04  0.10991109065E+04 0.  0.
        2    1    3    3  502    0 -0.60154101596E+02 -0.17485068502E+03 -0.20698210326E+03  0.27754795814E+03  0.25500000920E-02 0.  1.
       -2    1    3    3    0  502  0.60154101596E+02  0.17485068502E+03  0.11677147512E+04  0.11822643605E+04  0.25500000920E-02 0. -1.
</event>
<event>
 5   0  0.1480937E-03  0.1100365E+04  0.7818609E-02  0.9204836E-01
        1   -1    0    0  501    0  0.00000000000E+00  0.00000000000E+00  0.19405218397E+04  0.19405218397E+04  0.50400001928E-02 0.  1.
       -1   -1    0    0    0  501  0.00000000000E+00  0.00000000000E+00 -0.15598949858E+03  0.15598949866E+03  0.50400001928E-02 0. -1.
    10030    2    1    2    0    0  0.00000000000E+00  0.00000000000E+00  0.17845323412E+04  0.20965113384E+04  0.11003654463E+04 0.  0.
        1    1    3    3  502    0  0.10579280977E+03 -0.26642379135E+03 -0.24626471539E+01  0.28667022840E+03  0.50400001928E-02 0. -1.
       -1    1    3    3    0  502 -0.10579280977E+03  0.26642379135E+03  0.17869949883E+04  0.18098411100E+04  0.50400001928E-02 0.  1.
</event>
<event>
 5   0  0.1509004E-03  0.1102307E+04  0.7818609E-02  0.9202947E-01
       -1   -1    0    0    0  501  0.00000000000E+00  0.00000000000E+00  0.14074659653E+04  0.14074659653E+04  0.50400001928E-02 0. -1.
        1   -1    0    0  501    0  0.00000000000E+00  0.00000000000E+00 -0.21582761066E+03  0.21582761072E+03  0.50400001928E-02 0.  1.
    10030    2    1    2    0    0  0.00000000000E+00  0.00000000000E+00  0.11916383547E+04  0.16232935760E+04  0.11023067022E+04 0.  0.
        3    1    3    3  502    0 -0.46725477026E+03 -0.22045182225E+01  0.10262669639E+04  0.11276328178E+04  0.10100000352E+00 0. -1.
       -3    1    3    3    0  502  0.46725477026E+03  0.22045182225E+01  0.16537139072E+03  0.49566075828E+03  0.10100000352E+00 0.  1.
</event>
<event>
 5   0  0.1509004E-03  0.1083649E+04  0.7818609E-02  0.9221277E-01
        1   -1    0    0  501    0  0.00000000000E+00  0.00000000000E+00  0.41513962595E+03  0.41513962598E+03  0.50400001928E-02 0.  1.
       -1   -1    0    0    0  501  0.00000000000E+00  0.00000000000E+00 -0.70716918512E+03  0.70716918514E+03  0.50400001928E-02 0. -1.
    10030    2    1    2    0    0  0.00000000000E+00  0.00000000000E+00 -0.29202955917E+03  0.11223088111E+04  0.10836492994E+04 0.  0.
        3    1    3    3  502    0 -0.18619229043E+03 -0.48272634704E+03 -0.31263187590E+03  0.60450888759E+03  0.10100000352E+00 0.  1.
       -3    1    3    3    0  502  0.18619229043E+03  0.48272634704E+03  0.20602316734E+02  0.51779992353E+03  0.10100000352E+00 0. -1.
</event>
<event>
 5   0  0.2488472E-03  0.1108680E+04  0.7818609E-02  0.9196773E-01
       -2   -1    0    0    0  501  0.00000000000E+00  0.00000000000E+00  0.42968519780E+03  0.42968519781E+03  0.25500000920E-02 0.  1.
        2   -1    0    0  501    0  0.00000000000E+00  0.00000000000E+00 -0.71515776783E+03  0.71515776783E+03  0.25500000920E-02 0. -1.
    10030    2    1    2    0    0  0.00000000000E+00  0.00000000000E+00 -0.28547257003E+03  0.11448429656E+04  0.11086797679E+04 0.  0.
        2    1    3    3  502    0  0.30996201056E+03 -0.22111395079E+03  0.27330108529E+03  0.46868039265E+03  0.25500000920E-02 0.  1.
       -2    1    3    3    0  502 -0.30996201056E+03  0.22111395079E+03 -0.55877365532E+03  0.67616257299E+03  0.25500000920E-02 0. -1.
</event>
<event>
 5   0  0.1468556E-03  0.1108758E+04  0.7818609E-02  0.9196698E-01
        1   -1    0    0  501    0  0.00000000000E+00  0.00000000000E+00  0.39926772467E+03  0.39926772470E+03  0.50400001928E-02 0.  1.
       -1   -1    0    0    0  501  0.00000000000E+00  0.00000000000E+00 -0.76974938376E+03  0.76974938378E+03  0.50400001928E-02 0. -1.
    10030    2    1    2    0    0  0.00000000000E+00  0.00000000000E+00 -0.37048165909E+03  0.11690171085E+04  0.11087580170E+04 0.  0.
        5    1    3    3  502    0  0.13355664381E+03  0.38984802762E+03 -0.57619671665E+03  0.70840920944E+03  0.46999998093E+01 0. -1.
       -5    1    3    3    0  502 -0.13355664381E+03 -0.38984802762E+03  0.20571505756E+03  0.46060789903E+03  0.46999998093E+01 0.  1.
</event>
<event>
 5   0  0.2392585E-03  0.1099875E+04  0.7818609E-02  0.9205314E-01
       -2   -1    0    0    0  501  0.00000000000E+00  0.00000000000E+00  0.30205891289E+03  0.30205891290E+03  0.25500000920E-02 0.  1.
        2   -1    0    0  501    0  0.00000000000E+00  0.00000000000E+00 -0.10012320382E+04  0.10012320382E+04  0.25500000920E-02 0. -1.
    10030    2    1    2    0    0  0.00000000000E+00  0.00000000000E+00 -0.69917312535E+03  0.13032909511E+04  0.10998746493E+04 0.  0.
        5    1    3    3  502    0 -0.33078438900E+02  0.20288390794E+03 -0.95396996610E+03  0.97587747665E+03  0.46999998093E+01 0. -1.
       -5    1    3    3    0  502  0.33078438900E+02 -0.20288390794E+03  0.25479684075E+03  0.32741347449E+03  0.46999998093E+01 0.  1.
</event>
<event>
 5   0  0.9631750E-04  0.1101071E+04  0.7818609E-02  0.9204149E-01
       -4   -1    0    0    0  501  0.00000000000E+00  0.00000000000E+00  0.38874230776E+03  0.38874438227E+03  0.12699999809E+01 0. -1.
        4   -1    0    0  501    0  0.00000000000E+00  0.00000000000E+00 -0.77966136759E+03  0.77966240195E+03  0.12699999809E+01 0.  1.
    10030    2    1    2    0    0  0.00000000000E+00  0.00000000000E+00 -0.39091905983E+03  0.11684067842E+04  0.11010707071E+04 0.  0.
        3    1    3    3  502    0 -0.30793361012E+03 -0.43333409059E+03 -0.43571115578E+02  0.53338540908E+03  0.10100000352E+00 0. -1.
       -3    1    3    3    0  502  0.30793361012E+03  0.43333409059E+03 -0.34734794425E+03  0.63502137514E+03  0.10100000352E+00 0.  1.
</event>
<event>
 5   0  0.2392585E-03  0.1104741E+04  0.7818609E-02  0.9200583E-01
        2   -1    0    0  501    0  0.00000000000E+00  0.00000000000E+00  0.11883772719E+04  0.11883772719E+04  0.25500000920E-02 0.  1.
       -2   -1    0    0    0  501  0.00000000000E+00  0.00000000000E+00 -0.25674764965E+03  0.25674764966E+03  0.25500000920E-02 0. -1.
    10030    2    1    2    0    0  0.00000000000E+00  0.00000000000E+00  0.93162962225E+03  0.14451249216E+04  0.11047408229E+04 0.  0.
        5    1    3    3  502    0  0.25180020208E+03  0.30478436845E+03  0.97040393464E+03  0.10478562589E+04  0.46999998093E+01 0. -1.
       -5    1    3    3    0  502 -0.25180020208E+03 -0.30478436845E+03 -0.38774312393E+02  0.39726866264E+03  0.46999998093E+01 0.  1.
</event>
<event>
 5   0  0.1480937E-03  0.1023205E+04  0.7818609E-02  0.9283454E-01
        1   -1    0    0  501    0  0.00000000000E+00  0.00000000000E+00  0.26624898140E+03  0.26624898145E+03  0.50400001928E-02 0.  1.
       -1   -1    0    0    0  501  0.00000000000E+00  0.00000000000E+00 -0.98305438722E+03  0.98305438723E+03  0.50400001928E-02 0. -1.
    10030    2    1    2    0    0  0.00000000000E+00  0.00000000000E+00 -0.71680540582E+03  0.12493033687E+04  0.10232052175E+04 0.  0.
        1    1    3    3  502    0 -0.44535320984E+03 -0.28429033572E+02 -0.52941514364E+02  0.44938902460E+03  0.50400001928E-02 0.  1.
       -1    1    3    3    0  502  0.44535320984E+03  0.28429033572E+02 -0.66386389145E+03  0.79991434408E+03  0.50400001928E-02 0. -1.
</event>
<event>
 5   0  0.1415400E-03  0.1101786E+04  0.7818609E-02  0.9203453E-01
        1   -1    0    0  501    0  0.00000000000E+00  0.00000000000E+00  0.11856656855E+04  0.11856656855E+04  0.50400001928E-02 0.  1.
       -1   -1    0    0    0  501  0.00000000000E+00  0.00000000000E+00 -0.25596005462E+03  0.25596005467E+03  0.50400001928E-02 0. -1.
    10030    2    1    2    0    0  0.00000000000E+00  0.00000000000E+00  0.92970563092E+03  0.14416257402E+04  0.11017859205E+04 0.  0.
        2    1    3    3  502    0  0.23366099877E+03  0.35377675429E+03  0.46083198905E+01  0.42400081467E+03  0.25500000920E-02 0. -1.
       -2    1    3    3    0  502 -0.23366099877E+03 -0.35377675429E+03  0.92509731103E+03  0.10176249255E+04  0.25500000920E-02 0.  1.
</event>
<event>
 5   0  0.2467448E-03  0.1093156E+04  0.7818609E-02  0.9211888E-01
       -2   -1    0    0    0  501  0.00000000000E+00  0.00000000000E+00  0.41124237749E+03  0.41124237750E+03  0.25500000920E-02 0. -1.
        2   -1    0    0  501    0  0.00000000000E+00  0.00000000000E+00 -0.72645105561E+03  0.72645105562E+03  0.25500000920E-02 0.  1.
    10030    2    1    2    0    0  0.00000000000E+00  0.00000000000E+00 -0.31520867812E+03  0.11376934331E+04  0.10931559070E+04 0.  0.
        1    1    3    3  502    0 -0.20725928455E+03 -0.29715588609E+03  0.26832430187E+03  0.45083917606E+03  0.50400001928E-02 0. -1.
       -1    1    3    3    0  502  0.20725928455E+03  0.29715588609E+03 -0.58353297999E+03  0.68685425706E+03  0.50400001928E-02 0.  1.
</event>
<event>
 5   0  0.2467448E-03  0.1098692E+04  0.7818609E-02  0.9206468E-01
        2   -1    0    0  501    0  0.00000000000E+00  0.00000000000E+00  0.18600712297E+04  0.18600712297E+04  0.25500000920E-02 0.  1.
       -2   -1    0    0    0  501  0.00000000000E+00  0.00000000000E+00 -0.16224164346E+03  0.16224164348E+03  0.25500000920E-02 0. -1.
    10030    2    1    2    0    0  0.00000000000E+00  0.00000000000E+00  0.16978295863E+04  0.20223128732E+04  0.10986919737E+04 0.  0.
        1    1    3    3  502    0  0.12612804161E+03 -0.34632236458E+03  0.15987045396E+04  0.16406412369E+04  0.50400001928E-02 0.  1.
       -1    1    3    3    0  502 -0.12612804161E+03  0.34632236458E+03  0.99125046657E+02  0.38167163635E+03  0.50400001928E-02 0. -1.
</event>
<event>
 5   0  0.9631750E-04  0.1096322E+04  0.7818609E-02  0.9208785E-01
        3   -1    0    0  501    0  0.00000000000E+00  0.00000000000E+00  0.19698536796E+03  0.19698539386E+03  0.10100000352E+00 0. -1.
       -3   -1    0    0    0  501  0.00000000000E+00  0.00000000000E+00 -0.15253936286E+04  0.15253936319E+04  0.10100000352E+00 0.  1.
    10030    2    1    2    0    0  0.00000000000E+00  0.00000000000E+00 -0.13284082606E+04  0.17223790258E+04  0.10963215776E+04 0.  0.
        2    1    3    3  502    0 -0.50900401610E+03 -0.20078885065E+03 -0.61259799034E+03  0.82138757522E+03  0.25500000920E-02 0.  1.
       -2    1    3    3    0  502  0.50900401610E+03  0.20078885065E+03 -0.71581027028E+03  0.90099145057E+03  0.25500000920E-02 0. -1.
</event>
<event>
 5   0  0.1479573E-03  0.1106846E+04  0.7818609E-02  0.9198545E-01
       -1   -1    0    0    0  501  0.00000000000E+00  0.00000000000E+00  0.41930012075E+03  0.41930012078E+03  0.50400001928E-02 0.  1.
        1   -1    0    0  501    0  0.00000000000E+00  0.00000000000E+00 -0.73044825837E+03  0.73044825839E+03  0.50400001928E-02 0. -1.
    10030    2    1    2    0    0  0.00000000000E+00  0.00000000000E+00 -0.31114813762E+03  0.11497483792E+04  0.11068460470E+04 0.  0.
        4    1    3    3  502    0 -0.39048786150E+03  0.20380998582E+03  0.19245911852E+03  0.48068847032E+03  0.12699999809E+01 0.  1.
       -4    1    3    3    0  502  0.39048786150E+03 -0.20380998582E+03 -0.50360725614E+03  0.66905990885E+03  0.12699999809E+01 0. -1.
</event>
<event>
 5   0  0.2392585E-03  0.1091156E+04  0.7818609E-02  0.9213855E-01
        2   -1    0    0  501    0  0.00000000000E+00  0.00000000000E+00  0.11262223597E+04  0.11262223597E+04  0.25500000920E-02 0.  1.
       -2   -1    0    0    0  501  0.00000000000E+00  0.00000000000E+00 -0.26429538386E+03  0.26429538387E+03  0.25500000920E-02 0. -1.
    10030    2    1    2    0    0  0.00000000000E+00  0.00000000000E+00  0.86192697583E+03  0.13905177436E+04  0.10911560308E+04 0.  0.
        5    1    3    3  502    0  0.88678265185E+02 -0.40906935266E+03 -0.14935654295E+02  0.41886362192E+03  0.46999998093E+01 0. -1.
       -5    1    3    3    0  502 -0.88678265185E+02  0.40906935266E+03  0.87686263013E+03  0.97165412165E+03  0.46999998093E+01 0.  1.
</event>
<event>
 5   0  0.1468556E-03  0.1105420E+04  0.7818609E-02  0.9199925E-01
        1   -1    0    0  501    0  0.00000000000E+00  0.00000000000E+00  0.66316035459E+03  0.66316035461E+03  0.50400001928E-02 0. -1.
       -1   -1    0    0    0  501  0.00000000000E+00  0.00000000000E+00 -0.46065516407E+03  0.46065516410E+03  0.50400001928E-02 0.  1.
    10030    2    1    2    0    0  0.00000000000E+00  0.00000000000E+00  0.20250519052E+03  0.11238155187E+04  0.11054198152E+04 0.  0.
        5    1    3    3  502    0 -0.47666943965E+02  0.43499220540E+03 -0.24196859735E+03  0.50006124465E+03  0.46999998093E+01 0.  1.
       -5    1    3    3    0  502  0.47666943965E+02 -0.43499220540E+03  0.44447378787E+03  0.62375427405E+03  0.46999998093E+01 0. -1.
</event>
<event>
 5   0  0.1415400E-03  0.1101892E+04  0.7818609E-02  0.9203349E-01
       -1   -1    0    0    0  501  0.00000000000E+00  0.00000000000E+00  0.65207396821E+03  0.65207396823E+03  0.50400001928E-02 0.  1.
        1   -1    0    0  501    0  0.00000000000E+00  0.00000000000E+00 -0.46550193565E+03  0.46550193567E+03  0.50400001928E-02 0. -1.
    10030    2    1    2    0    0  0.00000000000E+00  0.00000000000E+00  0.18657203257E+03  0.11175759039E+04  0.11018923621E+04 0.  0.
        2    1    3    3  502    0 -0.37647778034E+03 -0.10745196214E+03 -0.29986546097E+03  0.49315386843E+03  0.25500000920E-02 0. -1.
       -2    1    3    3    0  502  0.37647778034E+03  0.10745196214E+03  0.48643749354E+03  0.62442203547E+03  0.25500000920E-02 0.  1.
</event>
<event>
 5   0  0.2392585E-03  0.1076412E+04  0.7818609E-02  0.9228492E-01
       -2   -1    0    0    0  501  0.00000000000E+00  0.00000000000E+00  0.66533278903E+03  0.66533278904E+03  0.25500000920E-02 0.  1.
        2   -1    0    0  501    0  0.00000000000E+00  0.00000000000E+00 -0.43536951542E+03  0.43536951543E+03  0.25500000920E-02 0. -1.
    10030    2    1    2    0    0  0.00000000000E+00  0.00000000000E+00  0.22996327361E+03  0.11007023045E+04  0.10764118430E+04 0.  0.
        5    1    3    3  502    0 -0.23353259293E+03  0.44706951134E+03  0.30692714560E+03  0.59045320106E+03  0.46999998093E+01 0.  1.
       -5    1    3    3    0  502  0.23353259293E+03 -0.44706951134E+03 -0.76963871988E+02  0.51024910340E+03  0.46999998093E+01 0. -1.
</event>
<event>
 5   0  0.2467448E-03  0.1102814E+04  0.7818609E-02  0.9202454E-01
        2   -1    0    0  501    0  0.00000000000E+00  0.00000000000E+00  0.73998631912E+03  0.73998631912E+03  0.25500000920E-02 0.  1.
       -2   -1    0    0    0  501  0.00000000000E+00  0.00000000000E+00 -0.41088549223E+03  0.41088549224E+03  0.25500000920E-02 0. -1.
    10030    2    1    2    0    0  0.00000000000E+00  0.00000000000E+00  0.32910082689E+03  0.11508718114E+04  0.11028139335E+04 0.  0.
        1    1    3    3  502    0 -0.22560356209E+03  0.11203361259E+03  0.67643676909E+03  0.72181382653E+03  0.50400001928E-02 0.  1.
       -1    1    3    3    0  502  0.22560356209E+03 -0.11203361259E+03 -0.34733594220E+03  0.42905798483E+03  0.50400001928E-02 0. -1.
</event>
<event>
 5   0  0.1415400E-03  0.1161016E+04  0.7818609E-02  0.9147681E-01
        1   -1    0    0  501    0  0.00000000000E+00  0.00000000000E+00  0.10251645644E+04  0.10251645644E+04  0.50400001928E-02 0.  1.
       -1   -1    0    0    0  501  0.00000000000E+00  0.00000000000E+00 -0.32871738547E+03  0.32871738551E+03  0.50400001928E-02 0. -1.
    10030    2    1    2    0    0  0.00000000000E+00  0.00000000000E+00  0.69644717896E+03  0.13538819499E+04  0.11610157886E+04 0.  0.
        2    1    3    3  502    0 -0.17103986411E+03  0.36814198181E+03  0.83213642503E+03  0.92586942046E+03  0.25500000920E-02 0.  1.
       -2    1    3    3    0  502  0.17103986411E+03 -0.36814198181E+03 -0.13568924607E+03  0.42801252948E+03  0.25500000920E-02 0. -1.
</event>
<event>
 5   0  0.1468556E-03  0.1093182E+04  0.7818609E-02  0.9211862E-01
        1   -1    0    0  501    0  0.00000000000E+00  0.00000000000E+00  0.11938597149E+04  0.11938597149E+04  0.50400001928E-02 0.  1.
       -1   -1    0    0    0  501  0.00000000000E+00  0.00000000000E+00 -0.25024881164E+03  0.25024881169E+03  0.50400001928E-02 0. -1.
    10030    2    1    2    0    0  0.00000000000E+00  0.00000000000E+00  0.94361090327E+03  0.14441085266E+04  0.10931824641E+04 0.  0.
        5    1    3    3  502    0  0.44403018572E+03 -0.23117379356E+03  0.76163394262E+03  0.91143429890E+03  0.46999998093E+01 0.  1.
       -5    1    3    3    0  502 -0.44403018572E+03  0.23117379356E+03  0.18197696065E+03  0.53267422771E+03  0.46999998093E+01 0. -1.
</event>
<event>
 5   0  0.1509004E-03  0.1099948E+04  0.7818609E-02  0.9205242E-01
        1   -1    0    0  501    0  0.00000000000E+00  0.00000000000E+00  0.47905765396E+03  0.47905765398E+03  0.50400001928E-02 0.  1.
       -1   -1    0    0    0  501  0.00000000000E+00  0.00000000000E+00 -0.63138854085E+03  0.63138854087E+03  0.50400001928E-02 0. -1.
    10030    2    1    2    0    0  0.00000000000E+00  0.00000000000E+00 -0.15233088689E+03  0.11104461948E+04  0.10999482045E+04 0.  0.
        3    1    3    3  502    0 -0.26249345765E+03  0.12425481701E+03  0.39533533648E+03  0.49054267229E+03  0.10100000352E+00 0.  1.
       -3    1    3    3    0  502  0.26249345765E+03 -0.12425481701E+03 -0.54766622337E+03  0.61990352256E+03  0.10100000352E+00 0. -1.
</event>
<event>
 5   0  0.1509004E-03  0.1096857E+04  0.7818609E-02  0.9208261E-01
       -1   -1    0    0    0  501  0.00000000000E+00  0.00000000000E+00  0.27900717315E+03  0.27900717319E+03  0.50400001928E-02 0.  1.
        1   -1    0    0  501    0  0.00000000000E+00  0.00000000000E+00 -0.10780144616E+04  0.10780144616E+04  0.50400001928E-02 0. -1.
    10030    2    1    2    0    0  0.00000000000E+00  0.00000000000E+00 -0.79900728841E+03  0.13570216348E+04  0.10968569051E+04 0.  0.
        3    1    3    3  502    0 -0.41802131693E+03 -0.29926527156E+03 -0.63577875529E+03  0.81762837527E+03  0.10100000352E+00 0.  1.
       -3    1    3    3    0  502  0.41802131693E+03  0.29926527156E+03 -0.16322853313E+03  0.53939325950E+03  0.10100000352E+00 0. -1.
</event>
<event>
 5   0  0.1468556E-03  0.1101105E+04  0.7818609E-02  0.9204115E-01
       -1   -1    0    0    0  501  0.00000000000E+00  0.00000000000E+00  0.48889785073E+03  0.48889785075E+03  0.50400001928E-02 0. -1.
        1   -1    0    0  501    0  0.00000000000E+00  0.00000000000E+00 -0.61998281096E+03  0.61998281098E+03  0.50400001928E-02 0.  1.
    10030    2    1    2    0    0  0.00000000000E+00  0.00000000000E+00 -0.13108496023E+03  0.11088806617E+04  0.11011053788E+04 0.  0.
        5    1    3    3  502    0  0.42967074583E+02  0.22595341993E+03 -0.56925948029E+03  0.61398661498E+03  0.46999998093E+01 0.  1.
       -5    1    3    3    0  502 -0.42967074583E+02 -0.22595341993E+03  0.43817452006E+03  0.49489404675E+03  0.46999998093E+01 0. -1.
</event>
<event>
 5   0  0.1479573E-03  0.1092872E+04  0.7818609E-02  0.9212167E-01
        1   -1    0    0  501    0  0.00000000000E+00  0.00000000000E+00  0.18080597252E+04  0.18080597252E+04  0.50400001928E-02 0.  1.
       -1   -1    0    0    0  501  0.00000000000E+00  0.00000000000E+00 -0.16514529015E+03  0.16514529023E+03  0.50400001928E-02 0. -1.
    10030    2    1    2    0    0  0.00000000000E+00  0.00000000000E+00  0.16429144351E+04  0.19732050154E+04  0.10928724500E+04 0.  0.
        4    1    3    3  502    0  0.16647782788E+03  0.22694804244E+03 -0.24195400181E+02  0.28250187864E+03  0.12699999809E+01 0. -1.
       -4    1    3    3    0  502 -0.16647782788E+03 -0.22694804244E+03  0.16671098352E+04  0.16907031368E+04  0.12699999809E+01 0.  1.
</event>
<event>
 5   0  0.1509004E-03  0.1106048E+04  0.7818609E-02  0.9199317E-01
       -1   -1    0    0    0  501  0.00000000000E+00  0.00000000000E+00  0.57816257689E+03  0.57816257691E+03  0.50400001928E-02 0. -1.
        1   -1    0    0  501    0  0.00000000000E+00  0.00000000000E+00 -0.52897866626E+03  0.52897866629E+03  0.50400001928E-02 0.  1.
    10030    2    1    2    0    0  0.00000000000E+00  0.00000000000E+00  0.49183910626E+02  0.11071412432E+04  0.11060482247E+04 0.  0.
        3    1    3    3  502    0  0.22767654980E+03  0.24162632139E+03  0.46731374359E+03  0.57323820151E+03  0.10100000352E+00 0. -1.
       -3    1    3    3    0  502 -0.22767654980E+03 -0.24162632139E+03 -0.41812983296E+03  0.53390304170E+03  0.10100000352E+00 0.  1.
</event>
<event>
 5   0  0.2438115E-03  0.1167526E+04  0.7818609E-02  0.9141766E-01
        2   -1    0    0  501    0  0.00000000000E+00  0.00000000000E+00  0.11964881852E+04  0.11964881852E+04  0.25500000920E-02 0.  1.
       -2   -1    0    0    0  501  0.00000000000E+00  0.00000000000E+00 -0.28481613485E+03  0.28481613486E+03  0.25500000920E-02 0. -1.
    10030    2    1    2    0    0  0.00000000000E+00  0.00000000000E+00  0.91167205034E+03  0.14813043201E+04  0.11675258289E+04 0.  0.
        4    1    3    3  502    0 -0.26379216345E+03 -0.14676368375E+03 -0.17809937835E+03  0.35049520087E+03  0.12699999809E+01 0. -1.
       -4    1    3    3    0  502  0.26379216345E+03  0.14676368375E+03  0.10897714287E+04  0.11308091192E+04  0.12699999809E+01 0.  1.
</event>
<event>
 5   0  0.1509004E-03  0.1104429E+04  0.7818609E-02  0.9200885E-01
       -1   -1    0    0    0  501  0.00000000000E+00  0.00000000000E+00  0.17271623581E+03  0.17271623589E+03  0.50400001928E-02 0.  1.
        1   -1    0    0  501    0  0.00000000000E+00  0.00000000000E+00 -0.17655611955E+04  0.17655611955E+04  0.50400001928E-02 0. -1.
    10030    2    1    2    0    0  0.00000000000E+00  0.00000000000E+00 -0.15928449596E+04  0.19382774313E+04  0.11044294162E+04 0.  0.
        3    1    3    3  502    0  0.48843550368E+03 -0.20228389485E+03 -0.10764159864E+04  0.11992328386E+04  0.10100000352E+00 0. -1.
       -3    1    3    3    0  502 -0.48843550368E+03  0.20228389485E+03 -0.51642897328E+03  0.73904459271E+03  0.10100000352E+00 0.  1.
</event>
<event>
 5   0  0.2483036E-03  0.1095276E+04  0.7818609E-02  0.9209809E-01
       -2   -1    0    0    0  501  0.00000000000E+00  0.00000000000E+00  0.34245767164E+03  0.34245767165E+03  0.25500000920E-02 0.  1.
        2   -1    0    0  501    0  0.00000000000E+00  0.00000000000E+00 -0.87574956832E+03  0.87574956832E+03  0.25500000920E-02 0. -1.
    10030    2    1    2    0    0  0.00000000000E+00  0.00000000000E+00 -0.53329189667E+03  0.12182072400E+04  0.10952755966E+04 0.  0.
        3    1    3    3  502    0 -0.22033250290E+03  0.34241753179E+03  0.14066859467E+03  0.43079443083E+03  0.10100000352E+00 0.  1.
       -3    1    3    3    0  502  0.22033250290E+03 -0.34241753179E+03 -0.67396049134E+03  0.78741280914E+03  0.10100000352E+00 0. -1.
</event>
<event>
 5   0  0.2483036E-03  0.1094840E+04  0.7818609E-02  0.9210235E-01
       -2   -1    0    0    0  501  0.00000000000E+00  0.00000000000E+00  0.24219565115E+03  0.24219565117E+03  0.25500000920E-02 0.  1.
        2   -1    0    0  501    0  0.00000000000E+00  0.00000000000E+00 -0.12373006228E+04  0.12373006228E+04  0.25500000920E-02 0. -1.
    10030    2    1    2    0    0  0.00000000000E+00  0.00000000000E+00 -0.99510497164E+03  0.14794962740E+04  0.10948403172E+04 0.  0.
        3    1    3    3  502    0 -0.28732999353E+03  0.40786038848E+03 -0.80200863381E+03  0.94452447325E+03  0.10100000352E+00 0. -1.
       -3    1    3    3    0  502  0.28732999353E+03 -0.40786038848E+03 -0.19309633783E+03  0.53497180071E+03  0.10100000352E+00 0.  1.
</event>
<event>
 5   0  0.9631750E-04  0.1091993E+04  0.7818609E-02  0.9213031E-01
       -4   -1    0    0    0  501  0.00000000000E+00  0.00000000000E+00  0.29268282984E+03  0.29268558520E+03  0.12699999809E+01 0. -1.
        4   -1    0    0  501    0  0.00000000000E+00  0.00000000000E+00 -0.10185430934E+04  0.10185438852E+04  0.12699999809E+01 0.  1.
    10030    2    1    2    0    0  0.00000000000E+00  0.00000000000E+00 -0.72586026361E+03  0.13112294704E+04  0.10919934074E+04 0.  0.
        2    1    3    3  502    0 -0.32870017394E+02 -0.40008409060E+03 -0.80731880743E+03  0.90161597947E+03  0.25500000920E-02 0.  1.
       -2    1    3    3    0  502  0.32870017394E+02  0.40008409060E+03  0.81458543823E+02  0.40961349094E+03  0.25500000920E-02 0. -1.
</event>
<event>
 5   0  0.2392585E-03  0.1091917E+04  0.7818609E-02  0.9213106E-01
       -2   -1    0    0    0  501  0.00000000000E+00  0.00000000000E+00  0.23447200106E+03  0.23447200107E+03  0.25500000920E-02 0.  1.
        2   -1    0    0  501    0  0.00000000000E+00  0.00000000000E+00 -0.12712424070E+04  0.12712424070E+04  0.25500000920E-02 0. -1.
    10030    2    1    2    0    0  0.00000000000E+00  0.00000000000E+00 -0.10367704060E+04  0.15057144081E+04  0.10919171233E+04 0.  0.
        5    1    3    3  502    0  0.14275159061E+03 -0.72196986371E+02  0.20139998059E+03  0.25724397689E+03  0.46999998093E+01 0.  1.
       -5    1    3    3    0  502 -0.14275159061E+03  0.72196986371E+02 -0.12381703866E+04  0.12484704312E+04  0.46999998093E+01 0. -1.
</event>
<event>
 5   0  0.1468556E-03  0.1098072E+04  0.7818609E-02  0.9207073E-01
       -1   -1    0    0    0  501  0.00000000000E+00  0.00000000000E+00  0.33678572491E+03  0.33678572495E+03  0.50400001928E-02 0. -1.
        1   -1    0    0  501    0  0.00000000000E+00  0.00000000000E+00 -0.89505188071E+03  0.89505188073E+03  0.50400001928E-02 0.  1.
    10030    2    1    2    0    0  0.00000000000E+00  0.00000000000E+00 -0.55826615580E+03  0.12318376057E+04  0.10980723046E+04 0.  0.
        5    1    3    3  502    0  0.11751491884E+03 -0.85926204695E+02 -0.87298255141E+03  0.88505010811E+03  0.46999998093E+01 0.  1.
       -5    1    3    3    0  502 -0.11751491884E+03  0.85926204695E+02  0.31471639561E+03  0.34678749757E+03  0.46999998093E+01 0. -1.
</event>
<event>
 5   0  0.1415400E-03  0.1100877E+04  0.7818609E-02  0.9204338E-01
        1   -1    0    0  501    0  0.00000000000E+00  0.00000000000E+00  0.33130770379E+03  0.33130770383E+03  0.50400001928E-02 0.  1.
       -1   -1    0    0    0  501  0.00000000000E+00  0.00000000000E+00 -0.91450438985E+03  0.91450438986E+03  0.50400001928E-02 0. -1.
    10030    2    1    2    0    0  0.00000000000E+00  0.00000000000E+00 -0.58319668606E+03  0.12458120937E+04  0.11008766498E+04 0.  0.
        2    1    3    3  502    0 -0.12644535342E+03 -0.37200337477E+03  0.14465032776E+03  0.41868682278E+03  0.25500000920E-02 0.  1.
       -2    1    3    3    0  502  0.12644535342E+03  0.37200337477E+03 -0.72784701381E+03  0.82712527090E+03  0.25500000920E-02 0. -1.
</event>
<event>
 5   0  0.2392585E-03  0.1102990E+04  0.7818609E-02  0.9202282E-01
        2   -1    0    0  501    0  0.00000000000E+00  0.00000000000E+00  0.55041147930E+03  0.55041147931E+03  0.25500000920E-02 0. -1.
       -2   -1    0    0    0  501  0.00000000000E+00  0.00000000000E+00 -0.55258106163E+03  0.55258106164E+03  0.25500000920E-02 0.  1.
    10030    2    1    2    0    0  0.00000000000E+00  0.00000000000E+00 -0.21695823269E+01  0.11029925409E+04  0.11029904072E+04 0.  0.
        5    1    3    3  502    0 -0.92721801172E+02 -0.53602528733E+03  0.89493684490E+02  0.55131810294E+03  0.46999998093E+01 0.  1.
       -5    1    3    3    0  502  0.92721801172E+02  0.53602528733E+03 -0.91663266817E+02  0.55167443801E+03  0.46999998093E+01 0. -1.
</event>
<event>
 5   0  0.2467448E-03  0.1117384E+04  0.7818609E-02  0.9188412E-01
        2   -1    0    0  501    0  0.00000000000E+00  0.00000000000E+00  0.85375227196E+03  0.85375227197E+03  0.25500000920E-02 0.  1.
       -2   -1    0    0    0  501  0.00000000000E+00  0.00000000000E+00 -0.36560597140E+03  0.36560597141E+03  0.25500000920E-02 0. -1.
    10030    2    1    2    0    0  0.00000000000E+00  0.00000000000E+00  0.48814630056E+03  0.12193582434E+04  0.11173843184E+04 0.  0.
        1    1    3    3  502    0 -0.44129130982E+03 -0.33289682178E+03  0.15556241063E+03  0.57424557264E+03  0.50400001928E-02 0.  1.
       -1    1    3    3    0  502  0.44129130982E+03  0.33289682178E+03  0.33258388993E+03  0.64511267074E+03  0.50400001928E-02 0. -1.
</event>
<event>
 5   0  0.1415400E-03  0.1100704E+04  0.7818609E-02  0.9204506E-01
        1   -1    0    0  501    0  0.00000000000E+00  0.00000000000E+00  0.11368872981E+04  0.11368872981E+04  0.50400001928E-02 0. -1.
       -1   -1    0    0    0  501  0.00000000000E+00  0.00000000000E+00 -0.26641813134E+03  0.26641813139E+03  0.50400001928E-02 0.  1.
    10030    2    1    2    0    0  0.00000000000E+00  0.00000000000E+00  0.87046916675E+03  0.14033054295E+04  0.11007041193E+04 0.  0.
        2    1    3    3  502    0 -0.38360655787E+03 -0.18729139769E+03  0.87808277016E+03  0.97635106911E+03  0.25500000920E-02 0. -1.
       -2    1    3    3    0  502  0.38360655787E+03  0.18729139769E+03 -0.76136034094E+01  0.42695436039E+03  0.25500000920E-02 0.  1.
</event>
<event>
 5   0  0.2467448E-03  0.1099320E+04  0.7818609E-02  0.9205855E-01
        2   -1    0    0  501    0  0.00000000000E+00  0.00000000000E+00  0.14380961328E+04  0.14380961328E+04  0.25500000920E-02 0.  1.
       -2   -1    0    0    0  501  0.00000000000E+00  0.00000000000E+00 -0.21008758647E+03  0.21008758648E+03  0.25500000920E-02 0. -1.
    10030    2    1    2    0    0  0.00000000000E+00  0.00000000000E+00  0.12280085464E+04  0.16481837193E+04  0.10993200547E+04 0.  0.
        1    1    3    3  502    0  0.11739620429E+03  0.52579299970E+03  0.45054886233E+03  0.70230650338E+03  0.50400001928E-02 0. -1.
       -1    1    3    3    0  502 -0.11739620429E+03 -0.52579299970E+03  0.77745968404E+03  0.94587721595E+03  0.50400001928E-02 0.  1.
</event>
<event>
 5   0  0.1479573E-03  0.1171393E+04  0.7818609E-02  0.9138272E-01
        1   -1    0    0  501    0  0.00000000000E+00  0.00000000000E+00  0.20493712789E+04  0.20493712790E+04  0.50400001928E-02 0.  1.
       -1   -1    0    0    0  501  0.00000000000E+00  0.00000000000E+00 -0.16738797066E+03  0.16738797074E+03  0.50400001928E-02 0. -1.
    10030    2    1    2    0    0  0.00000000000E+00  0.00000000000E+00  0.18819833083E+04  0.22167592497E+04  0.11713925040E+04 0.  0.
        4    1    3    3  502    0  0.54457984175E+03  0.19839511559E+03  0.78141437019E+03  0.97290177139E+03  0.12699999809E+01 0. -1.
       -4    1    3    3    0  502 -0.54457984175E+03 -0.19839511559E+03  0.11005689381E+04  0.12438574783E+04  0.12699999809E+01 0.  1.
</event>
<event>
 5   0  0.9631750E-04  0.1113191E+04  0.7818609E-02  0.9192430E-01
       -3   -1    0    0    0  501  0.00000000000E+00  0.00000000000E+00  0.33920821275E+03  0.33920822779E+03  0.10100000352E+00 0. -1.
        3   -1    0    0  501    0  0.00000000000E+00  0.00000000000E+00 -0.91329907152E+03  0.91329907711E+03  0.10100000352E+00 0.  1.
    10030    2    1    2    0    0  0.00000000000E+00  0.00000000000E+00 -0.57409085877E+03  0.12525073049E+04  0.11131910145E+04 0.  0.
        5    1    3    3  502    0 -0.27975559737E+03  0.80379297051E+02 -0.82081331559E+03  0.87090792550E+03  0.46999998093E+01 0.  1.
       -5    1    3    3    0  502  0.27975559737E+03 -0.80379297051E+02  0.24672245682E+03  0.38159937939E+03  0.46999998093E+01 0. -1.
</event>
<event>
 5   0  0.2483036E-03  0.1100001E+04  0.7818609E-02  0.9205191E-01
        2   -1    0    0  501    0  0.00000000000E+00  0.00000000000E+00  0.41811943916E+03  0.41811943917E+03  0.25500000920E-02 0.  1.
       -2   -1    0    0    0  501  0.00000000000E+00  0.00000000000E+00 -0.72347872889E+03  0.72347872889E+03  0.25500000920E-02 0. -1.
    10030    2    1    2    0    0  0.00000000000E+00  0.00000000000E+00 -0.30535928973E+03  0.11415981681E+04  0.11000009461E+04 0.  0.
        3    1    3    3  502    0 -0.35020756572E+03 -0.29485666766E+03 -0.46902572527E+03  0.65541661157E+03  0.10100000352E+00 0. -1.
       -3    1    3    3    0  502  0.35020756572E+03  0.29485666766E+03  0.16366643555E+03  0.48618155649E+03  0.10100000352E+00 0.  1.
</event>
<event>
 5   0  0.1479573E-03  0.1095729E+04  0.7818609E-02  0.9209365E-01
       -1   -1    0    0    0  501  0.00000000000E+00  0.00000000000E+00  0.26927777378E+03  0.26927777383E+03  0.50400001928E-02 0.  1.
        1   -1    0    0  501    0  0.00000000000E+00  0.00000000000E+00 -0.11146685227E+04  0.11146685227E+04  0.50400001928E-02 0. -1.
    10030    2    1    2    0    0  0.00000000000E+00  0.00000000000E+00 -0.84539074894E+03  0.13839462966E+04  0.10957289051E+04 0.  0.
        4    1    3    3  502    0  0.48173817961E+03 -0.34340413278E+02 -0.74938746223E+03  0.89153469878E+03  0.12699999809E+01 0. -1.
       -4    1    3    3    0  502 -0.48173817961E+03  0.34340413278E+02 -0.96003286717E+02  0.49241159779E+03  0.12699999809E+01 0.  1.
</event>
<event>
 5   0  0.2483036E-03  0.1094235E+04  0.7818609E-02  0.9210829E-01
       -2   -1    0    0    0  501  0.00000000000E+00  0.00000000000E+00  0.18685967911E+03  0.18685967913E+03  0.25500000920E-02 0.  1.
        2   -1    0    0  501    0  0.00000000000E+00  0.00000000000E+00 -0.16019365501E+04  0.16019365501E+04  0.25500000920E-02 0. -1.
    10030    2    1    2    0    0  0.00000000000E+00  0.00000000000E+00 -0.14150768710E+04  0.17887962293E+04  0.10942346179E+04 0.  0.
        3    1    3    3  502    0  0.18609329354E+03  0.10617706276E+03 -0.15305047357E+04  0.15454284321E+04  0.10100000352E+00 0. -1.
       -3    1    3    3    0  502 -0.18609329354E+03 -0.10617706276E+03  0.11542786467E+03  0.24336779717E+03  0.10100000352E+00 0.  1.
</event>
<event>
 5   0  0.2438115E-03  0.1100618E+04  0.7818609E-02  0.9204590E-01
       -2   -1    0    0    0  501  0.00000000000E+00  0.00000000000E+00  0.50941929469E+03  0.50941929469E+03  0.25500000920E-02 0.  1.
        2   -1    0    0  501    0  0.00000000000E+00  0.00000000000E+00 -0.59448053502E+03  0.59448053502E+03  0.25500000920E-02 0. -1.
    10030    2    1    2    0    0  0.00000000000E+00  0.00000000000E+00 -0.85061240333E+02  0.11038998297E+04  0.11006177445E+04 0.  0.
        4    1    3    3  502    0 -0.25732261729E+03  0.12614402409E+03 -0.51373046965E+03  0.58825832126E+03  0.12699999809E+01 0. -1.
       -4    1    3    3    0  502  0.25732261729E+03 -0.12614402409E+03  0.42866922931E+03  0.51564150846E+03  0.12699999809E+01 0.  1.
</event>
<event>
 5   0  0.2488472E-03  0.1102129E+04  0.7818609E-02  0.9203120E-01
        2   -1    0    0  501    0  0.00000000000E+00  0.00000000000E+00  0.10216519812E+04  0.10216519812E+04  0.25500000920E-02 0. -1.
       -2   -1    0    0    0  501  0.00000000000E+00  0.00000000000E+00 -0.29723614556E+03  0.29723614557E+03  0.25500000920E-02 0.  1.
    10030    2    1    2    0    0  0.00000000000E+00  0.00000000000E+00  0.72441583568E+03  0.13188881268E+04  0.11021286622E+04 0.  0.
        2    1    3    3  502    0 -0.13680796339E+03  0.33065682186E+03 -0.13928471518E+03  0.38399294861E+03  0.25500000920E-02 0.  1.
       -2    1    3    3    0  502  0.13680796339E+03 -0.33065682186E+03  0.86370055086E+03  0.93489517822E+03  0.25500000920E-02 0. -1.
</event>
<event>
 5   0  0.2488472E-03  0.1097023E+04  0.7818609E-02  0.9208099E-01
       -2   -1    0    0    0  501  0.00000000000E+00  0.00000000000E+00  0.47713825861E+03  0.47713825861E+03  0.25500000920E-02 0. -1.
        2   -1    0    0  501    0  0.00000000000E+00  0.00000000000E+00 -0.63056061282E+03  0.63056061282E+03  0.25500000920E-02 0.  1.
    10030    2    1    2    0    0  0.00000000000E+00  0.00000000000E+00 -0.15342235421E+03  0.11076988714E+04  0.10970225025E+04 0.  0.
        2    1    3    3  502    0 -0.48683174849E+03  0.13612130745E+03 -0.29169268348E+03  0.58362555057E+03  0.25500000920E-02 0.  1.
       -2    1    3    3    0  502  0.48683174849E+03 -0.13612130745E+03  0.13827032927E+03  0.52407332086E+03  0.25500000920E-02 0. -1.
</event>
<event>
 5   0  0.1415400E-03  0.1109375E+04  0.7818609E-02  0.9196103E-01
        1   -1    0    0  501    0  0.00000000000E+00  0.00000000000E+00  0.13669873443E+04  0.13669873443E+04  0.50400001928E-02 0.  1.
       -1   -1    0    0    0  501  0.00000000000E+00  0.00000000000E+00 -0.22507743485E+03  0.22507743491E+03  0.50400001928E-02 0. -1.
    10030    2    1    2    0    0  0.00000000000E+00  0.00000000000E+00  0.11419099094E+04  0.15920647792E+04  0.11093746076E+04 0.  0.
        2    1    3    3  502    0  0.60788582412E+02  0.52101454734E+03  0.31213258303E+03  0.61039180834E+03  0.25500000920E-02 0. -1.
       -2    1    3    3    0  502 -0.60788582412E+02 -0.52101454734E+03  0.82977732638E+03  0.98167297084E+03  0.25500000920E-02 0.  1.
</event>
<event>
 5   0  0.2488472E-03  0.1102598E+04  0.7818609E-02  0.9202663E-01
        2   -1    0    0  501    0  0.00000000000E+00  0.00000000000E+00  0.48748432598E+03  0.48748432598E+03  0.25500000920E-02 0. -1.
       -2   -1    0    0    0  501  0.00000000000E+00  0.00000000000E+00 -0.62346767173E+03  0.62346767174E+03  0.25500000920E-02 0.  1.
    10030    2    1    2    0    0  0.00000000000E+00  0.00000000000E+00 -0.13598334576E+03  0.11109519977E+04  0.11025982364E+04 0.  0.
        2    1    3    3  502    0  0.28878579093E+03  0.25810222496E+03 -0.46328629814E+03  0.60386106483E+03  0.25500000920E-02 0.  1.
       -2    1    3    3    0  502 -0.28878579093E+03 -0.25810222496E+03  0.32730295238E+03  0.50709093289E+03  0.25500000920E-02 0. -1.
</event>
<event>
 5   0  0.2392585E-03  0.1087623E+04  0.7818609E-02  0.9217340E-01
        2   -1    0    0  501    0  0.00000000000E+00  0.00000000000E+00  0.67443900440E+03  0.67443900441E+03  0.25500000920E-02 0.  1.
       -2   -1    0    0    0  501  0.00000000000E+00  0.00000000000E+00 -0.43848466800E+03  0.43848466801E+03  0.25500000920E-02 0. -1.
    10030    2    1    2    0    0  0.00000000000E+00  0.00000000000E+00  0.23595433640E+03  0.11129236724E+04  0.10876233961E+04 0.  0.
        5    1    3    3  502    0 -0.30116859950E+03 -0.29163374687E+03 -0.23642663958E+03  0.48132360584E+03  0.46999998093E+01 0. -1.
       -5    1    3    3    0  502  0.30116859950E+03  0.29163374687E+03  0.47238097598E+03  0.63160006658E+03  0.46999998093E+01 0.  1.
</event>
<event>
 5   0  0.2392585E-03  0.1104310E+04  0.7818609E-02  0.9201001E-01
       -2   -1    0    0    0  501  0.00000000000E+00  0.00000000000E+00  0.22968636442E+03  0.22968636443E+03  0.25500000920E-02 0. -1.
        2   -1    0    0  501    0  0.00000000000E+00  0.00000000000E+00 -0.13273549120E+04  0.13273549120E+04  0.25500000920E-02 0.  1.
    10030    2    1    2    0    0  0.00000000000E+00  0.00000000000E+00 -0.10976685476E+04  0.15570412764E+04  0.11043103260E+04 0.  0.
        5    1    3    3  502    0 -0.64477215128E+02  0.69334690519E+02 -0.13157950012E+04  0.13192055131E+04  0.46999998093E+01 0.  1.
       -5    1    3    3    0  502  0.64477215128E+02 -0.69334690519E+02  0.21812645360E+03  0.23783576337E+03  0.46999998093E+01 0. -1.
</event>
<event>
 5   0  0.2483036E-03  0.1100192E+04  0.7818609E-02  0.9205004E-01
        2   -1    0    0  501    0  0.00000000000E+00  0.00000000000E+00  0.18717680047E+04  0.18717680047E+04  0.25500000920E-02 0.  1.
       -2   -1    0    0    0  501  0.00000000000E+00  0.00000000000E+00 -0.16166845354E+03  0.16166845356E+03  0.25500000920E-02 0. -1.
    10030    2    1    2    0    0  0.00000000000E+00  0.00000000000E+00  0.17100995512E+04  0.20334364583E+04  0.11001924172E+04 0.  0.
        3    1    3    3  502    0  0.25492545122E+03  0.88697333130E+02 -0.30863593045E+02  0.27167402187E+03  0.10100000352E+00 0. -1.
       -3    1    3    3    0  502 -0.25492545122E+03 -0.88697333130E+02  0.17409631442E+04  0.17617624364E+04  0.10100000352E+00 0.  1.
</event>
<event>
 5   0  0.1468556E-03  0.1163520E+04  0.7818609E-02  0.9145401E-01
       -1   -1    0    0    0  501  0.00000000000E+00  0.00000000000E+00  0.41068452655E+03  0.41068452658E+03  0.50400001928E-02 0.  1.
        1   -1    0    0  501    0  0.00000000000E+00  0.00000000000E+00 -0.82409881022E+03  0.82409881023E+03  0.50400001928E-02 0. -1.
    10030    2    1    2    0    0  0.00000000000E+00  0.00000000000E+00 -0.41341428367E+03  0.12347833368E+04  0.11635198833E+04 0.  0.
        5    1    3    3  502    0  0.16820557310E+03  0.42594014374E+03 -0.58743414449E+03  0.74486178918E+03  0.46999998093E+01 0. -1.
       -5    1    3    3    0  502 -0.16820557310E+03 -0.42594014374E+03  0.17401986083E+03  0.48992154763E+03  0.46999998093E+01 0.  1.
</event>
<event>
 5   0  0.1480937E-03  0.1102343E+04  0.7818609E-02  0.9202911E-01
        1   -1    0    0  501    0  0.00000000000E+00  0.00000000000E+00  0.58289655205E+03  0.58289655207E+03  0.50400001928E-02 0.  1.
       -1   -1    0    0    0  501  0.00000000000E+00  0.00000000000E+00 -0.52117302950E+03  0.52117302952E+03  0.50400001928E-02 0. -1.
    10030    2    1    2    0    0  0.00000000000E+00  0.00000000000E+00  0.61723522550E+02  0.11040695816E+04  0.11023428903E+04 0.  0.
        1    1    3    3  502    0 -0.40344724080E+03 -0.37349848708E+03  0.69899292874E+02  0.55421720212E+03  0.50400001928E-02 0.  1.
       -1    1    3    3    0  502  0.40344724080E+03  0.37349848708E+03 -0.81757703242E+01  0.54985237947E+03  0.50400001928E-02 0. -1.
</event>
<event>
 5   0  0.2483036E-03  0.1096326E+04  0.7818609E-02  0.9208781E-01
        2   -1    0    0  501    0  0.00000000000E+00  0.00000000000E+00  0.67661835214E+03  0.67661835215E+03  0.25500000920E-02 0. -1.
       -2   -1    0    0    0  501  0.00000000000E+00  0.00000000000E+00 -0.44409451790E+03  0.44409451791E+03  0.25500000920E-02 0.  1.
    10030    2    1    2    0    0  0.00000000000E+00  0.00000000000E+00  0.23252383424E+03  0.11207128701E+04  0.10963256832E+04 0.  0.
        3    1    3    3  502    0  0.37220379680E+01 -0.14823524538E+03  0.65572711501E+03  0.67228386943E+03  0.10100000352E+00 0. -1.
       -3    1    3    3    0  502 -0.37220379680E+01  0.14823524538E+03 -0.42320328078E+03  0.44842900062E+03  0.10100000352E+00 0.  1.
</event>
<event>
 5   0  0.9631750E-04  0.1104685E+04  0.7818609E-02  0.9200637E-01
        4   -1    0    0  501    0  0.00000000000E+00  0.00000000000E+00  0.49492146828E+03  0.49492309772E+03  0.12699999809E+01 0. -1.
       -4   -1    0    0    0  501  0.00000000000E+00  0.00000000000E+00 -0.61642240980E+03  0.61642371807E+03  0.12699999809E+01 0.  1.
    10030    2    1    2    0    0  0.00000000000E+00  0.00000000000E+00 -0.12150094152E+03  0.11113468158E+04  0.11046851435E+04 0.  0.
        4    1    3    3  502    0  0.43174629305E+03  0.28327276033E+03 -0.25797447236E+03  0.57723544555E+03  0.12699999809E+01 0.  1.
       -4    1    3    3    0  502 -0.43174629305E+03 -0.28327276033E+03  0.13647353084E+03  0.53411137025E+03  0.12699999809E+01 0. -1.
</event>
<event>
 5   0  0.2438115E-03  0.1096673E+04  0.7818609E-02  0.9208441E-01
       -2   -1    0    0    0  501  0.00000000000E+00  0.00000000000E+00  0.39524806522E+03  0.39524806523E+03  0.25500000920E-02 0.  1.
        2   -1    0    0  501    0  0.00000000000E+00  0.00000000000E+00 -0.76071935756E+03  0.76071935756E+03  0.25500000920E-02 0. -1.
    10030    2    1    2    0    0  0.00000000000E+00  0.00000000000E+00 -0.36547129234E+03  0.11559674228E+04  0.10966728851E+04 0.  0.
        4    1    3    3  502    0  0.73247163794E+02 -0.32507881561E+03  0.27627403883E+03  0.43286295845E+03  0.12699999809E+01 0.  1.
       -4    1    3    3    0  502 -0.73247163794E+02  0.32507881561E+03 -0.64174533117E+03  0.72310446434E+03  0.12699999809E+01 0. -1.
</event>
<event>
 5   0  0.9631750E-04  0.1100844E+04  0.7818609E-02  0.9204370E-01
        3   -1    0    0  501    0  0.00000000000E+00  0.00000000000E+00  0.59994217868E+03  0.59994218718E+03  0.10100000352E+00 0. -1.
       -3   -1    0    0    0  501  0.00000000000E+00  0.00000000000E+00 -0.50498937326E+03  0.50498938336E+03  0.10100000352E+00 0.  1.
    10030    2    1    2    0    0  0.00000000000E+00  0.00000000000E+00  0.94952805421E+02  0.11049315705E+04  0.11008441036E+04 0.  0.
        3    1    3    3  502    0 -0.32253895414E+03 -0.36036746967E+03 -0.21630796480E+03  0.52979735368E+03  0.10100000352E+00 0.  1.
       -3    1    3    3    0  502  0.32253895414E+03  0.36036746967E+03  0.31126077022E+03  0.57513421686E+03  0.10100000352E+00 0. -1.
</event>
<event>
 5   0  0.1479573E-03  0.1103003E+04  0.7818609E-02  0.9202270E-01
        1   -1    0    0  501    0  0.00000000000E+00  0.00000000000E+00  0.39844086249E+03  0.39844086252E+03  0.50400001928E-02 0.  1.
       -1   -1    0    0    0  501  0.00000000000E+00  0.00000000000E+00 -0.76336029545E+03  0.76336029546E+03  0.50400001928E-02 0. -1.
    10030    2    1    2    0    0  0.00000000000E+00  0.00000000000E+00 -0.36491943296E+03  0.11618011580E+04  0.11030030545E+04 0.  0.
        4    1    3    3  502    0 -0.12977471310E+03  0.82331040124E+02 -0.74034722655E+03  0.75613193629E+03  0.12699999809E+01 0. -1.
       -4    1    3    3    0  502  0.12977471310E+03 -0.82331040124E+02  0.37542779359E+03  0.40566922169E+03  0.12699999809E+01 0.  1.
</event>
<event>
 5   0  0.2438115E-03  0.1097479E+04  0.7818609E-02  0.9207652E-01
        2   -1    0    0  501    0  0.00000000000E+00  0.00000000000E+00  0.14863955661E+04  0.14863955661E+04  0.25500000920E-02 0. -1.
       -2   -1    0    0    0  501  0.00000000000E+00  0.00000000000E+00 -0.20258069465E+03  0.20258069467E+03  0.25500000920E-02 0.  1.
    10030    2    1    2    0    0  0.00000000000E+00  0.00000000000E+00  0.12838148715E+04  0.16889762608E+04  0.10974790136E+04 0.  0.
        4    1    3    3  502    0 -0.20110693365E+03 -0.35203181884E+02 -0.14195086526E+03  0.24866629009E+03  0.12699999809E+01 0.  1.
       -4    1    3    3    0  502  0.20110693365E+03  0.35203181884E+02  0.14257657367E+04  0.14403099707E+04  0.12699999809E+01 0. -1.
</event>
<event>
 5   0  0.2467448E-03  0.1097507E+04  0.7818609E-02  0.9207625E-01
        2   -1    0    0  501    0  0.00000000000E+00  0.00000000000E+00  0.15609467475E+04  0.15609467475E+04  0.25500000920E-02 0.  1.
       -2   -1    0    0    0  501  0.00000000000E+00  0.00000000000E+00 -0.19291530125E+03  0.19291530126E+03  0.25500000920E-02 0. -1.
    10030    2    1    2    0    0  0.00000000000E+00  0.00000000000E+00  0.13680314463E+04  0.17538620488E+04  0.10975071973E+04 0.  0.
        1    1    3    3  502    0 -0.11713124747E+03 -0.13597592015E+02  0.15404614451E+04  0.15449679892E+04  0.50400001928E-02 0.  1.
       -1    1    3    3    0  502  0.11713124747E+03  0.13597592015E+02 -0.17242999881E+03  0.20889405965E+03  0.50400001928E-02 0. -1.
</event>
<event>
 5   0  0.2488472E-03  0.1066713E+04  0.7818609E-02  0.9238257E-01
       -2   -1    0    0    0  501  0.00000000000E+00  0.00000000000E+00  0.24726035987E+03  0.24726035988E+03  0.25500000920E-02 0. -1.
        2   -1    0    0  501    0  0.00000000000E+00  0.00000000000E+00 -0.11504832441E+04  0.11504832441E+04  0.25500000920E-02 0.  1.
    10030    2    1    2    0    0  0.00000000000E+00  0.00000000000E+00 -0.90322288427E+03  0.13977436040E+04  0.10667125217E+04 0.  0.
        2    1    3    3  502    0  0.34795281964E+03  0.38666010149E+03 -0.60605075217E+03  0.79867059104E+03  0.25500000920E-02 0. -1.
       -2    1    3    3    0  502 -0.34795281964E+03 -0.38666010149E+03 -0.29717213211E+03  0.59907301299E+03  0.25500000920E-02 0.  1.
</event>
<event>
 5   0  0.1509004E-03  0.1102646E+04  0.7818609E-02  0.9202617E-01
       -1   -1    0    0    0  501  0.00000000000E+00  0.00000000000E+00  0.34909214308E+03  0.34909214312E+03  0.50400001928E-02 0.  1.
        1   -1    0    0  501    0  0.00000000000E+00  0.00000000000E+00 -0.87070654907E+03  0.87070654909E+03  0.50400001928E-02 0. -1.
    10030    2    1    2    0    0  0.00000000000E+00  0.00000000000E+00 -0.52161440599E+03  0.12197986922E+04  0.11026455736E+04 0.  0.
        3    1    3    3  502    0  0.30352441724E+03  0.45403340999E+03 -0.17740909930E+03  0.57423636942E+03  0.10100000352E+00 0. -1.
       -3    1    3    3    0  502 -0.30352441724E+03 -0.45403340999E+03 -0.34420530669E+03  0.64556232279E+03  0.10100000352E+00 0.  1.
</event>
<event>
 5   0  0.9631750E-04  0.1096176E+04  0.7818609E-02  0.9208927E-01
       -3   -1    0    0    0  501  0.00000000000E+00  0.00000000000E+00  0.32669407350E+03  0.32669408911E+03  0.10100000352E+00 0. -1.
        3   -1    0    0  501    0  0.00000000000E+00  0.00000000000E+00 -0.91951677452E+03  0.91951678006E+03  0.10100000352E+00 0.  1.
    10030    2    1    2    0    0  0.00000000000E+00  0.00000000000E+00 -0.59282270102E+03  0.12462108692E+04  0.10961764345E+04 0.  0.
        1    1    3    3  502    0  0.10783296468E+03 -0.53458599202E+03 -0.35858230460E+03  0.65268016696E+03  0.50400001928E-02 0. -1.
       -1    1    3    3    0  502 -0.10783296468E+03  0.53458599202E+03 -0.23424039641E+03  0.59353070222E+03  0.50400001928E-02 0.  1.
</event>
<event>
 5   0  0.1479573E-03  0.1099214E+04  0.7818609E-02  0.9205958E-01
       -1   -1    0    0    0  501  0.00000000000E+00  0.00000000000E+00  0.46065688541E+03  0.46065688544E+03  0.50400001928E-02 0. -1.
        1   -1    0    0  501    0  0.00000000000E+00  0.00000000000E+00 -0.65573316229E+03  0.65573316231E+03  0.50400001928E-02 0.  1.
    10030    2    1    2    0    0  0.00000000000E+00  0.00000000000E+00 -0.19507627688E+03  0.11163900477E+04  0.10992142580E+04 0.  0.
        4    1    3    3  502    0  0.24255779622E+02  0.12348811339E+03  0.44582504949E+03  0.46324857759E+03  0.12699999809E+01 0. -1.
       -4    1    3    3    0  502 -0.24255779622E+02 -0.12348811339E+03 -0.64090132637E+03  0.65314147015E+03  0.12699999809E+01 0.  1.
</event>
<event>
 5   0  0.1415400E-03  0.1123165E+04  0.7818609E-02  0.9182904E-01
       -1   -1    0    0    0  501  0.00000000000E+00  0.00000000000E+00  0.18518911269E+04  0.18518911269E+04  0.50400001928E-02 0.  1.
        1   -1    0    0  501    0  0.00000000000E+00  0.00000000000E+00 -0.17029868634E+03  0.17029868642E+03  0.50400001928E-02 0. -1.
    10030    2    1    2    0    0  0.00000000000E+00  0.00000000000E+00  0.16815924405E+04  0.20221898133E+04  0.11231645048E+04 0.  0.
        2    1    3    3  502    0 -0.46227852491E+02 -0.73372936321E+02 -0.15817037427E+03  0.18038422723E+03  0.25500000920E-02 0. -1.
       -2    1    3    3    0  502  0.46227852491E+02  0.73372936321E+02  0.18397628148E+04  0.18418055861E+04  0.25500000920E-02 0.  1.
</event>
<event>
 5   0  0.2488472E-03  0.1100633E+04  0.7818609E-02  0.9204576E-01
        2   -1    0    0  501    0  0.00000000000E+00  0.00000000000E+00  0.75619815545E+03  0.75619815545E+03  0.25500000920E-02 0.  1.
       -2   -1    0    0    0  501  0.00000000000E+00  0.00000000000E+00 -0.40048765406E+03  0.40048765406E+03  0.25500000920E-02 0. -1.
    10030    2    1    2    0    0  0.00000000000E+00  0.00000000000E+00  0.35571050139E+03  0.11566858095E+04  0.11006325913E+04 0.  0.
        2    1    3    3  502    0  0.19468277881E+03  0.34862972328E+03  0.57582824836E+03  0.70072979096E+03  0.25500000920E-02 0.  1.
       -2    1    3    3    0  502 -0.19468277881E+03 -0.34862972328E+03 -0.22011774697E+03  0.45595601856E+03  0.25500000920E-02 0. -1.
</event>
<event>
 5   0  0.2392585E-03  0.1077927E+04  0.7818609E-02  0.9226977E-01
        2   -1    0    0  501    0  0.00000000000E+00  0.00000000000E+00  0.14665413703E+04  0.14665413703E+04  0.25500000920E-02 0.  1.
       -2   -1    0    0    0  501  0.00000000000E+00  0.00000000000E+00 -0.19807260863E+03  0.19807260865E+03  0.25500000920E-02 0. -1.
    10030    2    1    2    0    0  0.00000000000E+00  0.00000000000E+00  0.12684687617E+04  0.16646139789E+04  0.10779270381E+04 0.  0.
        5    1    3    3  502    0  0.10648558219E+03  0.36953506869E+03  0.51152600248E+02  0.38798714504E+03  0.46999998093E+01 0. -1.
       -5    1    3    3    0  502 -0.10648558219E+03 -0.36953506869E+03  0.12173161614E+04  0.12766268339E+04  0.46999998093E+01 0.  1.
</event>
<event>
 5   0  0.1480937E-03  0.1103002E+04  0.7818609E-02  0.9202271E-01
       -1   -1    0    0    0  501  0.00000000000E+00  0.00000000000E+00  0.27102455677E+03  0.27102455681E+03  0.50400001928E-02 0. -1.
        1   -1    0    0  501    0  0.00000000000E+00  0.00000000000E+00 -0.11222360120E+04  0.11222360120E+04  0.50400001928E-02 0.  1.
    10030    2    1    2    0    0  0.00000000000E+00  0.00000000000E+00 -0.85121145527E+03  0.13932605689E+04  0.11030022988E+04 0.  0.
        1    1    3    3  502    0  0.10738094102E+03  0.25417750676E+03 -0.10287749953E+04  0.10651360769E+04  0.50400001928E-02 0.  1.
       -1    1    3    3    0  502 -0.10738094102E+03 -0.25417750676E+03  0.17756354001E+03  0.32812449193E+03  0.50400001928E-02 0. -1.
</event>
<event>
 5   0  0.2467448E-03  0.1105641E+04  0.7818609E-02  0.9199711E-01
       -2   -1    0    0    0  501  0.00000000000E+00  0.00000000000E+00  0.20349199114E+03  0.20349199116E+03  0.25500000920E-02 0. -1.
        2   -1    0    0  501    0  0.00000000000E+00  0.00000000000E+00 -0.15018318718E+04  0.15018318718E+04  0.25500000920E-02 0.  1.
    10030    2    1    2    0    0  0.00000000000E+00  0.00000000000E+00 -0.12983398806E+04  0.17053238629E+04  0.11056414572E+04 0.  0.
        1    1    3    3  502    0  0.10968422107E+03 -0.48054310187E+03 -0.10352544719E+04  0.11466054782E+04  0.50400001928E-02 0.  1.
       -1    1    3    3    0  502 -0.10968422107E+03  0.48054310187E+03 -0.26308540877E+03  0.55871838473E+03  0.50400001928E-02 0. -1.
</event>
<event>
 5   0  0.1479573E-03  0.1093674E+04  0.7818609E-02  0.9211380E-01
       -1   -1    0    0    0  501  0.00000000000E+00  0.00000000000E+00  0.44754182756E+03  0.44754182759E+03  0.50400001928E-02 0. -1.
        1   -1    0    0  501    0  0.00000000000E+00  0.00000000000E+00 -0.66816231654E+03  0.66816231656E+03  0.50400001928E-02 0.  1.
    10030    2    1    2    0    0  0.00000000000E+00  0.00000000000E+00 -0.22062048898E+03  0.11157041441E+04  0.10936737800E+04 0.  0.
        4    1    3    3  502    0 -0.50876881503E+03  0.19024208475E+03 -0.45861609851E+02  0.54510793254E+03  0.12699999809E+01 0. -1.
       -4    1    3    3    0  502  0.50876881503E+03 -0.19024208475E+03 -0.17475887913E+03  0.57059621160E+03  0.12699999809E+01 0.  1.
</event>
<event>
 5   0  0.2392585E-03  0.1102647E+04  0.7818609E-02  0.9202616E-01
       -2   -1    0    0    0  501  0.00000000000E+00  0.00000000000E+00  0.14278341801E+03  0.14278341803E+03  0.25500000920E-02 0. -1.
        2   -1    0    0  501    0  0.00000000000E+00  0.00000000000E+00 -0.21288002084E+04  0.21288002084E+04  0.25500000920E-02 0.  1.
    10030    2    1    2    0    0  0.00000000000E+00  0.00000000000E+00 -0.19860167904E+04  0.22715836264E+04  0.11026465799E+04 0.  0.
        5    1    3    3  502    0  0.40697443104E+03 -0.22878857296E+02 -0.22830813454E+03  0.46722406180E+03  0.46999998093E+01 0. -1.
       -5    1    3    3    0  502 -0.40697443104E+03  0.22878857296E+02 -0.17577086559E+04  0.18043595646E+04  0.46999998093E+01 0.  1.
</event>
<event>
 5   0  0.2438115E-03  0.1105845E+04  0.7818609E-02  0.9199514E-01
        2   -1    0    0  501    0  0.00000000000E+00  0.00000000000E+00  0.76426198124E+03  0.76426198124E+03  0.25500000920E-02 0. -1.
       -2   -1    0    0    0  501  0.00000000000E+00  0.00000000000E+00 -0.40002399863E+03  0.40002399864E+03  0.25500000920E-02 0.  1.
    10030    2    1    2    0    0  0.00000000000E+00  0.00000000000E+00  0.36423798261E+03  0.11642859799E+04  0.11058447156E+04 0.  0.
        4    1    3    3  502    0 -0.50824892678E+03  0.16330812587E+03  0.30512570026E+02  0.53471407815E+03  0.12699999809E+01 0.  1.
       -4    1    3    3    0  502  0.50824892678E+03 -0.16330812587E+03  0.33372541258E+03  0.62957190173E+03  0.12699999809E+01 0. -1.
</event>
<event>
 5   0  0.2392585E-03  0.1115391E+04  0.7818609E-02  0.9190319E-01
        2   -1    0    0  501    0  0.00000000000E+00  0.00000000000E+00  0.23070043252E+04  0.23070043252E+04  0.25500000920E-02 0.  1.
       -2   -1    0    0    0  501  0.00000000000E+00  0.00000000000E+00 -0.13481742608E+03  0.13481742610E+03  0.25500000920E-02 0. -1.
    10030    2    1    2    0    0  0.00000000000E+00  0.00000000000E+00  0.21721868991E+04  0.24418217513E+04  0.11153912051E+04 0.  0.
        5    1    3    3  502    0  0.32637840872E+03 -0.21378573975E+03  0.19584176516E+04  0.19969098618E+04  0.46999998093E+01 0.  1.
       -5    1    3    3    0  502 -0.32637840872E+03  0.21378573975E+03  0.21376924751E+03  0.44491188945E+03  0.46999998093E+01 0. -1.
</event>
<event>
 5   0  0.2392585E-03  0.1090838E+04  0.7818609E-02  0.9214168E-01
        2   -1    0    0  501    0  0.00000000000E+00  0.00000000000E+00  0.42331639297E+03  0.42331639297E+03  0.25500000920E-02 0. -1.
       -2   -1    0    0    0  501  0.00000000000E+00  0.00000000000E+00 -0.70274086146E+03  0.70274086147E+03  0.25500000920E-02 0.  1.
    10030    2    1    2    0    0  0.00000000000E+00  0.00000000000E+00 -0.27942446849E+03  0.11260572544E+04  0.10908377087E+04 0.  0.
        5    1    3    3  502    0  0.12343324482E+03 -0.22144661326E+03  0.35877137789E+03  0.43933285791E+03  0.46999998093E+01 0. -1.
       -5    1    3    3    0  502 -0.12343324482E+03  0.22144661326E+03 -0.63819584638E+03  0.68672439653E+03  0.46999998093E+01 0.  1.
</event>
<event>
 5   0  0.9631750E-04  0.1027348E+04  0.7818609E-02  0.9279049E-01
       -4   -1    0    0    0  501  0.00000000000E+00  0.00000000000E+00  0.63025258701E+03  0.63025386657E+03  0.12699999809E+01 0.  1.
        4   -1    0    0  501    0  0.00000000000E+00  0.00000000000E+00 -0.41865619184E+03  0.41865811812E+03  0.12699999809E+01 0. -1.
    10030    2    1    2    0    0  0.00000000000E+00  0.00000000000E+00  0.21159639516E+03  0.10489119847E+04  0.10273477100E+04 0.  0.
        2    1    3    3  502    0  0.17072343973E+03 -0.28765987962E+03 -0.29221272672E+03  0.44416548366E+03  0.25500000920E-02 0. -1.
       -2    1    3    3    0  502 -0.17072343973E+03  0.28765987962E+03  0.50380912188E+03  0.60474650103E+03  0.25500000920E-02 0.  1.
</event>
<event>
 5   0  0.2467448E-03  0.1035621E+04  0.7818609E-02  0.9270317E-01
        2   -1    0    0  501    0  0.00000000000E+00  0.00000000000E+00  0.13673135828E+04  0.13673135828E+04  0.25500000920E-02 0. -1.
       -2   -1    0    0    0  501  0.00000000000E+00  0.00000000000E+00 -0.19609812968E+03  0.19609812969E+03  0.25500000920E-02 0.  1.
    10030    2    1    2    0    0  0.00000000000E+00  0.00000000000E+00  0.11712154531E+04  0.15634117125E+04  0.10356208501E+04 0.  0.
        1    1    3    3  502    0 -0.33598562343E+03 -0.39783785757E+02  0.11773749916E+04  0.12250228405E+04  0.50400001928E-02 0. -1.
       -1    1    3    3    0  502  0.33598562343E+03  0.39783785757E+02 -0.61595385042E+01  0.33838887201E+03  0.50400001928E-02 0.  1.
</event>
<event>
 5   0  0.1415400E-03  0.1098521E+04  0.7818609E-02  0.9206634E-01
       -1   -1    0    0    0  501  0.00000000000E+00  0.00000000000E+00  0.18210347262E+03  0.18210347269E+03  0.50400001928E-02 0.  1.
        1   -1    0    0  501    0  0.00000000000E+00  0.00000000000E+00 -0.16566806863E+04  0.16566806863E+04  0.50400001928E-02 0. -1.
    10030    2    1    2    0    0  0.00000000000E+00  0.00000000000E+00 -0.14745772137E+04  0.18387841590E+04  0.10985213809E+04 0.  0.
        2    1    3    3  502    0  0.29607972578E+03  0.53259411979E+02  0.31941692160E+02  0.30252279366E+03  0.25500000920E-02 0.  1.
       -2    1    3    3    0  502 -0.29607972578E+03 -0.53259411979E+02 -0.15065189058E+04  0.15362613653E+04  0.25500000920E-02 0. -1.
</event>
<event>
 5   0  0.2438115E-03  0.1104561E+04  0.7818609E-02  0.9200758E-01
        2   -1    0    0  501    0  0.00000000000E+00  0.00000000000E+00  0.99796026688E+03  0.99796026688E+03  0.25500000920E-02 0.  1.
       -2   -1    0    0    0  501  0.00000000000E+00  0.00000000000E+00 -0.30563703436E+03  0.30563703437E+03  0.25500000920E-02 0. -1.
    10030    2    1    2    0    0  0.00000000000E+00  0.00000000000E+00  0.69232323252E+03  0.13035973013E+04  0.11045607568E+04 0.  0.
        4    1    3    3  502    0  0.32340660955E+02  0.42277233152E+03 -0.71483503315E+02  0.42999286831E+03  0.12699999809E+01 0. -1.
       -4    1    3    3    0  502 -0.32340660955E+02 -0.42277233152E+03  0.76380673584E+03  0.87360443294E+03  0.12699999809E+01 0.  1.
</event>
<event>
 5   0  0.1509004E-03  0.1098275E+04  0.7818609E-02  0.9206875E-01
        1   -1    0    0  501    0  0.00000000000E+00  0.00000000000E+00  0.76825224842E+03  0.76825224844E+03  0.50400001928E-02 0. -1.
       -1   -1    0    0    0  501  0.00000000000E+00  0.00000000000E+00 -0.39251702759E+03  0.39251702762E+03  0.50400001928E-02 0.  1.
    10030    2    1    2    0    0  0.00000000000E+00  0.00000000000E+00  0.37573522083E+03  0.11607692761E+04  0.10982751732E+04 0.  0.
        3    1    3    3  502    0 -0.83009823190E+02 -0.42755509835E+03 -0.16561530631E+03  0.46596398225E+03  0.10100000352E+00 0.  1.
       -3    1    3    3    0  502  0.83009823190E+02  0.42755509835E+03  0.54135052714E+03  0.69480529381E+03  0.10100000352E+00 0. -1.
</event>
<event>
 5   0  0.2483036E-03  0.1064285E+04  0.7818609E-02  0.9240719E-01
        2   -1    0    0  501    0  0.00000000000E+00  0.00000000000E+00  0.11123529857E+04  0.11123529857E+04  0.25500000920E-02 0.  1.
       -2   -1    0    0    0  501  0.00000000000E+00  0.00000000000E+00 -0.25457354139E+03  0.25457354140E+03  0.25500000920E-02 0. -1.
    10030    2    1    2    0    0  0.00000000000E+00  0.00000000000E+00  0.85777944429E+03  0.13669265271E+04  0.10642849973E+04 0.  0.
        3    1    3    3  502    0 -0.12839848743E+03 -0.14828761508E+03  0.10642271339E+04  0.10821528501E+04  0.10100000352E+00 0.  1.
       -3    1    3    3    0  502  0.12839848743E+03  0.14828761508E+03 -0.20644768957E+03  0.28477367696E+03  0.10100000352E+00 0. -1.
</event>
<event>
 5   0  0.1479573E-03  0.1113342E+04  0.7818609E-02  0.9192284E-01
       -1   -1    0    0    0  501  0.00000000000E+00  0.00000000000E+00  0.62862826283E+03  0.62862826285E+03  0.50400001928E-02 0.  1.
        1   -1    0    0  501    0  0.00000000000E+00  0.00000000000E+00 -0.49295078487E+03  0.49295078489E+03  0.50400001928E-02 0. -1.
    10030    2    1    2    0    0  0.00000000000E+00  0.00000000000E+00  0.13567747796E+03  0.11215790477E+04  0.11133423473E+04 0.  0.
        4    1    3    3  502    0  0.44365483710E+03  0.25304802508E+03  0.29087738905E+03  0.58777052141E+03  0.12699999809E+01 0.  1.
       -4    1    3    3    0  502 -0.44365483710E+03 -0.25304802508E+03 -0.15519991109E+03  0.53380852633E+03  0.12699999809E+01 0. -1.
</event>
<event>
 5   0  0.2467448E-03  0.1091727E+04  0.7818609E-02  0.9213293E-01
       -2   -1    0    0    0  501  0.00000000000E+00  0.00000000000E+00  0.10599582500E+04  0.10599582500E+04  0.25500000920E-02 0.  1.
        2   -1    0    0  501    0  0.00000000000E+00  0.00000000000E+00 -0.28111205169E+03  0.28111205170E+03  0.25500000920E-02 0. -1.
    10030    2    1    2    0    0  0.00000000000E+00  0.00000000000E+00  0.77884619832E+03  0.13410703017E+04  0.10917271424E+04 0.  0.
        1    1    3    3  502    0  0.13851882398E+02 -0.54549809104E+03  0.40709644593E+03  0.68079920556E+03  0.50400001928E-02 0.  1.
       -1    1    3    3    0  502 -0.13851882398E+02  0.54549809104E+03  0.37174975239E+03  0.66027109615E+03  0.50400001928E-02 0. -1.
</event>
<event>
 5   0  0.1468556E-03  0.1101614E+04  0.7818609E-02  0.9203620E-01
        1   -1    0    0  501    0  0.00000000000E+00  0.00000000000E+00  0.15121725206E+04  0.15121725206E+04  0.50400001928E-02 0. -1.
       -1   -1    0    0    0  501  0.00000000000E+00  0.00000000000E+00 -0.20063079693E+03  0.20063079700E+03  0.50400001928E-02 0.  1.
    10030    2    1    2    0    0  0.00000000000E+00  0.00000000000E+00  0.13115417236E+04  0.17128033176E+04  0.11016140485E+04 0.  0.
        5    1    3    3  502    0  0.79039026866E+02 -0.54438749342E+03  0.69867290411E+03  0.88925296046E+03  0.46999998093E+01 0.  1.
       -5    1    3    3    0  502 -0.79039026866E+02  0.54438749342E+03  0.61286881953E+03  0.82355035712E+03  0.46999998093E+01 0. -1.
</event>
<event>
 5   0  0.1479573E-03  0.1102221E+04  0.7818609E-02  0.9203030E-01
        1   -1    0    0  501    0  0.00000000000E+00  0.00000000000E+00  0.18233735720E+04  0.18233735720E+04  0.50400001928E-02 0. -1.
       -1   -1    0    0    0  501  0.00000000000E+00  0.00000000000E+00 -0.16657176637E+03  0.16657176644E+03  0.50400001928E-02 0.  1.
    10030    2    1    2    0    0  0.00000000000E+00  0.00000000000E+00  0.16568018056E+04  0.19899453384E+04  0.11022205890E+04 0.  0.
        4    1    3    3  502    0 -0.30506092579E+03  0.66894059709E+01  0.16569462332E+04  0.16848084013E+04  0.12699999809E+01 0. -1.
       -4    1    3    3    0  502  0.30506092579E+03 -0.66894059709E+01 -0.14442762994E+00  0.30513693705E+03  0.12699999809E+01 0.  1.
</event>
<event>
 5   0  0.2483036E-03  0.1104293E+04  0.7818609E-02  0.9201018E-01
        2   -1    0    0  501    0  0.00000000000E+00  0.00000000000E+00  0.14208600365E+04  0.14208600365E+04  0.25500000920E-02 0. -1.
       -2   -1    0    0    0  501  0.00000000000E+00  0.00000000000E+00 -0.21456412966E+03  0.21456412968E+03  0.25500000920E-02 0.  1.
    10030    2    1    2    0    0  0.00000000000E+00  0.00000000000E+00  0.12062959068E+04  0.16354241662E+04  0.11042927096E+04 0.  0.
        3    1    3    3  502    0 -0.50120867084E+03 -0.39504169247E+02  0.26512693229E+03  0.56838632244E+03  0.10100000352E+00 0.  1.
       -3    1    3    3    0  502  0.50120867084E+03  0.39504169247E+02  0.94116897452E+03  0.10670378437E+04  0.10100000352E+00 0. -1.
</event>
<event>
 5   0  0.1468556E-03  0.1094012E+04  0.7818609E-02  0.9211047E-01
        1   -1    0    0  501    0  0.00000000000E+00  0.00000000000E+00  0.99363511204E+03  0.99363511206E+03  0.50400001928E-02 0.  1.
       -1   -1    0    0    0  501  0.00000000000E+00  0.00000000000E+00 -0.30113249514E+03  0.30113249518E+03  0.50400001928E-02 0. -1.
    10030    2    1    2    0    0  0.00000000000E+00  0.00000000000E+00  0.69250261690E+03  0.12947676072E+04  0.10940124690E+04 0.  0.
        5    1    3    3  502    0 -0.45273008759E+03 -0.23494996813E+03  0.11244507099E+03  0.52233323054E+03  0.46999998093E+01 0. -1.
       -5    1    3    3    0  502  0.45273008759E+03  0.23494996813E+03  0.58005754592E+03  0.77243437670E+03  0.46999998093E+01 0.  1.
</event>
<event>
 5   0  0.1509004E-03  0.1098531E+04  0.7818609E-02  0.9206625E-01
       -1   -1    0    0    0  501  0.00000000000E+00  0.00000000000E+00  0.24557846378E+03  0.24557846383E+03  0.50400001928E-02 0.  1.
        1   -1    0    0  501    0  0.00000000000E+00  0.00000000000E+00 -0.12284968501E+04  0.12284968501E+04  0.50400001928E-02 0. -1.
    10030    2    1    2    0    0  0.00000000000E+00  0.00000000000E+00 -0.98291838628E+03  0.14740753139E+04  0.10985305990E+04 0.  0.
        3    1    3    3  502    0 -0.25707756054E+03 -0.61479822503E+02 -0.11375394180E+04  0.11678461279E+04  0.10100000352E+00 0.  1.
       -3    1    3    3    0  502  0.25707756054E+03  0.61479822503E+02  0.15462103172E+03  0.30622918601E+03  0.10100000352E+00 0. -1.
</event>
<event>
 5   0  0.1415400E-03  0.1104790E+04  0.7818609E-02  0.9200536E-01
       -1   -1    0    0    0  501  0.00000000000E+00  0.00000000000E+00  0.61541997206E+03  0.61541997208E+03  0.50400001928E-02 0.  1.
        1   -1    0    0  501    0  0.00000000000E+00  0.00000000000E+00 -0.49582449059E+03  0.49582449062E+03  0.50400001928E-02 0. -1.
    10030    2    1    2    0    0  0.00000000000E+00  0.00000000000E+00  0.11959548146E+03  0.11112444627E+04  0.11047901053E+04 0.  0.
        2    1    3    3  502    0 -0.47250288448E+03  0.31664090871E+02  0.34585101605E+03  0.58640814780E+03  0.25500000920E-02 0.  1.
       -2    1    3    3    0  502  0.47250288448E+03 -0.31664090871E+02 -0.22625553459E+03  0.52483631490E+03  0.25500000920E-02 0. -1.
</event>
<event>
 5   0  0.2488472E-03  0.1103847E+04  0.7818609E-02  0.9201450E-01
        2   -1    0    0  501    0  0.00000000000E+00  0.00000000000E+00  0.10015608794E+04  0.10015608794E+04  0.25500000920E-02 0. -1.
       -2   -1    0    0    0  501  0.00000000000E+00  0.00000000000E+00 -0.30414487773E+03  0.30414487774E+03  0.25500000920E-02 0.  1.
    10030    2    1    2    0    0  0.00000000000E+00  0.00000000000E+00  0.69741600168E+03  0.13057057572E+04  0.11038471112E+04 0.  0.
        2    1    3    3  502    0  0.42347115335E+03  0.64014173556E+02  0.76049906280E+03  0.87280264474E+03  0.25500000920E-02 0. -1.
       -2    1    3    3    0  502 -0.42347115335E+03 -0.64014173556E+02 -0.63083061123E+02  0.43290311242E+03  0.25500000920E-02 0.  1.
</event>
<event>
 5   0  0.1415400E-03  0.1099869E+04  0.7818609E-02  0.9205320E-01
        1   -1    0    0  501    0  0.00000000000E+00  0.00000000000E+00  0.15977887578E+04  0.15977887578E+04  0.50400001928E-02 0. -1.
       -1   -1    0    0    0  501  0.00000000000E+00  0.00000000000E+00 -0.18927903043E+03  0.18927903050E+03  0.50400001928E-02 0.  1.
    10030    2    1    2    0    0  0.00000000000E+00  0.00000000000E+00  0.14085097274E+04  0.17870677883E+04  0.10998689140E+04 0.  0.
        2    1    3    3  502    0 -0.54723395020E+03 -0.17011088111E+02  0.62024255446E+03  0.82731807653E+03  0.25500000920E-02 0. -1.
       -2    1    3    3    0  502  0.54723395020E+03  0.17011088111E+02  0.78826717290E+03  0.95974971177E+03  0.25500000920E-02 0.  1.
</event>
<event>
 5   0  0.1415400E-03  0.1035535E+04  0.7818609E-02  0.9270407E-01
        1   -1    0    0  501    0  0.00000000000E+00  0.00000000000E+00  0.62079228154E+03  0.62079228156E+03  0.50400001928E-02 0.  1.
       -1   -1    0    0    0  501  0.00000000000E+00  0.00000000000E+00 -0.43184040192E+03  0.43184040195E+03  0.50400001928E-02 0. -1.
    10030    2    1    2    0    0  0.00000000000E+00  0.00000000000E+00  0.18895187962E+03  0.10526326835E+04  0.10355350084E+04 0.  0.
        2    1    3    3  502    0 -0.46557045721E+03 -0.21329453172E+03  0.17210956765E+03  0.54025189604E+03  0.25500000920E-02 0.  1.
       -2    1    3    3    0  502  0.46557045721E+03  0.21329453172E+03  0.16842311966E+02  0.51238078747E+03  0.25500000920E-02 0. -1.
</event>
<event>
 5   0  0.1509004E-03  0.1095847E+04  0.7818609E-02  0.9209249E-01
       -1   -1    0    0    0  501  0.00000000000E+00  0.00000000000E+00  0.67570497297E+03  0.67570497299E+03  0.50400001928E-02 0.  1.
        1   -1    0    0  501    0  0.00000000000E+00  0.00000000000E+00 -0.44430687010E+03  0.44430687013E+03  0.50400001928E-02 0. -1.
    10030    2    1    2    0    0  0.00000000000E+00  0.00000000000E+00  0.23139810287E+03  0.11200118431E+04  0.10958473647E+04 0.  0.
        3    1    3    3  502    0  0.22024894613E+03  0.44510360189E+02  0.62644807106E+03  0.66552833626E+03  0.10100000352E+00 0.  1.
       -3    1    3    3    0  502 -0.22024894613E+03 -0.44510360189E+02 -0.39504996819E+03  0.45448350686E+03  0.10100000352E+00 0. -1.
</event>
<event>
 5   0  0.2467448E-03  0.1102235E+04  0.7818609E-02  0.9203016E-01
       -2   -1    0    0    0  501  0.00000000000E+00  0.00000000000E+00  0.46138078223E+03  0.46138078223E+03  0.25500000920E-02 0. -1.
        2   -1    0    0  501    0  0.00000000000E+00  0.00000000000E+00 -0.65830755768E+03  0.65830755768E+03  0.25500000920E-02 0.  1.
    10030    2    1    2    0    0  0.00000000000E+00  0.00000000000E+00 -0.19692677545E+03  0.11196883399E+04  0.11022349222E+04 0.  0.
        1    1    3    3  502    0  0.25990452173E+03  0.48597717730E+03 -0.95917993349E+02  0.55939649511E+03  0.50400001928E-02 0.  1.
       -1    1    3    3    0  502 -0.25990452173E+03 -0.48597717730E+03 -0.10100878210E+03  0.56029184480E+03  0.50400001928E-02 0. -1.
</event>
<event>
 5   0  0.2438115E-03  0.1099417E+04  0.7818609E-02  0.9205761E-01
        2   -1    0    0  501    0  0.00000000000E+00  0.00000000000E+00  0.59904259711E+03  0.59904259712E+03  0.25500000920E-02 0.  1.
       -2   -1    0    0    0  501  0.00000000000E+00  0.00000000000E+00 -0.50443706054E+03  0.50443706055E+03  0.25500000920E-02 0. -1.
    10030    2    1    2    0    0  0.00000000000E+00  0.00000000000E+00  0.94605536571E+02  0.11034796577E+04  0.10994167305E+04 0.  0.
        4    1    3    3  502    0  0.93117096627E+01 -0.20176768823E+03 -0.46584069742E+03  0.50774607455E+03  0.12699999809E+01 0. -1.
       -4    1    3    3    0  502 -0.93117096627E+01  0.20176768823E+03  0.56044623399E+03  0.59573358311E+03  0.12699999809E+01 0.  1.
</event>
<event>
 5   0  0.1480937E-03  0.1100788E+04  0.7818609E-02  0.9204424E-01
       -1   -1    0    0    0  501  0.00000000000E+00  0.00000000000E+00  0.50805958382E+03  0.50805958385E+03  0.50400001928E-02 0.  1.
        1   -1    0    0  501    0  0.00000000000E+00  0.00000000000E+00 -0.59625624520E+03  0.59625624522E+03  0.50400001928E-02 0. -1.
    10030    2    1    2    0    0  0.00000000000E+00  0.00000000000E+00 -0.88196661373E+02  0.11043158291E+04  0.11007882627E+04 0.  0.
        1    1    3    3  502    0  0.15773670900E+03  0.52671796298E+03 -0.69098420262E+02  0.55415455750E+03  0.50400001928E-02 0. -1.
       -1    1    3    3    0  502 -0.15773670900E+03 -0.52671796298E+03 -0.19098241110E+02  0.55016127157E+03  0.50400001928E-02 0.  1.
</event>
<event>
 5   0  0.2467448E-03  0.1088742E+04  0.7818609E-02  0.9216234E-01
       -2   -1    0    0    0  501  0.00000000000E+00  0.00000000000E+00  0.35588628201E+03  0.35588628202E+03  0.25500000920E-02 0.  1.
        2   -1    0    0  501    0  0.00000000000E+00  0.00000000000E+00 -0.83268144354E+03  0.83268144355E+03  0.25500000920E-02 0. -1.
    10030    2    1    2    0    0  0.00000000000E+00  0.00000000000E+00 -0.47679516153E+03  0.11885677256E+04  0.10887422157E+04 0.  0.
        1    1    3    3  502    0 -0.10234210254E+03  0.28924563399E+03  0.25250195914E+03  0.39735900912E+03  0.50400001928E-02 0.  1.
       -1    1    3    3    0  502  0.10234210254E+03 -0.28924563399E+03 -0.72929712067E+03  0.79120871645E+03  0.50400001928E-02 0. -1.
</event>
<event>
 5   0  0.2438115E-03  0.1089424E+04  0.7818609E-02  0.9215562E-01
       -2   -1    0    0    0  501  0.00000000000E+00  0.00000000000E+00  0.23586776057E+03  0.23586776059E+03  0.25500000920E-02 0.  1.
        2   -1    0    0  501    0  0.00000000000E+00  0.00000000000E+00 -0.12579554414E+04  0.12579554414E+04  0.25500000920E-02 0. -1.
    10030    2    1    2    0    0  0.00000000000E+00  0.00000000000E+00 -0.10220876809E+04  0.14938232020E+04  0.10894239448E+04 0.  0.
        4    1    3    3  502    0  0.40431337507E+03  0.79230106183E+02 -0.22458380509E+02  0.41261690070E+03  0.12699999809E+01 0.  1.
       -4    1    3    3    0  502 -0.40431337507E+03 -0.79230106183E+02 -0.99962930036E+03  0.10812063013E+04  0.12699999809E+01 0. -1.
</event>
<event>
 5   0  0.2392585E-03  0.1099631E+04  0.7818609E-02  0.9205552E-01
        2   -1    0    0  501    0  0.00000000000E+00  0.00000000000E+00  0.18384480764E+04  0.18384480764E+04  0.25500000920E-02 0. -1.
       -2   -1    0    0    0  501  0.00000000000E+00  0.00000000000E+00 -0.16443052839E+03  0.16443052841E+03  0.25500000920E-02 0.  1.
    10030    2    1    2    0    0  0.00000000000E+00  0.00000000000E+00  0.16740175480E+04  0.20028786048E+04  0.10996308265E+04 0.  0.
        5    1    3    3  502    0 -0.35309366497E+03 -0.36745859168E+03  0.46118896051E+03  0.68732692376E+03  0.46999998093E+01 0.  1.
       -5    1    3    3    0  502  0.35309366497E+03  0.36745859168E+03  0.12128285875E+04  0.13155516810E+04  0.46999998093E+01 0. -1.
</event>
<event>
 5   0  0.2467448E-03  0.1101290E+04  0.7818609E-02  0.9203936E-01
       -2   -1    0    0    0  501  0.00000000000E+00  0.00000000000E+00  0.23291582665E+03  0.23291582667E+03  0.25500000920E-02 0. -1.
        2   -1    0    0  501    0  0.00000000000E+00  0.00000000000E+00 -0.13017996773E+04  0.13017996773E+04  0.25500000920E-02 0.  1.
    10030    2    1    2    0    0  0.00000000000E+00  0.00000000000E+00 -0.10688838507E+04  0.15347155040E+04  0.11012896949E+04 0.  0.
        1    1    3    3  502    0 -0.19765363599E+03  0.48245830932E+03 -0.28759347350E+03  0.59543512331E+03  0.50400001928E-02 0.  1.
       -1    1    3    3    0  502  0.19765363599E+03 -0.48245830932E+03 -0.78129037720E+03  0.93928038070E+03  0.50400001928E-02 0. -1.
</event>
<event>
 5   0  0.2392585E-03  0.1103101E+04  0.7818609E-02  0.9202175E-01
        2   -1    0    0  501    0  0.00000000000E+00  0.00000000000E+00  0.38346704265E+03  0.38346704266E+03  0.25500000920E-02 0.  1.
       -2   -1    0    0    0  501  0.00000000000E+00  0.00000000000E+00 -0.79330937303E+03  0.79330937304E+03  0.25500000920E-02 0. -1.
    10030    2    1    2    0    0  0.00000000000E+00  0.00000000000E+00 -0.40984233038E+03  0.11767764157E+04  0.11031010818E+04 0.  0.
        5    1    3    3  502    0  0.34776578423E+02 -0.29917007819E+03 -0.69781217672E+03  0.76005004445E+03  0.46999998093E+01 0. -1.
       -5    1    3    3    0  502 -0.34776578423E+02  0.29917007819E+03  0.28796984634E+03  0.41672637124E+03  0.46999998093E+01 0.  1.
</event>
<event>
 5   0  0.2467448E-03  0.1089064E+04  0.7818609E-02  0.9215917E-01
       -2   -1    0    0    0  501  0.00000000000E+00  0.00000000000E+00  0.21175511354E+03  0.21175511356E+03  0.25500000920E-02 0.  1.
        2   -1    0    0  501    0  0.00000000000E+00  0.00000000000E+00 -0.14002728753E+04  0.14002728753E+04  0.25500000920E-02 0. -1.
    10030    2    1    2    0    0  0.00000000000E+00  0.00000000000E+00 -0.11885177617E+04  0.16120279888E+04  0.10890637111E+04 0.  0.
        1    1    3    3  502    0 -0.34184559323E+03  0.26231537806E+03 -0.10144650614E+03  0.44267274686E+03  0.50400001928E-02 0.  1.
       -1    1    3    3    0  502  0.34184559323E+03 -0.26231537806E+03 -0.10870712556E+04  0.11693552420E+04  0.50400001928E-02 0. -1.
</event>
<event>
 5   0  0.1479573E-03  0.1092664E+04  0.7818609E-02  0.9212372E-01
        1   -1    0    0  501    0  0.00000000000E+00  0.00000000000E+00  0.54853308829E+03  0.54853308831E+03  0.50400001928E-02 0. -1.
       -1   -1    0    0    0  501  0.00000000000E+00  0.00000000000E+00 -0.54413989367E+03  0.54413989369E+03  0.50400001928E-02 0.  1.
    10030    2    1    2    0    0  0.00000000000E+00  0.00000000000E+00  0.43931946183E+01  0.10926729820E+04  0.10926641503E+04 0.  0.
        4    1    3    3  502    0  0.29485158607E+03 -0.54315229169E+02 -0.45452311266E+03  0.54450020640E+03  0.12699999809E+01 0.  1.
       -4    1    3    3    0  502 -0.29485158607E+03  0.54315229169E+02  0.45891630728E+03  0.54817277560E+03  0.12699999809E+01 0. -1.
</event>
<event>
 5   0  0.1509004E-03  0.1106537E+04  0.7818609E-02  0.9198844E-01
        1   -1    0    0  501    0  0.00000000000E+00  0.00000000000E+00  0.14530275117E+04  0.14530275117E+04  0.50400001928E-02 0.  1.
       -1   -1    0    0    0  501  0.00000000000E+00  0.00000000000E+00 -0.21066770247E+03  0.21066770253E+03  0.50400001928E-02 0. -1.
    10030    2    1    2    0    0  0.00000000000E+00  0.00000000000E+00  0.12423598092E+04  0.16636952142E+04  0.11065368816E+04 0.  0.
        3    1    3    3  502    0  0.47606506181E+03 -0.20266217893E+03  0.32656739805E+03  0.61184653102E+03  0.10100000352E+00 0.  1.
       -3    1    3    3    0  502 -0.47606506181E+03  0.20266217893E+03  0.91579241117E+03  0.10518486832E+04  0.10100000352E+00 0. -1.
</event>
<event>
 5   0  0.2467448E-03  0.1109157E+04  0.7818609E-02  0.9196313E-01
       -2   -1    0    0    0  501  0.00000000000E+00  0.00000000000E+00  0.72365175267E+03  0.72365175267E+03  0.25500000920E-02 0. -1.
        2   -1    0    0  501    0  0.00000000000E+00  0.00000000000E+00 -0.42500698446E+03  0.42500698447E+03  0.25500000920E-02 0.  1.
    10030    2    1    2    0    0  0.00000000000E+00  0.00000000000E+00  0.29864476821E+03  0.11486587371E+04  0.11091565249E+04 0.  0.
        1    1    3    3  502    0 -0.50609581653E+03  0.10270616546E+02 -0.85281680210E+02  0.51333364012E+03  0.50400001928E-02 0.  1.
       -1    1    3    3    0  502  0.50609581653E+03 -0.10270616546E+02  0.38392644842E+03  0.63532509702E+03  0.50400001928E-02 0. -1.
</event>
<event>
 5   0  0.1415400E-03  0.1072960E+04  0.7818609E-02  0.9231955E-01
        1   -1    0    0  501    0  0.00000000000E+00  0.00000000000E+00  0.90664872877E+03  0.90664872879E+03  0.50400001928E-02 0. -1.
       -1   -1    0    0    0  501  0.00000000000E+00  0.00000000000E+00 -0.31744491537E+03  0.31744491541E+03  0.50400001928E-02 0.  1.
    10030    2    1    2    0    0  0.00000000000E+00  0.00000000000E+00  0.58920381341E+03  0.12240936442E+04  0.10729604448E+04 0.  0.
        2    1    3    3  502    0 -0.52988899383E+03  0.83063787690E+02  0.28163973140E+03  0.60580762369E+03  0.25500000920E-02 0. -1.
       -2    1    3    3    0  502  0.52988899383E+03 -0.83063787690E+02  0.30756408201E+03  0.61828602051E+03  0.25500000920E-02 0.  1.
</event>
<event>
 5   0  0.2488472E-03  0.1099959E+04  0.7818609E-02  0.9205232E-01
       -2   -1    0    0    0  501  0.00000000000E+00  0.00000000000E+00  0.25715695461E+03  0.25715695462E+03  0.25500000920E-02 0. -1.
        2   -1    0    0  501    0  0.00000000000E+00  0.00000000000E+00 -0.11762361061E+04  0.11762361061E+04  0.25500000920E-02 0.  1.
    10030    2    1    2    0    0  0.00000000000E+00  0.00000000000E+00 -0.91907915144E+03  0.14333930607E+04  0.10999587173E+04 0.  0.
        2    1    3    3  502    0  0.57913113616E+02 -0.43634172987E+02 -0.11699797411E+04  0.11722245793E+04  0.25500000920E-02 0.  1.
       -2    1    3    3    0  502 -0.57913113616E+02  0.43634172987E+02  0.25090058963E+03  0.26116848138E+03  0.25500000920E-02 0. -1.
</event>
<event>
 5   0  0.1479573E-03  0.1098857E+04  0.7818609E-02  0.9206307E-01
       -1   -1    0    0    0  501  0.00000000000E+00  0.00000000000E+00  0.19648648375E+03  0.19648648381E+03  0.50400001928E-02 0. -1.
        1   -1    0    0  501    0  0.00000000000E+00  0.00000000000E+00 -0.15363469561E+04  0.15363469561E+04  0.50400001928E-02 0.  1.
    10030    2    1    2    0    0  0.00000000000E+00  0.00000000000E+00 -0.13398604724E+04  0.17328334399E+04  0.10988565171E+04 0.  0.
        4    1    3    3  502    0  0.13857765489E+03  0.30794559997E+03 -0.13533770375E+04  0.13948710612E+04  0.12699999809E+01 0.  1.
       -4    1    3    3    0  502 -0.13857765489E+03 -0.30794559997E+03  0.13516565133E+02  0.33796237869E+03  0.12699999809E+01 0. -1.
</event>
<event>
 5   0  0.2392585E-03  0.1098986E+04  0.7818609E-02  0.9206181E-01
       -2   -1    0    0    0  501  0.00000000000E+00  0.00000000000E+00  0.52549129426E+03  0.52549129426E+03  0.25500000920E-02 0. -1.
        2   -1    0    0  501    0  0.00000000000E+00  0.00000000000E+00 -0.57459091212E+03  0.57459091213E+03  0.25500000920E-02 0.  1.
    10030    2    1    2    0    0  0.00000000000E+00  0.00000000000E+00 -0.49099617865E+02  0.11000822064E+04  0.10989859364E+04 0.  0.
        5    1    3    3  502    0  0.50782145639E+03 -0.92799820957E+02 -0.21295550390E+03  0.55845015442E+03  0.46999998093E+01 0.  1.
       -5    1    3    3    0  502 -0.50782145639E+03  0.92799820957E+02  0.16385588603E+03  0.54163205197E+03  0.46999998093E+01 0. -1.
</event>
<event>
 5   0  0.1479573E-03  0.1048115E+04  0.7818609E-02  0.9257292E-01
        1   -1    0    0  501    0  0.00000000000E+00  0.00000000000E+00  0.41640374158E+03  0.41640374162E+03  0.50400001928E-02 0.  1.
       -1   -1    0    0    0  501  0.00000000000E+00  0.00000000000E+00 -0.65954308307E+03  0.65954308309E+03  0.50400001928E-02 0. -1.
    10030    2    1    2    0    0  0.00000000000E+00  0.00000000000E+00 -0.24313934149E+03  0.10759468247E+04  0.10481148936E+04 0.  0.
        4    1    3    3  502    0 -0.62456935213E+02  0.46366709856E+02  0.41044286628E+03  0.41775076292E+03  0.12699999809E+01 0.  1.
       -4    1    3    3    0  502  0.62456935213E+02 -0.46366709856E+02 -0.65358220777E+03  0.65819606179E+03  0.12699999809E+01 0. -1.
</event>
<event>
 5   0  0.2467448E-03  0.1087169E+04  0.7818609E-02  0.9217789E-01
        2   -1    0    0  501    0  0.00000000000E+00  0.00000000000E+00  0.13608390862E+04  0.13608390862E+04  0.25500000920E-02 0.  1.
       -2   -1    0    0    0  501  0.00000000000E+00  0.00000000000E+00 -0.21713375688E+03  0.21713375690E+03  0.25500000920E-02 0. -1.
    10030    2    1    2    0    0  0.00000000000E+00  0.00000000000E+00  0.11437053293E+04  0.15779728431E+04  0.10871689902E+04 0.  0.
        1    1    3    3  502    0  0.12041086268E+03 -0.44684077334E+03  0.15795064040E+03  0.48899269667E+03  0.50400001928E-02 0. -1.
       -1    1    3    3    0  502 -0.12041086268E+03  0.44684077334E+03  0.98575468893E+03  0.10889801464E+04  0.50400001928E-02 0.  1.
</event>
<event>
 5   0  0.1415400E-03  0.1111370E+04  0.7818609E-02  0.9194181E-01
       -1   -1    0    0    0  501  0.00000000000E+00  0.00000000000E+00  0.65019879851E+03  0.65019879853E+03  0.50400001928E-02 0. -1.
        1   -1    0    0  501    0  0.00000000000E+00  0.00000000000E+00 -0.47490960068E+03  0.47490960071E+03  0.50400001928E-02 0.  1.
    10030    2    1    2    0    0  0.00000000000E+00  0.00000000000E+00  0.17528919783E+03  0.11251083992E+04  0.11113696987E+04 0.  0.
        2    1    3    3  502    0  0.21791079270E+03  0.33023006082E+03 -0.30736944236E+03  0.50101195669E+03  0.25500000920E-02 0.  1.
       -2    1    3    3    0  502 -0.21791079270E+03 -0.33023006082E+03  0.48265864019E+03  0.62409644255E+03  0.25500000920E-02 0. -1.
</event>
<event>
 5   0  0.1415400E-03  0.1096218E+04  0.7818609E-02  0.9208886E-01
        1   -1    0    0  501    0  0.00000000000E+00  0.00000000000E+00  0.13476339521E+04  0.13476339521E+04  0.50400001928E-02 0.  1.
       -1   -1    0    0    0  501  0.00000000000E+00  0.00000000000E+00 -0.22292669445E+03  0.22292669451E+03  0.50400001928E-02 0. -1.
    10030    2    1    2    0    0  0.00000000000E+00  0.00000000000E+00  0.11247072576E+04  0.15705606466E+04  0.10962181942E+04 0.  0.
        2    1    3    3  502    0  0.27553996933E+03 -0.47367326468E+03  0.54571039916E+03  0.77336180157E+03  0.25500000920E-02 0.  1.
       -2    1    3    3    0  502 -0.27553996933E+03  0.47367326468E+03  0.57899685847E+03  0.79719884502E+03  0.25500000920E-02 0. -1.
</event>
<event>
 5   0  0.1509004E-03  0.1099264E+04  0.7818609E-02  0.9205910E-01
        1   -1    0    0  501    0  0.00000000000E+00  0.00000000000E+00  0.18148280584E+04  0.18148280584E+04  0.50400001928E-02 0. -1.
       -1   -1    0    0    0  501  0.00000000000E+00  0.00000000000E+00 -0.16645942437E+03  0.16645942445E+03  0.50400001928E-02 0.  1.
    10030    2    1    2    0    0  0.00000000000E+00  0.00000000000E+00  0.16483686340E+04  0.19812874828E+04  0.10992638155E+04 0.  0.
        3    1    3    3  502    0 -0.27569733389E+03  0.47382578552E+03  0.75264724196E+03  0.93112715349E+03  0.10100000352E+00 0.  1.
       -3    1    3    3    0  502  0.27569733389E+03 -0.47382578552E+03  0.89572139203E+03  0.10501603293E+04  0.10100000352E+00 0. -1.
</event>
<event>
 5   0  0.1468556E-03  0.1105135E+04  0.7818609E-02  0.9200201E-01
        1   -1    0    0  501    0  0.00000000000E+00  0.00000000000E+00  0.11651485219E+04  0.11651485219E+04  0.50400001928E-02 0. -1.
       -1   -1    0    0    0  501  0.00000000000E+00  0.00000000000E+00 -0.26205311445E+03  0.26205311449E+03  0.50400001928E-02 0.  1.
    10030    2    1    2    0    0  0.00000000000E+00  0.00000000000E+00  0.90309540747E+03  0.14272016364E+04  0.11051349221E+04 0.  0.
        5    1    3    3  502    0  0.47093283570E+03  0.21223586863E+03  0.70490099504E+03  0.87391607290E+03  0.46999998093E+01 0. -1.
       -5    1    3    3    0  502 -0.47093283570E+03 -0.21223586863E+03  0.19819441243E+03  0.55328556351E+03  0.46999998093E+01 0.  1.
</event>
<event>
 5   0  0.1479573E-03  0.1118998E+04  0.7818609E-02  0.9186870E-01
       -1   -1    0    0    0  501  0.00000000000E+00  0.00000000000E+00  0.57861909444E+03  0.57861909446E+03  0.50400001928E-02 0.  1.
        1   -1    0    0  501    0  0.00000000000E+00  0.00000000000E+00 -0.54101097169E+03  0.54101097171E+03  0.50400001928E-02 0. -1.
    10030    2    1    2    0    0  0.00000000000E+00  0.00000000000E+00  0.37608122752E+02  0.11196300662E+04  0.11189982637E+04 0.  0.
        4    1    3    3  502    0 -0.30515405605E+02 -0.53315301070E+03  0.18579449718E+03  0.56542420436E+03  0.12699999809E+01 0.  1.
       -4    1    3    3    0  502  0.30515405605E+02  0.53315301070E+03 -0.14818637443E+03  0.55420586181E+03  0.12699999809E+01 0. -1.
</event>
<event>
 5   0  0.2438115E-03  0.1099918E+04  0.7818609E-02  0.9205271E-01
       -2   -1    0    0    0  501  0.00000000000E+00  0.00000000000E+00  0.14204956442E+03  0.14204956444E+03  0.25500000920E-02 0. -1.
        2   -1    0    0  501    0  0.00000000000E+00  0.00000000000E+00 -0.21292222673E+04  0.21292222673E+04  0.25500000920E-02 0.  1.
    10030    2    1    2    0    0  0.00000000000E+00  0.00000000000E+00 -0.19871727029E+04  0.22712718318E+04  0.10999183527E+04 0.  0.
        4    1    3    3  502    0  0.85669985263E+00 -0.26149333415E+03  0.54590859422E+01  0.26155479781E+03  0.12699999809E+01 0. -1.
       -4    1    3    3    0  502 -0.85669985263E+00  0.26149333415E+03 -0.19926317889E+04  0.20097170340E+04  0.12699999809E+01 0.  1.
</event>
<event>
 5   0  0.2467448E-03  0.1090466E+04  0.7818609E-02  0.9214534E-01
       -2   -1    0    0    0  501  0.00000000000E+00  0.00000000000E+00  0.33727856363E+03  0.33727856364E+03  0.25500000920E-02 0.  1.
        2   -1    0    0  501    0  0.00000000000E+00  0.00000000000E+00 -0.88140575123E+03  0.88140575123E+03  0.25500000920E-02 0. -1.
    10030    2    1    2    0    0  0.00000000000E+00  0.00000000000E+00 -0.54412718760E+03  0.12186843149E+04  0.10904664429E+04 0.  0.
        1    1    3    3  502    0  0.17930422153E+03  0.10382952956E+03 -0.83569303345E+03  0.86099559886E+03  0.50400001928E-02 0. -1.
       -1    1    3    3    0  502 -0.17930422153E+03 -0.10382952956E+03  0.29156584585E+03  0.35768871601E+03  0.50400001928E-02 0.  1.
</event>
<event>
 5   0  0.2392585E-03  0.1110538E+04  0.7818609E-02  0.9194981E-01
        2   -1    0    0  501    0  0.00000000000E+00  0.00000000000E+00  0.70503152763E+03  0.70503152764E+03  0.25500000920E-02 0.  1.
       -2   -1    0    0    0  501  0.00000000000E+00  0.00000000000E+00 -0.43731908838E+03  0.43731908838E+03  0.25500000920E-02 0. -1.
    10030    2    1    2    0    0  0.00000000000E+00  0.00000000000E+00  0.26771243926E+03  0.11423506160E+04  0.11105381487E+04 0.  0.
        5    1    3    3  502    0 -0.15498648157E+03 -0.18359494569E+03 -0.38105661510E+03  0.45050432569E+03  0.46999998093E+01 0. -1.
       -5    1    3    3    0  502  0.15498648157E+03  0.18359494569E+03  0.64876905436E+03  0.69184629033E+03  0.46999998093E+01 0.  1.
</event>
<event>
 5   0  0.2488472E-03  0.1107262E+04  0.7818609E-02  0.9198142E-01
       -2   -1    0    0    0  501  0.00000000000E+00  0.00000000000E+00  0.10849979851E+03  0.10849979854E+03  0.25500000920E-02 0. -1.
        2   -1    0    0  501    0  0.00000000000E+00  0.00000000000E+00 -0.28249586286E+04  0.28249586286E+04  0.25500000920E-02 0.  1.
    10030    2    1    2    0    0  0.00000000000E+00  0.00000000000E+00 -0.27164588301E+04  0.29334584272E+04  0.11072622852E+04 0.  0.
        2    1    3    3  502    0  0.15833014296E+03 -0.31188722059E+03 -0.22130023095E+03  0.41390320699E+03  0.25500000920E-02 0. -1.
       -2    1    3    3    0  502 -0.15833014296E+03  0.31188722059E+03 -0.24951585992E+04  0.25195552202E+04  0.25500000920E-02 0.  1.
</event>
<event>
 5   0  0.1415400E-03  0.1096309E+04  0.7818609E-02  0.9208797E-01
        1   -1    0    0  501    0  0.00000000000E+00  0.00000000000E+00  0.10241329454E+04  0.10241329454E+04  0.50400001928E-02 0. -1.
       -1   -1    0    0    0  501  0.00000000000E+00  0.00000000000E+00 -0.29339286513E+03  0.29339286518E+03  0.50400001928E-02 0.  1.
    10030    2    1    2    0    0  0.00000000000E+00  0.00000000000E+00  0.73074008022E+03  0.13175258105E+04  0.10963088965E+04 0.  0.
        2    1    3    3  502    0 -0.27576374565E+03  0.36211668614E+03 -0.17136285467E+01  0.45516708397E+03  0.25500000920E-02 0.  1.
       -2    1    3    3    0  502  0.27576374565E+03 -0.36211668614E+03  0.73245370877E+03  0.86235872657E+03  0.25500000920E-02 0. -1.
</event>
<event>
 5   0  0.1480937E-03  0.1020339E+04  0.7818609E-02  0.9286514E-01
        1   -1    0    0  501    0  0.00000000000E+00  0.00000000000E+00  0.15467921594E+04  0.15467921594E+04  0.50400001928E-02 0. -1.
       -1   -1    0    0    0  501  0.00000000000E+00  0.00000000000E+00 -0.16826639101E+03  0.16826639108E+03  0.50400001928E-02 0.  1.
    10030    2    1    2    0    0  0.00000000000E+00  0.00000000000E+00  0.13785257684E+04  0.17150585505E+04  0.10203394227E+04 0.  0.
        1    1    3    3  502    0 -0.49495282054E+02 -0.92991067536E+02 -0.14978626306E+03  0.18312030530E+03  0.50400001928E-02 0.  1.
       -1    1    3    3    0  502  0.49495282054E+02  0.92991067536E+02  0.15283120315E+04  0.15319382452E+04  0.50400001928E-02 0. -1.
</event>
<event>
 5   0  0.2392585E-03  0.1099696E+04  0.7818609E-02  0.9205488E-01
       -2   -1    0    0    0  501  0.00000000000E+00  0.00000000000E+00  0.24700781976E+03  0.24700781977E+03  0.25500000920E-02 0.  1.
        2   -1    0    0  501    0  0.00000000000E+00  0.00000000000E+00 -0.12239805683E+04  0.12239805683E+04  0.25500000920E-02 0. -1.
    10030    2    1    2    0    0  0.00000000000E+00  0.00000000000E+00 -0.97697274852E+03  0.14709883881E+04  0.10996959064E+04 0.  0.
        5    1    3    3  502    0 -0.90698587808E+02 -0.47049100471E+03 -0.84920745273E+03  0.97507097542E+03  0.46999998093E+01 0. -1.
       -5    1    3    3    0  502  0.90698587808E+02  0.47049100471E+03 -0.12776529580E+03  0.49591741264E+03  0.46999998093E+01 0.  1.
</event>
<event>
 5   0  0.2467448E-03  0.1102607E+04  0.7818609E-02  0.9202655E-01
        2   -1    0    0  501    0  0.00000000000E+00  0.00000000000E+00  0.47385433585E+03  0.47385433586E+03  0.25500000920E-02 0. -1.
       -2   -1    0    0    0  501  0.00000000000E+00  0.00000000000E+00 -0.64141100419E+03  0.64141100420E+03  0.25500000920E-02 0.  1.
    10030    2    1    2    0    0  0.00000000000E+00  0.00000000000E+00 -0.16755666834E+03  0.11152653401E+04  0.11026067031E+04 0.  0.
        1    1    3    3  502    0 -0.25139354025E+03 -0.38930879188E+02  0.41093917618E+03  0.48330666452E+03  0.50400001928E-02 0. -1.
       -1    1    3    3    0  502  0.25139354025E+03  0.38930879188E+02 -0.57849584452E+03  0.63195867553E+03  0.50400001928E-02 0.  1.
</event>
<event>
 5   0  0.1468556E-03  0.1100494E+04  0.7818609E-02  0.9204710E-01
       -1   -1    0    0    0  501  0.00000000000E+00  0.00000000000E+00  0.40373555774E+03  0.40373555777E+03  0.50400001928E-02 0.  1.
        1   -1    0    0  501    0  0.00000000000E+00  0.00000000000E+00 -0.74992657839E+03  0.74992657840E+03  0.50400001928E-02 0. -1.
    10030    2    1    2    0    0  0.00000000000E+00  0.00000000000E+00 -0.34619102065E+03  0.11536621362E+04  0.11004944805E+04 0.  0.
        5    1    3    3  502    0  0.29244802949E+03  0.26679725811E+03 -0.57371456507E+03  0.69704886419E+03  0.46999998093E+01 0. -1.
       -5    1    3    3    0  502 -0.29244802949E+03 -0.26679725811E+03  0.22752354442E+03  0.45661327199E+03  0.46999998093E+01 0.  1.
</event>
<event>
 5   0  0.1509004E-03  0.1090214E+04  0.7818609E-02  0.9214783E-01
       -1   -1    0    0    0  501  0.00000000000E+00  0.00000000000E+00  0.43198825548E+03  0.43198825551E+03  0.50400001928E-02 0.  1.
        1   -1    0    0  501    0  0.00000000000E+00  0.00000000000E+00 -0.68784674669E+03  0.68784674671E+03  0.50400001928E-02 0. -1.
    10030    2    1    2    0    0  0.00000000000E+00  0.00000000000E+00 -0.25585849121E+03  0.11198350022E+04  0.10902141371E+04 0.  0.
        3    1    3    3  502    0 -0.15648277335E+03 -0.52216271671E+03 -0.12892770765E+03  0.56014562846E+03  0.10100000352E+00 0. -1.
       -3    1    3    3    0  502  0.15648277335E+03  0.52216271671E+03 -0.12693078356E+03  0.55968937376E+03  0.10100000352E+00 0.  1.
</event>
<event>
 5   0  0.2392585E-03  0.1095321E+04  0.7818609E-02  0.9209764E-01
       -2   -1    0    0    0  501  0.00000000000E+00  0.00000000000E+00  0.37800544331E+03  0.37800544332E+03  0.25500000920E-02 0. -1.
        2   -1    0    0  501    0  0.00000000000E+00  0.00000000000E+00 -0.79345988269E+03  0.79345988269E+03  0.25500000920E-02 0.  1.
    10030    2    1    2    0    0  0.00000000000E+00  0.00000000000E+00 -0.41545443938E+03  0.11714653260E+04  0.10953212400E+04 0.  0.
        5    1    3    3  502    0 -0.24900527544E+03 -0.74064944651E+02 -0.72334210323E+03  0.76859295568E+03  0.46999998093E+01 0.  1.
       -5    1    3    3    0  502  0.24900527544E+03  0.74064944651E+02  0.30788766385E+03  0.40287237033E+03  0.46999998093E+01 0. -1.
</event>
<event>
 5   0  0.1509004E-03  0.1098635E+04  0.7818609E-02  0.9206523E-01
       -1   -1    0    0    0  501  0.00000000000E+00  0.00000000000E+00  0.32885499828E+03  0.32885499832E+03  0.50400001928E-02 0.  1.
        1   -1    0    0  501    0  0.00000000000E+00  0.00000000000E+00 -0.91757647869E+03  0.91757647871E+03  0.50400001928E-02 0. -1.
    10030    2    1    2    0    0  0.00000000000E+00  0.00000000000E+00 -0.58872148041E+03  0.12464314770E+04  0.10986348099E+04 0.  0.
        3    1    3    3  502    0  0.33125872400E+03  0.36128502415E+03 -0.57569244461E+03  0.75609590125E+03  0.10100000352E+00 0. -1.
       -3    1    3    3    0  502 -0.33125872400E+03 -0.36128502415E+03 -0.13029035799E+02  0.49033557578E+03  0.10100000352E+00 0.  1.
</event>
<event>
 5   0  0.2483036E-03  0.1099920E+04  0.7818609E-02  0.9205269E-01
        2   -1    0    0  501    0  0.00000000000E+00  0.00000000000E+00  0.60418932767E+03  0.60418932768E+03  0.25500000920E-02 0. -1.
       -2   -1    0    0    0  501  0.00000000000E+00  0.00000000000E+00 -0.50059843973E+03  0.50059843974E+03  0.25500000920E-02 0.  1.
    10030    2    1    2    0    0  0.00000000000E+00  0.00000000000E+00  0.10359088794E+03  0.11047877674E+04  0.10999204239E+04 0.  0.
        3    1    3    3  502    0  0.13842003129E+03  0.35589383299E+03  0.44931908860E+03  0.58966785482E+03  0.10100000352E+00 0. -1.
       -3    1    3    3    0  502 -0.13842003129E+03 -0.35589383299E+03 -0.34572820066E+03  0.51511991260E+03  0.10100000352E+00 0.  1.
</event>
<event>
 5   0  0.1415400E-03  0.1098142E+04  0.7818609E-02  0.9207004E-01
       -1   -1    0    0    0  501  0.00000000000E+00  0.00000000000E+00  0.89536117153E+03  0.89536117155E+03  0.50400001928E-02 0. -1.
        1   -1    0    0  501    0  0.00000000000E+00  0.00000000000E+00 -0.33671242627E+03  0.33671242631E+03  0.50400001928E-02 0.  1.
    10030    2    1    2    0    0  0.00000000000E+00  0.00000000000E+00  0.55864874526E+03  0.12320735979E+04  0.10981424907E+04 0.  0.
        2    1    3    3  502    0  0.13910916712E+03 -0.49635459894E+03  0.67157969295E+02  0.51983597520E+03  0.25500000920E-02 0.  1.
       -2    1    3    3    0  502 -0.13910916712E+03  0.49635459894E+03  0.49149077596E+03  0.71223762266E+03  0.25500000920E-02 0. -1.
</event>
<event>
 5   0  0.2467448E-03  0.1099429E+04  0.7818609E-02  0.9205748E-01
        2   -1    0    0  501    0  0.00000000000E+00  0.00000000000E+00  0.12956056037E+04  0.12956056037E+04  0.25500000920E-02 0.  1.
       -2   -1    0    0    0  501  0.00000000000E+00  0.00000000000E+00 -0.23323938037E+03  0.23323938038E+03  0.25500000920E-02 0. -1.
    10030    2    1    2    0    0  0.00000000000E+00  0.00000000000E+00  0.10623662233E+04  0.15288449841E+04  0.10994293942E+04 0.  0.
        1    1    3    3  502    0  0.50816886826E+03  0.14428965782E+02  0.24034743315E+03  0.56232613524E+03  0.50400001928E-02 0. -1.
       -1    1    3    3    0  502 -0.50816886826E+03 -0.14428965782E+02  0.82201879015E+03  0.96651884882E+03  0.50400001928E-02 0.  1.
</event>
<event>
 5   0  0.1415400E-03  0.1102187E+04  0.7818609E-02  0.9203063E-01
       -1   -1    0    0    0  501  0.00000000000E+00  0.00000000000E+00  0.19877047498E+03  0.19877047504E+03  0.50400001928E-02 0. -1.
        1   -1    0    0  501    0  0.00000000000E+00  0.00000000000E+00 -0.15279129525E+04  0.15279129525E+04  0.50400001928E-02 0.  1.
    10030    2    1    2    0    0  0.00000000000E+00  0.00000000000E+00 -0.13291424775E+04  0.17266834276E+04  0.11021868868E+04 0.  0.
        2    1    3    3  502    0  0.44803878223E+03  0.15815184752E+03 -0.22717552025E+03  0.52664928963E+03  0.25500000920E-02 0. -1.
       -2    1    3    3    0  502 -0.44803878223E+03 -0.15815184752E+03 -0.11019669573E+04  0.12000341379E+04  0.25500000920E-02 0.  1.
</event>
<event>
 5   0  0.2438115E-03  0.1102504E+04  0.7818609E-02  0.9202755E-01
        2   -1    0    0  501    0  0.00000000000E+00  0.00000000000E+00  0.18346418983E+04  0.18346418983E+04  0.25500000920E-02 0. -1.
       -2   -1    0    0    0  501  0.00000000000E+00  0.00000000000E+00 -0.16563386571E+03  0.16563386573E+03  0.25500000920E-02 0.  1.
    10030    2    1    2    0    0  0.00000000000E+00  0.00000000000E+00  0.16690080326E+04  0.20002757641E+04  0.11025041131E+04 0.  0.
        4    1    3    3  502    0  0.32784160934E+02 -0.34705228753E+03  0.16092708541E+04  0.16465947851E+04  0.12699999809E+01 0. -1.
       -4    1    3    3    0  502 -0.32784160934E+02  0.34705228753E+03  0.59737178500E+02  0.35368097897E+03  0.12699999809E+01 0.  1.
</event>
<event>
 5   0  0.1415400E-03  0.1098543E+04  0.7818609E-02  0.9206613E-01
       -1   -1    0    0    0  501  0.00000000000E+00  0.00000000000E+00  0.36390537751E+03  0.36390537754E+03  0.50400001928E-02 0. -1.
        1   -1    0    0  501    0  0.00000000000E+00  0.00000000000E+00 -0.82905996026E+03  0.82905996027E+03  0.50400001928E-02 0.  1.
    10030    2    1    2    0    0  0.00000000000E+00  0.00000000000E+00 -0.46515458275E+03  0.11929653378E+04  0.10985433589E+04 0.  0.
        2    1    3    3  502    0 -0.44268812065E+03 -0.26223032892E+03 -0.23797945439E+02  0.51507655720E+03  0.25500000920E-02 0. -1.
       -2    1    3    3    0  502  0.44268812065E+03  0.26223032892E+03 -0.44135663731E+03  0.67788878061E+03  0.25500000920E-02 0.  1.
</event>
<event>
 5   0  0.9631750E-04  0.1109487E+04  0.7818609E-02  0.9195994E-01
        4   -1    0    0  501    0  0.00000000000E+00  0.00000000000E+00  0.87032854006E+03  0.87032946667E+03  0.12699999809E+01 0.  1.
       -4   -1    0    0    0  501  0.00000000000E+00  0.00000000000E+00 -0.35358892353E+03  0.35359120428E+03  0.12699999809E+01 0. -1.
    10030    2    1    2    0    0  0.00000000000E+00  0.00000000000E+00  0.51673961653E+03  0.12239206709E+04  0.11094872588E+04 0.  0.
        2    1    3    3  502    0 -0.43348077660E+03  0.32866970645E+03  0.13848151919E+03  0.56134346953E+03  0.25500000920E-02 0. -1.
       -2    1    3    3    0  502  0.43348077660E+03 -0.32866970645E+03  0.37825809734E+03  0.66257720141E+03  0.25500000920E-02 0.  1.
</event>
<event>
 5   0  0.1509004E-03  0.1115899E+04  0.7818609E-02  0.9189833E-01
        1   -1    0    0  501    0  0.00000000000E+00  0.00000000000E+00  0.80198259938E+03  0.80198259939E+03  0.50400001928E-02 0. -1.
       -1   -1    0    0    0  501  0.00000000000E+00  0.00000000000E+00 -0.38817255970E+03  0.38817255973E+03  0.50400001928E-02 0.  1.
    10030    2    1    2    0    0  0.00000000000E+00  0.00000000000E+00  0.41381003967E+03  0.11901551591E+04  0.11158989891E+04 0.  0.
        3    1    3    3  502    0 -0.34381893836E+03 -0.17642018908E+03 -0.22233359308E+03  0.44583380569E+03  0.10100000352E+00 0.  1.
       -3    1    3    3    0  502  0.34381893836E+03  0.17642018908E+03  0.63614363275E+03  0.74432135343E+03  0.10100000352E+00 0. -1.
</event>
<event>
 5   0  0.1415400E-03  0.1111278E+04  0.7818609E-02  0.9194269E-01
       -1   -1    0    0    0  501  0.00000000000E+00  0.00000000000E+00  0.20567541850E+03  0.20567541856E+03  0.50400001928E-02 0.  1.
        1   -1    0    0  501    0  0.00000000000E+00  0.00000000000E+00 -0.15010774990E+04  0.15010774990E+04  0.50400001928E-02 0. -1.
    10030    2    1    2    0    0  0.00000000000E+00  0.00000000000E+00 -0.12954020805E+04  0.17067529176E+04  0.11112780802E+04 0.  0.
        2    1    3    3  502    0  0.22184536988E+03 -0.35554613110E+03 -0.87366686353E+02  0.42809036122E+03  0.25500000920E-02 0.  1.
       -2    1    3    3    0  502 -0.22184536988E+03  0.35554613110E+03 -0.12080353942E+04  0.12786625564E+04  0.25500000920E-02 0. -1.
</event>
<event>
 5   0  0.1509004E-03  0.1098351E+04  0.7818609E-02  0.9206800E-01
        1   -1    0    0  501    0  0.00000000000E+00  0.00000000000E+00  0.10092497682E+04  0.10092497682E+04  0.50400001928E-02 0. -1.
       -1   -1    0    0    0  501  0.00000000000E+00  0.00000000000E+00 -0.29882969412E+03  0.29882969417E+03  0.50400001928E-02 0.  1.
    10030    2    1    2    0    0  0.00000000000E+00  0.00000000000E+00  0.71042007409E+03  0.13080794624E+04  0.10983511270E+04 0.  0.
        3    1    3    3  502    0  0.33914358372E+03  0.21398423793E+03  0.80207151375E+03  0.89673092276E+03  0.10100000352E+00 0. -1.
       -3    1    3    3    0  502 -0.33914358372E+03 -0.21398423793E+03 -0.91651439668E+02  0.41134853963E+03  0.10100000352E+00 0.  1.
</event>
<event>
 5   0  0.1468556E-03  0.1104200E+04  0.7818609E-02  0.9201108E-01
        1   -1    0    0  501    0  0.00000000000E+00  0.00000000000E+00  0.38639216714E+03  0.38639216717E+03  0.50400001928E-02 0.  1.
       -1   -1    0    0    0  501  0.00000000000E+00  0.00000000000E+00 -0.78887366803E+03  0.78887366805E+03  0.50400001928E-02 0. -1.
    10030    2    1    2    0    0  0.00000000000E+00  0.00000000000E+00 -0.40248150089E+03  0.11752658352E+04  0.11042003554E+04 0.  0.
        5    1    3    3  502    0 -0.26247779781E+02 -0.23791362925E+03 -0.73075350186E+03  0.76896983777E+03  0.46999998093E+01 0. -1.
       -5    1    3    3    0  502  0.26247779781E+02  0.23791362925E+03  0.32827200096E+03  0.40629599744E+03  0.46999998093E+01 0.  1.
</event>
<event>
 5   0  0.1468556E-03  0.1100736E+04  0.7818609E-02  0.9204475E-01
       -1   -1    0    0    0  501  0.00000000000E+00  0.00000000000E+00  0.22049870861E+03  0.22049870867E+03  0.50400001928E-02 0. -1.
        1   -1    0    0  501    0  0.00000000000E+00  0.00000000000E+00 -0.13737259227E+04  0.13737259227E+04  0.50400001928E-02 0.  1.
    10030    2    1    2    0    0  0.00000000000E+00  0.00000000000E+00 -0.11532272141E+04  0.15942246314E+04  0.11007357394E+04 0.  0.
        5    1    3    3  502    0  0.26368539806E+03  0.41283826274E+03 -0.21332529762E+03  0.53431750200E+03  0.46999998093E+01 0. -1.
       -5    1    3    3    0  502 -0.26368539806E+03 -0.41283826274E+03 -0.93990191649E+03  0.10599071294E+04  0.46999998093E+01 0.  1.
</event>
<event>
 5   0  0.1468556E-03  0.1101714E+04  0.7818609E-02  0.9203523E-01
        1   -1    0    0  501    0  0.00000000000E+00  0.00000000000E+00  0.76068376310E+03  0.76068376311E+03  0.50400001928E-02 0. -1.
       -1   -1    0    0    0  501  0.00000000000E+00  0.00000000000E+00 -0.39890883087E+03  0.39890883090E+03  0.50400001928E-02 0.  1.
    10030    2    1    2    0    0  0.00000000000E+00  0.00000000000E+00  0.36177493222E+03  0.11595925940E+04  0.11017140657E+04 0.  0.
        5    1    3    3  502    0 -0.11781911995E+03  0.40386079549E+03  0.55514690336E+03  0.69655944576E+03  0.46999998093E+01 0. -1.
       -5    1    3    3    0  502  0.11781911995E+03 -0.40386079549E+03 -0.19337197114E+03  0.46303314826E+03  0.46999998093E+01 0.  1.
</event>
<event>
 5   0  0.2438115E-03  0.1101431E+04  0.7818609E-02  0.9203799E-01
        2   -1    0    0  501    0  0.00000000000E+00  0.00000000000E+00  0.11188259205E+04  0.11188259205E+04  0.25500000920E-02 0.  1.
       -2   -1    0    0    0  501  0.00000000000E+00  0.00000000000E+00 -0.27107640716E+03  0.27107640717E+03  0.25500000920E-02 0. -1.
    10030    2    1    2    0    0  0.00000000000E+00  0.00000000000E+00  0.84774951338E+03  0.13899023277E+04  0.11014305440E+04 0.  0.
        4    1    3    3  502    0 -0.53980090754E+03 -0.90197699701E+02  0.50130537340E+03  0.74217877571E+03  0.12699999809E+01 0. -1.
       -4    1    3    3    0  502  0.53980090754E+03  0.90197699701E+02  0.34644413998E+03  0.64772355201E+03  0.12699999809E+01 0.  1.
</event>
<event>
 5   0  0.1479573E-03  0.1100852E+04  0.7818609E-02  0.9204362E-01
       -1   -1    0    0    0  501  0.00000000000E+00  0.00000000000E+00  0.15255608962E+03  0.15255608970E+03  0.50400001928E-02 0.  1.
        1   -1    0    0  501    0  0.00000000000E+00  0.00000000000E+00 -0.19859495890E+04  0.19859495890E+04  0.50400001928E-02 0. -1.
    10030    2    1    2    0    0  0.00000000000E+00  0.00000000000E+00 -0.18333934994E+04  0.21385056787E+04  0.11008518585E+04 0.  0.
        4    1    3    3  502    0 -0.21629310611E+03 -0.31637513395E+03 -0.16841831322E+04  0.17272377859E+04  0.12699999809E+01 0. -1.
       -4    1    3    3    0  502  0.21629310611E+03  0.31637513395E+03 -0.14921036717E+03  0.41126789287E+03  0.12699999809E+01 0.  1.
</event>
<event>
 5   0  0.2483036E-03  0.1098261E+04  0.7818609E-02  0.9206889E-01
        2   -1    0    0  501    0  0.00000000000E+00  0.00000000000E+00  0.98940734449E+03  0.98940734449E+03  0.25500000920E-02 0.  1.
       -2   -1    0    0    0  501  0.00000000000E+00  0.00000000000E+00 -0.30477251454E+03  0.30477251455E+03  0.25500000920E-02 0. -1.
    10030    2    1    2    0    0  0.00000000000E+00  0.00000000000E+00  0.68463482995E+03  0.12941798590E+04  0.10982607419E+04 0.  0.
        3    1    3    3  502    0  0.48259769147E+03  0.65971275141E+02  0.64110714294E+03  0.80515285498E+03  0.10100000352E+00 0.  1.
       -3    1    3    3    0  502 -0.48259769147E+03 -0.65971275141E+02  0.43527687010E+02  0.48902700406E+03  0.10100000352E+00 0. -1.
</event>
<event>
 5   0  0.2467448E-03  0.1100712E+04  0.7818609E-02  0.9204498E-01
        2   -1    0    0  501    0  0.00000000000E+00  0.00000000000E+00  0.34820725246E+03  0.34820725247E+03  0.25500000920E-02 0. -1.
       -2   -1    0    0    0  501  0.00000000000E+00  0.00000000000E+00 -0.86986057434E+03  0.86986057434E+03  0.25500000920E-02 0.  1.
    10030    2    1    2    0    0  0.00000000000E+00  0.00000000000E+00 -0.52165332188E+03  0.12180678268E+04  0.11007120616E+04 0.  0.
        1    1    3    3  502    0  0.66173527032E+01 -0.47132986279E+02  0.34592551570E+03  0.34918443578E+03  0.50400001928E-02 0. -1.
       -1    1    3    3    0  502 -0.66173527032E+01  0.47132986279E+02 -0.86757883758E+03  0.86888339103E+03  0.50400001928E-02 0.  1.
</event>
<event>
 5   0  0.1479573E-03  0.1103000E+04  0.7818609E-02  0.9202273E-01
       -1   -1    0    0    0  501  0.00000000000E+00  0.00000000000E+00  0.28835179165E+03  0.28835179170E+03  0.50400001928E-02 0. -1.
        1   -1    0    0  501    0  0.00000000000E+00  0.00000000000E+00 -0.10547952251E+04  0.10547952251E+04  0.50400001928E-02 0.  1.
    10030    2    1    2    0    0  0.00000000000E+00  0.00000000000E+00 -0.76644343346E+03  0.13431470168E+04  0.11029997154E+04 0.  0.
        4    1    3    3  502    0 -0.54185396099E+03 -0.62548553582E+02 -0.28405066204E+03  0.61498327465E+03  0.12699999809E+01 0. -1.
       -4    1    3    3    0  502  0.54185396099E+03  0.62548553582E+02 -0.48239277142E+03  0.72816374217E+03  0.12699999809E+01 0.  1.
</event>
<event>
 5   0  0.2467448E-03  0.1115248E+04  0.7818609E-02  0.9190457E-01
       -2   -1    0    0    0  501  0.00000000000E+00  0.00000000000E+00  0.31778416911E+03  0.31778416912E+03  0.25500000920E-02 0.  1.
        2   -1    0    0  501    0  0.00000000000E+00  0.00000000000E+00 -0.97847634153E+03  0.97847634153E+03  0.25500000920E-02 0. -1.
    10030    2    1    2    0    0  0.00000000000E+00  0.00000000000E+00 -0.66069217242E+03  0.12962605106E+04  0.11152475800E+04 0.  0.
        1    1    3    3  502    0 -0.47859112449E+03 -0.21426917633E+03 -0.10986416453E+03  0.53575262859E+03  0.50400001928E-02 0.  1.
       -1    1    3    3    0  502  0.47859112449E+03  0.21426917633E+03 -0.55082800789E+03  0.76050788206E+03  0.50400001928E-02 0. -1.
</event>
<event>
 5   0  0.2467448E-03  0.1107971E+04  0.7818609E-02  0.9197457E-01
       -2   -1    0    0    0  501  0.00000000000E+00  0.00000000000E+00  0.24646571294E+03  0.24646571296E+03  0.25500000920E-02 0. -1.
        2   -1    0    0  501    0  0.00000000000E+00  0.00000000000E+00 -0.12452038432E+04  0.12452038432E+04  0.25500000920E-02 0.  1.
    10030    2    1    2    0    0  0.00000000000E+00  0.00000000000E+00 -0.99873813026E+03  0.14916695562E+04  0.11079712144E+04 0.  0.
        1    1    3    3  502    0 -0.12198664811E+02  0.40115675631E+03 -0.10134830296E+04  0.10900566049E+04  0.50400001928E-02 0.  1.
       -1    1    3    3    0  502  0.12198664811E+02 -0.40115675631E+03  0.14744899322E+02  0.40161295128E+03  0.50400001928E-02 0. -1.
</event>
<event>
 5   0  0.1415400E-03  0.1102017E+04  0.7818609E-02  0.9203228E-01
       -1   -1    0    0    0  501  0.00000000000E+00  0.00000000000E+00  0.73843905649E+03  0.73843905651E+03  0.50400001928E-02 0. -1.
        1   -1    0    0  501    0  0.00000000000E+00  0.00000000000E+00 -0.41115142346E+03  0.41115142349E+03  0.50400001928E-02 0.  1.
    10030    2    1    2    0    0  0.00000000000E+00  0.00000000000E+00  0.32728763303E+03  0.11495904800E+04  0.11020168225E+04 0.  0.
        2    1    3    3  502    0 -0.44761158569E+03 -0.23628885221E+03  0.39080993987E+03  0.63946928185E+03  0.25500000920E-02 0. -1.
       -2    1    3    3    0  502  0.44761158569E+03  0.23628885221E+03 -0.63522306839E+02  0.51012119815E+03  0.25500000920E-02 0.  1.
</event>
<event>
 5   0  0.2467448E-03  0.1101624E+04  0.7818609E-02  0.9203610E-01
       -2   -1    0    0    0  501  0.00000000000E+00  0.00000000000E+00  0.65148723701E+03  0.65148723701E+03  0.25500000920E-02 0. -1.
        2   -1    0    0  501    0  0.00000000000E+00  0.00000000000E+00 -0.46569427044E+03  0.46569427045E+03  0.25500000920E-02 0.  1.
    10030    2    1    2    0    0  0.00000000000E+00  0.00000000000E+00  0.18579296656E+03  0.11171815075E+04  0.11016240258E+04 0.  0.
        1    1    3    3  502    0 -0.18167447666E+03  0.42055422247E+03  0.40302961893E+03  0.61016747149E+03  0.50400001928E-02 0. -1.
       -1    1    3    3    0  502  0.18167447666E+03 -0.42055422247E+03 -0.21723665237E+03  0.50701403597E+03  0.50400001928E-02 0.  1.
</event>
<event>
 5   0  0.1479573E-03  0.1103200E+04  0.7818609E-02  0.9202079E-01
       -1   -1    0    0    0  501  0.00000000000E+00  0.00000000000E+00  0.76704784853E+03  0.76704784854E+03  0.50400001928E-02 0.  1.
        1   -1    0    0  501    0  0.00000000000E+00  0.00000000000E+00 -0.39666674472E+03  0.39666674476E+03  0.50400001928E-02 0. -1.
    10030    2    1    2    0    0  0.00000000000E+00  0.00000000000E+00  0.37038110380E+03  0.11637145933E+04  0.11031996613E+04 0.  0.
        4    1    3    3  502    0 -0.24368331474E+03 -0.34399181384E+03 -0.19006008269E+03  0.46242445200E+03  0.12699999809E+01 0. -1.
       -4    1    3    3    0  502  0.24368331474E+03  0.34399181384E+03  0.56044118649E+03  0.70129014130E+03  0.12699999809E+01 0.  1.
</event>
<event>
 5   0  0.9631750E-04  0.1110213E+04  0.7818609E-02  0.9195294E-01
       -4   -1    0    0    0  501  0.00000000000E+00  0.00000000000E+00  0.54462558397E+03  0.54462706471E+03  0.12699999809E+01 0.  1.
        4   -1    0    0  501    0  0.00000000000E+00  0.00000000000E+00 -0.56578660084E+03  0.56578802620E+03  0.12699999809E+01 0. -1.
    10030    2    1    2    0    0  0.00000000000E+00  0.00000000000E+00 -0.21161016871E+02  0.11104150909E+04  0.11102134414E+04 0.  0.
        1    1    3    3  502    0  0.11436166290E+03  0.88690077643E+02 -0.54658730843E+03  0.56542214811E+03  0.50400001928E-02 0. -1.
       -1    1    3    3    0  502 -0.11436166290E+03 -0.88690077643E+02  0.52542629156E+03  0.54499294280E+03  0.50400001928E-02 0.  1.
</event>
<event>
 5   0  0.1479573E-03  0.1085727E+04  0.7818609E-02  0.9219216E-01
        1   -1    0    0  501    0  0.00000000000E+00  0.00000000000E+00  0.11957370058E+04  0.11957370059E+04  0.50400001928E-02 0. -1.
       -1   -1    0    0    0  501  0.00000000000E+00  0.00000000000E+00 -0.24645930970E+03  0.24645930975E+03  0.50400001928E-02 0.  1.
    10030    2    1    2    0    0  0.00000000000E+00  0.00000000000E+00  0.94927769615E+03  0.14421963156E+04  0.10857265164E+04 0.  0.
        4    1    3    3  502    0 -0.16008662557E+03  0.21159141209E+03 -0.15445989396E+03  0.30701486136E+03  0.12699999809E+01 0.  1.
       -4    1    3    3    0  502  0.16008662557E+03 -0.21159141209E+03  0.11037375901E+04  0.11351814542E+04  0.12699999809E+01 0. -1.
</event>
<event>
 5   0  0.2467448E-03  0.1087764E+04  0.7818609E-02  0.9217201E-01
        2   -1    0    0  501    0  0.00000000000E+00  0.00000000000E+00  0.10224275957E+04  0.10224275957E+04  0.25500000920E-02 0.  1.
       -2   -1    0    0    0  501  0.00000000000E+00  0.00000000000E+00 -0.28931890601E+03  0.28931890602E+03  0.25500000920E-02 0. -1.
    10030    2    1    2    0    0  0.00000000000E+00  0.00000000000E+00  0.73310868965E+03  0.13117465017E+04  0.10877640065E+04 0.  0.
        1    1    3    3  502    0  0.11665035608E+03  0.45625927706E+02  0.10047975590E+04  0.10125745234E+04  0.50400001928E-02 0.  1.
       -1    1    3    3    0  502 -0.11665035608E+03 -0.45625927706E+02 -0.27168886933E+03  0.29917197829E+03  0.50400001928E-02 0. -1.
</event>
<event>
 5   0  0.1480937E-03  0.1112920E+04  0.7818609E-02  0.9192690E-01
        1   -1    0    0  501    0  0.00000000000E+00  0.00000000000E+00  0.15855987837E+04  0.15855987837E+04  0.50400001928E-02 0. -1.
       -1   -1    0    0    0  501  0.00000000000E+00  0.00000000000E+00 -0.19528770285E+03  0.19528770291E+03  0.50400001928E-02 0.  1.
    10030    2    1    2    0    0  0.00000000000E+00  0.00000000000E+00  0.13903110808E+04  0.17808864866E+04  0.11129203820E+04 0.  0.
        1    1    3    3  502    0 -0.14844991780E+03 -0.42823580380E+03  0.17855198493E+03  0.48713867954E+03  0.50400001928E-02 0.  1.
       -1    1    3    3    0  502  0.14844991780E+03  0.42823580380E+03  0.12117590959E+04  0.12937478071E+04  0.50400001928E-02 0. -1.
</event>
<event>
 5   0  0.1415400E-03  0.1099110E+04  0.7818609E-02  0.9206059E-01
       -1   -1    0    0    0  501  0.00000000000E+00  0.00000000000E+00  0.26733951709E+03  0.26733951714E+03  0.50400001928E-02 0.  1.
        1   -1    0    0  501    0  0.00000000000E+00  0.00000000000E+00 -0.11296906423E+04  0.11296906423E+04  0.50400001928E-02 0. -1.
    10030    2    1    2    0    0  0.00000000000E+00  0.00000000000E+00 -0.86235112516E+03  0.13970301594E+04  0.10991104600E+04 0.  0.
        2    1    3    3  502    0 -0.24345444489E+03 -0.12420573983E+03 -0.10371821700E+04  0.10725875192E+04  0.25500000920E-02 0. -1.
       -2    1    3    3    0  502  0.24345444489E+03  0.12420573983E+03  0.17483104484E+03  0.32444264022E+03  0.25500000920E-02 0.  1.
</event>
<event>
 5   0  0.2488472E-03  0.1109808E+04  0.7818609E-02  0.9195685E-01
       -2   -1    0    0    0  501  0.00000000000E+00  0.00000000000E+00  0.27716048618E+03  0.27716048619E+03  0.25500000920E-02 0.  1.
        2   -1    0    0  501    0  0.00000000000E+00  0.00000000000E+00 -0.11109754495E+04  0.11109754495E+04  0.25500000920E-02 0. -1.
    10030    2    1    2    0    0  0.00000000000E+00  0.00000000000E+00 -0.83381496332E+03  0.13881359357E+04  0.11098080838E+04 0.  0.
        2    1    3    3  502    0  0.14264159264E+03 -0.37277723660E+03  0.65269722688E+02  0.40443742258E+03  0.25500000920E-02 0.  1.
       -2    1    3    3    0  502 -0.14264159264E+03  0.37277723660E+03 -0.89908468601E+03  0.98369851312E+03  0.25500000920E-02 0. -1.
</event>
<event>
 5   0  0.2488472E-03  0.1106219E+04  0.7818609E-02  0.9199152E-01
       -2   -1    0    0    0  501  0.00000000000E+00  0.00000000000E+00  0.22809393883E+03  0.22809393885E+03  0.25500000920E-02 0. -1.
        2   -1    0    0  501    0  0.00000000000E+00  0.00000000000E+00 -0.13412450031E+04  0.13412450031E+04  0.25500000920E-02 0.  1.
    10030    2    1    2    0    0  0.00000000000E+00  0.00000000000E+00 -0.11131510642E+04  0.15693389419E+04  0.11062185240E+04 0.  0.
        2    1    3    3  502    0 -0.25305869476E+02 -0.46813974826E+03 -0.97293146587E+03  0.10799957631E+04  0.25500000920E-02 0.  1.
       -2    1    3    3    0  502  0.25305869476E+02  0.46813974826E+03 -0.14021959836E+03  0.48934317886E+03  0.25500000920E-02 0. -1.
</event>
<event>
 5   0  0.2392585E-03  0.1112557E+04  0.7818609E-02  0.9193039E-01
        2   -1    0    0  501    0  0.00000000000E+00  0.00000000000E+00  0.31063083546E+03  0.31063083547E+03  0.25500000920E-02 0. -1.
       -2   -1    0    0    0  501  0.00000000000E+00  0.00000000000E+00 -0.99618457671E+03  0.99618457671E+03  0.25500000920E-02 0.  1.
    10030    2    1    2    0    0  0.00000000000E+00  0.00000000000E+00 -0.68555374125E+03  0.13068154122E+04  0.11125567803E+04 0.  0.
        5    1    3    3  502    0 -0.37226114405E+03  0.37887002608E+03 -0.53686316665E+03  0.75522513579E+03  0.46999998093E+01 0.  1.
       -5    1    3    3    0  502  0.37226114405E+03 -0.37887002608E+03 -0.14869057460E+03  0.55159027639E+03  0.46999998093E+01 0. -1.
</event>
<event>
 5   0  0.2467448E-03  0.1103116E+04  0.7818609E-02  0.9202161E-01
       -2   -1    0    0    0  501  0.00000000000E+00  0.00000000000E+00  0.12440348235E+03  0.12440348238E+03  0.25500000920E-02 0. -1.
        2   -1    0    0  501    0  0.00000000000E+00  0.00000000000E+00 -0.24453975700E+04  0.24453975700E+04  0.25500000920E-02 0.  1.
    10030    2    1    2    0    0  0.00000000000E+00  0.00000000000E+00 -0.23209940876E+04  0.25698010523E+04  0.11031155397E+04 0.  0.
        1    1    3    3  502    0  0.10571967941E+03 -0.51323684942E+03 -0.15614784539E+04  0.16470590992E+04  0.50400001928E-02 0.  1.
       -1    1    3    3    0  502 -0.10571967941E+03  0.51323684942E+03 -0.75951563368E+03  0.92274195313E+03  0.50400001928E-02 0. -1.
</event>
<event>
 5   0  0.1509004E-03  0.1078225E+04  0.7818609E-02  0.9226679E-01
       -1   -1    0    0    0  501  0.00000000000E+00  0.00000000000E+00  0.14457021844E+03  0.14457021853E+03  0.50400001928E-02 0. -1.
        1   -1    0    0  501    0  0.00000000000E+00  0.00000000000E+00 -0.20103868700E+04  0.20103868700E+04  0.50400001928E-02 0.  1.
    10030    2    1    2    0    0  0.00000000000E+00  0.00000000000E+00 -0.18658166516E+04  0.21549570885E+04  0.10782245945E+04 0.  0.
        3    1    3    3  502    0  0.44333459109E+03  0.21852834270E+03 -0.13631536263E+04  0.14499958673E+04  0.10100000352E+00 0.  1.
       -3    1    3    3    0  502 -0.44333459109E+03 -0.21852834270E+03 -0.50266302525E+03  0.70496122119E+03  0.10100000352E+00 0. -1.
</event>
<event>
 5   0  0.2438115E-03  0.1112027E+04  0.7818609E-02  0.9193549E-01
       -2   -1    0    0    0  501  0.00000000000E+00  0.00000000000E+00  0.37816779893E+03  0.37816779894E+03  0.25500000920E-02 0.  1.
        2   -1    0    0  501    0  0.00000000000E+00  0.00000000000E+00 -0.81749638032E+03  0.81749638032E+03  0.25500000920E-02 0. -1.
    10030    2    1    2    0    0  0.00000000000E+00  0.00000000000E+00 -0.43932858139E+03  0.11956641793E+04  0.11120266306E+04 0.  0.
        4    1    3    3  502    0 -0.17851700098E+03 -0.29241026595E+03 -0.69052496069E+03  0.77084266716E+03  0.12699999809E+01 0. -1.
       -4    1    3    3    0  502  0.17851700098E+03  0.29241026595E+03  0.25119637930E+03  0.42482151210E+03  0.12699999809E+01 0.  1.
</event>
<event>
 5   0  0.2392585E-03  0.1099621E+04  0.7818609E-02  0.9205561E-01
       -2   -1    0    0    0  501  0.00000000000E+00  0.00000000000E+00  0.25270931917E+03  0.25270931919E+03  0.25500000920E-02 0. -1.
        2   -1    0    0  501    0  0.00000000000E+00  0.00000000000E+00 -0.11962037389E+04  0.11962037389E+04  0.25500000920E-02 0.  1.
    10030    2    1    2    0    0  0.00000000000E+00  0.00000000000E+00 -0.94349441971E+03  0.14489130581E+04  0.10996214484E+04 0.  0.
        5    1    3    3  502    0  0.43186574788E+02 -0.46769166087E+02 -0.11913047798E+04  0.11930136644E+04  0.46999998093E+01 0.  1.
       -5    1    3    3    0  502 -0.43186574788E+02  0.46769166087E+02  0.24781036005E+03  0.25589939368E+03  0.46999998093E+01 0. -1.
</event>
<event>
 5   0  0.2467448E-03  0.1103240E+04  0.7818609E-02  0.9202040E-01
       -2   -1    0    0    0  501  0.00000000000E+00  0.00000000000E+00  0.46217588360E+03  0.46217588361E+03  0.25500000920E-02 0.  1.
        2   -1    0    0  501    0  0.00000000000E+00  0.00000000000E+00 -0.65837358694E+03  0.65837358694E+03  0.25500000920E-02 0. -1.
    10030    2    1    2    0    0  0.00000000000E+00  0.00000000000E+00 -0.19619770333E+03  0.11205494706E+04  0.11032395828E+04 0.  0.
        1    1    3    3  502    0  0.49256569448E+03 -0.23233981790E+03 -0.18711897089E+03  0.57586132329E+03  0.50400001928E-02 0.  1.
       -1    1    3    3    0  502 -0.49256569448E+03  0.23233981790E+03 -0.90787324375E+01  0.54468814726E+03  0.50400001928E-02 0. -1.
</event>
<event>
 5   0  0.1480937E-03  0.1083536E+04  0.7818609E-02  0.9221389E-01
       -1   -1    0    0    0  501  0.00000000000E+00  0.00000000000E+00  0.84903754375E+03  0.84903754377E+03  0.50400001928E-02 0. -1.
        1   -1    0    0  501    0  0.00000000000E+00  0.00000000000E+00 -0.34570045383E+03  0.34570045387E+03  0.50400001928E-02 0.  1.
    10030    2    1    2    0    0  0.00000000000E+00  0.00000000000E+00  0.50333708992E+03  0.11947379976E+04  0.10835361816E+04 0.  0.
        1    1    3    3  502    0 -0.38163657882E+01 -0.25291988190E+03 -0.27659256480E+03  0.37481525881E+03  0.50400001928E-02 0.  1.
       -1    1    3    3    0  502  0.38163657882E+01  0.25291988190E+03  0.77992965472E+03  0.81992273883E+03  0.50400001928E-02 0. -1.
</event>
<event>
 5   0  0.9631750E-04  0.1095504E+04  0.7818609E-02  0.9209585E-01
        4   -1    0    0  501    0  0.00000000000E+00  0.00000000000E+00  0.28288809525E+03  0.28289094601E+03  0.12699999809E+01 0. -1.
       -4   -1    0    0    0  501  0.00000000000E+00  0.00000000000E+00 -0.10605958563E+04  0.10605966167E+04  0.12699999809E+01 0.  1.
    10030    2    1    2    0    0  0.00000000000E+00  0.00000000000E+00 -0.77770776105E+03  0.13434875627E+04  0.10955042079E+04 0.  0.
        4    1    3    3  502    0  0.41538269826E+03  0.16113847945E+03 -0.77960519743E+03  0.89793890233E+03  0.12699999809E+01 0.  1.
       -4    1    3    3    0  502 -0.41538269826E+03 -0.16113847945E+03  0.18974363725E+01  0.44554866035E+03  0.12699999809E+01 0. -1.
</event>
<event>
 5   0  0.1415400E-03  0.1103918E+04  0.7818609E-02  0.9201381E-01
        1   -1    0    0  501    0  0.00000000000E+00  0.00000000000E+00  0.39750989389E+03  0.39750989392E+03  0.50400001928E-02 0.  1.
       -1   -1    0    0    0  501  0.00000000000E+00  0.00000000000E+00 -0.76641862210E+03  0.76641862212E+03  0.50400001928E-02 0. -1.
    10030    2    1    2    0    0  0.00000000000E+00  0.00000000000E+00 -0.36890872821E+03  0.11639285160E+04  0.11039184484E+04 0.  0.
        2    1    3    3  502    0  0.27730144519E+03  0.56434338091E+02  0.31520379016E+03  0.42359692558E+03  0.25500000920E-02 0.  1.
       -2    1    3    3    0  502 -0.27730144519E+03 -0.56434338091E+02 -0.68411251838E+03  0.74033159045E+03  0.25500000920E-02 0. -1.
</event>
<event>
 5   0  0.2488472E-03  0.1111988E+04  0.7818609E-02  0.9193585E-01
       -2   -1    0    0    0  501  0.00000000000E+00  0.00000000000E+00  0.22531565646E+03  0.22531565647E+03  0.25500000920E-02 0.  1.
        2   -1    0    0  501    0  0.00000000000E+00  0.00000000000E+00 -0.13719839380E+04  0.13719839380E+04  0.25500000920E-02 0. -1.
    10030    2    1    2    0    0  0.00000000000E+00  0.00000000000E+00 -0.11466682816E+04  0.15972995945E+04  0.11119882403E+04 0.  0.
        2    1    3    3  502    0 -0.29983101427E+03 -0.29968766839E+03 -0.56580267776E+02  0.42768289937E+03  0.25500000920E-02 0.  1.
       -2    1    3    3    0  502  0.29983101427E+03  0.29968766839E+03 -0.10900880138E+04  0.11696166951E+04  0.25500000920E-02 0. -1.
</event>
<event>
 5   0  0.2438115E-03  0.1099558E+04  0.7818609E-02  0.9205623E-01
        2   -1    0    0  501    0  0.00000000000E+00  0.00000000000E+00  0.14997487775E+04  0.14997487775E+04  0.25500000920E-02 0.  1.
       -2   -1    0    0    0  501  0.00000000000E+00  0.00000000000E+00 -0.20153841033E+03  0.20153841035E+03  0.25500000920E-02 0. -1.
    10030    2    1    2    0    0  0.00000000000E+00  0.00000000000E+00  0.12982103671E+04  0.17012871878E+04  0.10995580649E+04 0.  0.
        4    1    3    3  502    0 -0.23381341571E+03  0.23736742356E+03 -0.27526999962E+02  0.33432223342E+03  0.12699999809E+01 0. -1.
       -4    1    3    3    0  502  0.23381341571E+03 -0.23736742356E+03  0.13257373671E+04  0.13669649544E+04  0.12699999809E+01 0.  1.
</event>
<event>
 5   0  0.2392585E-03  0.1097442E+04  0.7818609E-02  0.9207689E-01
       -2   -1    0    0    0  501  0.00000000000E+00  0.00000000000E+00  0.17840420670E+03  0.17840420672E+03  0.25500000920E-02 0. -1.
        2   -1    0    0  501    0  0.00000000000E+00  0.00000000000E+00 -0.16877109789E+04  0.16877109789E+04  0.25500000920E-02 0.  1.
    10030    2    1    2    0    0  0.00000000000E+00  0.00000000000E+00 -0.15093067722E+04  0.18661151857E+04  0.10974420046E+04 0.  0.
        5    1    3    3  502    0  0.51801385529E+03 -0.99087965663E+02 -0.10120631612E+04  0.11412496271E+04  0.46999998093E+01 0.  1.
       -5    1    3    3    0  502 -0.51801385529E+03  0.99087965663E+02 -0.49724361110E+03  0.72486555856E+03  0.46999998093E+01 0. -1.
</event>
<event>
 5   0  0.1479573E-03  0.1099978E+04  0.7818609E-02  0.9205214E-01
        1   -1    0    0  501    0  0.00000000000E+00  0.00000000000E+00  0.14227488269E+04  0.14227488269E+04  0.50400001928E-02 0.  1.
       -1   -1    0    0    0  501  0.00000000000E+00  0.00000000000E+00 -0.21260790102E+03  0.21260790108E+03  0.50400001928E-02 0. -1.
    10030    2    1    2    0    0  0.00000000000E+00  0.00000000000E+00  0.12101409259E+04  0.16353567280E+04  0.10999775303E+04 0.  0.
        4    1    3    3  502    0 -0.17806617447E+03  0.34650098520E+03  0.27895217736E+02  0.39057681870E+03  0.12699999809E+01 0. -1.
       -4    1    3    3    0  502  0.17806617447E+03 -0.34650098520E+03  0.11822457081E+04  0.12447799093E+04  0.12699999809E+01 0.  1.
</event>
<event>
 5   0  0.1479573E-03  0.1104930E+04  0.7818609E-02  0.9200400E-01
        1   -1    0    0  501    0  0.00000000000E+00  0.00000000000E+00  0.84193386758E+03  0.84193386759E+03  0.50400001928E-02 0.  1.
       -1   -1    0    0    0  501  0.00000000000E+00  0.00000000000E+00 -0.36251943643E+03  0.36251943646E+03  0.50400001928E-02 0. -1.
    10030    2    1    2    0    0  0.00000000000E+00  0.00000000000E+00  0.47941443115E+03  0.12044533041E+04  0.11049296651E+04 0.  0.
        4    1    3    3  502    0 -0.36504014065E+03  0.74437345253E+02  0.68439870459E+03  0.77922937727E+03  0.12699999809E+01 0.  1.
       -4    1    3    3    0  502  0.36504014065E+03 -0.74437345253E+02 -0.20498427344E+03  0.42522392679E+03  0.12699999809E+01 0. -1.
</event>
<event>
 5   0  0.2488472E-03  0.1108740E+04  0.7818609E-02  0.9196715E-01
       -2   -1    0    0    0  501  0.00000000000E+00  0.00000000000E+00  0.26585317656E+03  0.26585317657E+03  0.25500000920E-02 0. -1.
        2   -1    0    0  501    0  0.00000000000E+00  0.00000000000E+00 -0.11559998247E+04  0.11559998247E+04  0.25500000920E-02 0.  1.
    10030    2    1    2    0    0  0.00000000000E+00  0.00000000000E+00 -0.89014664814E+03  0.14218530013E+04  0.11087402320E+04 0.  0.
        2    1    3    3  502    0  0.16790660658E+03 -0.31060101667E+03 -0.99315759493E+03  0.10540529534E+04  0.25500000920E-02 0.  1.
       -2    1    3    3    0  502 -0.16790660658E+03  0.31060101667E+03  0.10301094679E+03  0.36780004793E+03  0.25500000920E-02 0. -1.
</event>
<event>
 5   0  0.2467448E-03  0.1100671E+04  0.7818609E-02  0.9204539E-01
        2   -1    0    0  501    0  0.00000000000E+00  0.00000000000E+00  0.11623864407E+04  0.11623864407E+04  0.25500000920E-02 0.  1.
       -2   -1    0    0    0  501  0.00000000000E+00  0.00000000000E+00 -0.26055787499E+03  0.26055787501E+03  0.25500000920E-02 0. -1.
    10030    2    1    2    0    0  0.00000000000E+00  0.00000000000E+00  0.90182856571E+03  0.14229443157E+04  0.11006705973E+04 0.  0.
        1    1    3    3  502    0 -0.52084428766E+03  0.17548819409E+03  0.48734417799E+03  0.73456056667E+03  0.50400001928E-02 0.  1.
       -1    1    3    3    0  502  0.52084428766E+03 -0.17548819409E+03  0.41448438772E+03  0.68838374904E+03  0.50400001928E-02 0. -1.
</event>
<event>
 5   0  0.2467448E-03  0.1098730E+04  0.7818609E-02  0.9206430E-01
       -2   -1    0    0    0  501  0.00000000000E+00  0.00000000000E+00  0.28078416483E+03  0.28078416484E+03  0.25500000920E-02 0. -1.
        2   -1    0    0  501    0  0.00000000000E+00  0.00000000000E+00 -0.10748540509E+04  0.10748540509E+04  0.25500000920E-02 0.  1.
    10030    2    1    2    0    0  0.00000000000E+00  0.00000000000E+00 -0.79406988603E+03  0.13556382157E+04  0.10987301707E+04 0.  0.
        1    1    3    3  502    0 -0.50004431795E+02 -0.36533348782E+03 -0.89947959390E+03  0.97212784158E+03  0.50400001928E-02 0.  1.
       -1    1    3    3    0  502  0.50004431795E+02  0.36533348782E+03  0.10540970786E+03  0.38351037412E+03  0.50400001928E-02 0. -1.
</event>
<event>
 5   0  0.1415400E-03  0.1101044E+04  0.7818609E-02  0.9204174E-01
        1   -1    0    0  501    0  0.00000000000E+00  0.00000000000E+00  0.65526840907E+03  0.65526840909E+03  0.50400001928E-02 0. -1.
       -1   -1    0    0    0  501  0.00000000000E+00  0.00000000000E+00 -0.46252000033E+03  0.46252000036E+03  0.50400001928E-02 0.  1.
    10030    2    1    2    0    0  0.00000000000E+00  0.00000000000E+00  0.19274840873E+03  0.11177884094E+04  0.11010444947E+04 0.  0.
        2    1    3    3  502    0  0.29291975474E+03  0.17355345525E+03 -0.34281526920E+03  0.48316156029E+03  0.25500000920E-02 0.  1.
       -2    1    3    3    0  502 -0.29291975474E+03 -0.17355345525E+03  0.53556367793E+03  0.63462684915E+03  0.25500000920E-02 0. -1.
</event>
<event>
 5   0  0.2392585E-03  0.1104986E+04  0.7818609E-02  0.9200346E-01
       -2   -1    0    0    0  501  0.00000000000E+00  0.00000000000E+00  0.87174134009E+03  0.87174134009E+03  0.25500000920E-02 0. -1.
        2   -1    0    0  501    0  0.00000000000E+00  0.00000000000E+00 -0.35015954584E+03  0.35015954585E+03  0.25500000920E-02 0.  1.
    10030    2    1    2    0    0  0.00000000000E+00  0.00000000000E+00  0.52158179424E+03  0.12219008859E+04  0.11049860664E+04 0.  0.
        5    1    3    3  502    0  0.33385811352E+03  0.31822343142E+03  0.59710715332E+03  0.75451072545E+03  0.46999998093E+01 0. -1.
       -5    1    3    3    0  502 -0.33385811352E+03 -0.31822343142E+03 -0.75525359080E+02  0.46739016050E+03  0.46999998093E+01 0.  1.
</event>
<event>
 5   0  0.1479573E-03  0.1100932E+04  0.7818609E-02  0.9204284E-01
       -1   -1    0    0    0  501  0.00000000000E+00  0.00000000000E+00  0.42258058042E+03  0.42258058045E+03  0.50400001928E-02 0.  1.
        1   -1    0    0  501    0  0.00000000000E+00  0.00000000000E+00 -0.71705296431E+03  0.71705296433E+03  0.50400001928E-02 0. -1.
    10030    2    1    2    0    0  0.00000000000E+00  0.00000000000E+00 -0.29447238389E+03  0.11396335448E+04  0.11009317107E+04 0.  0.
        4    1    3    3  502    0 -0.31601007965E+03  0.44997768348E+03 -0.12046673043E+03  0.56289975316E+03  0.12699999809E+01 0.  1.
       -4    1    3    3    0  502  0.31601007965E+03 -0.44997768348E+03 -0.17400565346E+03  0.57673379162E+03  0.12699999809E+01 0. -1.
</event>
<event>
 5   0  0.1480937E-03  0.1099378E+04  0.7818609E-02  0.9205798E-01
       -1   -1    0    0    0  501  0.00000000000E+00  0.00000000000E+00  0.79263770760E+03  0.79263770762E+03  0.50400001928E-02 0. -1.
        1   -1    0    0  501    0  0.00000000000E+00  0.00000000000E+00 -0.38120582353E+03  0.38120582356E+03  0.50400001928E-02 0.  1.
    10030    2    1    2    0    0  0.00000000000E+00  0.00000000000E+00  0.41143188407E+03  0.11738435312E+04  0.10993782063E+04 0.  0.
        1    1    3    3  502    0  0.63353879293E+02 -0.13481373953E+03 -0.35924518435E+03  0.38890302247E+03  0.50400001928E-02 0.  1.
       -1    1    3    3    0  502 -0.63353879293E+02  0.13481373953E+03  0.77067706842E+03  0.78494050870E+03  0.50400001928E-02 0. -1.
</event>
<event>
 5   0  0.1480937E-03  0.1100731E+04  0.7818609E-02  0.9204480E-01
        1   -1    0    0  501    0  0.00000000000E+00  0.00000000000E+00  0.85174842818E+03  0.85174842820E+03  0.50400001928E-02 0. -1.
       -1   -1    0    0    0  501  0.00000000000E+00  0.00000000000E+00 -0.35562397396E+03  0.35562397399E+03  0.50400001928E-02 0.  1.
    10030    2    1    2    0    0  0.00000000000E+00  0.00000000000E+00  0.49612445422E+03  0.12073724022E+04  0.11007309587E+04 0.  0.
        1    1    3    3  502    0  0.50795112859E+02  0.54474179639E+03  0.18244708739E+03  0.57672411771E+03  0.50400001928E-02 0.  1.
       -1    1    3    3    0  502 -0.50795112859E+02 -0.54474179639E+03  0.31367736684E+03  0.63064828448E+03  0.50400001928E-02 0. -1.
</event>
<event>
 5   0  0.9631750E-04  0.1107010E+04  0.7818609E-02  0.9198386E-01
       -4   -1    0    0    0  501  0.00000000000E+00  0.00000000000E+00  0.23275396141E+03  0.23275742620E+03  0.12699999809E+01 0.  1.
        4   -1    0    0  501    0  0.00000000000E+00  0.00000000000E+00 -0.13162602580E+04  0.13162608707E+04  0.12699999809E+01 0. -1.
    10030    2    1    2    0    0  0.00000000000E+00  0.00000000000E+00 -0.10835062966E+04  0.15490182969E+04  0.11070102932E+04 0.  0.
        5    1    3    3  502    0 -0.51449461218E+03 -0.66558602227E+02 -0.27182935706E+03  0.58570303299E+03  0.46999998093E+01 0.  1.
       -5    1    3    3    0  502  0.51449461218E+03  0.66558602227E+02 -0.81167693954E+03  0.96331526390E+03  0.46999998093E+01 0. -1.
</event>
<event>
 5   0  0.9631750E-04  0.1084093E+04  0.7818609E-02  0.9220836E-01
        3   -1    0    0  501    0  0.00000000000E+00  0.00000000000E+00  0.70184743713E+03  0.70184744440E+03  0.10100000352E+00 0. -1.
       -3   -1    0    0    0  501  0.00000000000E+00  0.00000000000E+00 -0.41862990957E+03  0.41862992175E+03  0.10100000352E+00 0.  1.
    10030    2    1    2    0    0  0.00000000000E+00  0.00000000000E+00  0.28321752756E+03  0.11204773661E+04  0.10840928743E+04 0.  0.
        5    1    3    3  502    0 -0.16281751477E+03 -0.18884155542E+03  0.63903203868E+03  0.68596990650E+03  0.46999998093E+01 0. -1.
       -5    1    3    3    0  502  0.16281751477E+03  0.18884155542E+03 -0.35581451112E+03  0.43450745965E+03  0.46999998093E+01 0.  1.
</event>
<event>
 5   0  0.1480937E-03  0.1098337E+04  0.7818609E-02  0.9206814E-01
        1   -1    0    0  501    0  0.00000000000E+00  0.00000000000E+00  0.56406019449E+03  0.56406019451E+03  0.50400001928E-02 0.  1.
       -1   -1    0    0    0  501  0.00000000000E+00  0.00000000000E+00 -0.53466997024E+03  0.53466997027E+03  0.50400001928E-02 0. -1.
    10030    2    1    2    0    0  0.00000000000E+00  0.00000000000E+00  0.29390224247E+02  0.10987301648E+04  0.10983370110E+04 0.  0.
        1    1    3    3  502    0  0.20901437171E+03  0.26447573757E+03  0.44838417597E+03  0.56096594605E+03  0.50400001928E-02 0.  1.
       -1    1    3    3    0  502 -0.20901437171E+03 -0.26447573757E+03 -0.41899395172E+03  0.53776421873E+03  0.50400001928E-02 0. -1.
</event>
<event>
 5   0  0.2483036E-03  0.1155372E+04  0.7818609E-02  0.9152842E-01
       -2   -1    0    0    0  501  0.00000000000E+00  0.00000000000E+00  0.21625288432E+03  0.21625288433E+03  0.25500000920E-02 0.  1.
        2   -1    0    0  501    0  0.00000000000E+00  0.00000000000E+00 -0.15431972965E+04  0.15431972965E+04  0.25500000920E-02 0. -1.
    10030    2    1    2    0    0  0.00000000000E+00  0.00000000000E+00 -0.13269444122E+04  0.17594501808E+04  0.11553715705E+04 0.  0.
        3    1    3    3  502    0 -0.15588547527E+03  0.55237479640E+03 -0.56358180224E+03  0.80438961649E+03  0.10100000352E+00 0.  1.
       -3    1    3    3    0  502  0.15588547527E+03 -0.55237479640E+03 -0.76336260993E+03  0.95506056433E+03  0.10100000352E+00 0. -1.
</event>
<event>
 5   0  0.1480937E-03  0.1101293E+04  0.7818609E-02  0.9203932E-01
        1   -1    0    0  501    0  0.00000000000E+00  0.00000000000E+00  0.56547174572E+03  0.56547174574E+03  0.50400001928E-02 0.  1.
       -1   -1    0    0    0  501  0.00000000000E+00  0.00000000000E+00 -0.53621032448E+03  0.53621032450E+03  0.50400001928E-02 0. -1.
    10030    2    1    2    0    0  0.00000000000E+00  0.00000000000E+00  0.29261421243E+02  0.11016820702E+04  0.11012934001E+04 0.  0.
        1    1    3    3  502    0  0.93427622306E+01 -0.29586190081E+03 -0.44985011398E+03  0.53850411013E+03  0.50400001928E-02 0. -1.
       -1    1    3    3    0  502 -0.93427622306E+01  0.29586190081E+03  0.47911153522E+03  0.56317796012E+03  0.50400001928E-02 0.  1.
</event>
<event>
 5   0  0.2438115E-03  0.1089638E+04  0.7818609E-02  0.9215351E-01
        2   -1    0    0  501    0  0.00000000000E+00  0.00000000000E+00  0.24468617527E+04  0.24468617527E+04  0.25500000920E-02 0. -1.
       -2   -1    0    0    0  501  0.00000000000E+00  0.00000000000E+00 -0.12130957882E+03  0.12130957885E+03  0.25500000920E-02 0.  1.
    10030    2    1    2    0    0  0.00000000000E+00  0.00000000000E+00  0.23255521739E+04  0.25681713316E+04  0.10896380476E+04 0.  0.
        4    1    3    3  502    0 -0.32821200712E+03  0.42356249332E+03  0.13948783795E+04  0.14942608922E+04  0.12699999809E+01 0. -1.
       -4    1    3    3    0  502  0.32821200712E+03 -0.42356249332E+03  0.93067379437E+03  0.10739104394E+04  0.12699999809E+01 0.  1.
</event>
<event>
 5   0  0.2483036E-03  0.1094527E+04  0.7818609E-02  0.9210543E-01
        2   -1    0    0  501    0  0.00000000000E+00  0.00000000000E+00  0.65930339005E+03  0.65930339005E+03  0.25500000920E-02 0.  1.
       -2   -1    0    0    0  501  0.00000000000E+00  0.00000000000E+00 -0.45426306161E+03  0.45426306162E+03  0.25500000920E-02 0. -1.
    10030    2    1    2    0    0  0.00000000000E+00  0.00000000000E+00  0.20504032843E+03  0.11135664517E+04  0.10945267041E+04 0.  0.
        3    1    3    3  502    0 -0.19513069751E+03 -0.50994618230E+03  0.14026084930E+03  0.56373239573E+03  0.10100000352E+00 0. -1.
       -3    1    3    3    0  502  0.19513069751E+03  0.50994618230E+03  0.64779479128E+02  0.54983405594E+03  0.10100000352E+00 0.  1.
</event>
<event>
 5   0  0.2488472E-03  0.1098585E+04  0.7818609E-02  0.9206572E-01
        2   -1    0    0  501    0  0.00000000000E+00  0.00000000000E+00  0.15223097724E+04  0.15223097724E+04  0.25500000920E-02 0.  1.
       -2   -1    0    0    0  501  0.00000000000E+00  0.00000000000E+00 -0.19820042535E+03  0.19820042537E+03  0.25500000920E-02 0. -1.
    10030    2    1    2    0    0  0.00000000000E+00  0.00000000000E+00  0.13241093471E+04  0.17205101978E+04  0.10985853530E+04 0.  0.
        2    1    3    3  502    0  0.90862377752E+02 -0.21213046840E+03 -0.11859813172E+03  0.25946256795E+03  0.25500000920E-02 0. -1.
       -2    1    3    3    0  502 -0.90862377752E+02  0.21213046840E+03  0.14427074788E+04  0.14610476298E+04  0.25500000920E-02 0.  1.
</event>
<event>
 5   0  0.1468556E-03  0.1100038E+04  0.7818609E-02  0.9205154E-01
       -1   -1    0    0    0  501  0.00000000000E+00  0.00000000000E+00  0.12667579748E+04  0.12667579748E+04  0.50400001928E-02 0.  1.
        1   -1    0    0  501    0  0.00000000000E+00  0.00000000000E+00 -0.23881524603E+03  0.23881524609E+03  0.50400001928E-02 0. -1.
    10030    2    1    2    0    0  0.00000000000E+00  0.00000000000E+00  0.10279427288E+04  0.15055732209E+04  0.11000383947E+04 0.  0.
        5    1    3    3  502    0 -0.12203252734E+03  0.37593816111E+03 -0.94879527486E+01  0.39539037666E+03  0.46999998093E+01 0.  1.
       -5    1    3    3    0  502  0.12203252734E+03 -0.37593816111E+03  0.10374306815E+04  0.11101828443E+04  0.46999998093E+01 0. -1.
</event>
<event>
 5   0  0.1480937E-03  0.1093740E+04  0.7818609E-02  0.9211315E-01
       -1   -1    0    0    0  501  0.00000000000E+00  0.00000000000E+00  0.35071406233E+03  0.35071406237E+03  0.50400001928E-02 0.  1.
        1   -1    0    0  501    0  0.00000000000E+00  0.00000000000E+00 -0.85273617066E+03  0.85273617067E+03  0.50400001928E-02 0. -1.
    10030    2    1    2    0    0  0.00000000000E+00  0.00000000000E+00 -0.50202210832E+03  0.12034502330E+04  0.10937395788E+04 0.  0.
        1    1    3    3  502    0  0.75909946747E+02  0.47590423811E+03 -0.53543457075E+03  0.72037305852E+03  0.50400001928E-02 0. -1.
       -1    1    3    3    0  502 -0.75909946747E+02 -0.47590423811E+03  0.33412462427E+02  0.48307717452E+03  0.50400001928E-02 0.  1.
</event>
<event>
 5   0  0.2438115E-03  0.1106879E+04  0.7818609E-02  0.9198513E-01
       -2   -1    0    0    0  501  0.00000000000E+00  0.00000000000E+00  0.26891486984E+03  0.26891486986E+03  0.25500000920E-02 0. -1.
        2   -1    0    0  501    0  0.00000000000E+00  0.00000000000E+00 -0.11390043746E+04  0.11390043746E+04  0.25500000920E-02 0.  1.
    10030    2    1    2    0    0  0.00000000000E+00  0.00000000000E+00 -0.87008950477E+03  0.14079192445E+04  0.11068788789E+04 0.  0.
        4    1    3    3  502    0 -0.12098320143E+03  0.13407634498E+03  0.23038058458E+03  0.29272893257E+03  0.12699999809E+01 0. -1.
       -4    1    3    3    0  502  0.12098320143E+03 -0.13407634498E+03 -0.11004700893E+04  0.11151903119E+04  0.12699999809E+01 0.  1.
</event>
<event>
 5   0  0.2438115E-03  0.1099313E+04  0.7818609E-02  0.9205862E-01
        2   -1    0    0  501    0  0.00000000000E+00  0.00000000000E+00  0.13994110860E+04  0.13994110860E+04  0.25500000920E-02 0. -1.
       -2   -1    0    0    0  501  0.00000000000E+00  0.00000000000E+00 -0.21589227328E+03  0.21589227330E+03  0.25500000920E-02 0.  1.
    10030    2    1    2    0    0  0.00000000000E+00  0.00000000000E+00  0.11835188127E+04  0.16153033593E+04  0.10993125863E+04 0.  0.
        4    1    3    3  502    0  0.31667770317E+03 -0.38934340168E+03  0.92113361397E+03  0.10489813153E+04  0.12699999809E+01 0. -1.
       -4    1    3    3    0  502 -0.31667770317E+03  0.38934340168E+03  0.26238519874E+03  0.56632204401E+03  0.12699999809E+01 0.  1.
</event>
<event>
 5   0  0.2392585E-03  0.1104327E+04  0.7818609E-02  0.9200985E-01
       -2   -1    0    0    0  501  0.00000000000E+00  0.00000000000E+00  0.41403007880E+03  0.41403007880E+03  0.25500000920E-02 0.  1.
        2   -1    0    0  501    0  0.00000000000E+00  0.00000000000E+00 -0.73638247259E+03  0.73638247259E+03  0.25500000920E-02 0. -1.
    10030    2    1    2    0    0  0.00000000000E+00  0.00000000000E+00 -0.32235239379E+03  0.11504125514E+04  0.11043269319E+04 0.  0.
        5    1    3    3  502    0 -0.99222498040E+02 -0.37820884384E+03  0.24493274454E+03  0.46141215093E+03  0.46999998093E+01 0.  1.
       -5    1    3    3    0  502  0.99222498040E+02  0.37820884384E+03 -0.56728513834E+03  0.68900040047E+03  0.46999998093E+01 0. -1.
</event>
<event>
 5   0  0.2483036E-03  0.1096292E+04  0.7818609E-02  0.9208814E-01
       -2   -1    0    0    0  501  0.00000000000E+00  0.00000000000E+00  0.45698655248E+03  0.45698655249E+03  0.25500000920E-02 0.  1.
        2   -1    0    0  501    0  0.00000000000E+00  0.00000000000E+00 -0.65748982431E+03  0.65748982431E+03  0.25500000920E-02 0. -1.
    10030    2    1    2    0    0  0.00000000000E+00  0.00000000000E+00 -0.20050327183E+03  0.11144763768E+04  0.10962919467E+04 0.  0.
        3    1    3    3  502    0 -0.37219920540E+02  0.54687959090E+03 -0.99053752228E+02  0.55702267948E+03  0.10100000352E+00 0.  1.
       -3    1    3    3    0  502  0.37219920540E+02 -0.54687959090E+03 -0.10144951960E+03  0.55745369732E+03  0.10100000352E+00 0. -1.
</event>
<event>
 5   0  0.2438115E-03  0.1102394E+04  0.7818609E-02  0.9202861E-01
        2   -1    0    0  501    0  0.00000000000E+00  0.00000000000E+00  0.10487314604E+04  0.10487314604E+04  0.25500000920E-02 0. -1.
       -2   -1    0    0    0  501  0.00000000000E+00  0.00000000000E+00 -0.28970075418E+03  0.28970075419E+03  0.25500000920E-02 0.  1.
    10030    2    1    2    0    0  0.00000000000E+00  0.00000000000E+00  0.75903070623E+03  0.13384322146E+04  0.11023942943E+04 0.  0.
        4    1    3    3  502    0  0.19325457950E+02 -0.81980337148E+02 -0.28183960700E+03  0.29415884480E+03  0.12699999809E+01 0.  1.
       -4    1    3    3    0  502 -0.19325457950E+02  0.81980337148E+02  0.10408703132E+04  0.10442733698E+04  0.12699999809E+01 0. -1.
</event>
<event>
 5   0  0.1468556E-03  0.1097334E+04  0.7818609E-02  0.9207794E-01
       -1   -1    0    0    0  501  0.00000000000E+00  0.00000000000E+00  0.38273745714E+03  0.38273745717E+03  0.50400001928E-02 0. -1.
        1   -1    0    0  501    0  0.00000000000E+00  0.00000000000E+00 -0.78653260762E+03  0.78653260763E+03  0.50400001928E-02 0.  1.
    10030    2    1    2    0    0  0.00000000000E+00  0.00000000000E+00 -0.40379515048E+03  0.11692700648E+04  0.10973340243E+04 0.  0.
        5    1    3    3  502    0 -0.29828008371E+02  0.11553087780E+03  0.36872325240E+03  0.38757711577E+03  0.46999998093E+01 0. -1.
       -5    1    3    3    0  502  0.29828008371E+02 -0.11553087780E+03 -0.77251840287E+03  0.78169294904E+03  0.46999998093E+01 0.  1.
</event>
<event>
 5   0  0.1415400E-03  0.1100609E+04  0.7818609E-02  0.9204599E-01
        1   -1    0    0  501    0  0.00000000000E+00  0.00000000000E+00  0.86552310922E+03  0.86552310924E+03  0.50400001928E-02 0. -1.
       -1   -1    0    0    0  501  0.00000000000E+00  0.00000000000E+00 -0.34988656510E+03  0.34988656514E+03  0.50400001928E-02 0.  1.
    10030    2    1    2    0    0  0.00000000000E+00  0.00000000000E+00  0.51563654412E+03  0.12154096744E+04  0.11006087547E+04 0.  0.
        2    1    3    3  502    0  0.30841526389E+03 -0.67457097211E+02  0.75557095384E+03  0.81887599870E+03  0.25500000920E-02 0. -1.
       -2    1    3    3    0  502 -0.30841526389E+03  0.67457097211E+02 -0.23993440972E+03  0.39653367567E+03  0.25500000920E-02 0.  1.
</event>
<event>
 5   0  0.9631750E-04  0.1089475E+04  0.7818609E-02  0.9215512E-01
        3   -1    0    0  501    0  0.00000000000E+00  0.00000000000E+00  0.13344188378E+04  0.13344188417E+04  0.10100000352E+00 0.  1.
       -3   -1    0    0    0  501  0.00000000000E+00  0.00000000000E+00 -0.22237297467E+03  0.22237299760E+03  0.10100000352E+00 0. -1.
    10030    2    1    2    0    0  0.00000000000E+00  0.00000000000E+00  0.11120458632E+04  0.15567918393E+04  0.10894745656E+04 0.  0.
        5    1    3    3  502    0  0.43286564803E+03  0.36448777350E+02  0.86392361305E+02  0.44292991851E+03  0.46999998093E+01 0. -1.
       -5    1    3    3    0  502 -0.43286564803E+03 -0.36448777350E+02  0.10256535019E+04  0.11138619208E+04  0.46999998093E+01 0.  1.
</event>
<event>
 5   0  0.2438115E-03  0.1101552E+04  0.7818609E-02  0.9203681E-01
       -2   -1    0    0    0  501  0.00000000000E+00  0.00000000000E+00  0.87306180932E+03  0.87306180932E+03  0.25500000920E-02 0. -1.
        2   -1    0    0  501    0  0.00000000000E+00  0.00000000000E+00 -0.34745989695E+03  0.34745989696E+03  0.25500000920E-02 0.  1.
    10030    2    1    2    0    0  0.00000000000E+00  0.00000000000E+00  0.52560191237E+03  0.12205217063E+04  0.11015515717E+04 0.  0.
        4    1    3    3  502    0 -0.47126271797E+03 -0.24081066944E+03  0.93766038568E+02  0.53746814859E+03  0.12699999809E+01 0.  1.
       -4    1    3    3    0  502  0.47126271797E+03  0.24081066944E+03  0.43183587381E+03  0.68305355769E+03  0.12699999809E+01 0. -1.
</event>
<event>
 5   0  0.2483036E-03  0.1108290E+04  0.7818609E-02  0.9197149E-01
        2   -1    0    0  501    0  0.00000000000E+00  0.00000000000E+00  0.10306246267E+04  0.10306246267E+04  0.25500000920E-02 0. -1.
       -2   -1    0    0    0  501  0.00000000000E+00  0.00000000000E+00 -0.29795221383E+03  0.29795221384E+03  0.25500000920E-02 0.  1.
    10030    2    1    2    0    0  0.00000000000E+00  0.00000000000E+00  0.73267241282E+03  0.13285768405E+04  0.11082903756E+04 0.  0.
        3    1    3    3  502    0 -0.17166340299E+03 -0.28795036750E+03 -0.16260626675E+03  0.37259166155E+03  0.10100000352E+00 0.  1.
       -3    1    3    3    0  502  0.17166340299E+03  0.28795036750E+03  0.89527867957E+03  0.95598517895E+03  0.10100000352E+00 0. -1.
</event>
<event>
 5   0  0.9631750E-04  0.1100594E+04  0.7818609E-02  0.9204613E-01
       -3   -1    0    0    0  501  0.00000000000E+00  0.00000000000E+00  0.75071000822E+03  0.75071001501E+03  0.10100000352E+00 0.  1.
        3   -1    0    0  501    0  0.00000000000E+00  0.00000000000E+00 -0.40338721413E+03  0.40338722678E+03  0.10100000352E+00 0. -1.
    10030    2    1    2    0    0  0.00000000000E+00  0.00000000000E+00  0.34732279408E+03  0.11540972418E+04  0.11005940760E+04 0.  0.
        2    1    3    3  502    0 -0.11009143752E+03 -0.53074997552E+03  0.27320326763E+03  0.60700550786E+03  0.25500000920E-02 0.  1.
       -2    1    3    3    0  502  0.11009143752E+03  0.53074997552E+03  0.74119526455E+02  0.54709173393E+03  0.25500000920E-02 0. -1.
</event>
<event>
 5   0  0.2488472E-03  0.1095562E+04  0.7818609E-02  0.9209529E-01
        2   -1    0    0  501    0  0.00000000000E+00  0.00000000000E+00  0.72109825725E+03  0.72109825726E+03  0.25500000920E-02 0. -1.
       -2   -1    0    0    0  501  0.00000000000E+00  0.00000000000E+00 -0.41612065303E+03  0.41612065304E+03  0.25500000920E-02 0.  1.
    10030    2    1    2    0    0  0.00000000000E+00  0.00000000000E+00  0.30497760422E+03  0.11372189103E+04  0.10955617330E+04 0.  0.
        2    1    3    3  502    0  0.74425892031E+02 -0.31596152010E+03  0.61050661340E+03  0.69143996167E+03  0.25500000920E-02 0. -1.
       -2    1    3    3    0  502 -0.74425892031E+02  0.31596152010E+03 -0.30552900917E+03  0.44577894863E+03  0.25500000920E-02 0.  1.
</event>
<event>
 5   0  0.2438115E-03  0.1103123E+04  0.7818609E-02  0.9202154E-01
        2   -1    0    0  501    0  0.00000000000E+00  0.00000000000E+00  0.60291140341E+03  0.60291140341E+03  0.25500000920E-02 0. -1.
       -2   -1    0    0    0  501  0.00000000000E+00  0.00000000000E+00 -0.50458473740E+03  0.50458473741E+03  0.25500000920E-02 0.  1.
    10030    2    1    2    0    0  0.00000000000E+00  0.00000000000E+00  0.98326666009E+02  0.11074961408E+04  0.11031226444E+04 0.  0.
        4    1    3    3  502    0  0.52623456339E+03  0.52413960235E+02  0.20646329046E+03  0.56771360926E+03  0.12699999809E+01 0. -1.
       -4    1    3    3    0  502 -0.52623456339E+03 -0.52413960235E+02 -0.10813662445E+03  0.53978253156E+03  0.12699999809E+01 0.  1.
</event>
<event>
 5   0  0.1480937E-03  0.1147372E+04  0.7818609E-02  0.9160211E-01
       -1   -1    0    0    0  501  0.00000000000E+00  0.00000000000E+00  0.45412281124E+03  0.45412281127E+03  0.50400001928E-02 0. -1.
        1   -1    0    0  501    0  0.00000000000E+00  0.00000000000E+00 -0.72472846464E+03  0.72472846466E+03  0.50400001928E-02 0.  1.
    10030    2    1    2    0    0  0.00000000000E+00  0.00000000000E+00 -0.27060565340E+03  0.11788512759E+04  0.11473721764E+04 0.  0.
        1    1    3    3  502    0  0.17163777062E+03 -0.13049010187E+03 -0.68151667765E+03  0.71480918638E+03  0.50400001928E-02 0.  1.
       -1    1    3    3    0  502 -0.17163777062E+03  0.13049010187E+03  0.41091102425E+03  0.46404208955E+03  0.50400001928E-02 0. -1.
</event>
<event>
 5   0  0.2488472E-03  0.1110934E+04  0.7818609E-02  0.9194600E-01
        2   -1    0    0  501    0  0.00000000000E+00  0.00000000000E+00  0.50031337646E+03  0.50031337647E+03  0.25500000920E-02 0.  1.
       -2   -1    0    0    0  501  0.00000000000E+00  0.00000000000E+00 -0.61670041359E+03  0.61670041360E+03  0.25500000920E-02 0. -1.
    10030    2    1    2    0    0  0.00000000000E+00  0.00000000000E+00 -0.11638703713E+03  0.11170137901E+04  0.11109337806E+04 0.  0.
        2    1    3    3  502    0 -0.41713760260E+03 -0.26215195084E+03 -0.31614393932E+03  0.58538398954E+03  0.25500000920E-02 0. -1.
       -2    1    3    3    0  502  0.41713760260E+03  0.26215195084E+03  0.19975690219E+03  0.53162980053E+03  0.25500000920E-02 0.  1.
</event>
<event>
 5   0  0.1468556E-03  0.1106326E+04  0.7818609E-02  0.9199048E-01
        1   -1    0    0  501    0  0.00000000000E+00  0.00000000000E+00  0.19338272514E+04  0.19338272514E+04  0.50400001928E-02 0. -1.
       -1   -1    0    0    0  501  0.00000000000E+00  0.00000000000E+00 -0.15822994976E+03  0.15822994984E+03  0.50400001928E-02 0.  1.
    10030    2    1    2    0    0  0.00000000000E+00  0.00000000000E+00  0.17755973016E+04  0.20920572012E+04  0.11063261525E+04 0.  0.
        5    1    3    3  502    0 -0.26046956923E+03  0.42844642016E+02 -0.31402395318E+02  0.26587263920E+03  0.46999998093E+01 0. -1.
       -5    1    3    3    0  502  0.26046956923E+03 -0.42844642016E+02  0.18069996969E+04  0.18261845620E+04  0.46999998093E+01 0.  1.
</event>
<event>
 5   0  0.9631750E-04  0.1020920E+04  0.7818609E-02  0.9285893E-01
        3   -1    0    0  501    0  0.00000000000E+00  0.00000000000E+00  0.28143666639E+03  0.28143668451E+03  0.10100000352E+00 0.  1.
       -3   -1    0    0    0  501  0.00000000000E+00  0.00000000000E+00 -0.92585475279E+03  0.92585475830E+03  0.10100000352E+00 0. -1.
    10030    2    1    2    0    0  0.00000000000E+00  0.00000000000E+00 -0.64441808641E+03  0.12072914428E+04  0.10209201525E+04 0.  0.
        1    1    3    3  502    0  0.32194989730E+03  0.39583798771E+03 -0.34014491693E+03  0.61321938442E+03  0.50400001928E-02 0.  1.
       -1    1    3    3    0  502 -0.32194989730E+03 -0.39583798771E+03 -0.30427316947E+03  0.59407205840E+03  0.50400001928E-02 0. -1.
</event>
<event>
 5   0  0.1480937E-03  0.1104185E+04  0.7818609E-02  0.9201122E-01
        1   -1    0    0  501    0  0.00000000000E+00  0.00000000000E+00  0.89157043580E+03  0.89157043581E+03  0.50400001928E-02 0. -1.
       -1   -1    0    0    0  501  0.00000000000E+00  0.00000000000E+00 -0.34187554068E+03  0.34187554072E+03  0.50400001928E-02 0.  1.
    10030    2    1    2    0    0  0.00000000000E+00  0.00000000000E+00  0.54969489512E+03  0.12334459765E+04  0.11041849932E+04 0.  0.
        1    1    3    3  502    0  0.17782323762E+03 -0.50737502930E+03  0.41506286648E+03  0.67921109189E+03  0.50400001928E-02 0. -1.
       -1    1    3    3    0  502 -0.17782323762E+03  0.50737502930E+03  0.13463202864E+03  0.55423488464E+03  0.50400001928E-02 0.  1.
</event>
<event>
 5   0  0.2392585E-03  0.1098016E+04  0.7818609E-02  0.9207127E-01
        2   -1    0    0  501    0  0.00000000000E+00  0.00000000000E+00  0.68109841817E+03  0.68109841818E+03  0.25500000920E-02 0.  1.
       -2   -1    0    0    0  501  0.00000000000E+00  0.00000000000E+00 -0.44253516119E+03  0.44253516120E+03  0.25500000920E-02 0. -1.
    10030    2    1    2    0    0  0.00000000000E+00  0.00000000000E+00  0.23856325698E+03  0.11236335794E+04  0.10980163902E+04 0.  0.
        5    1    3    3  502    0 -0.57485584192E+02  0.58704683049E+02 -0.43618706199E+03  0.44388295220E+03  0.46999998093E+01 0. -1.
       -5    1    3    3    0  502  0.57485584192E+02 -0.58704683049E+02  0.67475031898E+03  0.67975062718E+03  0.46999998093E+01 0.  1.
</event>
<event>
 5   0  0.1468556E-03  0.1077056E+04  0.7818609E-02  0.9227848E-01
       -1   -1    0    0    0  501  0.00000000000E+00  0.00000000000E+00  0.53280175305E+03  0.53280175307E+03  0.50400001928E-02 0.  1.
        1   -1    0    0  501    0  0.00000000000E+00  0.00000000000E+00 -0.54431549538E+03  0.54431549541E+03  0.50400001928E-02 0. -1.
    10030    2    1    2    0    0  0.00000000000E+00  0.00000000000E+00 -0.11513742335E+02  0.10771172485E+04  0.10770557092E+04 0.  0.
        5    1    3    3  502    0 -0.51103694993E+03 -0.37346062244E+02  0.15989276807E+03  0.53678792818E+03  0.46999998093E+01 0.  1.
       -5    1    3    3    0  502  0.51103694993E+03  0.37346062244E+02 -0.17140651041E+03  0.54032932030E+03  0.46999998093E+01 0. -1.
</event>
<event>
 5   0  0.2483036E-03  0.1108788E+04  0.7818609E-02  0.9196668E-01
       -2   -1    0    0    0  501  0.00000000000E+00  0.00000000000E+00  0.82232537639E+03  0.82232537639E+03  0.25500000920E-02 0. -1.
        2   -1    0    0  501    0  0.00000000000E+00  0.00000000000E+00 -0.37376060185E+03  0.37376060186E+03  0.25500000920E-02 0.  1.
    10030    2    1    2    0    0  0.00000000000E+00  0.00000000000E+00  0.44856477454E+03  0.11960859783E+04  0.11087882171E+04 0.  0.
        3    1    3    3  502    0 -0.10783634875E+03 -0.54013803026E+03  0.29229429569E+03  0.62354930466E+03  0.10100000352E+00 0. -1.
       -3    1    3    3    0  502  0.10783634875E+03  0.54013803026E+03  0.15627047885E+03  0.57253667359E+03  0.10100000352E+00 0.  1.
</event>
<event>
 5   0  0.1480937E-03  0.1110029E+04  0.7818609E-02  0.9195472E-01
        1   -1    0    0  501    0  0.00000000000E+00  0.00000000000E+00  0.75663487282E+03  0.75663487283E+03  0.50400001928E-02 0. -1.
       -1   -1    0    0    0  501  0.00000000000E+00  0.00000000000E+00 -0.40712000841E+03  0.40712000844E+03  0.50400001928E-02 0.  1.
    10030    2    1    2    0    0  0.00000000000E+00  0.00000000000E+00  0.34951486441E+03  0.11637548813E+04  0.11100291813E+04 0.  0.
        1    1    3    3  502    0 -0.27969055967E+03 -0.58714913180E+02 -0.32405081459E+03  0.43206849070E+03  0.50400001928E-02 0.  1.
       -1    1    3    3    0  502  0.27969055967E+03  0.58714913180E+02  0.67356567900E+03  0.73168639057E+03  0.50400001928E-02 0. -1.
</event>
<event>
 5   0  0.1509004E-03  0.1092295E+04  0.7818609E-02  0.9212734E-01
        1   -1    0    0  501    0  0.00000000000E+00  0.00000000000E+00  0.51505705047E+03  0.51505705049E+03  0.50400001928E-02 0.  1.
       -1   -1    0    0    0  501  0.00000000000E+00  0.00000000000E+00 -0.57911486159E+03  0.57911486161E+03  0.50400001928E-02 0. -1.
    10030    2    1    2    0    0  0.00000000000E+00  0.00000000000E+00 -0.64057811123E+02  0.10941719121E+04  0.10922951845E+04 0.  0.
        3    1    3    3  502    0 -0.12716811088E+03  0.19601014714E+02 -0.56371505814E+03  0.57821328692E+03  0.10100000352E+00 0. -1.
       -3    1    3    3    0  502  0.12716811088E+03 -0.19601014714E+02  0.49965724701E+03  0.51595862518E+03  0.10100000352E+00 0.  1.
</event>
<event>
 5   0  0.2483036E-03  0.1088072E+04  0.7818609E-02  0.9216896E-01
       -2   -1    0    0    0  501  0.00000000000E+00  0.00000000000E+00  0.18525796469E+03  0.18525796471E+03  0.25500000920E-02 0. -1.
        2   -1    0    0  501    0  0.00000000000E+00  0.00000000000E+00 -0.15976385209E+04  0.15976385209E+04  0.25500000920E-02 0.  1.
    10030    2    1    2    0    0  0.00000000000E+00  0.00000000000E+00 -0.14123805563E+04  0.17828964857E+04  0.10880721680E+04 0.  0.
        3    1    3    3  502    0  0.10948290874E+03  0.17523017254E+03  0.11846332231E+03  0.23817155499E+03  0.10100000352E+00 0. -1.
       -3    1    3    3    0  502 -0.10948290874E+03 -0.17523017254E+03 -0.15308438786E+04  0.15447249307E+04  0.10100000352E+00 0.  1.
</event>
<event>
 5   0  0.2392585E-03  0.1103445E+04  0.7818609E-02  0.9201840E-01
        2   -1    0    0  501    0  0.00000000000E+00  0.00000000000E+00  0.61669696149E+03  0.61669696149E+03  0.25500000920E-02 0.  1.
       -2   -1    0    0    0  501  0.00000000000E+00  0.00000000000E+00 -0.49359382783E+03  0.49359382783E+03  0.25500000920E-02 0. -1.
    10030    2    1    2    0    0  0.00000000000E+00  0.00000000000E+00  0.12310313366E+03  0.11102907893E+04  0.11034451755E+04 0.  0.
        5    1    3    3  502    0 -0.19949680905E+03  0.41746102321E+03  0.36392049814E+03  0.58867045253E+03  0.46999998093E+01 0.  1.
       -5    1    3    3    0  502  0.19949680905E+03 -0.41746102321E+03 -0.24081736448E+03  0.52162033679E+03  0.46999998093E+01 0. -1.
</event>
<event>
 5   0  0.2392585E-03  0.1103264E+04  0.7818609E-02  0.9202016E-01
        2   -1    0    0  501    0  0.00000000000E+00  0.00000000000E+00  0.79459620262E+03  0.79459620262E+03  0.25500000920E-02 0.  1.
       -2   -1    0    0    0  501  0.00000000000E+00  0.00000000000E+00 -0.38295931938E+03  0.38295931938E+03  0.25500000920E-02 0. -1.
    10030    2    1    2    0    0  0.00000000000E+00  0.00000000000E+00  0.41163688324E+03  0.11775555220E+04  0.11032642855E+04 0.  0.
        5    1    3    3  502    0 -0.14554247878E+03 -0.40751114952E+03  0.57094774597E+03  0.71641563966E+03  0.46999998093E+01 0.  1.
       -5    1    3    3    0  502  0.14554247878E+03  0.40751114952E+03 -0.15931086273E+03  0.46113988235E+03  0.46999998093E+01 0. -1.
</event>
<event>
 5   0  0.1479573E-03  0.1099050E+04  0.7818609E-02  0.9206118E-01
       -1   -1    0    0    0  501  0.00000000000E+00  0.00000000000E+00  0.12181197015E+03  0.12181197025E+03  0.50400001928E-02 0.  1.
        1   -1    0    0  501    0  0.00000000000E+00  0.00000000000E+00 -0.24790475358E+04  0.24790475358E+04  0.50400001928E-02 0. -1.
    10030    2    1    2    0    0  0.00000000000E+00  0.00000000000E+00 -0.23572355656E+04  0.26008595060E+04  0.10990498889E+04 0.  0.
        4    1    3    3  502    0 -0.16800159380E+03 -0.22271733249E+03 -0.22990031047E+04  0.23158679656E+04  0.12699999809E+01 0. -1.
       -4    1    3    3    0  502  0.16800159380E+03  0.22271733249E+03 -0.58232460901E+02  0.28499154042E+03  0.12699999809E+01 0.  1.
</event>
<event>
 5   0  0.1468556E-03  0.1097040E+04  0.7818609E-02  0.9208082E-01
       -1   -1    0    0    0  501  0.00000000000E+00  0.00000000000E+00  0.27305600494E+03  0.27305600498E+03  0.50400001928E-02 0. -1.
        1   -1    0    0  501    0  0.00000000000E+00  0.00000000000E+00 -0.11018775847E+04  0.11018775847E+04  0.50400001928E-02 0.  1.
    10030    2    1    2    0    0  0.00000000000E+00  0.00000000000E+00 -0.82882157974E+03  0.13749335897E+04  0.10970401838E+04 0.  0.
        5    1    3    3  502    0 -0.40207703078E+03 -0.25116417964E+03 -0.76015869207E+03  0.89588655027E+03  0.46999998093E+01 0.  1.
       -5    1    3    3    0  502  0.40207703078E+03  0.25116417964E+03 -0.68662887669E+02  0.47904703940E+03  0.46999998093E+01 0. -1.
</event>
<event>
 5   0  0.1415400E-03  0.1103680E+04  0.7818609E-02  0.9201613E-01
        1   -1    0    0  501    0  0.00000000000E+00  0.00000000000E+00  0.84168803615E+03  0.84168803617E+03  0.50400001928E-02 0.  1.
       -1   -1    0    0    0  501  0.00000000000E+00  0.00000000000E+00 -0.36180521503E+03  0.36180521506E+03  0.50400001928E-02 0. -1.
    10030    2    1    2    0    0  0.00000000000E+00  0.00000000000E+00  0.47988282113E+03  0.12034932512E+04  0.11036795204E+04 0.  0.
        2    1    3    3  502    0  0.24246244804E+03  0.44267961088E+03 -0.33357105791E+01  0.50474191779E+03  0.25500000920E-02 0. -1.
       -2    1    3    3    0  502 -0.24246244804E+03 -0.44267961088E+03  0.48321853170E+03  0.69875133344E+03  0.25500000920E-02 0.  1.
</event>
<event>
 5   0  0.1480937E-03  0.1103247E+04  0.7818609E-02  0.9202033E-01
       -1   -1    0    0    0  501  0.00000000000E+00  0.00000000000E+00  0.63147213809E+03  0.63147213811E+03  0.50400001928E-02 0.  1.
        1   -1    0    0  501    0  0.00000000000E+00  0.00000000000E+00 -0.48187121849E+03  0.48187121851E+03  0.50400001928E-02 0. -1.
    10030    2    1    2    0    0  0.00000000000E+00  0.00000000000E+00  0.14960091960E+03  0.11133433566E+04  0.11032465702E+04 0.  0.
        1    1    3    3  502    0 -0.13959865190E+03  0.31678557147E+03  0.50820431060E+03  0.61490853242E+03  0.50400001928E-02 0.  1.
       -1    1    3    3    0  502  0.13959865190E+03 -0.31678557147E+03 -0.35860339100E+03  0.49843482419E+03  0.50400001928E-02 0. -1.
</event>
<event>
 5   0  0.9631750E-04  0.1101128E+04  0.7818609E-02  0.9204093E-01
        3   -1    0    0  501    0  0.00000000000E+00  0.00000000000E+00  0.32051967768E+03  0.32051969360E+03  0.10100000352E+00 0.  1.
       -3   -1    0    0    0  501  0.00000000000E+00  0.00000000000E+00 -0.94571649465E+03  0.94571650004E+03  0.10100000352E+00 0. -1.
    10030    2    1    2    0    0  0.00000000000E+00  0.00000000000E+00 -0.62519681697E+03  0.12662361936E+04  0.11011280753E+04 0.  0.
        5    1    3    3  502    0  0.41701100289E+03  0.34922378329E+03 -0.41046701181E+03  0.68144015520E+03  0.46999998093E+01 0. -1.
       -5    1    3    3    0  502 -0.41701100289E+03 -0.34922378329E+03 -0.21472980516E+03  0.58479603843E+03  0.46999998093E+01 0.  1.
</event>
<event>
 5   0  0.1479573E-03  0.1118322E+04  0.7818609E-02  0.9187516E-01
       -1   -1    0    0    0  501  0.00000000000E+00  0.00000000000E+00  0.32206187296E+03  0.32206187300E+03  0.50400001928E-02 0.  1.
        1   -1    0    0  501    0  0.00000000000E+00  0.00000000000E+00 -0.97081074443E+03  0.97081074444E+03  0.50400001928E-02 0. -1.
    10030    2    1    2    0    0  0.00000000000E+00  0.00000000000E+00 -0.64874887147E+03  0.12928726174E+04  0.11183221838E+04 0.  0.
        4    1    3    3  502    0  0.41820561746E+03 -0.34743747256E+03 -0.17341477994E+03  0.57068645911E+03  0.12699999809E+01 0.  1.
       -4    1    3    3    0  502 -0.41820561746E+03  0.34743747256E+03 -0.47533409153E+03  0.72218615833E+03  0.12699999809E+01 0. -1.
</event>
<event>
 5   0  0.2483036E-03  0.1094832E+04  0.7818609E-02  0.9210244E-01
       -2   -1    0    0    0  501  0.00000000000E+00  0.00000000000E+00  0.37356437317E+03  0.37356437318E+03  0.25500000920E-02 0. -1.
        2   -1    0    0  501    0  0.00000000000E+00  0.00000000000E+00 -0.80217582142E+03  0.80217582142E+03  0.25500000920E-02 0.  1.
    10030    2    1    2    0    0  0.00000000000E+00  0.00000000000E+00 -0.42861144825E+03  0.11757401946E+04  0.10948320564E+04 0.  0.
        3    1    3    3  502    0 -0.68923035313E+02 -0.45961499426E+03  0.96324332958E+02  0.47463113580E+03  0.10100000352E+00 0. -1.
       -3    1    3    3    0  502  0.68923035313E+02  0.45961499426E+03 -0.52493578121E+03  0.70110905881E+03  0.10100000352E+00 0.  1.
</event>
<event>
 5   0  0.2392585E-03  0.1104286E+04  0.7818609E-02  0.9201024E-01
       -2   -1    0    0    0  501  0.00000000000E+00  0.00000000000E+00  0.49070228076E+03  0.49070228077E+03  0.25500000920E-02 0. -1.
        2   -1    0    0  501    0  0.00000000000E+00  0.00000000000E+00 -0.62127702828E+03  0.62127702828E+03  0.25500000920E-02 0.  1.
    10030    2    1    2    0    0  0.00000000000E+00  0.00000000000E+00 -0.13057474752E+03  0.11119793091E+04  0.11042862940E+04 0.  0.
        5    1    3    3  502    0 -0.66040381623E+02  0.18572398549E+03 -0.58461782473E+03  0.61697230228E+03  0.46999998093E+01 0.  1.
       -5    1    3    3    0  502  0.66040381623E+02 -0.18572398549E+03  0.45404307721E+03  0.49500700677E+03  0.46999998093E+01 0. -1.
</event>
<event>
 5   0  0.2392585E-03  0.1089273E+04  0.7818609E-02  0.9215710E-01
       -2   -1    0    0    0  501  0.00000000000E+00  0.00000000000E+00  0.66753403280E+03  0.66753403280E+03  0.25500000920E-02 0. -1.
        2   -1    0    0  501    0  0.00000000000E+00  0.00000000000E+00 -0.44436537205E+03  0.44436537206E+03  0.25500000920E-02 0.  1.
    10030    2    1    2    0    0  0.00000000000E+00  0.00000000000E+00  0.22316866075E+03  0.11118994049E+04  0.10892731684E+04 0.  0.
        5    1    3    3  502    0 -0.24882015505E+03 -0.47049138835E+03 -0.62841168897E+01  0.53229239728E+03  0.46999998093E+01 0.  1.
       -5    1    3    3    0  502  0.24882015505E+03  0.47049138835E+03  0.22945277764E+03  0.57960700758E+03  0.46999998093E+01 0. -1.
</event>
<event>
 5   0  0.1480937E-03  0.1097282E+04  0.7818609E-02  0.9207845E-01
       -1   -1    0    0    0  501  0.00000000000E+00  0.00000000000E+00  0.83798462956E+03  0.83798462957E+03  0.50400001928E-02 0. -1.
        1   -1    0    0  501    0  0.00000000000E+00  0.00000000000E+00 -0.35920316550E+03  0.35920316553E+03  0.50400001928E-02 0.  1.
    10030    2    1    2    0    0  0.00000000000E+00  0.00000000000E+00  0.47878146406E+03  0.11971877951E+04  0.10972816076E+04 0.  0.
        1    1    3    3  502    0 -0.33674652215E+03  0.16670336953E+03  0.67556265239E+03  0.77302854470E+03  0.50400001928E-02 0. -1.
       -1    1    3    3    0  502  0.33674652215E+03 -0.16670336953E+03 -0.19678118833E+03  0.42415925040E+03  0.50400001928E-02 0.  1.
</event>
<event>
 5   0  0.2467448E-03  0.1100498E+04  0.7818609E-02  0.9204707E-01
       -2   -1    0    0    0  501  0.00000000000E+00  0.00000000000E+00  0.68442193458E+03  0.68442193458E+03  0.25500000920E-02 0.  1.
        2   -1    0    0  501    0  0.00000000000E+00  0.00000000000E+00 -0.44237877688E+03  0.44237877689E+03  0.25500000920E-02 0. -1.
    10030    2    1    2    0    0  0.00000000000E+00  0.00000000000E+00  0.24204315770E+03  0.11268007115E+04  0.11004975934E+04 0.  0.
        1    1    3    3  502    0  0.19304328303E+03  0.48675652602E+02 -0.40420946352E+03  0.45057776100E+03  0.50400001928E-02 0. -1.
       -1    1    3    3    0  502 -0.19304328303E+03 -0.48675652602E+02  0.64625262122E+03  0.67622295047E+03  0.50400001928E-02 0.  1.
</event>
<event>
 5   0  0.2467448E-03  0.1096711E+04  0.7818609E-02  0.9208404E-01
       -2   -1    0    0    0  501  0.00000000000E+00  0.00000000000E+00  0.39686488363E+03  0.39686488363E+03  0.25500000920E-02 0. -1.
        2   -1    0    0  501    0  0.00000000000E+00  0.00000000000E+00 -0.75767228496E+03  0.75767228496E+03  0.25500000920E-02 0.  1.
    10030    2    1    2    0    0  0.00000000000E+00  0.00000000000E+00 -0.36080740134E+03  0.11545371686E+04  0.10967105784E+04 0.  0.
        1    1    3    3  502    0  0.33872015114E+03  0.30800633226E+03 -0.49813605750E+03  0.67656394620E+03  0.50400001928E-02 0.  1.
       -1    1    3    3    0  502 -0.33872015114E+03 -0.30800633226E+03  0.13732865617E+03  0.47797322239E+03  0.50400001928E-02 0. -1.
</event>
<event>
 5   0  0.1480937E-03  0.1098056E+04  0.7818609E-02  0.9207089E-01
        1   -1    0    0  501    0  0.00000000000E+00  0.00000000000E+00  0.17444637188E+04  0.17444637188E+04  0.50400001928E-02 0. -1.
       -1   -1    0    0    0  501  0.00000000000E+00  0.00000000000E+00 -0.17279324229E+03  0.17279324236E+03  0.50400001928E-02 0.  1.
    10030    2    1    2    0    0  0.00000000000E+00  0.00000000000E+00  0.15716704765E+04  0.19172569612E+04  0.10980556308E+04 0.  0.
        1    1    3    3  502    0 -0.16292773829E+03  0.32603001128E+03  0.15027583195E+04  0.15463258334E+04  0.50400001928E-02 0. -1.
       -1    1    3    3    0  502  0.16292773829E+03 -0.32603001128E+03  0.68912157041E+02  0.37093112780E+03  0.50400001928E-02 0.  1.
</event>
<event>
 5   0  0.2438115E-03  0.1092495E+04  0.7818609E-02  0.9212538E-01
       -2   -1    0    0    0  501  0.00000000000E+00  0.00000000000E+00  0.23557856622E+03  0.23557856624E+03  0.25500000920E-02 0. -1.
        2   -1    0    0  501    0  0.00000000000E+00  0.00000000000E+00 -0.12666108822E+04  0.12666108822E+04  0.25500000920E-02 0.  1.
    10030    2    1    2    0    0  0.00000000000E+00  0.00000000000E+00 -0.10310323160E+04  0.15021894485E+04  0.10924950812E+04 0.  0.
        4    1    3    3  502    0 -0.13664380265E+02 -0.24268766834E+03  0.15711540163E+03  0.28943199890E+03  0.12699999809E+01 0. -1.
       -4    1    3    3    0  502  0.13664380265E+02  0.24268766834E+03 -0.11881477176E+04  0.12127574496E+04  0.12699999809E+01 0.  1.
</event>
<event>
 5   0  0.1415400E-03  0.1121862E+04  0.7818609E-02  0.9184142E-01
       -1   -1    0    0    0  501  0.00000000000E+00  0.00000000000E+00  0.35200046019E+03  0.35200046023E+03  0.50400001928E-02 0.  1.
        1   -1    0    0  501    0  0.00000000000E+00  0.00000000000E+00 -0.89387253064E+03  0.89387253065E+03  0.50400001928E-02 0. -1.
    10030    2    1    2    0    0  0.00000000000E+00  0.00000000000E+00 -0.54187207045E+03  0.12458729909E+04  0.11218619205E+04 0.  0.
        2    1    3    3  502    0  0.29409346011E+03  0.37079244599E+03  0.63455667190E+02  0.47749829632E+03  0.25500000920E-02 0.  1.
       -2    1    3    3    0  502 -0.29409346011E+03 -0.37079244599E+03 -0.60532773764E+03  0.76837469456E+03  0.25500000920E-02 0. -1.
</event>
<event>
 5   0  0.2488472E-03  0.1110271E+04  0.7818609E-02  0.9195238E-01
       -2   -1    0    0    0  501  0.00000000000E+00  0.00000000000E+00  0.32211982254E+03  0.32211982255E+03  0.25500000920E-02 0.  1.
        2   -1    0    0  501    0  0.00000000000E+00  0.00000000000E+00 -0.95671101216E+03  0.95671101216E+03  0.25500000920E-02 0. -1.
    10030    2    1    2    0    0  0.00000000000E+00  0.00000000000E+00 -0.63459118962E+03  0.12788308347E+04  0.11102712848E+04 0.  0.
        2    1    3    3  502    0  0.19123469711E+03 -0.21320751114E+03 -0.86504235719E+03  0.91122249310E+03  0.25500000920E-02 0. -1.
       -2    1    3    3    0  502 -0.19123469711E+03  0.21320751114E+03  0.23045116757E+03  0.36760834162E+03  0.25500000920E-02 0.  1.
</event>
<event>
 5   0  0.1480937E-03  0.1097245E+04  0.7818609E-02  0.9207881E-01
        1   -1    0    0  501    0  0.00000000000E+00  0.00000000000E+00  0.15934344298E+04  0.15934344299E+04  0.50400001928E-02 0. -1.
       -1   -1    0    0    0  501  0.00000000000E+00  0.00000000000E+00 -0.18889174266E+03  0.18889174272E+03  0.50400001928E-02 0.  1.
    10030    2    1    2    0    0  0.00000000000E+00  0.00000000000E+00  0.14045426872E+04  0.17823261726E+04  0.10972449249E+04 0.  0.
        1    1    3    3  502    0 -0.70555751174E+02 -0.24269275600E+02 -0.18061170642E+03  0.19541673491E+03  0.50400001928E-02 0.  1.
       -1    1    3    3    0  502  0.70555751174E+02  0.24269275600E+02  0.15851543936E+04  0.15869094377E+04  0.50400001928E-02 0. -1.
</event>
<event>
 5   0  0.2488472E-03  0.1103625E+04  0.7818609E-02  0.9201665E-01
       -2   -1    0    0    0  501  0.00000000000E+00  0.00000000000E+00  0.12991703298E+03  0.12991703301E+03  0.25500000920E-02 0.  1.
        2   -1    0    0  501    0  0.00000000000E+00  0.00000000000E+00 -0.23437827131E+04  0.23437827131E+04  0.25500000920E-02 0. -1.
    10030    2    1    2    0    0  0.00000000000E+00  0.00000000000E+00 -0.22138656801E+04  0.24736997461E+04  0.11036254728E+04 0.  0.
        2    1    3    3  502    0 -0.25241000012E+03  0.47629611953E+03 -0.84240136358E+03  0.10001044241E+04  0.25500000920E-02 0.  1.
       -2    1    3    3    0  502  0.25241000012E+03 -0.47629611953E+03 -0.13714643165E+04  0.14735953220E+04  0.25500000920E-02 0. -1.
</event>
<event>
 5   0  0.2392585E-03  0.1098767E+04  0.7818609E-02  0.9206394E-01
       -2   -1    0    0    0  501  0.00000000000E+00  0.00000000000E+00  0.11483497939E+03  0.11483497942E+03  0.25500000920E-02 0.  1.
        2   -1    0    0  501    0  0.00000000000E+00  0.00000000000E+00 -0.26283138460E+04  0.26283138460E+04  0.25500000920E-02 0. -1.
    10030    2    1    2    0    0  0.00000000000E+00  0.00000000000E+00 -0.25134788666E+04  0.27431488254E+04  0.10987672481E+04 0.  0.
        5    1    3    3  502    0 -0.22038652554E+03 -0.36846147757E+03 -0.40108162902E+03  0.58755650301E+03  0.46999998093E+01 0.  1.
       -5    1    3    3    0  502  0.22038652554E+03  0.36846147757E+03 -0.21123972376E+04  0.21555923224E+04  0.46999998093E+01 0. -1.
</event>
<event>
 5   0  0.2392585E-03  0.1100430E+04  0.7818609E-02  0.9204773E-01
        2   -1    0    0  501    0  0.00000000000E+00  0.00000000000E+00  0.18862021423E+03  0.18862021425E+03  0.25500000920E-02 0.  1.
       -2   -1    0    0    0  501  0.00000000000E+00  0.00000000000E+00 -0.16050055572E+04  0.16050055572E+04  0.25500000920E-02 0. -1.
    10030    2    1    2    0    0  0.00000000000E+00  0.00000000000E+00 -0.14163853429E+04  0.17936257714E+04  0.11004299015E+04 0.  0.
        5    1    3    3  502    0 -0.48687983902E+03 -0.15934308784E+03 -0.10352863536E+04  0.11551113026E+04  0.46999998093E+01 0.  1.
       -5    1    3    3    0  502  0.48687983902E+03  0.15934308784E+03 -0.38109898930E+03  0.63851446885E+03  0.46999998093E+01 0. -1.
</event>
<event>
 5   0  0.2392585E-03  0.1105980E+04  0.7818609E-02  0.9199383E-01
       -2   -1    0    0    0  501  0.00000000000E+00  0.00000000000E+00  0.20977393884E+03  0.20977393885E+03  0.25500000920E-02 0.  1.
        2   -1    0    0  501    0  0.00000000000E+00  0.00000000000E+00 -0.14577494279E+04  0.14577494279E+04  0.25500000920E-02 0. -1.
    10030    2    1    2    0    0  0.00000000000E+00  0.00000000000E+00 -0.12479754890E+04  0.16675233667E+04  0.11059798178E+04 0.  0.
        5    1    3    3  502    0 -0.32421841037E+03  0.42364385037E+03 -0.40454090883E+03  0.66952753976E+03  0.46999998093E+01 0.  1.
       -5    1    3    3    0  502  0.32421841037E+03 -0.42364385037E+03 -0.84343458019E+03  0.99799582696E+03  0.46999998093E+01 0. -1.
</event>
<event>
 5   0  0.1480937E-03  0.1085762E+04  0.7818609E-02  0.9219181E-01
       -1   -1    0    0    0  501  0.00000000000E+00  0.00000000000E+00  0.44251594640E+03  0.44251594642E+03  0.50400001928E-02 0.  1.
        1   -1    0    0  501    0  0.00000000000E+00  0.00000000000E+00 -0.66600929172E+03  0.66600929174E+03  0.50400001928E-02 0. -1.
    10030    2    1    2    0    0  0.00000000000E+00  0.00000000000E+00 -0.22349334533E+03  0.11085252382E+04  0.10857619114E+04 0.  0.
        1    1    3    3  502    0  0.17869837099E+03 -0.20088268574E+03  0.36976893494E+03  0.45718270582E+03  0.50400001928E-02 0.  1.
       -1    1    3    3    0  502 -0.17869837099E+03  0.20088268574E+03 -0.59326228027E+03  0.65134253235E+03  0.50400001928E-02 0. -1.
</event>
<event>
 5   0  0.1480937E-03  0.1094664E+04  0.7818609E-02  0.9210408E-01
        1   -1    0    0  501    0  0.00000000000E+00  0.00000000000E+00  0.99877291852E+03  0.99877291853E+03  0.50400001928E-02 0.  1.
       -1   -1    0    0    0  501  0.00000000000E+00  0.00000000000E+00 -0.29994054285E+03  0.29994054289E+03  0.50400001928E-02 0. -1.
    10030    2    1    2    0    0  0.00000000000E+00  0.00000000000E+00  0.69883237567E+03  0.12987134614E+04  0.10946643164E+04 0.  0.
        1    1    3    3  502    0 -0.52468461107E+03  0.15569653492E+03  0.34218600606E+03  0.64546619962E+03  0.50400001928E-02 0.  1.
       -1    1    3    3    0  502  0.52468461107E+03 -0.15569653492E+03  0.35664636961E+03  0.65324726181E+03  0.50400001928E-02 0. -1.
</event>
<event>
 5   0  0.1509004E-03  0.1083870E+04  0.7818609E-02  0.9221058E-01
       -1   -1    0    0    0  501  0.00000000000E+00  0.00000000000E+00  0.46557862388E+03  0.46557862390E+03  0.50400001928E-02 0.  1.
        1   -1    0    0  501    0  0.00000000000E+00  0.00000000000E+00 -0.63081348774E+03  0.63081348776E+03  0.50400001928E-02 0. -1.
    10030    2    1    2    0    0  0.00000000000E+00  0.00000000000E+00 -0.16523486386E+03  0.10963921117E+04  0.10838695043E+04 0.  0.
        3    1    3    3  502    0  0.20614983531E+03  0.20503560860E+03 -0.54523697506E+03  0.61791643818E+03  0.10100000352E+00 0. -1.
       -3    1    3    3    0  502 -0.20614983531E+03 -0.20503560860E+03  0.38000211120E+03  0.47847567348E+03  0.10100000352E+00 0.  1.
</event>
<event>
 5   0  0.2467448E-03  0.1101621E+04  0.7818609E-02  0.9203613E-01
       -2   -1    0    0    0  501  0.00000000000E+00  0.00000000000E+00  0.55293978498E+03  0.55293978499E+03  0.25500000920E-02 0. -1.
        2   -1    0    0  501    0  0.00000000000E+00  0.00000000000E+00 -0.54868976644E+03  0.54868976644E+03  0.25500000920E-02 0.  1.
    10030    2    1    2    0    0  0.00000000000E+00  0.00000000000E+00  0.42500185444E+01  0.11016295514E+04  0.11016213532E+04 0.  0.
        1    1    3    3  502    0  0.78210995794E+02  0.49497547640E+03  0.23076336434E+03  0.55169684832E+03  0.50400001928E-02 0. -1.
       -1    1    3    3    0  502 -0.78210995794E+02 -0.49497547640E+03 -0.22651334579E+03  0.54993270311E+03  0.50400001928E-02 0.  1.
</event>
<event>
 5   0  0.1468556E-03  0.1099909E+04  0.7818609E-02  0.9205281E-01
        1   -1    0    0  501    0  0.00000000000E+00  0.00000000000E+00  0.61484433799E+03  0.61484433801E+03  0.50400001928E-02 0. -1.
       -1   -1    0    0    0  501  0.00000000000E+00  0.00000000000E+00 -0.49191289974E+03  0.49191289977E+03  0.50400001928E-02 0.  1.
    10030    2    1    2    0    0  0.00000000000E+00  0.00000000000E+00  0.12293143825E+03  0.11067572378E+04  0.10999088348E+04 0.  0.
        5    1    3    3  502    0 -0.30522175728E+03 -0.42840515949E+03 -0.99959046688E+02  0.53544859959E+03  0.46999998093E+01 0.  1.
       -5    1    3    3    0  502  0.30522175728E+03  0.42840515949E+03  0.22289048494E+03  0.57130863819E+03  0.46999998093E+01 0. -1.
</event>
<event>
 5   0  0.2467448E-03  0.1102031E+04  0.7818609E-02  0.9203215E-01
        2   -1    0    0  501    0  0.00000000000E+00  0.00000000000E+00  0.15570557655E+04  0.15570557655E+04  0.25500000920E-02 0. -1.
       -2   -1    0    0    0  501  0.00000000000E+00  0.00000000000E+00 -0.19499502143E+03  0.19499502145E+03  0.25500000920E-02 0.  1.
    10030    2    1    2    0    0  0.00000000000E+00  0.00000000000E+00  0.13620607441E+04  0.17520507869E+04  0.11020310747E+04 0.  0.
        1    1    3    3  502    0  0.46769073144E+03  0.62134616249E+02  0.11335698289E+04  0.12278338193E+04  0.50400001928E-02 0. -1.
       -1    1    3    3    0  502 -0.46769073144E+03 -0.62134616249E+02  0.22849091515E+03  0.52421696762E+03  0.50400001928E-02 0.  1.
</event>
<event>
 5   0  0.2483036E-03  0.1100462E+04  0.7818609E-02  0.9204742E-01
       -2   -1    0    0    0  501  0.00000000000E+00  0.00000000000E+00  0.12220552793E+04  0.12220552793E+04  0.25500000920E-02 0. -1.
        2   -1    0    0  501    0  0.00000000000E+00  0.00000000000E+00 -0.24774181155E+03  0.24774181156E+03  0.25500000920E-02 0.  1.
    10030    2    1    2    0    0  0.00000000000E+00  0.00000000000E+00  0.97431346777E+03  0.14697970909E+04  0.11004620643E+04 0.  0.
        3    1    3    3  502    0 -0.37809393197E+03  0.16499370383E+02  0.10206135990E+04  0.10885216485E+04  0.10100000352E+00 0. -1.
       -3    1    3    3    0  502  0.37809393197E+03 -0.16499370383E+02 -0.46300131203E+02  0.38127544239E+03  0.10100000352E+00 0.  1.
</event>
<event>
 5   0  0.2488472E-03  0.1113332E+04  0.7818609E-02  0.9192295E-01
        2   -1    0    0  501    0  0.00000000000E+00  0.00000000000E+00  0.64111579723E+03  0.64111579723E+03  0.25500000920E-02 0.  1.
       -2   -1    0    0    0  501  0.00000000000E+00  0.00000000000E+00 -0.48333987526E+03  0.48333987526E+03  0.25500000920E-02 0. -1.
    10030    2    1    2    0    0  0.00000000000E+00  0.00000000000E+00  0.15777592197E+03  0.11244556725E+04  0.11133316298E+04 0.  0.
        2    1    3    3  502    0  0.46718512477E+03 -0.91901228431E+02 -0.21238399347E+03  0.52135854964E+03  0.25500000920E-02 0. -1.
       -2    1    3    3    0  502 -0.46718512477E+03  0.91901228431E+02  0.37015991544E+03  0.60309712286E+03  0.25500000920E-02 0.  1.
</event>
<event>
 5   0  0.1415400E-03  0.1090136E+04  0.7818609E-02  0.9214860E-01
        1   -1    0    0  501    0  0.00000000000E+00  0.00000000000E+00  0.50623762369E+03  0.50623762371E+03  0.50400001928E-02 0.  1.
       -1   -1    0    0    0  501  0.00000000000E+00  0.00000000000E+00 -0.58687651947E+03  0.58687651949E+03  0.50400001928E-02 0. -1.
    10030    2    1    2    0    0  0.00000000000E+00  0.00000000000E+00 -0.80638895777E+02  0.10931141432E+04  0.10901357248E+04 0.  0.
        2    1    3    3  502    0  0.49451079422E+02  0.38697262235E+03  0.34138547243E+03  0.51839874662E+03  0.25500000920E-02 0.  1.
       -2    1    3    3    0  502 -0.49451079422E+02 -0.38697262235E+03 -0.42202436821E+03  0.57471539658E+03  0.25500000920E-02 0. -1.
</event>
<event>
 5   0  0.2392585E-03  0.1092768E+04  0.7818609E-02  0.9212270E-01
        2   -1    0    0  501    0  0.00000000000E+00  0.00000000000E+00  0.25540047137E+04  0.25540047137E+04  0.25500000920E-02 0.  1.
       -2   -1    0    0    0  501  0.00000000000E+00  0.00000000000E+00 -0.11688913821E+03  0.11688913824E+03  0.25500000920E-02 0. -1.
    10030    2    1    2    0    0  0.00000000000E+00  0.00000000000E+00  0.24371155755E+04  0.26708938519E+04  0.10927678802E+04 0.  0.
        5    1    3    3  502    0 -0.48924983920E+03  0.22222735333E+03  0.97705700982E+03  0.11150842534E+04  0.46999998093E+01 0. -1.
       -5    1    3    3    0  502  0.48924983920E+03 -0.22222735333E+03  0.14600585657E+04  0.15558095985E+04  0.46999998093E+01 0.  1.
</event>
<event>
 5   0  0.9631750E-04  0.1092874E+04  0.7818609E-02  0.9212165E-01
        3   -1    0    0  501    0  0.00000000000E+00  0.00000000000E+00  0.25246721019E+03  0.25246723039E+03  0.10100000352E+00 0. -1.
       -3   -1    0    0    0  501  0.00000000000E+00  0.00000000000E+00 -0.11827026497E+04  0.11827026540E+04  0.10100000352E+00 0.  1.
    10030    2    1    2    0    0  0.00000000000E+00  0.00000000000E+00 -0.93023543951E+03  0.14351698844E+04  0.10928744778E+04 0.  0.
        2    1    3    3  502    0 -0.38448666295E+03 -0.32289393936E+03 -0.18193008299E+03  0.53403094026E+03  0.25500000920E-02 0. -1.
       -2    1    3    3    0  502  0.38448666295E+03  0.32289393936E+03 -0.74830535652E+03  0.90113894415E+03  0.25500000920E-02 0.  1.
</event>
<event>
 5   0  0.2392585E-03  0.1099993E+04  0.7818609E-02  0.9205199E-01
       -2   -1    0    0    0  501  0.00000000000E+00  0.00000000000E+00  0.21400849809E+03  0.21400849811E+03  0.25500000920E-02 0. -1.
        2   -1    0    0  501    0  0.00000000000E+00  0.00000000000E+00 -0.14134769031E+04  0.14134769031E+04  0.25500000920E-02 0.  1.
    10030    2    1    2    0    0  0.00000000000E+00  0.00000000000E+00 -0.11994684050E+04  0.16274854012E+04  0.10999928530E+04 0.  0.
        5    1    3    3  502    0  0.19560267652E+03  0.38906424163E+03 -0.10272577021E+03  0.44744392391E+03  0.46999998093E+01 0. -1.
       -5    1    3    3    0  502 -0.19560267652E+03 -0.38906424163E+03 -0.10967426348E+04  0.11800414773E+04  0.46999998093E+01 0.  1.
</event>
<event>
 5   0  0.2467448E-03  0.1097869E+04  0.7818609E-02  0.9207272E-01
       -2   -1    0    0    0  501  0.00000000000E+00  0.00000000000E+00  0.15806118486E+03  0.15806118488E+03  0.25500000920E-02 0.  1.
        2   -1    0    0  501    0  0.00000000000E+00  0.00000000000E+00 -0.19064073305E+04  0.19064073305E+04  0.25500000920E-02 0. -1.
    10030    2    1    2    0    0  0.00000000000E+00  0.00000000000E+00 -0.17483461456E+04  0.20644685154E+04  0.10978688474E+04 0.  0.
        1    1    3    3  502    0 -0.27510999616E+03 -0.44122137911E+03 -0.54326400049E+03  0.75199573778E+03  0.50400001928E-02 0.  1.
       -1    1    3    3    0  502  0.27510999616E+03  0.44122137911E+03 -0.12050821451E+04  0.13124727776E+04  0.50400001928E-02 0. -1.
</event>
<event>
 5   0  0.2438115E-03  0.1105212E+04  0.7818609E-02  0.9200127E-01
        2   -1    0    0  501    0  0.00000000000E+00  0.00000000000E+00  0.12163191012E+04  0.12163191012E+04  0.25500000920E-02 0. -1.
       -2   -1    0    0    0  501  0.00000000000E+00  0.00000000000E+00 -0.25106349397E+03  0.25106349399E+03  0.25500000920E-02 0.  1.
    10030    2    1    2    0    0  0.00000000000E+00  0.00000000000E+00  0.96525560725E+03  0.14673825952E+04  0.11052118772E+04 0.  0.
        4    1    3    3  502    0 -0.50080039999E+03  0.14795274245E+02  0.79215916992E+03  0.93730342161E+03  0.12699999809E+01 0. -1.
       -4    1    3    3    0  502  0.50080039999E+03 -0.14795274245E+02  0.17309643733E+03  0.53007917360E+03  0.12699999809E+01 0.  1.
</event>
<event>
 5   0  0.1415400E-03  0.1096371E+04  0.7818609E-02  0.9208737E-01
       -1   -1    0    0    0  501  0.00000000000E+00  0.00000000000E+00  0.38600869932E+03  0.38600869935E+03  0.50400001928E-02 0. -1.
        1   -1    0    0  501    0  0.00000000000E+00  0.00000000000E+00 -0.77849818678E+03  0.77849818680E+03  0.50400001928E-02 0.  1.
    10030    2    1    2    0    0  0.00000000000E+00  0.00000000000E+00 -0.39248948746E+03  0.11645068862E+04  0.10963705077E+04 0.  0.
        2    1    3    3  502    0 -0.18354398589E+03 -0.29332523286E+03 -0.64784968898E+03  0.73446395862E+03  0.25500000920E-02 0.  1.
       -2    1    3    3    0  502  0.18354398589E+03  0.29332523286E+03  0.25536020152E+03  0.43004292753E+03  0.25500000920E-02 0. -1.
</event>
<event>
 5   0  0.1415400E-03  0.1100223E+04  0.7818609E-02  0.9204974E-01
       -1   -1    0    0    0  501  0.00000000000E+00  0.00000000000E+00  0.99467381063E+03  0.99467381065E+03  0.50400001928E-02 0. -1.
        1   -1    0    0  501    0  0.00000000000E+00  0.00000000000E+00 -0.30424318759E+03  0.30424318764E+03  0.50400001928E-02 0.  1.
    10030    2    1    2    0    0  0.00000000000E+00  0.00000000000E+00  0.69043062304E+03  0.12989169983E+04  0.11002231243E+04 0.  0.
        2    1    3    3  502    0  0.11595116714E+02 -0.45043473278E+03 -0.27368002774E+02  0.45141433607E+03  0.25500000920E-02 0.  1.
       -2    1    3    3    0  502 -0.11595116714E+02  0.45043473278E+03  0.71779862581E+03  0.84750266221E+03  0.25500000920E-02 0. -1.
</event>
<event>
 5   0  0.2392585E-03  0.1103303E+04  0.7818609E-02  0.9201979E-01
       -2   -1    0    0    0  501  0.00000000000E+00  0.00000000000E+00  0.40970008698E+03  0.40970008699E+03  0.25500000920E-02 0.  1.
        2   -1    0    0  501    0  0.00000000000E+00  0.00000000000E+00 -0.74278570931E+03  0.74278570931E+03  0.25500000920E-02 0. -1.
    10030    2    1    2    0    0  0.00000000000E+00  0.00000000000E+00 -0.33308562232E+03  0.11524857963E+04  0.11033029860E+04 0.  0.
        5    1    3    3  502    0  0.39374103292E+03 -0.15002533339E+03 -0.53844430749E+03  0.68372798972E+03  0.46999998093E+01 0. -1.
       -5    1    3    3    0  502 -0.39374103292E+03  0.15002533339E+03  0.20535868517E+03  0.46875780658E+03  0.46999998093E+01 0.  1.
</event>
<event>
 5   0  0.2483036E-03  0.1102351E+04  0.7818609E-02  0.9202903E-01
        2   -1    0    0  501    0  0.00000000000E+00  0.00000000000E+00  0.68825613148E+03  0.68825613148E+03  0.25500000920E-02 0.  1.
       -2   -1    0    0    0  501  0.00000000000E+00  0.00000000000E+00 -0.44139771299E+03  0.44139771300E+03  0.25500000920E-02 0. -1.
    10030    2    1    2    0    0  0.00000000000E+00  0.00000000000E+00  0.24685841849E+03  0.11296538445E+04  0.11023514547E+04 0.  0.
        3    1    3    3  502    0 -0.39697339571E+03  0.11445704642E+03 -0.25044434017E+03  0.48312593607E+03  0.10100000352E+00 0. -1.
       -3    1    3    3    0  502  0.39697339571E+03 -0.11445704642E+03  0.49730275866E+03  0.64652790841E+03  0.10100000352E+00 0.  1.
</event>
<event>
 5   0  0.1415400E-03  0.1099847E+04  0.7818609E-02  0.9205341E-01
        1   -1    0    0  501    0  0.00000000000E+00  0.00000000000E+00  0.89649481564E+03  0.89649481566E+03  0.50400001928E-02 0. -1.
       -1   -1    0    0    0  501  0.00000000000E+00  0.00000000000E+00 -0.33733166172E+03  0.33733166175E+03  0.50400001928E-02 0.  1.
    10030    2    1    2    0    0  0.00000000000E+00  0.00000000000E+00  0.55916315393E+03  0.12338264774E+04  0.10998474183E+04 0.  0.
        2    1    3    3  502    0  0.18803879280E+03  0.14191459408E+03 -0.27785799849E+03  0.36428478824E+03  0.25500000920E-02 0.  1.
       -2    1    3    3    0  502 -0.18803879280E+03 -0.14191459408E+03  0.83702115242E+03  0.86954168917E+03  0.25500000920E-02 0. -1.
</event>
<event>
 5   0  0.2438115E-03  0.1102483E+04  0.7818609E-02  0.9202775E-01
       -2   -1    0    0    0  501  0.00000000000E+00  0.00000000000E+00  0.71963677304E+03  0.71963677305E+03  0.25500000920E-02 0. -1.
        2   -1    0    0  501    0  0.00000000000E+00  0.00000000000E+00 -0.42225115166E+03  0.42225115167E+03  0.25500000920E-02 0.  1.
    10030    2    1    2    0    0  0.00000000000E+00  0.00000000000E+00  0.29738562138E+03  0.11418879247E+04  0.11024834805E+04 0.  0.
        4    1    3    3  502    0 -0.28687592740E+03 -0.27950618715E+03  0.54097003466E+03  0.67310600776E+03  0.12699999809E+01 0. -1.
       -4    1    3    3    0  502  0.28687592740E+03  0.27950618715E+03 -0.24358441328E+03  0.46878191696E+03  0.12699999809E+01 0.  1.
</event>
<event>
 5   0  0.1415400E-03  0.1083516E+04  0.7818609E-02  0.9221409E-01
       -1   -1    0    0    0  501  0.00000000000E+00  0.00000000000E+00  0.49082830257E+03  0.49082830259E+03  0.50400001928E-02 0. -1.
        1   -1    0    0  501    0  0.00000000000E+00  0.00000000000E+00 -0.59797192198E+03  0.59797192200E+03  0.50400001928E-02 0.  1.
    10030    2    1    2    0    0  0.00000000000E+00  0.00000000000E+00 -0.10714361941E+03  0.10888002246E+04  0.10835156547E+04 0.  0.
        2    1    3    3  502    0  0.21611749335E+03  0.16401658403E+03 -0.52478673961E+03  0.59077011845E+03  0.25500000920E-02 0.  1.
       -2    1    3    3    0  502 -0.21611749335E+03 -0.16401658403E+03  0.41764312020E+03  0.49803010615E+03  0.25500000920E-02 0. -1.
</event>
<event>
 5   0  0.1509004E-03  0.1098567E+04  0.7818609E-02  0.9206589E-01
       -1   -1    0    0    0  501  0.00000000000E+00  0.00000000000E+00  0.21038779447E+03  0.21038779453E+03  0.50400001928E-02 0.  1.
        1   -1    0    0  501    0  0.00000000000E+00  0.00000000000E+00 -0.14340784093E+04  0.14340784093E+04  0.50400001928E-02 0. -1.
    10030    2    1    2    0    0  0.00000000000E+00  0.00000000000E+00 -0.12236906148E+04  0.16444662038E+04  0.10985674193E+04 0.  0.
        3    1    3    3  502    0 -0.54318039278E+03 -0.80437414839E+02 -0.59081018017E+03  0.80658030971E+03  0.10100000352E+00 0.  1.
       -3    1    3    3    0  502  0.54318039278E+03  0.80437414839E+02 -0.63288043465E+03  0.83788589413E+03  0.10100000352E+00 0. -1.
</event>
<event>
 5   0  0.2467448E-03  0.1065736E+04  0.7818609E-02  0.9239246E-01
       -2   -1    0    0    0  501  0.00000000000E+00  0.00000000000E+00  0.69475982069E+03  0.69475982069E+03  0.25500000920E-02 0.  1.
        2   -1    0    0  501    0  0.00000000000E+00  0.00000000000E+00 -0.40870021312E+03  0.40870021313E+03  0.25500000920E-02 0. -1.
    10030    2    1    2    0    0  0.00000000000E+00  0.00000000000E+00  0.28605960757E+03  0.11034600338E+04  0.10657363404E+04 0.  0.
        1    1    3    3  502    0 -0.26357661873E+03 -0.39687472225E+03  0.39015434078E+03  0.61579427470E+03  0.50400001928E-02 0. -1.
       -1    1    3    3    0  502  0.26357661873E+03  0.39687472225E+03 -0.10409473321E+03  0.48766575911E+03  0.50400001928E-02 0.  1.
</event>
<event>
 5   0  0.1415400E-03  0.1100404E+04  0.7818609E-02  0.9204798E-01
       -1   -1    0    0    0  501  0.00000000000E+00  0.00000000000E+00  0.38092512032E+03  0.38092512035E+03  0.50400001928E-02 0.  1.
        1   -1    0    0  501    0  0.00000000000E+00  0.00000000000E+00 -0.79470256425E+03  0.79470256427E+03  0.50400001928E-02 0. -1.
    10030    2    1    2    0    0  0.00000000000E+00  0.00000000000E+00 -0.41377744394E+03  0.11756276846E+04  0.11004038712E+04 0.  0.
        2    1    3    3  502    0  0.17241376845E+03  0.28078509579E+03 -0.67764099265E+03  0.75350122263E+03  0.25500000920E-02 0. -1.
       -2    1    3    3    0  502 -0.17241376845E+03 -0.28078509579E+03  0.26386354871E+03  0.42212646200E+03  0.25500000920E-02 0.  1.
</event>
<event>
 5   0  0.2467448E-03  0.1104594E+04  0.7818609E-02  0.9200726E-01
       -2   -1    0    0    0  501  0.00000000000E+00  0.00000000000E+00  0.27643384656E+03  0.27643384657E+03  0.25500000920E-02 0.  1.
        2   -1    0    0  501    0  0.00000000000E+00  0.00000000000E+00 -0.11034529591E+04  0.11034529591E+04  0.25500000920E-02 0. -1.
    10030    2    1    2    0    0  0.00000000000E+00  0.00000000000E+00 -0.82701911251E+03  0.13798868056E+04  0.11045935831E+04 0.  0.
        1    1    3    3  502    0 -0.32682383616E+03 -0.45373431140E+02  0.13977081407E+03  0.35834124606E+03  0.50400001928E-02 0.  1.
       -1    1    3    3    0  502  0.32682383616E+03  0.45373431140E+02 -0.96678992658E+03  0.10215455596E+04  0.50400001928E-02 0. -1.
</event>
<event>
 5   0  0.2483036E-03  0.1105741E+04  0.7818609E-02  0.9199614E-01
        2   -1    0    0  501    0  0.00000000000E+00  0.00000000000E+00  0.52760903124E+03  0.52760903124E+03  0.25500000920E-02 0. -1.
       -2   -1    0    0    0  501  0.00000000000E+00  0.00000000000E+00 -0.57934185928E+03  0.57934185929E+03  0.25500000920E-02 0.  1.
    10030    2    1    2    0    0  0.00000000000E+00  0.00000000000E+00 -0.51732828043E+02  0.11069508905E+04  0.11057413751E+04 0.  0.
        3    1    3    3  502    0  0.51509746983E+03 -0.18229611708E+03  0.58538973502E+02  0.54953079927E+03  0.10100000352E+00 0.  1.
       -3    1    3    3    0  502 -0.51509746983E+03  0.18229611708E+03 -0.11027180154E+03  0.55742009126E+03  0.10100000352E+00 0. -1.
</event>
<event>
 5   0  0.1480937E-03  0.1077178E+04  0.7818609E-02  0.9227725E-01
        1   -1    0    0  501    0  0.00000000000E+00  0.00000000000E+00  0.94525897499E+03  0.94525897501E+03  0.50400001928E-02 0.  1.
       -1   -1    0    0    0  501  0.00000000000E+00  0.00000000000E+00 -0.30687702293E+03  0.30687702297E+03  0.50400001928E-02 0. -1.
    10030    2    1    2    0    0  0.00000000000E+00  0.00000000000E+00  0.63838195206E+03  0.12521359980E+04  0.10771782771E+04 0.  0.
        1    1    3    3  502    0 -0.14297237743E+03  0.41905498683E+03 -0.37257950919E+02  0.44433808933E+03  0.50400001928E-02 0. -1.
       -1    1    3    3    0  502  0.14297237743E+03 -0.41905498683E+03  0.67563990298E+03  0.80779790865E+03  0.50400001928E-02 0.  1.
</event>
<event>
 5   0  0.1480937E-03  0.1101513E+04  0.7818609E-02  0.9203718E-01
       -1   -1    0    0    0  501  0.00000000000E+00  0.00000000000E+00  0.26139751798E+03  0.26139751803E+03  0.50400001928E-02 0.  1.
        1   -1    0    0  501    0  0.00000000000E+00  0.00000000000E+00 -0.11604277095E+04  0.11604277095E+04  0.50400001928E-02 0. -1.
    10030    2    1    2    0    0  0.00000000000E+00  0.00000000000E+00 -0.89903019152E+03  0.14218252275E+04  0.11015133646E+04 0.  0.
        1    1    3    3  502    0  0.17069821524E+03  0.51778611416E+03 -0.34876228997E+03  0.64720589895E+03  0.50400001928E-02 0. -1.
       -1    1    3    3    0  502 -0.17069821524E+03 -0.51778611416E+03 -0.55026790154E+03  0.77461932858E+03  0.50400001928E-02 0.  1.
</event>
<event>
 5   0  0.2467448E-03  0.1097783E+04  0.7818609E-02  0.9207355E-01
        2   -1    0    0  501    0  0.00000000000E+00  0.00000000000E+00  0.60001143260E+03  0.60001143260E+03  0.25500000920E-02 0.  1.
       -2   -1    0    0    0  501  0.00000000000E+00  0.00000000000E+00 -0.50212730204E+03  0.50212730205E+03  0.25500000920E-02 0. -1.
    10030    2    1    2    0    0  0.00000000000E+00  0.00000000000E+00  0.97884130554E+02  0.11021387347E+04  0.10977834429E+04 0.  0.
        1    1    3    3  502    0 -0.12390939502E+03 -0.51438110681E+03 -0.97721932589E+02  0.53804371324E+03  0.50400001928E-02 0. -1.
       -1    1    3    3    0  502  0.12390939502E+03  0.51438110681E+03  0.19560606314E+03  0.56409502141E+03  0.50400001928E-02 0.  1.
</event>
<event>
 5   0  0.1415400E-03  0.1111948E+04  0.7818609E-02  0.9193624E-01
        1   -1    0    0  501    0  0.00000000000E+00  0.00000000000E+00  0.35824240056E+03  0.35824240059E+03  0.50400001928E-02 0.  1.
       -1   -1    0    0    0  501  0.00000000000E+00  0.00000000000E+00 -0.86284313879E+03  0.86284313880E+03  0.50400001928E-02 0. -1.
    10030    2    1    2    0    0  0.00000000000E+00  0.00000000000E+00 -0.50460073823E+03  0.12210855394E+04  0.11119478358E+04 0.  0.
        2    1    3    3  502    0 -0.34002936648E+03  0.22341081809E+03  0.16380232978E+03  0.43859271193E+03  0.25500000920E-02 0.  1.
       -2    1    3    3    0  502  0.34002936648E+03 -0.22341081809E+03 -0.66840306801E+03  0.78249282747E+03  0.25500000920E-02 0. -1.
</event>
<event>
 5   0  0.1480937E-03  0.1101019E+04  0.7818609E-02  0.9204199E-01
        1   -1    0    0  501    0  0.00000000000E+00  0.00000000000E+00  0.90596715593E+03  0.90596715595E+03  0.50400001928E-02 0.  1.
       -1   -1    0    0    0  501  0.00000000000E+00  0.00000000000E+00 -0.33451642190E+03  0.33451642194E+03  0.50400001928E-02 0. -1.
    10030    2    1    2    0    0  0.00000000000E+00  0.00000000000E+00  0.57145073404E+03  0.12404835779E+04  0.11010193302E+04 0.  0.
        1    1    3    3  502    0 -0.13667021827E+03  0.38111078505E+03  0.70598429079E+03  0.81384150663E+03  0.50400001928E-02 0.  1.
       -1    1    3    3    0  502  0.13667021827E+03 -0.38111078505E+03 -0.13453355675E+03  0.42664207125E+03  0.50400001928E-02 0. -1.
</event>
<event>
 5   0  0.2483036E-03  0.1093328E+04  0.7818609E-02  0.9211719E-01
        2   -1    0    0  501    0  0.00000000000E+00  0.00000000000E+00  0.20721577864E+04  0.20721577864E+04  0.25500000920E-02 0.  1.
       -2   -1    0    0    0  501  0.00000000000E+00  0.00000000000E+00 -0.14421768195E+03  0.14421768198E+03  0.25500000920E-02 0. -1.
    10030    2    1    2    0    0  0.00000000000E+00  0.00000000000E+00  0.19279401044E+04  0.22163754684E+04  0.10933284824E+04 0.  0.
        3    1    3    3  502    0  0.27018965471E+03  0.27499195074E+03  0.17827366035E+03  0.42474054511E+03  0.10100000352E+00 0. -1.
       -3    1    3    3    0  502 -0.27018965471E+03 -0.27499195074E+03  0.17496664441E+04  0.17916349233E+04  0.10100000352E+00 0.  1.
</event>
<event>
 5   0  0.1479573E-03  0.1102926E+04  0.7818609E-02  0.9202345E-01
        1   -1    0    0  501    0  0.00000000000E+00  0.00000000000E+00  0.15834956800E+04  0.15834956800E+04  0.50400001928E-02 0.  1.
       -1   -1    0    0    0  501  0.00000000000E+00  0.00000000000E+00 -0.19205051987E+03  0.19205051993E+03  0.50400001928E-02 0. -1.
    10030    2    1    2    0    0  0.00000000000E+00  0.00000000000E+00  0.13914451601E+04  0.17755462000E+04  0.11029255072E+04 0.  0.
        4    1    3    3  502    0  0.42794836386E+03 -0.26048896448E+03  0.32470420110E+03  0.59701652729E+03  0.12699999809E+01 0. -1.
       -4    1    3    3    0  502 -0.42794836386E+03  0.26048896448E+03  0.10667409590E+04  0.11785296727E+04  0.12699999809E+01 0.  1.
</event>
<event>
 5   0  0.1479573E-03  0.1103114E+04  0.7818609E-02  0.9202162E-01
       -1   -1    0    0    0  501  0.00000000000E+00  0.00000000000E+00  0.40949924095E+03  0.40949924098E+03  0.50400001928E-02 0. -1.
        1   -1    0    0  501    0  0.00000000000E+00  0.00000000000E+00 -0.74289498113E+03  0.74289498115E+03  0.50400001928E-02 0.  1.
    10030    2    1    2    0    0  0.00000000000E+00  0.00000000000E+00 -0.33339574018E+03  0.11523942221E+04  0.11031136495E+04 0.  0.
        4    1    3    3  502    0 -0.24829231362E+03 -0.15056062450E+02 -0.68096785673E+03  0.72497902923E+03  0.12699999809E+01 0.  1.
       -4    1    3    3    0  502  0.24829231362E+03  0.15056062450E+02  0.34757211655E+03  0.42741519290E+03  0.12699999809E+01 0. -1.
</event>
<event>
 5   0  0.1479573E-03  0.1097173E+04  0.7818609E-02  0.9207951E-01
        1   -1    0    0  501    0  0.00000000000E+00  0.00000000000E+00  0.84054152908E+03  0.84054152910E+03  0.50400001928E-02 0. -1.
       -1   -1    0    0    0  501  0.00000000000E+00  0.00000000000E+00 -0.35803969478E+03  0.35803969482E+03  0.50400001928E-02 0.  1.
    10030    2    1    2    0    0  0.00000000000E+00  0.00000000000E+00  0.48250183430E+03  0.11985812239E+04  0.10971731542E+04 0.  0.
        4    1    3    3  502    0  0.29976557002E+03  0.44359788813E+03  0.37191874003E+03  0.65189235723E+03  0.12699999809E+01 0. -1.
       -4    1    3    3    0  502 -0.29976557002E+03 -0.44359788813E+03  0.11058309427E+03  0.54668886669E+03  0.12699999809E+01 0.  1.
</event>
<event>
 5   0  0.2488472E-03  0.1099088E+04  0.7818609E-02  0.9206082E-01
        2   -1    0    0  501    0  0.00000000000E+00  0.00000000000E+00  0.37531036557E+03  0.37531036558E+03  0.25500000920E-02 0.  1.
       -2   -1    0    0    0  501  0.00000000000E+00  0.00000000000E+00 -0.80466311945E+03  0.80466311945E+03  0.25500000920E-02 0. -1.
    10030    2    1    2    0    0  0.00000000000E+00  0.00000000000E+00 -0.42935275387E+03  0.11799734850E+04  0.10990876390E+04 0.  0.
        2    1    3    3  502    0  0.14423108357E+03  0.51295064284E+03 -0.35902359361E+03  0.64250985069E+03  0.25500000920E-02 0. -1.
       -2    1    3    3    0  502 -0.14423108357E+03 -0.51295064284E+03 -0.70329160263E+02  0.53746363435E+03  0.25500000920E-02 0.  1.
</event>
<event>
 5   0  0.2438115E-03  0.1099905E+04  0.7818609E-02  0.9205284E-01
       -2   -1    0    0    0  501  0.00000000000E+00  0.00000000000E+00  0.17377811528E+04  0.17377811528E+04  0.25500000920E-02 0. -1.
        2   -1    0    0  501    0  0.00000000000E+00  0.00000000000E+00 -0.17404249628E+03  0.17404249630E+03  0.25500000920E-02 0.  1.
    10030    2    1    2    0    0  0.00000000000E+00  0.00000000000E+00  0.15637386565E+04  0.19118236491E+04  0.10999050320E+04 0.  0.
        4    1    3    3  502    0 -0.25402889766E+03 -0.20149756684E+03  0.97724111087E+01  0.32439029457E+03  0.12699999809E+01 0.  1.
       -4    1    3    3    0  502  0.25402889766E+03  0.20149756684E+03  0.15539662454E+04  0.15874333545E+04  0.12699999809E+01 0. -1.
</event>
<event>
 5   0  0.2483036E-03  0.1094043E+04  0.7818609E-02  0.9211017E-01
        2   -1    0    0  501    0  0.00000000000E+00  0.00000000000E+00  0.50805325791E+03  0.50805325792E+03  0.25500000920E-02 0. -1.
       -2   -1    0    0    0  501  0.00000000000E+00  0.00000000000E+00 -0.58897866282E+03  0.58897866282E+03  0.25500000920E-02 0.  1.
    10030    2    1    2    0    0  0.00000000000E+00  0.00000000000E+00 -0.80925404901E+02  0.10970319207E+04  0.10940430129E+04 0.  0.
        3    1    3    3  502    0 -0.20952578070E+03 -0.37237744365E+03  0.30203523589E+03  0.52325071164E+03  0.10100000352E+00 0. -1.
       -3    1    3    3    0  502  0.20952578070E+03  0.37237744365E+03 -0.38296064079E+03  0.57378120910E+03  0.10100000352E+00 0.  1.
</event>
<event>
 5   0  0.1509004E-03  0.1116456E+04  0.7818609E-02  0.9189299E-01
       -1   -1    0    0    0  501  0.00000000000E+00  0.00000000000E+00  0.52902789546E+03  0.52902789548E+03  0.50400001928E-02 0.  1.
        1   -1    0    0  501    0  0.00000000000E+00  0.00000000000E+00 -0.58903990918E+03  0.58903990920E+03  0.50400001928E-02 0. -1.
    10030    2    1    2    0    0  0.00000000000E+00  0.00000000000E+00 -0.60012013724E+02  0.11180678047E+04  0.11164560780E+04 0.  0.
        3    1    3    3  502    0 -0.13723406604E+03  0.14543701835E+03  0.49193100987E+03  0.53101906167E+03  0.10100000352E+00 0.  1.
       -3    1    3    3    0  502  0.13723406604E+03 -0.14543701835E+03 -0.55194302359E+03  0.58704874302E+03  0.10100000352E+00 0. -1.
</event>
<event>
 5   0  0.2483036E-03  0.1092816E+04  0.7818609E-02  0.9212223E-01
        2   -1    0    0  501    0  0.00000000000E+00  0.00000000000E+00  0.11935036037E+04  0.11935036037E+04  0.25500000920E-02 0. -1.
       -2   -1    0    0    0  501  0.00000000000E+00  0.00000000000E+00 -0.25015556295E+03  0.25015556297E+03  0.25500000920E-02 0.  1.
    10030    2    1    2    0    0  0.00000000000E+00  0.00000000000E+00  0.94334804076E+03  0.14436591667E+04  0.10928157500E+04 0.  0.
        3    1    3    3  502    0  0.24688065968E+03 -0.33215603934E+03  0.94298157123E+03  0.10298018977E+04  0.10100000352E+00 0. -1.
       -3    1    3    3    0  502 -0.24688065968E+03  0.33215603934E+03  0.36646952697E+00  0.41385726899E+03  0.10100000352E+00 0.  1.
</event>
<event>
 5   0  0.9631750E-04  0.1134687E+04  0.7818609E-02  0.9172028E-01
       -3   -1    0    0    0  501  0.00000000000E+00  0.00000000000E+00  0.64643195512E+03  0.64643196301E+03  0.10100000352E+00 0.  1.
        3   -1    0    0  501    0  0.00000000000E+00  0.00000000000E+00 -0.49793147840E+03  0.49793148865E+03  0.10100000352E+00 0. -1.
    10030    2    1    2    0    0  0.00000000000E+00  0.00000000000E+00  0.14850047672E+03  0.11443634517E+04  0.11346873216E+04 0.  0.
        5    1    3    3  502    0 -0.29864980862E+03 -0.16132206601E+03  0.53270364780E+03  0.63167379520E+03  0.46999998093E+01 0.  1.
       -5    1    3    3    0  502  0.29864980862E+03  0.16132206601E+03 -0.38420317108E+03  0.51268965645E+03  0.46999998093E+01 0. -1.
</event>
<event>
 5   0  0.2488472E-03  0.1102563E+04  0.7818609E-02  0.9202697E-01
        2   -1    0    0  501    0  0.00000000000E+00  0.00000000000E+00  0.49994597634E+03  0.49994597634E+03  0.25500000920E-02 0.  1.
       -2   -1    0    0    0  501  0.00000000000E+00  0.00000000000E+00 -0.60788816526E+03  0.60788816527E+03  0.25500000920E-02 0. -1.
    10030    2    1    2    0    0  0.00000000000E+00  0.00000000000E+00 -0.10794218892E+03  0.11078341416E+04  0.11025629094E+04 0.  0.
        2    1    3    3  502    0  0.17383042823E+03 -0.20290572317E+02 -0.57923467687E+03  0.60509630307E+03  0.25500000920E-02 0. -1.
       -2    1    3    3    0  502 -0.17383042823E+03  0.20290572317E+02  0.47129248794E+03  0.50273783854E+03  0.25500000920E-02 0.  1.
</event>
<event>
 5   0  0.1509004E-03  0.1092880E+04  0.7818609E-02  0.9212159E-01
       -1   -1    0    0    0  501  0.00000000000E+00  0.00000000000E+00  0.86258552887E+03  0.86258552888E+03  0.50400001928E-02 0.  1.
        1   -1    0    0  501    0  0.00000000000E+00  0.00000000000E+00 -0.34616467391E+03  0.34616467395E+03  0.50400001928E-02 0. -1.
    10030    2    1    2    0    0  0.00000000000E+00  0.00000000000E+00  0.51642085496E+03  0.12087502028E+04  0.10928799355E+04 0.  0.
        3    1    3    3  502    0  0.12238685938E+03 -0.53055074147E+03  0.30930336348E+03  0.62620381146E+03  0.10100000352E+00 0.  1.
       -3    1    3    3    0  502 -0.12238685938E+03  0.53055074147E+03  0.20711749148E+03  0.58254639137E+03  0.10100000352E+00 0. -1.
</event>
<event>
 5   0  0.2392585E-03  0.1096978E+04  0.7818609E-02  0.9208143E-01
        2   -1    0    0  501    0  0.00000000000E+00  0.00000000000E+00  0.18666137076E+04  0.18666137076E+04  0.25500000920E-02 0.  1.
       -2   -1    0    0    0  501  0.00000000000E+00  0.00000000000E+00 -0.16116886067E+03  0.16116886069E+03  0.25500000920E-02 0. -1.
    10030    2    1    2    0    0  0.00000000000E+00  0.00000000000E+00  0.17054448469E+04  0.20277825683E+04  0.10969776745E+04 0.  0.
        5    1    3    3  502    0 -0.33942844611E+03  0.40989276473E+03  0.60752949604E+03  0.80767439427E+03  0.46999998093E+01 0.  1.
       -5    1    3    3    0  502  0.33942844611E+03 -0.40989276473E+03  0.10979153509E+04  0.12201081740E+04  0.46999998093E+01 0. -1.
</event>
<event>
 5   0  0.1468556E-03  0.1095962E+04  0.7818609E-02  0.9209136E-01
        1   -1    0    0  501    0  0.00000000000E+00  0.00000000000E+00  0.35143861344E+03  0.35143861347E+03  0.50400001928E-02 0. -1.
       -1   -1    0    0    0  501  0.00000000000E+00  0.00000000000E+00 -0.85444067088E+03  0.85444067089E+03  0.50400001928E-02 0.  1.
    10030    2    1    2    0    0  0.00000000000E+00  0.00000000000E+00 -0.50300205744E+03  0.12058792844E+04  0.10959624896E+04 0.  0.
        5    1    3    3  502    0  0.52892399052E+03 -0.10666534434E+03 -0.35659636345E+03  0.64677750413E+03  0.46999998093E+01 0.  1.
       -5    1    3    3    0  502 -0.52892399052E+03  0.10666534434E+03 -0.14640569399E+03  0.55910178023E+03  0.46999998093E+01 0. -1.
</event>
<event>
 5   0  0.2392585E-03  0.1105202E+04  0.7818609E-02  0.9200137E-01
        2   -1    0    0  501    0  0.00000000000E+00  0.00000000000E+00  0.18618111093E+03  0.18618111095E+03  0.25500000920E-02 0. -1.
       -2   -1    0    0    0  501  0.00000000000E+00  0.00000000000E+00 -0.16401647101E+04  0.16401647101E+04  0.25500000920E-02 0.  1.
    10030    2    1    2    0    0  0.00000000000E+00  0.00000000000E+00 -0.14539835992E+04  0.18263458210E+04  0.11052016791E+04 0.  0.
        5    1    3    3  502    0 -0.21893500053E+02 -0.45407757337E+03 -0.12460973533E+04  0.13264412809E+04  0.46999998093E+01 0.  1.
       -5    1    3    3    0  502  0.21893500053E+02  0.45407757337E+03 -0.20788624590E+03  0.49990454010E+03  0.46999998093E+01 0. -1.
</event>
<event>
 5   0  0.2467448E-03  0.1100160E+04  0.7818609E-02  0.9205036E-01
       -2   -1    0    0    0  501  0.00000000000E+00  0.00000000000E+00  0.23741614099E+03  0.23741614100E+03  0.25500000920E-02 0. -1.
        2   -1    0    0  501    0  0.00000000000E+00  0.00000000000E+00 -0.12745056918E+04  0.12745056918E+04  0.25500000920E-02 0.  1.
    10030    2    1    2    0    0  0.00000000000E+00  0.00000000000E+00 -0.10370895508E+04  0.15119218328E+04  0.11001603938E+04 0.  0.
        1    1    3    3  502    0  0.46064058501E+03 -0.28936403445E+03 -0.63075599430E+03  0.83293122007E+03  0.50400001928E-02 0.  1.
       -1    1    3    3    0  502 -0.46064058501E+03  0.28936403445E+03 -0.40633355646E+03  0.67899061269E+03  0.50400001928E-02 0. -1.
</event>
<event>
 5   0  0.2438115E-03  0.1104897E+04  0.7818609E-02  0.9200432E-01
        2   -1    0    0  501    0  0.00000000000E+00  0.00000000000E+00  0.81350486670E+03  0.81350486670E+03  0.25500000920E-02 0. -1.
       -2   -1    0    0    0  501  0.00000000000E+00  0.00000000000E+00 -0.37516586690E+03  0.37516586691E+03  0.25500000920E-02 0.  1.
    10030    2    1    2    0    0  0.00000000000E+00  0.00000000000E+00  0.43833899980E+03  0.11886707336E+04  0.11048968432E+04 0.  0.
        4    1    3    3  502    0 -0.44673219504E+03  0.25037738260E+03  0.44209851560E+03  0.67654356711E+03  0.12699999809E+01 0. -1.
       -4    1    3    3    0  502  0.44673219504E+03 -0.25037738260E+03 -0.37595157978E+01  0.51212716650E+03  0.12699999809E+01 0.  1.
</event>
<event>
 5   0  0.1509004E-03  0.1106274E+04  0.7818609E-02  0.9199098E-01
       -1   -1    0    0    0  501  0.00000000000E+00  0.00000000000E+00  0.40416849055E+03  0.40416849058E+03  0.50400001928E-02 0. -1.
        1   -1    0    0  501    0  0.00000000000E+00  0.00000000000E+00 -0.75701248574E+03  0.75701248575E+03  0.50400001928E-02 0.  1.
    10030    2    1    2    0    0  0.00000000000E+00  0.00000000000E+00 -0.35284399519E+03  0.11611809763E+04  0.11062740957E+04 0.  0.
        3    1    3    3  502    0  0.26326298448E+03  0.44400064366E+03  0.32232151739E+02  0.51718748281E+03  0.10100000352E+00 0. -1.
       -3    1    3    3    0  502 -0.26326298448E+03 -0.44400064366E+03 -0.38507614693E+03  0.64399349352E+03  0.10100000352E+00 0.  1.
</event>
<event>
 5   0  0.1479573E-03  0.1104474E+04  0.7818609E-02  0.9200842E-01
       -1   -1    0    0    0  501  0.00000000000E+00  0.00000000000E+00  0.32603481607E+03  0.32603481611E+03  0.50400001928E-02 0. -1.
        1   -1    0    0  501    0  0.00000000000E+00  0.00000000000E+00 -0.93537826899E+03  0.93537826901E+03  0.50400001928E-02 0.  1.
    10030    2    1    2    0    0  0.00000000000E+00  0.00000000000E+00 -0.60934345293E+03  0.12614130851E+04  0.11044743219E+04 0.  0.
        4    1    3    3  502    0 -0.40587140025E+03 -0.24790034490E+03 -0.62522812067E+03  0.78555584800E+03  0.12699999809E+01 0. -1.
       -4    1    3    3    0  502  0.40587140025E+03  0.24790034490E+03  0.15884667741E+02  0.47585723712E+03  0.12699999809E+01 0.  1.
</event>
<event>
 5   0  0.2467448E-03  0.1092851E+04  0.7818609E-02  0.9212188E-01
        2   -1    0    0  501    0  0.00000000000E+00  0.00000000000E+00  0.12376026592E+04  0.12376026592E+04  0.25500000920E-02 0.  1.
       -2   -1    0    0    0  501  0.00000000000E+00  0.00000000000E+00 -0.24125746891E+03  0.24125746892E+03  0.25500000920E-02 0. -1.
    10030    2    1    2    0    0  0.00000000000E+00  0.00000000000E+00  0.99634519032E+03  0.14788601281E+04  0.10928511062E+04 0.  0.
        1    1    3    3  502    0 -0.26037897027E+02 -0.13256324822E+03  0.12146472195E+04  0.12221370033E+04  0.50400001928E-02 0.  1.
       -1    1    3    3    0  502  0.26037897027E+02  0.13256324822E+03 -0.21830202921E+03  0.25672312487E+03  0.50400001928E-02 0. -1.
</event>
<event>
 5   0  0.1479573E-03  0.1107647E+04  0.7818609E-02  0.9197771E-01
       -1   -1    0    0    0  501  0.00000000000E+00  0.00000000000E+00  0.18315385249E+03  0.18315385256E+03  0.50400001928E-02 0. -1.
        1   -1    0    0  501    0  0.00000000000E+00  0.00000000000E+00 -0.16746590355E+04  0.16746590356E+04  0.50400001928E-02 0.  1.
    10030    2    1    2    0    0  0.00000000000E+00  0.00000000000E+00 -0.14915051831E+04  0.18578128881E+04  0.11076466116E+04 0.  0.
        4    1    3    3  502    0 -0.29691628947E+03 -0.18540327956E+03 -0.14655791334E+04  0.15068037259E+04  0.12699999809E+01 0.  1.
       -4    1    3    3    0  502  0.29691628947E+03  0.18540327956E+03 -0.25926049617E+02  0.35100916224E+03  0.12699999809E+01 0. -1.
</event>
<event>
 5   0  0.2438115E-03  0.1103059E+04  0.7818609E-02  0.9202216E-01
       -2   -1    0    0    0  501  0.00000000000E+00  0.00000000000E+00  0.15091144818E+03  0.15091144820E+03  0.25500000920E-02 0. -1.
        2   -1    0    0  501    0  0.00000000000E+00  0.00000000000E+00 -0.20156502197E+04  0.20156502197E+04  0.25500000920E-02 0.  1.
    10030    2    1    2    0    0  0.00000000000E+00  0.00000000000E+00 -0.18647387715E+04  0.21665616679E+04  0.11030588265E+04 0.  0.
        4    1    3    3  502    0  0.20141519944E+03  0.29299766018E+03 -0.17604991684E+04  0.17960441660E+04  0.12699999809E+01 0.  1.
       -4    1    3    3    0  502 -0.20141519944E+03 -0.29299766018E+03 -0.10423960309E+03  0.37051750186E+03  0.12699999809E+01 0. -1.
</event>
<event>
 5   0  0.2392585E-03  0.1107084E+04  0.7818609E-02  0.9198315E-01
       -2   -1    0    0    0  501  0.00000000000E+00  0.00000000000E+00  0.26999150237E+03  0.26999150238E+03  0.25500000920E-02 0. -1.
        2   -1    0    0  501    0  0.00000000000E+00  0.00000000000E+00 -0.11348822687E+04  0.11348822687E+04  0.25500000920E-02 0.  1.
    10030    2    1    2    0    0  0.00000000000E+00  0.00000000000E+00 -0.86489076635E+03  0.14048737711E+04  0.11070836802E+04 0.  0.
        5    1    3    3  502    0 -0.31723319101E+02 -0.42495126719E+03  0.15843646347E+02  0.42645405331E+03  0.46999998093E+01 0. -1.
       -5    1    3    3    0  502  0.31723319101E+02  0.42495126719E+03 -0.88073441270E+03  0.97841971780E+03  0.46999998093E+01 0.  1.
</event>
<event>
 5   0  0.2392585E-03  0.1107695E+04  0.7818609E-02  0.9197725E-01
        2   -1    0    0  501    0  0.00000000000E+00  0.00000000000E+00  0.78360684910E+03  0.78360684911E+03  0.25500000920E-02 0. -1.
       -2   -1    0    0    0  501  0.00000000000E+00  0.00000000000E+00 -0.39145495787E+03  0.39145495788E+03  0.25500000920E-02 0.  1.
    10030    2    1    2    0    0  0.00000000000E+00  0.00000000000E+00  0.39215189123E+03  0.11750618070E+04  0.11076945177E+04 0.  0.
        5    1    3    3  502    0 -0.30221608179E+03  0.37094321300E+03 -0.99797597018E+02  0.48878940018E+03  0.46999998093E+01 0.  1.
       -5    1    3    3    0  502  0.30221608179E+03 -0.37094321300E+03  0.49194948825E+03  0.68627240681E+03  0.46999998093E+01 0. -1.
</event>
<event>
 5   0  0.1415400E-03  0.1103951E+04  0.7818609E-02  0.9201349E-01
       -1   -1    0    0    0  501  0.00000000000E+00  0.00000000000E+00  0.78039209468E+03  0.78039209470E+03  0.50400001928E-02 0.  1.
        1   -1    0    0  501    0  0.00000000000E+00  0.00000000000E+00 -0.39041543957E+03  0.39041543960E+03  0.50400001928E-02 0. -1.
    10030    2    1    2    0    0  0.00000000000E+00  0.00000000000E+00  0.38997665511E+03  0.11708075343E+04  0.11039513082E+04 0.  0.
        2    1    3    3  502    0 -0.36678775587E+03  0.39152619519E+03  0.33266163974E+03  0.63126047392E+03  0.25500000920E-02 0. -1.
       -2    1    3    3    0  502  0.36678775587E+03 -0.39152619519E+03  0.57315015375E+02  0.53954706038E+03  0.25500000920E-02 0.  1.
</event>
<event>
 5   0  0.1479573E-03  0.1100392E+04  0.7818609E-02  0.9204810E-01
       -1   -1    0    0    0  501  0.00000000000E+00  0.00000000000E+00  0.63187932419E+03  0.63187932421E+03  0.50400001928E-02 0.  1.
        1   -1    0    0  501    0  0.00000000000E+00  0.00000000000E+00 -0.47907160541E+03  0.47907160543E+03  0.50400001928E-02 0. -1.
    10030    2    1    2    0    0  0.00000000000E+00  0.00000000000E+00  0.15280771878E+03  0.11109509296E+04  0.11003916435E+04 0.  0.
        4    1    3    3  502    0  0.33166366597E+03  0.54193116516E+02  0.51621720856E+03  0.61597037309E+03  0.12699999809E+01 0.  1.
       -4    1    3    3    0  502 -0.33166366597E+03 -0.54193116516E+02 -0.36340948978E+03  0.49498055655E+03  0.12699999809E+01 0. -1.
</event>
<event>
 5   0  0.9631750E-04  0.1094427E+04  0.7818609E-02  0.9210641E-01
       -3   -1    0    0    0  501  0.00000000000E+00  0.00000000000E+00  0.44303179606E+03  0.44303180757E+03  0.10100000352E+00 0.  1.
        3   -1    0    0  501    0  0.00000000000E+00  0.00000000000E+00 -0.67589380505E+03  0.67589381260E+03  0.10100000352E+00 0. -1.
    10030    2    1    2    0    0  0.00000000000E+00  0.00000000000E+00 -0.23286200899E+03  0.11189256202E+04  0.10944267121E+04 0.  0.
        3    1    3    3  502    0 -0.52288869966E+03 -0.12025570671E+03 -0.64667459264E+01  0.53657791255E+03  0.10100000352E+00 0.  1.
       -3    1    3    3    0  502  0.52288869966E+03  0.12025570671E+03 -0.22639526307E+03  0.58234770762E+03  0.10100000352E+00 0. -1.
</event>
<event>
 5   0  0.1480937E-03  0.1108591E+04  0.7818609E-02  0.9196859E-01
       -1   -1    0    0    0  501  0.00000000000E+00  0.00000000000E+00  0.14120136002E+03  0.14120136011E+03  0.50400001928E-02 0.  1.
        1   -1    0    0  501    0  0.00000000000E+00  0.00000000000E+00 -0.21759239256E+04  0.21759239257E+04  0.50400001928E-02 0. -1.
    10030    2    1    2    0    0  0.00000000000E+00  0.00000000000E+00 -0.20347225656E+04  0.23171252858E+04  0.11085908492E+04 0.  0.
        1    1    3    3  502    0 -0.52299116402E+03  0.15525738496E+03 -0.12223541619E+04  0.13385717427E+04  0.50400001928E-02 0. -1.
       -1    1    3    3    0  502  0.52299116402E+03 -0.15525738496E+03 -0.81236840376E+03  0.97855354308E+03  0.50400001928E-02 0.  1.
</event>
<event>
 5   0  0.2392585E-03  0.1097316E+04  0.7818609E-02  0.9207812E-01
        2   -1    0    0  501    0  0.00000000000E+00  0.00000000000E+00  0.14421997932E+04  0.14421997932E+04  0.25500000920E-02 0.  1.
       -2   -1    0    0    0  501  0.00000000000E+00  0.00000000000E+00 -0.20872666254E+03  0.20872666255E+03  0.25500000920E-02 0. -1.
    10030    2    1    2    0    0  0.00000000000E+00  0.00000000000E+00  0.12334731307E+04  0.16509264558E+04  0.10973159063E+04 0.  0.
        5    1    3    3  502    0 -0.28947863105E+03  0.38385028741E+03  0.21906508129E+03  0.52834697011E+03  0.46999998093E+01 0. -1.
       -5    1    3    3    0  502  0.28947863105E+03 -0.38385028741E+03  0.10144080494E+04  0.11225794857E+04  0.46999998093E+01 0.  1.
</event>
<event>
 5   0  0.2438115E-03  0.1116143E+04  0.7818609E-02  0.9189599E-01
       -2   -1    0    0    0  501  0.00000000000E+00  0.00000000000E+00  0.79168263124E+03  0.79168263125E+03  0.25500000920E-02 0. -1.
        2   -1    0    0  501    0  0.00000000000E+00  0.00000000000E+00 -0.39339466136E+03  0.39339466136E+03  0.25500000920E-02 0.  1.
    10030    2    1    2    0    0  0.00000000000E+00  0.00000000000E+00  0.39828796989E+03  0.11850772926E+04  0.11161428594E+04 0.  0.
        4    1    3    3  502    0  0.25963959781E+03  0.33375733399E+03  0.58582839649E+03  0.72249789050E+03  0.12699999809E+01 0. -1.
       -4    1    3    3    0  502 -0.25963959781E+03 -0.33375733399E+03 -0.18754042660E+03  0.46257940211E+03  0.12699999809E+01 0.  1.
</event>
<event>
 5   0  0.2467448E-03  0.1096298E+04  0.7818609E-02  0.9208808E-01
        2   -1    0    0  501    0  0.00000000000E+00  0.00000000000E+00  0.55093299430E+03  0.55093299430E+03  0.25500000920E-02 0.  1.
       -2   -1    0    0    0  501  0.00000000000E+00  0.00000000000E+00 -0.54537868499E+03  0.54537868499E+03  0.25500000920E-02 0. -1.
    10030    2    1    2    0    0  0.00000000000E+00  0.00000000000E+00  0.55543093106E+01  0.10963116793E+04  0.10962976091E+04 0.  0.
        1    1    3    3  502    0 -0.14520905485E+03 -0.13667366504E+03 -0.50781901010E+03  0.54556897582E+03  0.50400001928E-02 0. -1.
       -1    1    3    3    0  502  0.14520905485E+03  0.13667366504E+03  0.51337331941E+03  0.55074270348E+03  0.50400001928E-02 0.  1.
</event>
<event>
 5   0  0.2467448E-03  0.1128588E+04  0.7818609E-02  0.9177767E-01
        2   -1    0    0  501    0  0.00000000000E+00  0.00000000000E+00  0.54626642281E+03  0.54626642282E+03  0.25500000920E-02 0. -1.
       -2   -1    0    0    0  501  0.00000000000E+00  0.00000000000E+00 -0.58291649516E+03  0.58291649516E+03  0.25500000920E-02 0.  1.
    10030    2    1    2    0    0  0.00000000000E+00  0.00000000000E+00 -0.36650072346E+02  0.11291829180E+04  0.11285879826E+04 0.  0.
        1    1    3    3  502    0  0.12876261348E+03  0.53313907045E+03 -0.15110003876E+03  0.56890095869E+03  0.50400001928E-02 0.  1.
       -1    1    3    3    0  502 -0.12876261348E+03 -0.53313907045E+03  0.11444996641E+03  0.56028195929E+03  0.50400001928E-02 0. -1.
</event>
<event>
 5   0  0.1415400E-03  0.1088180E+04  0.7818609E-02  0.9216789E-01
       -1   -1    0    0    0  501  0.00000000000E+00  0.00000000000E+00  0.11026131674E+04  0.11026131674E+04  0.50400001928E-02 0.  1.
        1   -1    0    0  501    0  0.00000000000E+00  0.00000000000E+00 -0.26848409383E+03  0.26848409388E+03  0.50400001928E-02 0. -1.
    10030    2    1    2    0    0  0.00000000000E+00  0.00000000000E+00  0.83412907360E+03  0.13710972613E+04  0.10881803107E+04 0.  0.
        2    1    3    3  502    0 -0.82073414557E+02 -0.34307297203E+03  0.93900955943E+03  0.10030822809E+04  0.25500000920E-02 0.  1.
       -2    1    3    3    0  502  0.82073414557E+02  0.34307297203E+03 -0.10488048582E+03  0.36801498044E+03  0.25500000920E-02 0. -1.
</event>
<event>
 5   0  0.1468556E-03  0.1101920E+04  0.7818609E-02  0.9203322E-01
       -1   -1    0    0    0  501  0.00000000000E+00  0.00000000000E+00  0.55686261756E+03  0.55686261758E+03  0.50400001928E-02 0.  1.
        1   -1    0    0  501    0  0.00000000000E+00  0.00000000000E+00 -0.54512031052E+03  0.54512031054E+03  0.50400001928E-02 0. -1.
    10030    2    1    2    0    0  0.00000000000E+00  0.00000000000E+00  0.11742307039E+02  0.11019829281E+04  0.11019203656E+04 0.  0.
        5    1    3    3  502    0  0.14500521510E+03 -0.19498654181E+03 -0.48861497578E+03  0.54572240970E+03  0.46999998093E+01 0. -1.
       -5    1    3    3    0  502 -0.14500521510E+03  0.19498654181E+03  0.50035728282E+03  0.55626051843E+03  0.46999998093E+01 0.  1.
</event>
<event>
 5   0  0.2392585E-03  0.1213057E+04  0.7818609E-02  0.9101504E-01
        2   -1    0    0  501    0  0.00000000000E+00  0.00000000000E+00  0.82493050108E+03  0.82493050108E+03  0.25500000920E-02 0.  1.
       -2   -1    0    0    0  501  0.00000000000E+00  0.00000000000E+00 -0.44594866631E+03  0.44594866631E+03  0.25500000920E-02 0. -1.
    10030    2    1    2    0    0  0.00000000000E+00  0.00000000000E+00  0.37898183477E+03  0.12708791674E+04  0.12130567287E+04 0.  0.
        5    1    3    3  502    0  0.27586827287E+03 -0.47378154105E+03  0.46124345595E+03  0.71647740248E+03  0.46999998093E+01 0. -1.
       -5    1    3    3    0  502 -0.27586827287E+03  0.47378154105E+03 -0.82261621178E+02  0.55440176491E+03  0.46999998093E+01 0.  1.
</event>
<event>
 5   0  0.1479573E-03  0.1105455E+04  0.7818609E-02  0.9199891E-01
       -1   -1    0    0    0  501  0.00000000000E+00  0.00000000000E+00  0.17037403147E+04  0.17037403147E+04  0.50400001928E-02 0. -1.
        1   -1    0    0  501    0  0.00000000000E+00  0.00000000000E+00 -0.17931583519E+03  0.17931583526E+03  0.50400001928E-02 0.  1.
    10030    2    1    2    0    0  0.00000000000E+00  0.00000000000E+00  0.15244244795E+04  0.18830561499E+04  0.11054548703E+04 0.  0.
        4    1    3    3  502    0  0.35819179897E+03 -0.32095778752E+03  0.29823454832E+03  0.56591582849E+03  0.12699999809E+01 0.  1.
       -4    1    3    3    0  502 -0.35819179897E+03  0.32095778752E+03  0.12261899311E+04  0.13171403214E+04  0.12699999809E+01 0. -1.
</event>
<event>
 5   0  0.2488472E-03  0.1103747E+04  0.7818609E-02  0.9201548E-01
        2   -1    0    0  501    0  0.00000000000E+00  0.00000000000E+00  0.20126630182E+04  0.20126630182E+04  0.25500000920E-02 0. -1.
       -2   -1    0    0    0  501  0.00000000000E+00  0.00000000000E+00 -0.15132400850E+03  0.15132400852E+03  0.25500000920E-02 0.  1.
    10030    2    1    2    0    0  0.00000000000E+00  0.00000000000E+00  0.18613390097E+04  0.21639870268E+04  0.11037467748E+04 0.  0.
        2    1    3    3  502    0 -0.11019534245E+03  0.18911395774E+03  0.19239270545E+04  0.19363373708E+04  0.25500000920E-02 0. -1.
       -2    1    3    3    0  502  0.11019534245E+03 -0.18911395774E+03 -0.62588044750E+02  0.22764965597E+03  0.25500000920E-02 0.  1.
</event>
<event>
 5   0  0.1480937E-03  0.1090828E+04  0.7818609E-02  0.9214178E-01
        1   -1    0    0  501    0  0.00000000000E+00  0.00000000000E+00  0.10256833687E+04  0.10256833687E+04  0.50400001928E-02 0. -1.
       -1   -1    0    0    0  501  0.00000000000E+00  0.00000000000E+00 -0.29002749288E+03  0.29002749292E+03  0.50400001928E-02 0.  1.
    10030    2    1    2    0    0  0.00000000000E+00  0.00000000000E+00  0.73565587583E+03  0.13157108616E+04  0.10908278983E+04 0.  0.
        1    1    3    3  502    0 -0.15453067199E+03  0.17896976826E+03  0.96064753144E+03  0.98931975934E+03  0.50400001928E-02 0. -1.
       -1    1    3    3    0  502  0.15453067199E+03 -0.17896976826E+03 -0.22499165561E+03  0.32639110229E+03  0.50400001928E-02 0.  1.
</event>
<event>
 5   0  0.2483036E-03  0.1094400E+04  0.7818609E-02  0.9210667E-01
        2   -1    0    0  501    0  0.00000000000E+00  0.00000000000E+00  0.11433870781E+04  0.11433870781E+04  0.25500000920E-02 0.  1.
       -2   -1    0    0    0  501  0.00000000000E+00  0.00000000000E+00 -0.26187803404E+03  0.26187803406E+03  0.25500000920E-02 0. -1.
    10030    2    1    2    0    0  0.00000000000E+00  0.00000000000E+00  0.88150904401E+03  0.14052651121E+04  0.10944002196E+04 0.  0.
        3    1    3    3  502    0  0.34685669046E+03  0.17855165895E+03 -0.51955722641E+02  0.39356024437E+03  0.10100000352E+00 0. -1.
       -3    1    3    3    0  502 -0.34685669046E+03 -0.17855165895E+03  0.93346476665E+03  0.10117048677E+04  0.10100000352E+00 0.  1.
</event>
<event>
 5   0  0.2392585E-03  0.1085164E+04  0.7818609E-02  0.9219773E-01
       -2   -1    0    0    0  501  0.00000000000E+00  0.00000000000E+00  0.35156123843E+03  0.35156123843E+03  0.25500000920E-02 0. -1.
        2   -1    0    0  501    0  0.00000000000E+00  0.00000000000E+00 -0.83739460834E+03  0.83739460834E+03  0.25500000920E-02 0.  1.
    10030    2    1    2    0    0  0.00000000000E+00  0.00000000000E+00 -0.48583336992E+03  0.11889558468E+04  0.10851644771E+04 0.  0.
        5    1    3    3  502    0 -0.44614159530E+03  0.11569630980E+03 -0.55655747885E+03  0.72263841333E+03  0.46999998093E+01 0.  1.
       -5    1    3    3    0  502  0.44614159530E+03 -0.11569630980E+03  0.70724108938E+02  0.46631743345E+03  0.46999998093E+01 0. -1.
</event>
<event>
 5   0  0.1480937E-03  0.1102679E+04  0.7818609E-02  0.9202585E-01
       -1   -1    0    0    0  501  0.00000000000E+00  0.00000000000E+00  0.34805531944E+03  0.34805531947E+03  0.50400001928E-02 0. -1.
        1   -1    0    0  501    0  0.00000000000E+00  0.00000000000E+00 -0.87335341551E+03  0.87335341552E+03  0.50400001928E-02 0.  1.
    10030    2    1    2    0    0  0.00000000000E+00  0.00000000000E+00 -0.52529809607E+03  0.12214087350E+04  0.11026791048E+04 0.  0.
        1    1    3    3  502    0 -0.51447413688E+02  0.10049125294E+03  0.33511516631E+03  0.35362056361E+03  0.50400001928E-02 0. -1.
       -1    1    3    3    0  502  0.51447413688E+02 -0.10049125294E+03 -0.86041326238E+03  0.86778817138E+03  0.50400001928E-02 0.  1.
</event>
<event>
 5   0  0.1479573E-03  0.1101060E+04  0.7818609E-02  0.9204160E-01
        1   -1    0    0  501    0  0.00000000000E+00  0.00000000000E+00  0.19095738430E+04  0.19095738430E+04  0.50400001928E-02 0.  1.
       -1   -1    0    0    0  501  0.00000000000E+00  0.00000000000E+00 -0.15871762779E+03  0.15871762787E+03  0.50400001928E-02 0. -1.
    10030    2    1    2    0    0  0.00000000000E+00  0.00000000000E+00  0.17508562152E+04  0.20682914709E+04  0.11010595453E+04 0.  0.
        4    1    3    3  502    0 -0.90691251221E+01  0.54731306452E+03  0.76513255861E+03  0.94077802098E+03  0.12699999809E+01 0.  1.
       -4    1    3    3    0  502  0.90691251221E+01 -0.54731306452E+03  0.98572365664E+03  0.11275134499E+04  0.12699999809E+01 0. -1.
</event>
<event>
 5   0  0.1468556E-03  0.1097600E+04  0.7818609E-02  0.9207535E-01
       -1   -1    0    0    0  501  0.00000000000E+00  0.00000000000E+00  0.38827518370E+03  0.38827518374E+03  0.50400001928E-02 0. -1.
        1   -1    0    0  501    0  0.00000000000E+00  0.00000000000E+00 -0.77569026174E+03  0.77569026176E+03  0.50400001928E-02 0.  1.
    10030    2    1    2    0    0  0.00000000000E+00  0.00000000000E+00 -0.38741507804E+03  0.11639654455E+04  0.10975997065E+04 0.  0.
        5    1    3    3  502    0  0.31288887114E+03 -0.42806754889E+02 -0.66965092725E+03  0.74039605504E+03  0.46999998093E+01 0.  1.
       -5    1    3    3    0  502 -0.31288887114E+03  0.42806754889E+02  0.28223584922E+03  0.42356939045E+03  0.46999998093E+01 0. -1.
</event>
<event>
 5   0  0.1468556E-03  0.1101313E+04  0.7818609E-02  0.9203914E-01
       -1   -1    0    0    0  501  0.00000000000E+00  0.00000000000E+00  0.53386303344E+03  0.53386303346E+03  0.50400001928E-02 0. -1.
        1   -1    0    0  501    0  0.00000000000E+00  0.00000000000E+00 -0.56797776052E+03  0.56797776054E+03  0.50400001928E-02 0.  1.
    10030    2    1    2    0    0  0.00000000000E+00  0.00000000000E+00 -0.34114727080E+02  0.11018407940E+04  0.11013125445E+04 0.  0.
        5    1    3    3  502    0  0.21385987229E+03  0.48290371431E+03 -0.17291461937E+03  0.55574598322E+03  0.46999998093E+01 0.  1.
       -5    1    3    3    0  502 -0.21385987229E+03 -0.48290371431E+03  0.13879989229E+03  0.54609481079E+03  0.46999998093E+01 0. -1.
</event>
<event>
 5   0  0.2392585E-03  0.1098832E+04  0.7818609E-02  0.9206331E-01
       -2   -1    0    0    0  501  0.00000000000E+00  0.00000000000E+00  0.59447944461E+03  0.59447944461E+03  0.25500000920E-02 0.  1.
        2   -1    0    0  501    0  0.00000000000E+00  0.00000000000E+00 -0.50776879470E+03  0.50776879471E+03  0.25500000920E-02 0. -1.
    10030    2    1    2    0    0  0.00000000000E+00  0.00000000000E+00  0.86710649907E+02  0.11022482393E+04  0.10988323094E+04 0.  0.
        5    1    3    3  502    0  0.44535831906E+03 -0.18285959396E+02  0.36553536709E+03  0.57646908266E+03  0.46999998093E+01 0.  1.
       -5    1    3    3    0  502 -0.44535831906E+03  0.18285959396E+02 -0.27882471719E+03  0.52577915666E+03  0.46999998093E+01 0. -1.
</event>
<event>
 5   0  0.2392585E-03  0.1097527E+04  0.7818609E-02  0.9207606E-01
        2   -1    0    0  501    0  0.00000000000E+00  0.00000000000E+00  0.47187807815E+03  0.47187807815E+03  0.25500000920E-02 0. -1.
       -2   -1    0    0    0  501  0.00000000000E+00  0.00000000000E+00 -0.63817599187E+03  0.63817599187E+03  0.25500000920E-02 0.  1.
    10030    2    1    2    0    0  0.00000000000E+00  0.00000000000E+00 -0.16629791372E+03  0.11100540700E+04  0.10975267843E+04 0.  0.
        5    1    3    3  502    0 -0.48159131304E+03  0.26081261619E+03 -0.11768185464E+03  0.56020043063E+03  0.46999998093E+01 0. -1.
       -5    1    3    3    0  502  0.48159131304E+03 -0.26081261619E+03 -0.48616059077E+02  0.54985363940E+03  0.46999998093E+01 0.  1.
</event>
<event>
 5   0  0.2483036E-03  0.1097203E+04  0.7818609E-02  0.9207922E-01
       -2   -1    0    0    0  501  0.00000000000E+00  0.00000000000E+00  0.18899477628E+03  0.18899477630E+03  0.25500000920E-02 0. -1.
        2   -1    0    0  501    0  0.00000000000E+00  0.00000000000E+00 -0.15924444350E+04  0.15924444350E+04  0.25500000920E-02 0.  1.
    10030    2    1    2    0    0  0.00000000000E+00  0.00000000000E+00 -0.14034496587E+04  0.17814392113E+04  0.10972031348E+04 0.  0.
        3    1    3    3  502    0  0.39364728072E+03 -0.25286186145E+03 -0.11668464969E+04  0.12571507707E+04  0.10100000352E+00 0.  1.
       -3    1    3    3    0  502 -0.39364728072E+03  0.25286186145E+03 -0.23660316175E+03  0.52428844060E+03  0.10100000352E+00 0. -1.
</event>
<event>
 5   0  0.2392585E-03  0.1099134E+04  0.7818609E-02  0.9206036E-01
        2   -1    0    0  501    0  0.00000000000E+00  0.00000000000E+00  0.12768839996E+04  0.12768839996E+04  0.25500000920E-02 0. -1.
       -2   -1    0    0    0  501  0.00000000000E+00  0.00000000000E+00 -0.23653199692E+03  0.23653199693E+03  0.25500000920E-02 0.  1.
    10030    2    1    2    0    0  0.00000000000E+00  0.00000000000E+00  0.10403520027E+04  0.15134159965E+04  0.10991340633E+04 0.  0.
        5    1    3    3  502    0 -0.38152961735E+03  0.39486022482E+03  0.48870551107E+03  0.73507456262E+03  0.46999998093E+01 0.  1.
       -5    1    3    3    0  502  0.38152961735E+03 -0.39486022482E+03  0.55164649162E+03  0.77834143393E+03  0.46999998093E+01 0. -1.
</event>
<event>
 5   0  0.1415400E-03  0.1107389E+04  0.7818609E-02  0.9198020E-01
       -1   -1    0    0    0  501  0.00000000000E+00  0.00000000000E+00  0.66041859166E+03  0.66041859168E+03  0.50400001928E-02 0. -1.
        1   -1    0    0  501    0  0.00000000000E+00  0.00000000000E+00 -0.46421681104E+03  0.46421681106E+03  0.50400001928E-02 0.  1.
    10030    2    1    2    0    0  0.00000000000E+00  0.00000000000E+00  0.19620178062E+03  0.11246354027E+04  0.11073886627E+04 0.  0.
        2    1    3    3  502    0 -0.71176021643E+02 -0.41919754555E+03 -0.26208422948E+03  0.49948048170E+03  0.25500000920E-02 0.  1.
       -2    1    3    3    0  502  0.71176021643E+02  0.41919754555E+03  0.45828601010E+03  0.62515492104E+03  0.25500000920E-02 0. -1.
</event>
<event>
 5   0  0.2483036E-03  0.1104380E+04  0.7818609E-02  0.9200933E-01
       -2   -1    0    0    0  501  0.00000000000E+00  0.00000000000E+00  0.49629323940E+03  0.49629323941E+03  0.25500000920E-02 0. -1.
        2   -1    0    0  501    0  0.00000000000E+00  0.00000000000E+00 -0.61438212068E+03  0.61438212068E+03  0.25500000920E-02 0.  1.
    10030    2    1    2    0    0  0.00000000000E+00  0.00000000000E+00 -0.11808888127E+03  0.11106753601E+04  0.11043798131E+04 0.  0.
        3    1    3    3  502    0  0.46662876680E+03  0.25680758774E+03 -0.20554963694E+03  0.57091436011E+03  0.10100000352E+00 0.  1.
       -3    1    3    3    0  502 -0.46662876680E+03 -0.25680758774E+03  0.87460755667E+02  0.53976099999E+03  0.10100000352E+00 0. -1.
</event>
<event>
 5   0  0.2438115E-03  0.1081669E+04  0.7818609E-02  0.9223245E-01
       -2   -1    0    0    0  501  0.00000000000E+00  0.00000000000E+00  0.48272434477E+03  0.48272434478E+03  0.25500000920E-02 0. -1.
        2   -1    0    0  501    0  0.00000000000E+00  0.00000000000E+00 -0.60594001188E+03  0.60594001188E+03  0.25500000920E-02 0.  1.
    10030    2    1    2    0    0  0.00000000000E+00  0.00000000000E+00 -0.12321566711E+03  0.10886643567E+04  0.10816690718E+04 0.  0.
        4    1    3    3  502    0 -0.43470010263E+03 -0.31558555194E+03  0.15832548748E+01  0.53718017407E+03  0.12699999809E+01 0. -1.
       -4    1    3    3    0  502  0.43470010263E+03  0.31558555194E+03 -0.12479892198E+03  0.55148418259E+03  0.12699999809E+01 0.  1.
</event>
<event>
 5   0  0.2483036E-03  0.1091488E+04  0.7818609E-02  0.9213528E-01
       -2   -1    0    0    0  501  0.00000000000E+00  0.00000000000E+00  0.42054198667E+03  0.42054198668E+03  0.25500000920E-02 0.  1.
        2   -1    0    0  501    0  0.00000000000E+00  0.00000000000E+00 -0.70822070003E+03  0.70822070003E+03  0.25500000920E-02 0. -1.
    10030    2    1    2    0    0  0.00000000000E+00  0.00000000000E+00 -0.28767871336E+03  0.11287626867E+04  0.10914880489E+04 0.  0.
        3    1    3    3  502    0 -0.20721491327E+03 -0.33988779540E+03  0.24223929028E+03  0.46598456809E+03  0.10100000352E+00 0. -1.
       -3    1    3    3    0  502  0.20721491327E+03  0.33988779540E+03 -0.52991800364E+03  0.66277811862E+03  0.10100000352E+00 0.  1.
</event>
<event>
 5   0  0.9631750E-04  0.1099623E+04  0.7818609E-02  0.9205559E-01
        4   -1    0    0  501    0  0.00000000000E+00  0.00000000000E+00  0.40573034955E+03  0.40573233720E+03  0.12699999809E+01 0. -1.
       -4   -1    0    0    0  501  0.00000000000E+00  0.00000000000E+00 -0.74505384100E+03  0.74505492341E+03  0.12699999809E+01 0.  1.
    10030    2    1    2    0    0  0.00000000000E+00  0.00000000000E+00 -0.33932349145E+03  0.11507872606E+04  0.10996230660E+04 0.  0.
        5    1    3    3  502    0  0.25445782744E+02 -0.22570457222E+03  0.35431445135E+03  0.42089293438E+03  0.46999998093E+01 0. -1.
       -5    1    3    3    0  502 -0.25445782744E+02  0.22570457222E+03 -0.69363794279E+03  0.72989432623E+03  0.46999998093E+01 0.  1.
</event>
<event>
 5   0  0.2488472E-03  0.1121446E+04  0.7818609E-02  0.9184537E-01
       -2   -1    0    0    0  501  0.00000000000E+00  0.00000000000E+00  0.30659739991E+03  0.30659739992E+03  0.25500000920E-02 0. -1.
        2   -1    0    0  501    0  0.00000000000E+00  0.00000000000E+00 -0.10254832397E+04  0.10254832397E+04  0.25500000920E-02 0.  1.
    10030    2    1    2    0    0  0.00000000000E+00  0.00000000000E+00 -0.71888583975E+03  0.13320806396E+04  0.11214463785E+04 0.  0.
        2    1    3    3  502    0  0.60663075675E+02  0.54673010590E+03 -0.48856475650E+03  0.73572368370E+03  0.25500000920E-02 0. -1.
       -2    1    3    3    0  502 -0.60663075675E+02 -0.54673010590E+03 -0.23032108325E+03  0.59635695589E+03  0.25500000920E-02 0.  1.
</event>
<event>
 5   0  0.1415400E-03  0.1103617E+04  0.7818609E-02  0.9201674E-01
       -1   -1    0    0    0  501  0.00000000000E+00  0.00000000000E+00  0.44464911514E+03  0.44464911516E+03  0.50400001928E-02 0. -1.
        1   -1    0    0  501    0  0.00000000000E+00  0.00000000000E+00 -0.68479247581E+03  0.68479247583E+03  0.50400001928E-02 0.  1.
    10030    2    1    2    0    0  0.00000000000E+00  0.00000000000E+00 -0.24014336067E+03  0.11294415910E+04  0.11036165429E+04 0.  0.
        2    1    3    3  502    0 -0.41411743401E+03 -0.13333198159E+03 -0.46745800474E+03  0.63858253395E+03  0.25500000920E-02 0.  1.
       -2    1    3    3    0  502  0.41411743401E+03  0.13333198159E+03  0.22731464406E+03  0.49085905704E+03  0.25500000920E-02 0. -1.
</event>
<event>
 5   0  0.1415400E-03  0.1100332E+04  0.7818609E-02  0.9204868E-01
        1   -1    0    0  501    0  0.00000000000E+00  0.00000000000E+00  0.84113856698E+03  0.84113856699E+03  0.50400001928E-02 0.  1.
       -1   -1    0    0    0  501  0.00000000000E+00  0.00000000000E+00 -0.35984865585E+03  0.35984865588E+03  0.50400001928E-02 0. -1.
    10030    2    1    2    0    0  0.00000000000E+00  0.00000000000E+00  0.48128991113E+03  0.12009872229E+04  0.11003319185E+04 0.  0.
        2    1    3    3  502    0 -0.49739692722E+03 -0.19015696812E+03  0.39156593448E+03  0.66097447514E+03  0.25500000920E-02 0.  1.
       -2    1    3    3    0  502  0.49739692722E+03  0.19015696812E+03  0.89723976652E+02  0.54001274774E+03  0.25500000920E-02 0. -1.
</event>
<event>
 5   0  0.2438115E-03  0.1052090E+04  0.7818609E-02  0.9253189E-01
        2   -1    0    0  501    0  0.00000000000E+00  0.00000000000E+00  0.19227635513E+04  0.19227635514E+04  0.25500000920E-02 0. -1.
       -2   -1    0    0    0  501  0.00000000000E+00  0.00000000000E+00 -0.14391965694E+03  0.14391965696E+03  0.25500000920E-02 0.  1.
    10030    2    1    2    0    0  0.00000000000E+00  0.00000000000E+00  0.17788438944E+04  0.20666832083E+04  0.10520902446E+04 0.  0.
        4    1    3    3  502    0  0.48248241202E+03 -0.32213549581E+02  0.48258200816E+03  0.68316469331E+03  0.12699999809E+01 0.  1.
       -4    1    3    3    0  502 -0.48248241202E+03  0.32213549581E+02  0.12962618863E+04  0.13835185150E+04  0.12699999809E+01 0. -1.
</event>
<event>
 5   0  0.1509004E-03  0.1103391E+04  0.7818609E-02  0.9201893E-01
        1   -1    0    0  501    0  0.00000000000E+00  0.00000000000E+00  0.82850385476E+03  0.82850385477E+03  0.50400001928E-02 0.  1.
       -1   -1    0    0    0  501  0.00000000000E+00  0.00000000000E+00 -0.36737071500E+03  0.36737071503E+03  0.50400001928E-02 0. -1.
    10030    2    1    2    0    0  0.00000000000E+00  0.00000000000E+00  0.46113313976E+03  0.11958745698E+04  0.11033912335E+04 0.  0.
        3    1    3    3  502    0 -0.33147720385E+03  0.35121048852E+03 -0.58514358100E+02  0.48646673496E+03  0.10100000352E+00 0.  1.
       -3    1    3    3    0  502  0.33147720385E+03 -0.35121048852E+03  0.51964749786E+03  0.70940783485E+03  0.10100000352E+00 0. -1.
</event>
<event>
 5   0  0.9631750E-04  0.1092712E+04  0.7818609E-02  0.9212324E-01
        4   -1    0    0  501    0  0.00000000000E+00  0.00000000000E+00  0.60515541662E+03  0.60515674925E+03  0.12699999809E+01 0.  1.
       -4   -1    0    0    0  501  0.00000000000E+00  0.00000000000E+00 -0.49326734162E+03  0.49326897653E+03  0.12699999809E+01 0. -1.
    10030    2    1    2    0    0  0.00000000000E+00  0.00000000000E+00  0.11188807500E+03  0.10984257258E+04  0.10927122831E+04 0.  0.
        4    1    3    3  502    0  0.19147729672E+03 -0.80205748130E+02 -0.45207640280E+03  0.49746477671E+03  0.12699999809E+01 0. -1.
       -4    1    3    3    0  502 -0.19147729672E+03  0.80205748130E+02  0.56396447780E+03  0.60096094907E+03  0.12699999809E+01 0.  1.
</event>
<event>
 5   0  0.2467448E-03  0.1100134E+04  0.7818609E-02  0.9205061E-01
        2   -1    0    0  501    0  0.00000000000E+00  0.00000000000E+00  0.30619159998E+03  0.30619160000E+03  0.25500000920E-02 0.  1.
       -2   -1    0    0    0  501  0.00000000000E+00  0.00000000000E+00 -0.98818400470E+03  0.98818400470E+03  0.25500000920E-02 0. -1.
    10030    2    1    2    0    0  0.00000000000E+00  0.00000000000E+00 -0.68199240472E+03  0.12943756047E+04  0.11001338855E+04 0.  0.
        1    1    3    3  502    0  0.28213511536E+02 -0.14137084839E+03  0.28357081713E+03  0.31811024404E+03  0.50400001928E-02 0.  1.
       -1    1    3    3    0  502 -0.28213511536E+02  0.14137084839E+03 -0.96556322185E+03  0.97626536066E+03  0.50400001928E-02 0. -1.
</event>
<event>
 5   0  0.2483036E-03  0.1049455E+04  0.7818609E-02  0.9255907E-01
       -2   -1    0    0    0  501  0.00000000000E+00  0.00000000000E+00  0.45981783067E+03  0.45981783068E+03  0.25500000920E-02 0.  1.
        2   -1    0    0  501    0  0.00000000000E+00  0.00000000000E+00 -0.59879987954E+03  0.59879987954E+03  0.25500000920E-02 0. -1.
    10030    2    1    2    0    0  0.00000000000E+00  0.00000000000E+00 -0.13898204887E+03  0.10586177102E+04  0.10494548330E+04 0.  0.
        3    1    3    3  502    0 -0.75592822142E+02 -0.47638605066E+03 -0.27788839037E+03  0.55666858338E+03  0.10100000352E+00 0. -1.
       -3    1    3    3    0  502  0.75592822142E+02  0.47638605066E+03  0.13890634150E+03  0.50194912684E+03  0.10100000352E+00 0.  1.
</event>
<event>
 5   0  0.2438115E-03  0.1111439E+04  0.7818609E-02  0.9194114E-01
       -2   -1    0    0    0  501  0.00000000000E+00  0.00000000000E+00  0.62628526105E+03  0.62628526106E+03  0.25500000920E-02 0. -1.
        2   -1    0    0  501    0  0.00000000000E+00  0.00000000000E+00 -0.49310448192E+03  0.49310448193E+03  0.25500000920E-02 0.  1.
    10030    2    1    2    0    0  0.00000000000E+00  0.00000000000E+00  0.13318077913E+03  0.11193897430E+04  0.11114388318E+04 0.  0.
        4    1    3    3  502    0 -0.32576395610E+02 -0.52623653491E+03 -0.11026862396E+03  0.53865285162E+03  0.12699999809E+01 0.  1.
       -4    1    3    3    0  502  0.32576395610E+02  0.52623653491E+03  0.24344940310E+03  0.58073689137E+03  0.12699999809E+01 0. -1.
</event>
<event>
 5   0  0.1480937E-03  0.1093939E+04  0.7818609E-02  0.9211120E-01
        1   -1    0    0  501    0  0.00000000000E+00  0.00000000000E+00  0.37827690134E+03  0.37827690137E+03  0.50400001928E-02 0. -1.
       -1   -1    0    0    0  501  0.00000000000E+00  0.00000000000E+00 -0.79089056530E+03  0.79089056532E+03  0.50400001928E-02 0.  1.
    10030    2    1    2    0    0  0.00000000000E+00  0.00000000000E+00 -0.41261366396E+03  0.11691674667E+04  0.10939389971E+04 0.  0.
        1    1    3    3  502    0  0.42623232072E+03  0.75316370326E+02 -0.56371214506E+03  0.71071649016E+03  0.50400001928E-02 0.  1.
       -1    1    3    3    0  502 -0.42623232072E+03 -0.75316370326E+02  0.15109848110E+03  0.45845097653E+03  0.50400001928E-02 0. -1.
</event>
<event>
 5   0  0.2438115E-03  0.1102264E+04  0.7818609E-02  0.9202988E-01
        2   -1    0    0  501    0  0.00000000000E+00  0.00000000000E+00  0.22063314402E+04  0.22063314402E+04  0.25500000920E-02 0. -1.
       -2   -1    0    0    0  501  0.00000000000E+00  0.00000000000E+00 -0.13767036026E+03  0.13767036028E+03  0.25500000920E-02 0.  1.
    10030    2    1    2    0    0  0.00000000000E+00  0.00000000000E+00  0.20686610800E+04  0.23440018005E+04  0.11022639325E+04 0.  0.
        4    1    3    3  502    0 -0.10221961589E+03 -0.41783396845E+03  0.17670156739E+04  0.18186203782E+04  0.12699999809E+01 0.  1.
       -4    1    3    3    0  502  0.10221961589E+03  0.41783396845E+03  0.30164540605E+03  0.52538142236E+03  0.12699999809E+01 0. -1.
</event>
<event>
 5   0  0.1509004E-03  0.1100482E+04  0.7818609E-02  0.9204722E-01
       -1   -1    0    0    0  501  0.00000000000E+00  0.00000000000E+00  0.24017900303E+03  0.24017900308E+03  0.50400001928E-02 0.  1.
        1   -1    0    0  501    0  0.00000000000E+00  0.00000000000E+00 -0.12605824285E+04  0.12605824286E+04  0.50400001928E-02 0. -1.
    10030    2    1    2    0    0  0.00000000000E+00  0.00000000000E+00 -0.10204034255E+04  0.15007614316E+04  0.11004824959E+04 0.  0.
        3    1    3    3  502    0 -0.37584563110E+03 -0.33575447831E+03 -0.81138061438E+03  0.95515942110E+03  0.10100000352E+00 0. -1.
       -3    1    3    3    0  502  0.37584563110E+03  0.33575447831E+03 -0.20902281114E+03  0.54560201054E+03  0.10100000352E+00 0.  1.
</event>
<event>
 5   0  0.2483036E-03  0.1101060E+04  0.7818609E-02  0.9204160E-01
       -2   -1    0    0    0  501  0.00000000000E+00  0.00000000000E+00  0.16328041491E+03  0.16328041493E+03  0.25500000920E-02 0. -1.
        2   -1    0    0  501    0  0.00000000000E+00  0.00000000000E+00 -0.18562120279E+04  0.18562120279E+04  0.25500000920E-02 0.  1.
    10030    2    1    2    0    0  0.00000000000E+00  0.00000000000E+00 -0.16929316130E+04  0.20194924428E+04  0.11010596171E+04 0.  0.
        3    1    3    3  502    0 -0.33094938695E+03  0.15090102677E+03 -0.16044419763E+04  0.16451543034E+04  0.10100000352E+00 0.  1.
       -3    1    3    3    0  502  0.33094938695E+03 -0.15090102677E+03 -0.88489636693E+02  0.37433813940E+03  0.10100000352E+00 0. -1.
</event>
<event>
 5   0  0.2483036E-03  0.1101504E+04  0.7818609E-02  0.9203727E-01
        2   -1    0    0  501    0  0.00000000000E+00  0.00000000000E+00  0.13143840979E+04  0.13143840979E+04  0.25500000920E-02 0. -1.
       -2   -1    0    0    0  501  0.00000000000E+00  0.00000000000E+00 -0.23077550458E+03  0.23077550460E+03  0.25500000920E-02 0.  1.
    10030    2    1    2    0    0  0.00000000000E+00  0.00000000000E+00  0.10836085933E+04  0.15451596025E+04  0.11015037965E+04 0.  0.
        3    1    3    3  502    0 -0.47932817497E+03  0.15444198987E+03  0.85459375050E+03  0.99193664926E+03  0.10100000352E+00 0. -1.
       -3    1    3    3    0  502  0.47932817497E+03 -0.15444198987E+03  0.22901484281E+03  0.55322295323E+03  0.10100000352E+00 0.  1.
</event>
<event>
 5   0  0.1479573E-03  0.1103757E+04  0.7818609E-02  0.9201538E-01
        1   -1    0    0  501    0  0.00000000000E+00  0.00000000000E+00  0.15577177861E+04  0.15577177861E+04  0.50400001928E-02 0.  1.
       -1   -1    0    0    0  501  0.00000000000E+00  0.00000000000E+00 -0.19552299742E+03  0.19552299749E+03  0.50400001928E-02 0. -1.
    10030    2    1    2    0    0  0.00000000000E+00  0.00000000000E+00  0.13621947887E+04  0.17532407836E+04  0.11037565868E+04 0.  0.
        4    1    3    3  502    0 -0.78056910149E+02  0.35851816717E+03  0.26286478704E+02  0.36785968694E+03  0.12699999809E+01 0. -1.
       -4    1    3    3    0  502  0.78056910149E+02 -0.35851816717E+03  0.13359083100E+04  0.13853810967E+04  0.12699999809E+01 0.  1.
</event>
<event>
 5   0  0.1480937E-03  0.1098533E+04  0.7818609E-02  0.9206623E-01
        1   -1    0    0  501    0  0.00000000000E+00  0.00000000000E+00  0.43618298985E+03  0.43618298988E+03  0.50400001928E-02 0.  1.
       -1   -1    0    0    0  501  0.00000000000E+00  0.00000000000E+00 -0.69166818930E+03  0.69166818932E+03  0.50400001928E-02 0. -1.
    10030    2    1    2    0    0  0.00000000000E+00  0.00000000000E+00 -0.25548519945E+03  0.11278511792E+04  0.10985333838E+04 0.  0.
        1    1    3    3  502    0  0.17372551025E+03 -0.52063574510E+03 -0.10592054210E+03  0.55898237294E+03  0.50400001928E-02 0. -1.
       -1    1    3    3    0  502 -0.17372551025E+03  0.52063574510E+03 -0.14956465735E+03  0.56886880627E+03  0.50400001928E-02 0.  1.
</event>
<event>
 5   0  0.2467448E-03  0.1098547E+04  0.7818609E-02  0.9206609E-01
       -2   -1    0    0    0  501  0.00000000000E+00  0.00000000000E+00  0.33050572592E+03  0.33050572593E+03  0.25500000920E-02 0. -1.
        2   -1    0    0  501    0  0.00000000000E+00  0.00000000000E+00 -0.91284751277E+03  0.91284751277E+03  0.25500000920E-02 0.  1.
    10030    2    1    2    0    0  0.00000000000E+00  0.00000000000E+00 -0.58234178685E+03  0.12433532387E+04  0.10985469127E+04 0.  0.
        1    1    3    3  502    0 -0.51836876495E+03  0.12903142672E+03 -0.14646631989E+03  0.55390221921E+03  0.50400001928E-02 0.  1.
       -1    1    3    3    0  502  0.51836876495E+03 -0.12903142672E+03 -0.43587546696E+03  0.68945101949E+03  0.50400001928E-02 0. -1.
</event>
<event>
 5   0  0.1415400E-03  0.1086286E+04  0.7818609E-02  0.9218662E-01
       -1   -1    0    0    0  501  0.00000000000E+00  0.00000000000E+00  0.22125145721E+03  0.22125145727E+03  0.50400001928E-02 0.  1.
        1   -1    0    0  501    0  0.00000000000E+00  0.00000000000E+00 -0.13333447936E+04  0.13333447936E+04  0.50400001928E-02 0. -1.
    10030    2    1    2    0    0  0.00000000000E+00  0.00000000000E+00 -0.11120933364E+04  0.15545962509E+04  0.10862862949E+04 0.  0.
        2    1    3    3  502    0 -0.45380878257E+03  0.18613815995E+03 -0.22221214470E+03  0.53848682712E+03  0.25500000920E-02 0.  1.
       -2    1    3    3    0  502  0.45380878257E+03 -0.18613815995E+03 -0.88988119170E+03  0.10161094238E+04  0.25500000920E-02 0. -1.
</event>
<event>
 5   0  0.2392585E-03  0.1042948E+04  0.7818609E-02  0.9262656E-01
       -2   -1    0    0    0  501  0.00000000000E+00  0.00000000000E+00  0.11279248946E+04  0.11279248946E+04  0.25500000920E-02 0. -1.
        2   -1    0    0  501    0  0.00000000000E+00  0.00000000000E+00 -0.24109312135E+03  0.24109312136E+03  0.25500000920E-02 0.  1.
    10030    2    1    2    0    0  0.00000000000E+00  0.00000000000E+00  0.88683177323E+03  0.13690180159E+04  0.10429476180E+04 0.  0.
        5    1    3    3  502    0 -0.13211441867E+03 -0.50375184852E+03  0.40886820226E+03  0.66212947474E+03  0.46999998093E+01 0. -1.
       -5    1    3    3    0  502  0.13211441867E+03  0.50375184852E+03  0.47796357097E+03  0.70688854120E+03  0.46999998093E+01 0.  1.
</event>
<event>
 5   0  0.1415400E-03  0.1106675E+04  0.7818609E-02  0.9198711E-01
        1   -1    0    0  501    0  0.00000000000E+00  0.00000000000E+00  0.95239100929E+03  0.95239100930E+03  0.50400001928E-02 0.  1.
       -1   -1    0    0    0  501  0.00000000000E+00  0.00000000000E+00 -0.32148786027E+03  0.32148786031E+03  0.50400001928E-02 0. -1.
    10030    2    1    2    0    0  0.00000000000E+00  0.00000000000E+00  0.63090314902E+03  0.12738788696E+04  0.11066745642E+04 0.  0.
        2    1    3    3  502    0 -0.25703885575E+03 -0.19319819047E+03  0.83380854053E+03  0.89366167895E+03  0.25500000920E-02 0.  1.
       -2    1    3    3    0  502  0.25703885575E+03  0.19319819047E+03 -0.20290539150E+03  0.38021719066E+03  0.25500000920E-02 0. -1.
</event>
<event>
 5   0  0.1468556E-03  0.1127557E+04  0.7818609E-02  0.9178742E-01
        1   -1    0    0  501    0  0.00000000000E+00  0.00000000000E+00  0.40434926506E+03  0.40434926509E+03  0.50400001928E-02 0. -1.
       -1   -1    0    0    0  501  0.00000000000E+00  0.00000000000E+00 -0.78606775955E+03  0.78606775957E+03  0.50400001928E-02 0.  1.
    10030    2    1    2    0    0  0.00000000000E+00  0.00000000000E+00 -0.38171849450E+03  0.11904170247E+04  0.11275565101E+04 0.  0.
        5    1    3    3  502    0 -0.44291284579E+03 -0.20493216851E+03 -0.48882539055E+03  0.69075417849E+03  0.46999998093E+01 0.  1.
       -5    1    3    3    0  502  0.44291284579E+03  0.20493216851E+03  0.10710689605E+03  0.49966284617E+03  0.46999998093E+01 0. -1.
</event>
<event>
 5   0  0.1480937E-03  0.1099088E+04  0.7818609E-02  0.9206081E-01
       -1   -1    0    0    0  501  0.00000000000E+00  0.00000000000E+00  0.29908901988E+03  0.29908901992E+03  0.50400001928E-02 0. -1.
        1   -1    0    0  501    0  0.00000000000E+00  0.00000000000E+00 -0.10097280662E+04  0.10097280662E+04  0.50400001928E-02 0.  1.
    10030    2    1    2    0    0  0.00000000000E+00  0.00000000000E+00 -0.71063904634E+03  0.13088170862E+04  0.10990879450E+04 0.  0.
        1    1    3    3  502    0  0.41228554017E+03  0.25268774521E+03 -0.44407761004E+02  0.48559500871E+03  0.50400001928E-02 0. -1.
       -1    1    3    3    0  502 -0.41228554017E+03 -0.25268774521E+03 -0.66623128533E+03  0.82322207745E+03  0.50400001928E-02 0.  1.
</event>
<event>
 5   0  0.2392585E-03  0.1100551E+04  0.7818609E-02  0.9204655E-01
        2   -1    0    0  501    0  0.00000000000E+00  0.00000000000E+00  0.77006190312E+03  0.77006190312E+03  0.25500000920E-02 0. -1.
       -2   -1    0    0    0  501  0.00000000000E+00  0.00000000000E+00 -0.39321929034E+03  0.39321929035E+03  0.25500000920E-02 0.  1.
    10030    2    1    2    0    0  0.00000000000E+00  0.00000000000E+00  0.37684261278E+03  0.11632811935E+04  0.11005511257E+04 0.  0.
        5    1    3    3  502    0  0.43484097600E+02 -0.30053079072E+03 -0.29661501522E+03  0.42451405179E+03  0.46999998093E+01 0.  1.
       -5    1    3    3    0  502 -0.43484097600E+02  0.30053079072E+03  0.67345762799E+03  0.73876714168E+03  0.46999998093E+01 0. -1.
</event>
<event>
 5   0  0.1415400E-03  0.1098929E+04  0.7818609E-02  0.9206237E-01
       -1   -1    0    0    0  501  0.00000000000E+00  0.00000000000E+00  0.42701946005E+03  0.42701946008E+03  0.50400001928E-02 0. -1.
        1   -1    0    0  501    0  0.00000000000E+00  0.00000000000E+00 -0.70701942652E+03  0.70701942654E+03  0.50400001928E-02 0.  1.
    10030    2    1    2    0    0  0.00000000000E+00  0.00000000000E+00 -0.27999996648E+03  0.11340388866E+04  0.10989286670E+04 0.  0.
        2    1    3    3  502    0  0.25382304613E+02 -0.50869046477E+03 -0.35274383320E+03  0.61954698144E+03  0.25500000920E-02 0.  1.
       -2    1    3    3    0  502 -0.25382304613E+02  0.50869046477E+03  0.72743866729E+02  0.51449190518E+03  0.25500000920E-02 0. -1.
</event>
<event>
 5   0  0.1509004E-03  0.1094337E+04  0.7818609E-02  0.9210729E-01
        1   -1    0    0  501    0  0.00000000000E+00  0.00000000000E+00  0.14172521060E+04  0.14172521060E+04  0.50400001928E-02 0.  1.
       -1   -1    0    0    0  501  0.00000000000E+00  0.00000000000E+00 -0.21124937504E+03  0.21124937510E+03  0.50400001928E-02 0. -1.
    10030    2    1    2    0    0  0.00000000000E+00  0.00000000000E+00  0.12060027310E+04  0.16285014811E+04  0.10943374648E+04 0.  0.
        3    1    3    3  502    0 -0.39068684218E+03 -0.37650278620E+03  0.70825922232E+03  0.89220047796E+03  0.10100000352E+00 0. -1.
       -3    1    3    3    0  502  0.39068684218E+03  0.37650278620E+03  0.49774350867E+03  0.73630100318E+03  0.10100000352E+00 0.  1.
</event>
<event>
 5   0  0.2483036E-03  0.1102463E+04  0.7818609E-02  0.9202794E-01
       -2   -1    0    0    0  501  0.00000000000E+00  0.00000000000E+00  0.57167313019E+03  0.57167313020E+03  0.25500000920E-02 0.  1.
        2   -1    0    0  501    0  0.00000000000E+00  0.00000000000E+00 -0.53152112516E+03  0.53152112516E+03  0.25500000920E-02 0. -1.
    10030    2    1    2    0    0  0.00000000000E+00  0.00000000000E+00  0.40152005034E+02  0.11031942554E+04  0.11024633244E+04 0.  0.
        3    1    3    3  502    0  0.93959588506E+01  0.91597229024E+02  0.56392322249E+03  0.57139106353E+03  0.10100000352E+00 0.  1.
       -3    1    3    3    0  502 -0.93959588506E+01 -0.91597229024E+02 -0.52377121746E+03  0.53180319184E+03  0.10100000352E+00 0. -1.
</event>
<event>
 5   0  0.2392585E-03  0.1087437E+04  0.7818609E-02  0.9217524E-01
        2   -1    0    0  501    0  0.00000000000E+00  0.00000000000E+00  0.10904044704E+04  0.10904044704E+04  0.25500000920E-02 0.  1.
       -2   -1    0    0    0  501  0.00000000000E+00  0.00000000000E+00 -0.27111921357E+03  0.27111921358E+03  0.25500000920E-02 0. -1.
    10030    2    1    2    0    0  0.00000000000E+00  0.00000000000E+00  0.81928525681E+03  0.13615236840E+04  0.10874366234E+04 0.  0.
        5    1    3    3  502    0 -0.16235514460E+03 -0.24643118363E+03 -0.16209278589E+03  0.33672493594E+03  0.46999998093E+01 0. -1.
       -5    1    3    3    0  502  0.16235514460E+03  0.24643118363E+03  0.98137804270E+03  0.10247987480E+04  0.46999998093E+01 0.  1.
</event>
<event>
 5   0  0.2467448E-03  0.1107002E+04  0.7818609E-02  0.9198394E-01
        2   -1    0    0  501    0  0.00000000000E+00  0.00000000000E+00  0.10248093453E+04  0.10248093453E+04  0.25500000920E-02 0.  1.
       -2   -1    0    0    0  501  0.00000000000E+00  0.00000000000E+00 -0.29894676280E+03  0.29894676281E+03  0.25500000920E-02 0. -1.
    10030    2    1    2    0    0  0.00000000000E+00  0.00000000000E+00  0.72586258248E+03  0.13237561081E+04  0.11070021432E+04 0.  0.
        1    1    3    3  502    0 -0.15477976020E+03  0.21746422924E+03  0.94276115667E+03  0.97981940363E+03  0.50400001928E-02 0.  1.
       -1    1    3    3    0  502  0.15477976020E+03 -0.21746422924E+03 -0.21689857419E+03  0.34393670447E+03  0.50400001928E-02 0. -1.
</event>
<event>
 5   0  0.1479573E-03  0.1091547E+04  0.7818609E-02  0.9213470E-01
       -1   -1    0    0    0  501  0.00000000000E+00  0.00000000000E+00  0.33443849519E+03  0.33443849523E+03  0.50400001928E-02 0.  1.
        1   -1    0    0  501    0  0.00000000000E+00  0.00000000000E+00 -0.89065387758E+03  0.89065387760E+03  0.50400001928E-02 0. -1.
    10030    2    1    2    0    0  0.00000000000E+00  0.00000000000E+00 -0.55621538239E+03  0.12250923728E+04  0.10915474201E+04 0.  0.
        4    1    3    3  502    0 -0.18977566699E+03  0.19546527534E+03  0.25266265657E+03  0.37156629095E+03  0.12699999809E+01 0.  1.
       -4    1    3    3    0  502  0.18977566699E+03 -0.19546527534E+03 -0.80887803896E+03  0.85352608188E+03  0.12699999809E+01 0. -1.
</event>
<event>
 5   0  0.1509004E-03  0.1097898E+04  0.7818609E-02  0.9207243E-01
        1   -1    0    0  501    0  0.00000000000E+00  0.00000000000E+00  0.70094624476E+03  0.70094624478E+03  0.50400001928E-02 0.  1.
       -1   -1    0    0    0  501  0.00000000000E+00  0.00000000000E+00 -0.42991180105E+03  0.42991180108E+03  0.50400001928E-02 0. -1.
    10030    2    1    2    0    0  0.00000000000E+00  0.00000000000E+00  0.27103444371E+03  0.11308580459E+04  0.10978981056E+04 0.  0.
        3    1    3    3  502    0  0.32413221698E+02 -0.10420809042E+03  0.68965998022E+03  0.69824124883E+03  0.10100000352E+00 0.  1.
       -3    1    3    3    0  502 -0.32413221698E+02  0.10420809042E+03 -0.41862553651E+03  0.43261679703E+03  0.10100000352E+00 0. -1.
</event>
<event>
 5   0  0.1480937E-03  0.1098039E+04  0.7818609E-02  0.9207106E-01
        1   -1    0    0  501    0  0.00000000000E+00  0.00000000000E+00  0.37120939562E+03  0.37120939566E+03  0.50400001928E-02 0.  1.
       -1   -1    0    0    0  501  0.00000000000E+00  0.00000000000E+00 -0.81200064948E+03  0.81200064950E+03  0.50400001928E-02 0. -1.
    10030    2    1    2    0    0  0.00000000000E+00  0.00000000000E+00 -0.44079125386E+03  0.11832100452E+04  0.10980387432E+04 0.  0.
        1    1    3    3  502    0 -0.46177211669E+03  0.10408312740E+03  0.79306442165E+02  0.47995447383E+03  0.50400001928E-02 0.  1.
       -1    1    3    3    0  502  0.46177211669E+03 -0.10408312740E+03 -0.52009769602E+03  0.70325557132E+03  0.50400001928E-02 0. -1.
</event>
<event>
 5   0  0.2488472E-03  0.1091551E+04  0.7818609E-02  0.9213466E-01
       -2   -1    0    0    0  501  0.00000000000E+00  0.00000000000E+00  0.17026055921E+03  0.17026055923E+03  0.25500000920E-02 0. -1.
        2   -1    0    0  501    0  0.00000000000E+00  0.00000000000E+00 -0.17495013168E+04  0.17495013168E+04  0.25500000920E-02 0.  1.
    10030    2    1    2    0    0  0.00000000000E+00  0.00000000000E+00 -0.15792407576E+04  0.19197618761E+04  0.10915513228E+04 0.  0.
        2    1    3    3  502    0 -0.15816432396E+03 -0.74464098805E+02 -0.16989283161E+04  0.17078987905E+04  0.25500000920E-02 0.  1.
       -2    1    3    3    0  502  0.15816432396E+03  0.74464098805E+02  0.11968755844E+03  0.21186308559E+03  0.25500000920E-02 0. -1.
</event>
<event>
 5   0  0.1480937E-03  0.1096191E+04  0.7818609E-02  0.9208912E-01
       -1   -1    0    0    0  501  0.00000000000E+00  0.00000000000E+00  0.42262944267E+03  0.42262944270E+03  0.50400001928E-02 0. -1.
        1   -1    0    0  501    0  0.00000000000E+00  0.00000000000E+00 -0.71080868685E+03  0.71080868687E+03  0.50400001928E-02 0.  1.
    10030    2    1    2    0    0  0.00000000000E+00  0.00000000000E+00 -0.28817924418E+03  0.11334381296E+04  0.10961910038E+04 0.  0.
        1    1    3    3  502    0  0.26564438654E+03  0.42736426189E+03 -0.36873092428E+03  0.62383463112E+03  0.50400001928E-02 0.  1.
       -1    1    3    3    0  502 -0.26564438654E+03 -0.42736426189E+03  0.80551680103E+02  0.50960349845E+03  0.50400001928E-02 0. -1.
</event>
<event>
 5   0  0.9631750E-04  0.1140538E+04  0.7818609E-02  0.9166557E-01
       -4   -1    0    0    0  501  0.00000000000E+00  0.00000000000E+00  0.15254168374E+04  0.15254173661E+04  0.12699999809E+01 0.  1.
        4   -1    0    0  501    0  0.00000000000E+00  0.00000000000E+00 -0.21318968589E+03  0.21319346864E+03  0.12699999809E+01 0. -1.
    10030    2    1    2    0    0  0.00000000000E+00  0.00000000000E+00  0.13122271515E+04  0.17386108347E+04  0.11405382666E+04 0.  0.
        2    1    3    3  502    0  0.52229070649E+03  0.17554176454E+03  0.43205398584E+03  0.70019507273E+03  0.25500000920E-02 0. -1.
       -2    1    3    3    0  502 -0.52229070649E+03 -0.17554176454E+03  0.88017316570E+03  0.10384157620E+04  0.25500000920E-02 0.  1.
</event>
<event>
 5   0  0.1479573E-03  0.1132788E+04  0.7818609E-02  0.9173811E-01
        1   -1    0    0  501    0  0.00000000000E+00  0.00000000000E+00  0.11586414677E+04  0.11586414677E+04  0.50400001928E-02 0. -1.
       -1   -1    0    0    0  501  0.00000000000E+00  0.00000000000E+00 -0.27687800884E+03  0.27687800888E+03  0.50400001928E-02 0.  1.
    10030    2    1    2    0    0  0.00000000000E+00  0.00000000000E+00  0.88176345886E+03  0.14355194766E+04  0.11327883166E+04 0.  0.
        4    1    3    3  502    0 -0.23635077568E+03 -0.36459307861E+03  0.90131348547E+03  0.10005785397E+04  0.12699999809E+01 0. -1.
       -4    1    3    3    0  502  0.23635077568E+03  0.36459307861E+03 -0.19550026615E+02  0.43494093688E+03  0.12699999809E+01 0.  1.
</event>
<event>
 5   0  0.2467448E-03  0.1085837E+04  0.7818609E-02  0.9219107E-01
       -2   -1    0    0    0  501  0.00000000000E+00  0.00000000000E+00  0.18412649418E+03  0.18412649420E+03  0.25500000920E-02 0.  1.
        2   -1    0    0  501    0  0.00000000000E+00  0.00000000000E+00 -0.16008575309E+04  0.16008575309E+04  0.25500000920E-02 0. -1.
    10030    2    1    2    0    0  0.00000000000E+00  0.00000000000E+00 -0.14167310367E+04  0.17849840251E+04  0.10858366081E+04 0.  0.
        1    1    3    3  502    0  0.15047900525E+02 -0.30529634201E+03  0.29236220905E+02  0.30706196833E+03  0.50400001928E-02 0.  1.
       -1    1    3    3    0  502 -0.15047900525E+02  0.30529634201E+03 -0.14459672577E+04  0.14779220568E+04  0.50400001928E-02 0. -1.
</event>
<event>
 5   0  0.2483036E-03  0.1102244E+04  0.7818609E-02  0.9203008E-01
       -2   -1    0    0    0  501  0.00000000000E+00  0.00000000000E+00  0.28296867164E+03  0.28296867165E+03  0.25500000920E-02 0. -1.
        2   -1    0    0  501    0  0.00000000000E+00  0.00000000000E+00 -0.10733886694E+04  0.10733886694E+04  0.25500000920E-02 0.  1.
    10030    2    1    2    0    0  0.00000000000E+00  0.00000000000E+00 -0.79041999774E+03  0.13563573410E+04  0.11022438314E+04 0.  0.
        3    1    3    3  502    0 -0.34250042376E+03 -0.33116198556E+03 -0.73614021808E+03  0.87685644882E+03  0.10100000352E+00 0.  1.
       -3    1    3    3    0  502  0.34250042376E+03  0.33116198556E+03 -0.54279779655E+02  0.47950089222E+03  0.10100000352E+00 0. -1.
</event>
<event>
 5   0  0.1415400E-03  0.1065043E+04  0.7818609E-02  0.9239950E-01
       -1   -1    0    0    0  501  0.00000000000E+00  0.00000000000E+00  0.17603277201E+03  0.17603277208E+03  0.50400001928E-02 0.  1.
        1   -1    0    0  501    0  0.00000000000E+00  0.00000000000E+00 -0.16109441776E+04  0.16109441776E+04  0.50400001928E-02 0. -1.
    10030    2    1    2    0    0  0.00000000000E+00  0.00000000000E+00 -0.14349114056E+04  0.17869769497E+04  0.10650426643E+04 0.  0.
        2    1    3    3  502    0  0.47479253515E+03  0.15674117824E+03 -0.10249330444E+04  0.11403874315E+04  0.25500000920E-02 0. -1.
       -2    1    3    3    0  502 -0.47479253515E+03 -0.15674117824E+03 -0.40997836116E+03  0.64658951817E+03  0.25500000920E-02 0.  1.
</event>
<event>
 5   0  0.9631750E-04  0.1104076E+04  0.7818609E-02  0.9201228E-01
        3   -1    0    0  501    0  0.00000000000E+00  0.00000000000E+00  0.15469060011E+04  0.15469060044E+04  0.10100000352E+00 0. -1.
       -3   -1    0    0    0  501  0.00000000000E+00  0.00000000000E+00 -0.19700342376E+03  0.19700344965E+03  0.10100000352E+00 0.  1.
    10030    2    1    2    0    0  0.00000000000E+00  0.00000000000E+00  0.13499025774E+04  0.17439094541E+04  0.11040757291E+04 0.  0.
        1    1    3    3  502    0  0.22236501370E+03  0.11724525988E+03  0.14512545758E+04  0.14728654025E+04  0.50400001928E-02 0. -1.
       -1    1    3    3    0  502 -0.22236501370E+03 -0.11724525988E+03 -0.10135199838E+03  0.27104405156E+03  0.50400001928E-02 0.  1.
</event>
<event>
 5   0  0.1468556E-03  0.1098302E+04  0.7818609E-02  0.9206849E-01
        1   -1    0    0  501    0  0.00000000000E+00  0.00000000000E+00  0.28995651535E+03  0.28995651539E+03  0.50400001928E-02 0.  1.
       -1   -1    0    0    0  501  0.00000000000E+00  0.00000000000E+00 -0.10400408136E+04  0.10400408136E+04  0.50400001928E-02 0. -1.
    10030    2    1    2    0    0  0.00000000000E+00  0.00000000000E+00 -0.75008429828E+03  0.13299973290E+04  0.10983016165E+04 0.  0.
        5    1    3    3  502    0  0.40732008920E+03 -0.31120777455E+03 -0.13655843488E+03  0.53049998128E+03  0.46999998093E+01 0.  1.
       -5    1    3    3    0  502 -0.40732008920E+03  0.31120777455E+03 -0.61352586340E+03  0.79949734775E+03  0.46999998093E+01 0. -1.
</event>
<event>
 5   0  0.2392585E-03  0.1101225E+04  0.7818609E-02  0.9203998E-01
       -2   -1    0    0    0  501  0.00000000000E+00  0.00000000000E+00  0.30043586109E+03  0.30043586110E+03  0.25500000920E-02 0.  1.
        2   -1    0    0  501    0  0.00000000000E+00  0.00000000000E+00 -0.10091147225E+04  0.10091147225E+04  0.25500000920E-02 0. -1.
    10030    2    1    2    0    0  0.00000000000E+00  0.00000000000E+00 -0.70867886144E+03  0.13095505836E+04  0.11012252278E+04 0.  0.
        5    1    3    3  502    0  0.26059285722E+03  0.48100723804E+03 -0.28030847132E+03  0.61471255833E+03  0.46999998093E+01 0. -1.
       -5    1    3    3    0  502 -0.26059285722E+03 -0.48100723804E+03 -0.42837039012E+03  0.69483802530E+03  0.46999998093E+01 0.  1.
</event>
<event>
 5   0  0.2467448E-03  0.1099600E+04  0.7818609E-02  0.9205582E-01
       -2   -1    0    0    0  501  0.00000000000E+00  0.00000000000E+00  0.24373505967E+03  0.24373505968E+03  0.25500000920E-02 0. -1.
        2   -1    0    0  501    0  0.00000000000E+00  0.00000000000E+00 -0.12401982928E+04  0.12401982928E+04  0.25500000920E-02 0.  1.
    10030    2    1    2    0    0  0.00000000000E+00  0.00000000000E+00 -0.99646323309E+03  0.14839333525E+04  0.10995995724E+04 0.  0.
        1    1    3    3  502    0  0.29450368527E+02  0.20478588658E+03  0.18919727242E+03  0.28035725685E+03  0.50400001928E-02 0. -1.
       -1    1    3    3    0  502 -0.29450368527E+02 -0.20478588658E+03 -0.11856605055E+04  0.12035760956E+04  0.50400001928E-02 0.  1.
</event>
<event>
 5   0  0.1468556E-03  0.1100143E+04  0.7818609E-02  0.9205053E-01
        1   -1    0    0  501    0  0.00000000000E+00  0.00000000000E+00  0.57739807066E+03  0.57739807068E+03  0.50400001928E-02 0.  1.
       -1   -1    0    0    0  501  0.00000000000E+00  0.00000000000E+00 -0.52403788269E+03  0.52403788271E+03  0.50400001928E-02 0. -1.
    10030    2    1    2    0    0  0.00000000000E+00  0.00000000000E+00  0.53360187974E+02  0.11014359534E+04  0.11001426497E+04 0.  0.
        5    1    3    3  502    0  0.20619035379E+03 -0.43496826517E+03  0.29315932991E+03  0.56362783503E+03  0.46999998093E+01 0.  1.
       -5    1    3    3    0  502 -0.20619035379E+03  0.43496826517E+03 -0.23979914194E+03  0.53780811836E+03  0.46999998093E+01 0. -1.
</event>
<event>
 5   0  0.1415400E-03  0.1097866E+04  0.7818609E-02  0.9207275E-01
        1   -1    0    0  501    0  0.00000000000E+00  0.00000000000E+00  0.15577802632E+04  0.15577802632E+04  0.50400001928E-02 0.  1.
       -1   -1    0    0    0  501  0.00000000000E+00  0.00000000000E+00 -0.19343368917E+03  0.19343368924E+03  0.50400001928E-02 0. -1.
    10030    2    1    2    0    0  0.00000000000E+00  0.00000000000E+00  0.13643465740E+04  0.17512139524E+04  0.10978655351E+04 0.  0.
        2    1    3    3  502    0  0.21795957272E+03 -0.28842247892E+03  0.13410769602E+04  0.13889497165E+04  0.25500000920E-02 0.  1.
       -2    1    3    3    0  502 -0.21795957272E+03  0.28842247892E+03  0.23269613766E+02  0.36226423591E+03  0.25500000920E-02 0. -1.
</event>
<event>
 5   0  0.2438115E-03  0.1094134E+04  0.7818609E-02  0.9210928E-01
        2   -1    0    0  501    0  0.00000000000E+00  0.00000000000E+00  0.79848337893E+03  0.79848337894E+03  0.25500000920E-02 0. -1.
       -2   -1    0    0    0  501  0.00000000000E+00  0.00000000000E+00 -0.37481344357E+03  0.37481344358E+03  0.25500000920E-02 0.  1.
    10030    2    1    2    0    0  0.00000000000E+00  0.00000000000E+00  0.42366993536E+03  0.11732968225E+04  0.10941340044E+04 0.  0.
        4    1    3    3  502    0 -0.29881750564E+03  0.41033078989E+03 -0.69286136341E+01  0.50765428925E+03  0.12699999809E+01 0.  1.
       -4    1    3    3    0  502  0.29881750564E+03 -0.41033078989E+03  0.43059854900E+03  0.66564253327E+03  0.12699999809E+01 0. -1.
</event>
<event>
 5   0  0.2467448E-03  0.1097602E+04  0.7818609E-02  0.9207532E-01
       -2   -1    0    0    0  501  0.00000000000E+00  0.00000000000E+00  0.26688284649E+03  0.26688284650E+03  0.25500000920E-02 0.  1.
        2   -1    0    0  501    0  0.00000000000E+00  0.00000000000E+00 -0.11285203205E+04  0.11285203205E+04  0.25500000920E-02 0. -1.
    10030    2    1    2    0    0  0.00000000000E+00  0.00000000000E+00 -0.86163747402E+03  0.13954031670E+04  0.10976023241E+04 0.  0.
        1    1    3    3  502    0  0.53818491620E+03 -0.37881546060E+02 -0.30302299139E+03  0.61878990691E+03  0.50400001928E-02 0. -1.
       -1    1    3    3    0  502 -0.53818491620E+03  0.37881546060E+02 -0.55861448263E+03  0.77661326011E+03  0.50400001928E-02 0.  1.
</event>
<event>
 5   0  0.2392585E-03  0.1083523E+04  0.7818609E-02  0.9221402E-01
       -2   -1    0    0    0  501  0.00000000000E+00  0.00000000000E+00  0.30078205629E+03  0.30078205630E+03  0.25500000920E-02 0. -1.
        2   -1    0    0  501    0  0.00000000000E+00  0.00000000000E+00 -0.97580714945E+03  0.97580714946E+03  0.25500000920E-02 0.  1.
    10030    2    1    2    0    0  0.00000000000E+00  0.00000000000E+00 -0.67502509316E+03  0.12765892058E+04  0.10835225535E+04 0.  0.
        5    1    3    3  502    0  0.77620926803E+02  0.12949167471E+03  0.27547180755E+03  0.31416541638E+03  0.46999998093E+01 0. -1.
       -5    1    3    3    0  502 -0.77620926803E+02 -0.12949167471E+03 -0.95049690071E+03  0.96242378938E+03  0.46999998093E+01 0.  1.
</event>
<event>
 5   0  0.2392585E-03  0.1096006E+04  0.7818609E-02  0.9209093E-01
        2   -1    0    0  501    0  0.00000000000E+00  0.00000000000E+00  0.55955609212E+03  0.55955609213E+03  0.25500000920E-02 0.  1.
       -2   -1    0    0    0  501  0.00000000000E+00  0.00000000000E+00 -0.53668892870E+03  0.53668892870E+03  0.25500000920E-02 0. -1.
    10030    2    1    2    0    0  0.00000000000E+00  0.00000000000E+00  0.22867163428E+02  0.10962450208E+04  0.10960064957E+04 0.  0.
        5    1    3    3  502    0  0.57441525568E+02  0.13405019508E+02  0.55635141851E+03  0.55948924412E+03  0.46999998093E+01 0.  1.
       -5    1    3    3    0  502 -0.57441525568E+02 -0.13405019508E+02 -0.53348425509E+03  0.53675577671E+03  0.46999998093E+01 0. -1.
</event>
<event>
 5   0  0.2392585E-03  0.1095970E+04  0.7818609E-02  0.9209128E-01
        2   -1    0    0  501    0  0.00000000000E+00  0.00000000000E+00  0.38381066781E+03  0.38381066782E+03  0.25500000920E-02 0. -1.
       -2   -1    0    0    0  501  0.00000000000E+00  0.00000000000E+00 -0.78238528434E+03  0.78238528435E+03  0.25500000920E-02 0.  1.
    10030    2    1    2    0    0  0.00000000000E+00  0.00000000000E+00 -0.39857461653E+03  0.11661959522E+04  0.10959704713E+04 0.  0.
        5    1    3    3  502    0  0.10330878283E+02 -0.34554881932E+03 -0.65168236853E+03  0.73771452001E+03  0.46999998093E+01 0.  1.
       -5    1    3    3    0  502 -0.10330878283E+02  0.34554881932E+03  0.25310775200E+03  0.42848143216E+03  0.46999998093E+01 0. -1.
</event>
<event>
 5   0  0.1468556E-03  0.1101336E+04  0.7818609E-02  0.9203890E-01
        1   -1    0    0  501    0  0.00000000000E+00  0.00000000000E+00  0.75089269141E+03  0.75089269143E+03  0.50400001928E-02 0. -1.
       -1   -1    0    0    0  501  0.00000000000E+00  0.00000000000E+00 -0.40383326583E+03  0.40383326586E+03  0.50400001928E-02 0.  1.
    10030    2    1    2    0    0  0.00000000000E+00  0.00000000000E+00  0.34705942559E+03  0.11547259573E+04  0.11013363662E+04 0.  0.
        5    1    3    3  502    0 -0.58980394152E+01 -0.18963888283E+03 -0.36845858020E+03  0.41446532795E+03  0.46999998093E+01 0.  1.
       -5    1    3    3    0  502  0.58980394152E+01  0.18963888283E+03  0.71551800579E+03  0.74026062934E+03  0.46999998093E+01 0. -1.
</event>
<event>
 5   0  0.2467448E-03  0.1102096E+04  0.7818609E-02  0.9203151E-01
        2   -1    0    0  501    0  0.00000000000E+00  0.00000000000E+00  0.13564695921E+04  0.13564695921E+04  0.25500000920E-02 0.  1.
       -2   -1    0    0    0  501  0.00000000000E+00  0.00000000000E+00 -0.22385617293E+03  0.22385617295E+03  0.25500000920E-02 0. -1.
    10030    2    1    2    0    0  0.00000000000E+00  0.00000000000E+00  0.11326134191E+04  0.15803257650E+04  0.11020963508E+04 0.  0.
        1    1    3    3  502    0  0.52094773685E+03 -0.15212554869E+03  0.42932828531E+03  0.69199097082E+03  0.50400001928E-02 0.  1.
       -1    1    3    3    0  502 -0.52094773685E+03  0.15212554869E+03  0.70328513381E+03  0.88833479418E+03  0.50400001928E-02 0. -1.
</event>
<event>
 5   0  0.1415400E-03  0.1096752E+04  0.7818609E-02  0.9208363E-01
       -1   -1    0    0    0  501  0.00000000000E+00  0.00000000000E+00  0.48728161203E+03  0.48728161206E+03  0.50400001928E-02 0. -1.
        1   -1    0    0  501    0  0.00000000000E+00  0.00000000000E+00 -0.61713055803E+03  0.61713055805E+03  0.50400001928E-02 0.  1.
    10030    2    1    2    0    0  0.00000000000E+00  0.00000000000E+00 -0.12984894600E+03  0.11044121701E+04  0.10967522476E+04 0.  0.
        2    1    3    3  502    0  0.46954232011E+03  0.15899111841E+03  0.17116598592E+03  0.52444824420E+03  0.25500000920E-02 0. -1.
       -2    1    3    3    0  502 -0.46954232011E+03 -0.15899111841E+03 -0.30101493192E+03  0.57996392590E+03  0.25500000920E-02 0.  1.
</event>
<event>
 5   0  0.1415400E-03  0.1111178E+04  0.7818609E-02  0.9194365E-01
       -1   -1    0    0    0  501  0.00000000000E+00  0.00000000000E+00  0.22075996934E+03  0.22075996940E+03  0.50400001928E-02 0. -1.
        1   -1    0    0  501    0  0.00000000000E+00  0.00000000000E+00 -0.13982557596E+04  0.13982557596E+04  0.50400001928E-02 0.  1.
    10030    2    1    2    0    0  0.00000000000E+00  0.00000000000E+00 -0.11774957902E+04  0.16190157290E+04  0.11111775712E+04 0.  0.
        2    1    3    3  502    0  0.28417906824E+03 -0.30695943610E+03 -0.55991672969E+02  0.42203898598E+03  0.25500000920E-02 0. -1.
       -2    1    3    3    0  502 -0.28417906824E+03  0.30695943610E+03 -0.11215041172E+04  0.11969767430E+04  0.25500000920E-02 0.  1.
</event>
<event>
 5   0  0.1509004E-03  0.1098749E+04  0.7818609E-02  0.9206412E-01
        1   -1    0    0  501    0  0.00000000000E+00  0.00000000000E+00  0.11854917067E+04  0.11854917068E+04  0.50400001928E-02 0.  1.
       -1   -1    0    0    0  501  0.00000000000E+00  0.00000000000E+00 -0.25458843456E+03  0.25458843461E+03  0.50400001928E-02 0. -1.
    10030    2    1    2    0    0  0.00000000000E+00  0.00000000000E+00  0.93090327219E+03  0.14400801414E+04  0.10987492486E+04 0.  0.
        3    1    3    3  502    0  0.17807265964E+02  0.16872946691E+03 -0.21938953874E+03  0.27734186780E+03  0.10100000352E+00 0. -1.
       -3    1    3    3    0  502 -0.17807265964E+02 -0.16872946691E+03  0.11502928109E+04  0.11627382736E+04  0.10100000352E+00 0.  1.
</event>
<event>
 5   0  0.2467448E-03  0.1083741E+04  0.7818609E-02  0.9221186E-01
       -2   -1    0    0    0  501  0.00000000000E+00  0.00000000000E+00  0.34223129025E+03  0.34223129026E+03  0.25500000920E-02 0. -1.
        2   -1    0    0  501    0  0.00000000000E+00  0.00000000000E+00 -0.85796770082E+03  0.85796770082E+03  0.25500000920E-02 0.  1.
    10030    2    1    2    0    0  0.00000000000E+00  0.00000000000E+00 -0.51573641057E+03  0.12001989911E+04  0.10837405469E+04 0.  0.
        1    1    3    3  502    0 -0.46409621796E+03  0.25351032421E+02  0.50625264959E+02  0.46753704864E+03  0.50400001928E-02 0. -1.
       -1    1    3    3    0  502  0.46409621796E+03 -0.25351032421E+02 -0.56636167553E+03  0.73266194244E+03  0.50400001928E-02 0.  1.
</event>
<event>
 5   0  0.1479573E-03  0.1018886E+04  0.7818609E-02  0.9288070E-01
       -1   -1    0    0    0  501  0.00000000000E+00  0.00000000000E+00  0.17078100974E+03  0.17078100982E+03  0.50400001928E-02 0.  1.
        1   -1    0    0  501    0  0.00000000000E+00  0.00000000000E+00 -0.15196787628E+04  0.15196787629E+04  0.50400001928E-02 0. -1.
    10030    2    1    2    0    0  0.00000000000E+00  0.00000000000E+00 -0.13488977531E+04  0.16904597727E+04  0.10188862030E+04 0.  0.
        4    1    3    3  502    0 -0.49266086639E+03  0.12957847049E+03 -0.66609513849E+03  0.83856404389E+03  0.12699999809E+01 0. -1.
       -4    1    3    3    0  502  0.49266086639E+03 -0.12957847049E+03 -0.68280261461E+03  0.85189572877E+03  0.12699999809E+01 0.  1.
</event>
<event>
 5   0  0.1479573E-03  0.1099730E+04  0.7818609E-02  0.9205455E-01
        1   -1    0    0  501    0  0.00000000000E+00  0.00000000000E+00  0.29494324910E+03  0.29494324914E+03  0.50400001928E-02 0.  1.
       -1   -1    0    0    0  501  0.00000000000E+00  0.00000000000E+00 -0.10251177142E+04  0.10251177142E+04  0.50400001928E-02 0. -1.
    10030    2    1    2    0    0  0.00000000000E+00  0.00000000000E+00 -0.73017446513E+03  0.13200609634E+04  0.10997300567E+04 0.  0.
        4    1    3    3  502    0 -0.22600623984E+03 -0.28756790059E+03 -0.85792675957E+03  0.93263822331E+03  0.12699999809E+01 0. -1.
       -4    1    3    3    0  502  0.22600623984E+03  0.28756790059E+03  0.12775229443E+03  0.38742274007E+03  0.12699999809E+01 0.  1.
</event>
<event>
 5   0  0.1468556E-03  0.1099427E+04  0.7818609E-02  0.9205751E-01
        1   -1    0    0  501    0  0.00000000000E+00  0.00000000000E+00  0.65681757719E+03  0.65681757721E+03  0.50400001928E-02 0. -1.
       -1   -1    0    0    0  501  0.00000000000E+00  0.00000000000E+00 -0.46007432515E+03  0.46007432518E+03  0.50400001928E-02 0.  1.
    10030    2    1    2    0    0  0.00000000000E+00  0.00000000000E+00  0.19674325204E+03  0.11168919024E+04  0.10994269482E+04 0.  0.
        5    1    3    3  502    0  0.57910732207E+02  0.93344763189E+02  0.64553317679E+03  0.65482980236E+03  0.46999998093E+01 0. -1.
       -5    1    3    3    0  502 -0.57910732207E+02 -0.93344763189E+02 -0.44878992475E+03  0.46206210002E+03  0.46999998093E+01 0.  1.
</event>
<event>
 5   0  0.2488472E-03  0.1095082E+04  0.7818609E-02  0.9209999E-01
       -2   -1    0    0    0  501  0.00000000000E+00  0.00000000000E+00  0.59571447550E+03  0.59571447551E+03  0.25500000920E-02 0. -1.
        2   -1    0    0  501    0  0.00000000000E+00  0.00000000000E+00 -0.50326277722E+03  0.50326277722E+03  0.25500000920E-02 0.  1.
    10030    2    1    2    0    0  0.00000000000E+00  0.00000000000E+00  0.92451698283E+02  0.10989772527E+04  0.10950815885E+04 0.  0.
        2    1    3    3  502    0 -0.35991416101E+03  0.36492151759E+03 -0.14705994567E+03  0.53322841721E+03  0.25500000920E-02 0. -1.
       -2    1    3    3    0  502  0.35991416101E+03 -0.36492151759E+03  0.23951164395E+03  0.56574883552E+03  0.25500000920E-02 0.  1.
</event>
<event>
 5   0  0.2438115E-03  0.1110344E+04  0.7818609E-02  0.9195168E-01
       -2   -1    0    0    0  501  0.00000000000E+00  0.00000000000E+00  0.11939958476E+03  0.11939958479E+03  0.25500000920E-02 0.  1.
        2   -1    0    0  501    0  0.00000000000E+00  0.00000000000E+00 -0.25813830195E+04  0.25813830195E+04  0.25500000920E-02 0. -1.
    10030    2    1    2    0    0  0.00000000000E+00  0.00000000000E+00 -0.24619834347E+04  0.27007826043E+04  0.11103442001E+04 0.  0.
        4    1    3    3  502    0 -0.14604299822E+03 -0.53437546327E+03 -0.11423262703E+04  0.12695655217E+04  0.12699999809E+01 0.  1.
       -4    1    3    3    0  502  0.14604299822E+03  0.53437546327E+03 -0.13196571644E+04  0.14312170826E+04  0.12699999809E+01 0. -1.
</event>
<event>
 5   0  0.2392585E-03  0.1114668E+04  0.7818609E-02  0.9191012E-01
       -2   -1    0    0    0  501  0.00000000000E+00  0.00000000000E+00  0.32807163308E+03  0.32807163309E+03  0.25500000920E-02 0. -1.
        2   -1    0    0  501    0  0.00000000000E+00  0.00000000000E+00 -0.94680888276E+03  0.94680888277E+03  0.25500000920E-02 0.  1.
    10030    2    1    2    0    0  0.00000000000E+00  0.00000000000E+00 -0.61873724968E+03  0.12748805159E+04  0.11146679082E+04 0.  0.
        5    1    3    3  502    0  0.45113041124E+03 -0.98808668776E+02 -0.66616373179E+03  0.81060348415E+03  0.46999998093E+01 0.  1.
       -5    1    3    3    0  502 -0.45113041124E+03  0.98808668776E+02  0.47426482110E+02  0.46427703171E+03  0.46999998093E+01 0. -1.
</event>
<event>
 5   0  0.2483036E-03  0.1106677E+04  0.7818609E-02  0.9198709E-01
       -2   -1    0    0    0  501  0.00000000000E+00  0.00000000000E+00  0.29102426187E+03  0.29102426188E+03  0.25500000920E-02 0. -1.
        2   -1    0    0  501    0  0.00000000000E+00  0.00000000000E+00 -0.10520886278E+04  0.10520886278E+04  0.25500000920E-02 0.  1.
    10030    2    1    2    0    0  0.00000000000E+00  0.00000000000E+00 -0.76106436595E+03  0.13431128897E+04  0.11066766761E+04 0.  0.
        3    1    3    3  502    0 -0.36228687301E+02 -0.36535532959E+03 -0.88296705612E+03  0.95625721803E+03  0.10100000352E+00 0.  1.
       -3    1    3    3    0  502  0.36228687301E+02  0.36535532959E+03  0.12190269016E+03  0.38685567168E+03  0.10100000352E+00 0. -1.
</event>
<event>
 5   0  0.2392585E-03  0.1097942E+04  0.7818609E-02  0.9207200E-01
       -2   -1    0    0    0  501  0.00000000000E+00  0.00000000000E+00  0.25673002258E+03  0.25673002259E+03  0.25500000920E-02 0. -1.
        2   -1    0    0  501    0  0.00000000000E+00  0.00000000000E+00 -0.11738760736E+04  0.11738760736E+04  0.25500000920E-02 0.  1.
    10030    2    1    2    0    0  0.00000000000E+00  0.00000000000E+00 -0.91714605101E+03  0.14306060962E+04  0.10979421312E+04 0.  0.
        5    1    3    3  502    0  0.92728277482E+02 -0.39026041218E+03  0.29735614341E+02  0.40225367558E+03  0.46999998093E+01 0. -1.
       -5    1    3    3    0  502 -0.92728277482E+02  0.39026041218E+03 -0.94688166535E+03  0.10283524206E+04  0.46999998093E+01 0.  1.
</event>
<event>
 5   0  0.2488472E-03  0.1091397E+04  0.7818609E-02  0.9213618E-01
       -2   -1    0    0    0  501  0.00000000000E+00  0.00000000000E+00  0.27544202213E+03  0.27544202214E+03  0.25500000920E-02 0. -1.
        2   -1    0    0  501    0  0.00000000000E+00  0.00000000000E+00 -0.10811234242E+04  0.10811234242E+04  0.25500000920E-02 0.  1.
    10030    2    1    2    0    0  0.00000000000E+00  0.00000000000E+00 -0.80568140210E+03  0.13565654464E+04  0.10913969436E+04 0.  0.
        2    1    3    3  502    0 -0.40447353956E+03  0.29577697495E+02 -0.85667205076E+03  0.94781891042E+03  0.25500000920E-02 0.  1.
       -2    1    3    3    0  502  0.40447353956E+03 -0.29577697495E+02  0.50990648662E+02  0.40874653595E+03  0.25500000920E-02 0. -1.
</event>
<event>
 5   0  0.1480937E-03  0.1089190E+04  0.7818609E-02  0.9215792E-01
        1   -1    0    0  501    0  0.00000000000E+00  0.00000000000E+00  0.27965482052E+04  0.27965482052E+04  0.50400001928E-02 0. -1.
       -1   -1    0    0    0  501  0.00000000000E+00  0.00000000000E+00 -0.10605353581E+03  0.10605353593E+03  0.50400001928E-02 0.  1.
    10030    2    1    2    0    0  0.00000000000E+00  0.00000000000E+00  0.26904946694E+04  0.29026017412E+04  0.10891902045E+04 0.  0.
        1    1    3    3  502    0  0.32338728858E+03  0.29480803606E+03  0.22091603516E+04  0.22520836076E+04  0.50400001928E-02 0. -1.
       -1    1    3    3    0  502 -0.32338728858E+03 -0.29480803606E+03  0.48133431781E+03  0.65051813354E+03  0.50400001928E-02 0.  1.
</event>
<event>
 5   0  0.1479573E-03  0.1103232E+04  0.7818609E-02  0.9202048E-01
       -1   -1    0    0    0  501  0.00000000000E+00  0.00000000000E+00  0.76683960403E+03  0.76683960404E+03  0.50400001928E-02 0. -1.
        1   -1    0    0  501    0  0.00000000000E+00  0.00000000000E+00 -0.39679765619E+03  0.39679765622E+03  0.50400001928E-02 0.  1.
    10030    2    1    2    0    0  0.00000000000E+00  0.00000000000E+00  0.37004194784E+03  0.11636372603E+04  0.11032319023E+04 0.  0.
        4    1    3    3  502    0 -0.23850772635E+03 -0.47196048972E+03  0.35060681367E+03  0.63447568123E+03  0.12699999809E+01 0. -1.
       -4    1    3    3    0  502  0.23850772635E+03  0.47196048972E+03  0.19435134169E+02  0.52916157903E+03  0.12699999809E+01 0.  1.
</event>
<event>
 5   0  0.2438115E-03  0.1102394E+04  0.7818609E-02  0.9202862E-01
        2   -1    0    0  501    0  0.00000000000E+00  0.00000000000E+00  0.18561323177E+04  0.18561323177E+04  0.25500000920E-02 0.  1.
       -2   -1    0    0    0  501  0.00000000000E+00  0.00000000000E+00 -0.16368344160E+03  0.16368344162E+03  0.25500000920E-02 0. -1.
    10030    2    1    2    0    0  0.00000000000E+00  0.00000000000E+00  0.16924488761E+04  0.20198157593E+04  0.11023939874E+04 0.  0.
        4    1    3    3  502    0 -0.54043819202E+03  0.10642876901E+03  0.80885498704E+03  0.97859517944E+03  0.12699999809E+01 0. -1.
       -4    1    3    3    0  502  0.54043819202E+03 -0.10642876901E+03  0.88359388901E+03  0.10412205798E+04  0.12699999809E+01 0.  1.
</event>
<event>
 5   0  0.2438115E-03  0.1098774E+04  0.7818609E-02  0.9206388E-01
       -2   -1    0    0    0  501  0.00000000000E+00  0.00000000000E+00  0.18729950899E+03  0.18729950901E+03  0.25500000920E-02 0.  1.
        2   -1    0    0  501    0  0.00000000000E+00  0.00000000000E+00 -0.16114616396E+04  0.16114616396E+04  0.25500000920E-02 0. -1.
    10030    2    1    2    0    0  0.00000000000E+00  0.00000000000E+00 -0.14241621306E+04  0.17987611486E+04  0.10987738145E+04 0.  0.
        4    1    3    3  502    0 -0.73485910990E+02  0.21272837895E+03  0.10836453093E+03  0.24979597032E+03  0.12699999809E+01 0.  1.
       -4    1    3    3    0  502  0.73485910990E+02 -0.21272837895E+03 -0.15325266615E+04  0.15489651783E+04  0.12699999809E+01 0. -1.
</event>
<event>
 5   0  0.1415400E-03  0.1095959E+04  0.7818609E-02  0.9209140E-01
        1   -1    0    0  501    0  0.00000000000E+00  0.00000000000E+00  0.11678957383E+04  0.11678957383E+04  0.50400001928E-02 0. -1.
       -1   -1    0    0    0  501  0.00000000000E+00  0.00000000000E+00 -0.25711317575E+03  0.25711317580E+03  0.50400001928E-02 0.  1.
    10030    2    1    2    0    0  0.00000000000E+00  0.00000000000E+00  0.91078256256E+03  0.14250089141E+04  0.10959587260E+04 0.  0.
        2    1    3    3  502    0 -0.23739339730E+02 -0.12324114131E+03  0.11489559992E+04  0.11557905620E+04  0.25500000920E-02 0. -1.
       -2    1    3    3    0  502  0.23739339730E+02  0.12324114131E+03 -0.23817343665E+03  0.26921835208E+03  0.25500000920E-02 0.  1.
</event>
<event>
 5   0  0.9631750E-04  0.1092199E+04  0.7818609E-02  0.9212829E-01
        4   -1    0    0  501    0  0.00000000000E+00  0.00000000000E+00  0.35708121374E+03  0.35708347218E+03  0.12699999809E+01 0.  1.
       -4   -1    0    0    0  501  0.00000000000E+00  0.00000000000E+00 -0.83516773826E+03  0.83516870387E+03  0.12699999809E+01 0. -1.
    10030    2    1    2    0    0  0.00000000000E+00  0.00000000000E+00 -0.47808652452E+03  0.11922521761E+04  0.10921989408E+04 0.  0.
        3    1    3    3  502    0  0.20508785912E+03  0.50521755119E+03 -0.27213205928E+03  0.60939451251E+03  0.10100000352E+00 0. -1.
       -3    1    3    3    0  502 -0.20508785912E+03 -0.50521755119E+03 -0.20595446525E+03  0.58285766354E+03  0.10100000352E+00 0.  1.
</event>
<event>
 5   0  0.2488472E-03  0.1092426E+04  0.7818609E-02  0.9212605E-01
        2   -1    0    0  501    0  0.00000000000E+00  0.00000000000E+00  0.47331698356E+03  0.47331698356E+03  0.25500000920E-02 0. -1.
       -2   -1    0    0    0  501  0.00000000000E+00  0.00000000000E+00 -0.63033620289E+03  0.63033620289E+03  0.25500000920E-02 0.  1.
    10030    2    1    2    0    0  0.00000000000E+00  0.00000000000E+00 -0.15701921933E+03  0.11036531865E+04  0.10924263457E+04 0.  0.
        2    1    3    3  502    0 -0.11801936630E+03  0.53089995794E+03 -0.12968085176E+03  0.55910684085E+03  0.25500000920E-02 0. -1.
       -2    1    3    3    0  502  0.11801936630E+03 -0.53089995794E+03 -0.27338367573E+02  0.54454634561E+03  0.25500000920E-02 0.  1.
</event>
<event>
 5   0  0.2483036E-03  0.1109484E+04  0.7818609E-02  0.9195997E-01
        2   -1    0    0  501    0  0.00000000000E+00  0.00000000000E+00  0.12648216994E+04  0.12648216994E+04  0.25500000920E-02 0.  1.
       -2   -1    0    0    0  501  0.00000000000E+00  0.00000000000E+00 -0.24330590622E+03  0.24330590623E+03  0.25500000920E-02 0. -1.
    10030    2    1    2    0    0  0.00000000000E+00  0.00000000000E+00  0.10215157932E+04  0.15081276056E+04  0.11094838255E+04 0.  0.
        3    1    3    3  502    0 -0.35523936024E+03  0.71214465239E+02 -0.60267089917E+02  0.36728549583E+03  0.10100000352E+00 0. -1.
       -3    1    3    3    0  502  0.35523936024E+03 -0.71214465239E+02  0.10817828831E+04  0.11408421098E+04  0.10100000352E+00 0.  1.
</event>
<event>
 5   0  0.9631750E-04  0.1019163E+04  0.7818609E-02  0.9287774E-01
       -3   -1    0    0    0  501  0.00000000000E+00  0.00000000000E+00  0.91602222822E+03  0.91602223379E+03  0.10100000352E+00 0. -1.
        3   -1    0    0  501    0  0.00000000000E+00  0.00000000000E+00 -0.28347913120E+03  0.28347914919E+03  0.10100000352E+00 0.  1.
    10030    2    1    2    0    0  0.00000000000E+00  0.00000000000E+00  0.63254309702E+03  0.11995013830E+04  0.10191627928E+04 0.  0.
        5    1    3    3  502    0  0.10849826486E+03 -0.25045078184E+03 -0.19016299662E+03  0.33268832694E+03  0.46999998093E+01 0.  1.
       -5    1    3    3    0  502 -0.10849826486E+03  0.25045078184E+03  0.82270609364E+03  0.86681305604E+03  0.46999998093E+01 0. -1.
</event>
<event>
 5   0  0.2488472E-03  0.1105790E+04  0.7818609E-02  0.9199567E-01
        2   -1    0    0  501    0  0.00000000000E+00  0.00000000000E+00  0.11497964712E+04  0.11497964712E+04  0.25500000920E-02 0.  1.
       -2   -1    0    0    0  501  0.00000000000E+00  0.00000000000E+00 -0.26586706205E+03  0.26586706206E+03  0.25500000920E-02 0. -1.
    10030    2    1    2    0    0  0.00000000000E+00  0.00000000000E+00  0.88392940919E+03  0.14156635333E+04  0.11057902329E+04 0.  0.
        2    1    3    3  502    0 -0.25387720408E+03  0.35820980702E+03  0.11752670063E+02  0.43921068504E+03  0.25500000920E-02 0. -1.
       -2    1    3    3    0  502  0.25387720408E+03 -0.35820980702E+03  0.87217673913E+03  0.97645284826E+03  0.25500000920E-02 0.  1.
</event>
<event>
 5   0  0.2467448E-03  0.1095131E+04  0.7818609E-02  0.9209950E-01
       -2   -1    0    0    0  501  0.00000000000E+00  0.00000000000E+00  0.36223727068E+03  0.36223727069E+03  0.25500000920E-02 0.  1.
        2   -1    0    0  501    0  0.00000000000E+00  0.00000000000E+00 -0.82771195902E+03  0.82771195903E+03  0.25500000920E-02 0. -1.
    10030    2    1    2    0    0  0.00000000000E+00  0.00000000000E+00 -0.46547468834E+03  0.11899492297E+04  0.10951312633E+04 0.  0.
        1    1    3    3  502    0 -0.40355790306E+03 -0.16062139399E+03  0.12955226432E+03  0.45325710424E+03  0.50400001928E-02 0.  1.
       -1    1    3    3    0  502  0.40355790306E+03  0.16062139399E+03 -0.59502695265E+03  0.73669212548E+03  0.50400001928E-02 0. -1.
</event>
<event>
 5   0  0.1509004E-03  0.1098822E+04  0.7818609E-02  0.9206341E-01
        1   -1    0    0  501    0  0.00000000000E+00  0.00000000000E+00  0.11327136977E+04  0.11327136977E+04  0.50400001928E-02 0.  1.
       -1   -1    0    0    0  501  0.00000000000E+00  0.00000000000E+00 -0.26648600994E+03  0.26648600998E+03  0.50400001928E-02 0. -1.
    10030    2    1    2    0    0  0.00000000000E+00  0.00000000000E+00  0.86622768772E+03  0.13991997076E+04  0.10988218304E+04 0.  0.
        3    1    3    3  502    0 -0.32204590040E+03  0.15936056212E+03 -0.96126138763E+02  0.37195375449E+03  0.10100000352E+00 0. -1.
       -3    1    3    3    0  502  0.32204590040E+03 -0.15936056212E+03  0.96235382648E+03  0.10272459532E+04  0.10100000352E+00 0.  1.
</event>
<event>
 5   0  0.2392585E-03  0.1107581E+04  0.7818609E-02  0.9197834E-01
        2   -1    0    0  501    0  0.00000000000E+00  0.00000000000E+00  0.98582633579E+03  0.98582633579E+03  0.25500000920E-02 0.  1.
       -2   -1    0    0    0  501  0.00000000000E+00  0.00000000000E+00 -0.31109318152E+03  0.31109318153E+03  0.25500000920E-02 0. -1.
    10030    2    1    2    0    0  0.00000000000E+00  0.00000000000E+00  0.67473315427E+03  0.12969195173E+04  0.11075808796E+04 0.  0.
        5    1    3    3  502    0 -0.42635027590E+03  0.16192450995E+03  0.70517780536E+03  0.83981660608E+03  0.46999998093E+01 0.  1.
       -5    1    3    3    0  502  0.42635027590E+03 -0.16192450995E+03 -0.30444651080E+02  0.45710291124E+03  0.46999998093E+01 0. -1.
</event>
<event>
 5   0  0.2438115E-03  0.1102645E+04  0.7818609E-02  0.9202618E-01
        2   -1    0    0  501    0  0.00000000000E+00  0.00000000000E+00  0.63524119840E+03  0.63524119840E+03  0.25500000920E-02 0. -1.
       -2   -1    0    0    0  501  0.00000000000E+00  0.00000000000E+00 -0.47848968307E+03  0.47848968308E+03  0.25500000920E-02 0.  1.
    10030    2    1    2    0    0  0.00000000000E+00  0.00000000000E+00  0.15675151533E+03  0.11137308815E+04  0.11026447473E+04 0.  0.
        4    1    3    3  502    0 -0.42825389268E+03 -0.10126122006E+03  0.41382858094E+03  0.60407858643E+03  0.12699999809E+01 0. -1.
       -4    1    3    3    0  502  0.42825389268E+03  0.10126122006E+03 -0.25707706561E+03  0.50965229505E+03  0.12699999809E+01 0.  1.
</event>
<event>
 5   0  0.2488472E-03  0.1099581E+04  0.7818609E-02  0.9205600E-01
       -2   -1    0    0    0  501  0.00000000000E+00  0.00000000000E+00  0.37683635532E+03  0.37683635533E+03  0.25500000920E-02 0.  1.
        2   -1    0    0  501    0  0.00000000000E+00  0.00000000000E+00 -0.80212438950E+03  0.80212438950E+03  0.25500000920E-02 0. -1.
    10030    2    1    2    0    0  0.00000000000E+00  0.00000000000E+00 -0.42528803418E+03  0.11789607448E+04  0.10995810683E+04 0.  0.
        2    1    3    3  502    0 -0.61195521020E+02  0.29137231153E+03  0.28292035536E+03  0.41071479545E+03  0.25500000920E-02 0.  1.
       -2    1    3    3    0  502  0.61195521020E+02 -0.29137231153E+03 -0.70820838954E+03  0.76824594938E+03  0.25500000920E-02 0. -1.
</event>
<event>
 5   0  0.1509004E-03  0.1136902E+04  0.7818609E-02  0.9169953E-01
        1   -1    0    0  501    0  0.00000000000E+00  0.00000000000E+00  0.15086587902E+04  0.15086587902E+04  0.50400001928E-02 0. -1.
       -1   -1    0    0    0  501  0.00000000000E+00  0.00000000000E+00 -0.21418805095E+03  0.21418805101E+03  0.50400001928E-02 0.  1.
    10030    2    1    2    0    0  0.00000000000E+00  0.00000000000E+00  0.12944707393E+04  0.17228468412E+04  0.11369022577E+04 0.  0.
        3    1    3    3  502    0 -0.85977575631E+02  0.15458722423E+03  0.14658912742E+04  0.14765251747E+04  0.10100000352E+00 0. -1.
       -3    1    3    3    0  502  0.85977575631E+02 -0.15458722423E+03 -0.17142053496E+03  0.24632166656E+03  0.10100000352E+00 0.  1.
</event>
<event>
 5   0  0.1468556E-03  0.1107006E+04  0.7818609E-02  0.9198390E-01
       -1   -1    0    0    0  501  0.00000000000E+00  0.00000000000E+00  0.26739206879E+03  0.26739206884E+03  0.50400001928E-02 0. -1.
        1   -1    0    0  501    0  0.00000000000E+00  0.00000000000E+00 -0.11457542979E+04  0.11457542979E+04  0.50400001928E-02 0.  1.
    10030    2    1    2    0    0  0.00000000000E+00  0.00000000000E+00 -0.87836222912E+03  0.14131463668E+04  0.11070060742E+04 0.  0.
        5    1    3    3  502    0 -0.41353568241E+03 -0.11079475175E+03  0.86239915480E+01  0.42823323186E+03  0.46999998093E+01 0. -1.
       -5    1    3    3    0  502  0.41353568241E+03  0.11079475175E+03 -0.88698622066E+03  0.98491313490E+03  0.46999998093E+01 0.  1.
</event>
<event>
 5   0  0.2467448E-03  0.1101402E+04  0.7818609E-02  0.9203827E-01
        2   -1    0    0  501    0  0.00000000000E+00  0.00000000000E+00  0.31737392376E+03  0.31737392377E+03  0.25500000920E-02 0. -1.
       -2   -1    0    0    0  501  0.00000000000E+00  0.00000000000E+00 -0.95556481080E+03  0.95556481081E+03  0.25500000920E-02 0.  1.
    10030    2    1    2    0    0  0.00000000000E+00  0.00000000000E+00 -0.63819088704E+03  0.12729387346E+04  0.11014015679E+04 0.  0.
        1    1    3    3  502    0 -0.39301598360E+02  0.26382285299E+03  0.23773383018E+03  0.35730167566E+03  0.50400001928E-02 0. -1.
       -1    1    3    3    0  502  0.39301598360E+02 -0.26382285299E+03 -0.87592471722E+03  0.91563705892E+03  0.50400001928E-02 0.  1.
</event>
<event>
 5   0  0.2392585E-03  0.1096715E+04  0.7818609E-02  0.9208400E-01
       -2   -1    0    0    0  501  0.00000000000E+00  0.00000000000E+00  0.57336492445E+03  0.57336492446E+03  0.25500000920E-02 0. -1.
        2   -1    0    0  501    0  0.00000000000E+00  0.00000000000E+00 -0.52444030355E+03  0.52444030356E+03  0.25500000920E-02 0.  1.
    10030    2    1    2    0    0  0.00000000000E+00  0.00000000000E+00  0.48924620897E+02  0.10978052280E+04  0.10967145026E+04 0.  0.
        5    1    3    3  502    0 -0.31263484023E+03  0.43482568325E+03  0.14230648113E+03  0.55415443940E+03  0.46999998093E+01 0.  1.
       -5    1    3    3    0  502  0.31263484023E+03 -0.43482568325E+03 -0.93381860237E+02  0.54365078861E+03  0.46999998093E+01 0. -1.
</event>
<event>
 5   0  0.2392585E-03  0.1084689E+04  0.7818609E-02  0.9220245E-01
       -2   -1    0    0    0  501  0.00000000000E+00  0.00000000000E+00  0.49543662191E+03  0.49543662192E+03  0.25500000920E-02 0.  1.
        2   -1    0    0  501    0  0.00000000000E+00  0.00000000000E+00 -0.59369379663E+03  0.59369379664E+03  0.25500000920E-02 0. -1.
    10030    2    1    2    0    0  0.00000000000E+00  0.00000000000E+00 -0.98257174720E+02  0.10891304186E+04  0.10846891703E+04 0.  0.
        5    1    3    3  502    0  0.20325730506E+03  0.95944722989E+02 -0.54470454385E+03  0.58927417389E+03  0.46999998093E+01 0. -1.
       -5    1    3    3    0  502 -0.20325730506E+03 -0.95944722989E+02  0.44644736913E+03  0.49985624466E+03  0.46999998093E+01 0.  1.
</event>
<event>
 5   0  0.1479573E-03  0.1098044E+04  0.7818609E-02  0.9207101E-01
       -1   -1    0    0    0  501  0.00000000000E+00  0.00000000000E+00  0.88202756398E+03  0.88202756399E+03  0.50400001928E-02 0.  1.
        1   -1    0    0  501    0  0.00000000000E+00  0.00000000000E+00 -0.34174097691E+03  0.34174097695E+03  0.50400001928E-02 0. -1.
    10030    2    1    2    0    0  0.00000000000E+00  0.00000000000E+00  0.54028658707E+03  0.12237685409E+04  0.10980436447E+04 0.  0.
        4    1    3    3  502    0  0.46293374268E+03  0.26497116738E+03  0.12523279762E+03  0.54790714191E+03  0.12699999809E+01 0. -1.
       -4    1    3    3    0  502 -0.46293374268E+03 -0.26497116738E+03  0.41505378945E+03  0.67586139903E+03  0.12699999809E+01 0.  1.
</event>
<event>
 5   0  0.1479573E-03  0.1104466E+04  0.7818609E-02  0.9200850E-01
        1   -1    0    0  501    0  0.00000000000E+00  0.00000000000E+00  0.21339897670E+04  0.21339897670E+04  0.50400001928E-02 0. -1.
       -1   -1    0    0    0  501  0.00000000000E+00  0.00000000000E+00 -0.14290666851E+03  0.14290666859E+03  0.50400001928E-02 0.  1.
    10030    2    1    2    0    0  0.00000000000E+00  0.00000000000E+00  0.19910830985E+04  0.22768964356E+04  0.11044661486E+04 0.  0.
        4    1    3    3  502    0 -0.39782140312E+02 -0.22696621673E+03  0.20301439021E+04  0.20431794240E+04  0.12699999809E+01 0. -1.
       -4    1    3    3    0  502  0.39782140312E+02  0.22696621673E+03 -0.39060803685E+02  0.23371701159E+03  0.12699999809E+01 0.  1.
</event>
<event>
 5   0  0.1415400E-03  0.1035885E+04  0.7818609E-02  0.9270040E-01
        1   -1    0    0  501    0  0.00000000000E+00  0.00000000000E+00  0.29018202407E+03  0.29018202411E+03  0.50400001928E-02 0.  1.
       -1   -1    0    0    0  501  0.00000000000E+00  0.00000000000E+00 -0.92446906938E+03  0.92446906940E+03  0.50400001928E-02 0. -1.
    10030    2    1    2    0    0  0.00000000000E+00  0.00000000000E+00 -0.63428704531E+03  0.12146510935E+04  0.10358847538E+04 0.  0.
        2    1    3    3  502    0 -0.12481572744E+03  0.58149468764E+02 -0.90261360792E+03  0.91305621500E+03  0.25500000920E-02 0. -1.
       -2    1    3    3    0  502  0.12481572744E+03 -0.58149468764E+02  0.26832656261E+03  0.30159487851E+03  0.25500000920E-02 0.  1.
</event>
<event>
 5   0  0.2467448E-03  0.1098618E+04  0.7818609E-02  0.9206540E-01
        2   -1    0    0  501    0  0.00000000000E+00  0.00000000000E+00  0.81284198599E+03  0.81284198599E+03  0.25500000920E-02 0.  1.
       -2   -1    0    0    0  501  0.00000000000E+00  0.00000000000E+00 -0.37121667520E+03  0.37121667521E+03  0.25500000920E-02 0. -1.
    10030    2    1    2    0    0  0.00000000000E+00  0.00000000000E+00  0.44162531079E+03  0.11840586612E+04  0.10986182221E+04 0.  0.
        1    1    3    3  502    0 -0.37758675871E+03 -0.39505088503E+03  0.28085462227E+03  0.61442353551E+03  0.50400001928E-02 0.  1.
       -1    1    3    3    0  502  0.37758675871E+03  0.39505088503E+03  0.16077068852E+03  0.56963512569E+03  0.50400001928E-02 0. -1.
</event>
<event>
 5   0  0.2392585E-03  0.1092134E+04  0.7818609E-02  0.9212893E-01
        2   -1    0    0  501    0  0.00000000000E+00  0.00000000000E+00  0.42454461611E+03  0.42454461612E+03  0.25500000920E-02 0.  1.
       -2   -1    0    0    0  501  0.00000000000E+00  0.00000000000E+00 -0.70237390812E+03  0.70237390812E+03  0.25500000920E-02 0. -1.
    10030    2    1    2    0    0  0.00000000000E+00  0.00000000000E+00 -0.27782929200E+03  0.11269185242E+04  0.10921338035E+04 0.  0.
        5    1    3    3  502    0 -0.30612532320E+03  0.19449466221E+02  0.32722131570E+03  0.44853859888E+03  0.46999998093E+01 0.  1.
       -5    1    3    3    0  502  0.30612532320E+03 -0.19449466221E+02 -0.60505060770E+03  0.67837992535E+03  0.46999998093E+01 0. -1.
</event>
<event>
 5   0  0.2483036E-03  0.1082354E+04  0.7818609E-02  0.9222563E-01
       -2   -1    0    0    0  501  0.00000000000E+00  0.00000000000E+00  0.27322383271E+03  0.27322383272E+03  0.25500000920E-02 0. -1.
        2   -1    0    0  501    0  0.00000000000E+00  0.00000000000E+00 -0.10719146966E+04  0.10719146966E+04  0.25500000920E-02 0.  1.
    10030    2    1    2    0    0  0.00000000000E+00  0.00000000000E+00 -0.79869086389E+03  0.13451385293E+04  0.10823541782E+04 0.  0.
        3    1    3    3  502    0 -0.11808632379E+03 -0.49871480544E+03 -0.18332945393E+03  0.54430739101E+03  0.10100000352E+00 0.  1.
       -3    1    3    3    0  502  0.11808632379E+03  0.49871480544E+03 -0.61536140997E+03  0.80083113832E+03  0.10100000352E+00 0. -1.
</event>
<event>
 5   0  0.1479573E-03  0.1106753E+04  0.7818609E-02  0.9198634E-01
       -1   -1    0    0    0  501  0.00000000000E+00  0.00000000000E+00  0.57991702789E+03  0.57991702791E+03  0.50400001928E-02 0. -1.
        1   -1    0    0  501    0  0.00000000000E+00  0.00000000000E+00 -0.52805104311E+03  0.52805104313E+03  0.50400001928E-02 0.  1.
    10030    2    1    2    0    0  0.00000000000E+00  0.00000000000E+00  0.51865984778E+02  0.11079680710E+04  0.11067534351E+04 0.  0.
        4    1    3    3  502    0  0.85904456442E+02 -0.54662098168E+03  0.18846709406E+02  0.55365231383E+03  0.12699999809E+01 0.  1.
       -4    1    3    3    0  502 -0.85904456442E+02  0.54662098168E+03  0.33019275372E+02  0.55431575722E+03  0.12699999809E+01 0. -1.
</event>
<event>
 5   0  0.2467448E-03  0.1096442E+04  0.7818609E-02  0.9208667E-01
       -2   -1    0    0    0  501  0.00000000000E+00  0.00000000000E+00  0.18585901679E+03  0.18585901681E+03  0.25500000920E-02 0. -1.
        2   -1    0    0  501    0  0.00000000000E+00  0.00000000000E+00 -0.16170651999E+04  0.16170652000E+04  0.25500000920E-02 0.  1.
    10030    2    1    2    0    0  0.00000000000E+00  0.00000000000E+00 -0.14312061832E+04  0.18029242168E+04  0.10964417872E+04 0.  0.
        1    1    3    3  502    0  0.19547181646E+03  0.22123207515E+03 -0.14751983916E+04  0.15044477913E+04  0.50400001928E-02 0.  1.
       -1    1    3    3    0  502 -0.19547181646E+03 -0.22123207515E+03  0.43992208484E+02  0.29847642543E+03  0.50400001928E-02 0. -1.
</event>
<event>
 5   0  0.1479573E-03  0.1069297E+04  0.7818609E-02  0.9235645E-01
       -1   -1    0    0    0  501  0.00000000000E+00  0.00000000000E+00  0.32616530999E+03  0.32616531003E+03  0.50400001928E-02 0.  1.
        1   -1    0    0  501    0  0.00000000000E+00  0.00000000000E+00 -0.87639276758E+03  0.87639276760E+03  0.50400001928E-02 0. -1.
    10030    2    1    2    0    0  0.00000000000E+00  0.00000000000E+00 -0.55022745760E+03  0.12025580776E+04  0.10692968133E+04 0.  0.
        4    1    3    3  502    0  0.40541298501E+03 -0.22169984950E+03  0.27359829990E+02  0.46288301425E+03  0.12699999809E+01 0.  1.
       -4    1    3    3    0  502 -0.40541298501E+03  0.22169984950E+03 -0.57758728759E+03  0.73967506337E+03  0.12699999809E+01 0. -1.
</event>
<event>
 5   0  0.2483036E-03  0.1096947E+04  0.7818609E-02  0.9208173E-01
       -2   -1    0    0    0  501  0.00000000000E+00  0.00000000000E+00  0.42173528228E+03  0.42173528228E+03  0.25500000920E-02 0.  1.
        2   -1    0    0  501    0  0.00000000000E+00  0.00000000000E+00 -0.71329875983E+03  0.71329875984E+03  0.25500000920E-02 0. -1.
    10030    2    1    2    0    0  0.00000000000E+00  0.00000000000E+00 -0.29156347755E+03  0.11350340421E+04  0.10969471342E+04 0.  0.
        3    1    3    3  502    0 -0.66628239733E+02  0.80843592549E+02  0.41128665562E+03  0.42441928806E+03  0.10100000352E+00 0.  1.
       -3    1    3    3    0  502  0.66628239733E+02 -0.80843592549E+02 -0.70285013317E+03  0.71061475406E+03  0.10100000352E+00 0. -1.
</event>
<event>
 5   0  0.2438115E-03  0.1102971E+04  0.7818609E-02  0.9202301E-01
       -2   -1    0    0    0  501  0.00000000000E+00  0.00000000000E+00  0.25124512002E+03  0.25124512004E+03  0.25500000920E-02 0.  1.
        2   -1    0    0  501    0  0.00000000000E+00  0.00000000000E+00 -0.12105151139E+04  0.12105151139E+04  0.25500000920E-02 0. -1.
    10030    2    1    2    0    0  0.00000000000E+00  0.00000000000E+00 -0.95926999384E+03  0.14617602339E+04  0.11029705619E+04 0.  0.
        4    1    3    3  502    0  0.17109478111E+03  0.30648074362E+03  0.84091114635E+02  0.36093877430E+03  0.12699999809E+01 0.  1.
       -4    1    3    3    0  502 -0.17109478111E+03 -0.30648074362E+03 -0.10433611085E+04  0.11008214596E+04  0.12699999809E+01 0. -1.
</event>
<event>
 5   0  0.1480937E-03  0.1101065E+04  0.7818609E-02  0.9204154E-01
        1   -1    0    0  501    0  0.00000000000E+00  0.00000000000E+00  0.71776490828E+03  0.71776490830E+03  0.50400001928E-02 0. -1.
       -1   -1    0    0    0  501  0.00000000000E+00  0.00000000000E+00 -0.42226376265E+03  0.42226376268E+03  0.50400001928E-02 0.  1.
    10030    2    1    2    0    0  0.00000000000E+00  0.00000000000E+00  0.29550114563E+03  0.11400286710E+04  0.11010651405E+04 0.  0.
        1    1    3    3  502    0 -0.29106739464E+03  0.44708381068E+03  0.69914204687E+01  0.53352885768E+03  0.50400001928E-02 0.  1.
       -1    1    3    3    0  502  0.29106739464E+03 -0.44708381068E+03  0.28850972516E+03  0.60649981330E+03  0.50400001928E-02 0. -1.
</event>
<event>
 5   0  0.2467448E-03  0.1101781E+04  0.7818609E-02  0.9203457E-01
       -2   -1    0    0    0  501  0.00000000000E+00  0.00000000000E+00  0.30093550028E+03  0.30093550029E+03  0.25500000920E-02 0.  1.
        2   -1    0    0  501    0  0.00000000000E+00  0.00000000000E+00 -0.10084572060E+04  0.10084572060E+04  0.25500000920E-02 0. -1.
    10030    2    1    2    0    0  0.00000000000E+00  0.00000000000E+00 -0.70752170574E+03  0.13093927063E+04  0.11017814190E+04 0.  0.
        1    1    3    3  502    0 -0.94847473927E+02  0.18224248172E+02 -0.99831688472E+03  0.10029779503E+04  0.50400001928E-02 0. -1.
       -1    1    3    3    0  502  0.94847473927E+02 -0.18224248172E+02  0.29079517898E+03  0.30641475597E+03  0.50400001928E-02 0.  1.
</event>
<event>
 5   0  0.1468556E-03  0.1104341E+04  0.7818609E-02  0.9200971E-01
        1   -1    0    0  501    0  0.00000000000E+00  0.00000000000E+00  0.48548269005E+03  0.48548269008E+03  0.50400001928E-02 0. -1.
       -1   -1    0    0    0  501  0.00000000000E+00  0.00000000000E+00 -0.62801860983E+03  0.62801860985E+03  0.50400001928E-02 0.  1.
    10030    2    1    2    0    0  0.00000000000E+00  0.00000000000E+00 -0.14253591978E+03  0.11135012999E+04  0.11043408244E+04 0.  0.
        5    1    3    3  502    0 -0.28555888577E+03 -0.12019950770E+03 -0.53209105614E+03  0.61573921503E+03  0.46999998093E+01 0.  1.
       -5    1    3    3    0  502  0.28555888577E+03  0.12019950770E+03  0.38955513637E+03  0.49776208490E+03  0.46999998093E+01 0. -1.
</event>
<event>
 5   0  0.1468556E-03  0.1058455E+04  0.7818609E-02  0.9246658E-01
       -1   -1    0    0    0  501  0.00000000000E+00  0.00000000000E+00  0.17498996448E+03  0.17498996455E+03  0.50400001928E-02 0. -1.
        1   -1    0    0  501    0  0.00000000000E+00  0.00000000000E+00 -0.16005580977E+04  0.16005580977E+04  0.50400001928E-02 0.  1.
    10030    2    1    2    0    0  0.00000000000E+00  0.00000000000E+00 -0.14255681332E+04  0.17755480623E+04  0.10584547316E+04 0.  0.
        5    1    3    3  502    0 -0.46667872989E+03  0.14123501685E+03 -0.10578873765E+04  0.11648537068E+04  0.46999998093E+01 0.  1.
       -5    1    3    3    0  502  0.46667872989E+03 -0.14123501685E+03 -0.36768075670E+03  0.61069435544E+03  0.46999998093E+01 0. -1.
</event>
<event>
 5   0  0.1479573E-03  0.1093221E+04  0.7818609E-02  0.9211824E-01
       -1   -1    0    0    0  501  0.00000000000E+00  0.00000000000E+00  0.33237517247E+03  0.33237517251E+03  0.50400001928E-02 0.  1.
        1   -1    0    0  501    0  0.00000000000E+00  0.00000000000E+00 -0.89893367587E+03  0.89893367588E+03  0.50400001928E-02 0. -1.
    10030    2    1    2    0    0  0.00000000000E+00  0.00000000000E+00 -0.56655850340E+03  0.12313088484E+04  0.10932213602E+04 0.  0.
        4    1    3    3  502    0 -0.39971165304E+03  0.16991335817E+03  0.90516805378E+02  0.44366074856E+03  0.12699999809E+01 0.  1.
       -4    1    3    3    0  502  0.39971165304E+03 -0.16991335817E+03 -0.65707530878E+03  0.78764809983E+03  0.12699999809E+01 0. -1.
</event>
<event>
 5   0  0.1509004E-03  0.1104624E+04  0.7818609E-02  0.9200697E-01
       -1   -1    0    0    0  501  0.00000000000E+00  0.00000000000E+00  0.48166964115E+03  0.48166964117E+03  0.50400001928E-02 0. -1.
        1   -1    0    0  501    0  0.00000000000E+00  0.00000000000E+00 -0.63331449898E+03  0.63331449900E+03  0.50400001928E-02 0.  1.
    10030    2    1    2    0    0  0.00000000000E+00  0.00000000000E+00 -0.15164485783E+03  0.11149841402E+04  0.11046236780E+04 0.  0.
        3    1    3    3  502    0 -0.25985020292E+02 -0.48863655221E+03  0.18271947347E+03  0.52232874478E+03  0.10100000352E+00 0. -1.
       -3    1    3    3    0  502  0.25985020292E+02  0.48863655221E+03 -0.33436433131E+03  0.59265539539E+03  0.10100000352E+00 0.  1.
</event>
<event>
 5   0  0.1509004E-03  0.1083193E+04  0.7818609E-02  0.9221730E-01
       -1   -1    0    0    0  501  0.00000000000E+00  0.00000000000E+00  0.16514933187E+03  0.16514933195E+03  0.50400001928E-02 0. -1.
        1   -1    0    0  501    0  0.00000000000E+00  0.00000000000E+00 -0.17761292364E+04  0.17761292364E+04  0.50400001928E-02 0.  1.
    10030    2    1    2    0    0  0.00000000000E+00  0.00000000000E+00 -0.16109799045E+04  0.19412785683E+04  0.10831926085E+04 0.  0.
        3    1    3    3  502    0  0.26123241618E+03 -0.47006761967E+03 -0.69044630923E+03  0.87516973123E+03  0.10100000352E+00 0. -1.
       -3    1    3    3    0  502 -0.26123241618E+03  0.47006761967E+03 -0.92053359525E+03  0.10661088371E+04  0.10100000352E+00 0.  1.
</event>
<event>
 5   0  0.1479573E-03  0.1097481E+04  0.7818609E-02  0.9207650E-01
       -1   -1    0    0    0  501  0.00000000000E+00  0.00000000000E+00  0.61367336891E+03  0.61367336893E+03  0.50400001928E-02 0. -1.
        1   -1    0    0  501    0  0.00000000000E+00  0.00000000000E+00 -0.49067850639E+03  0.49067850642E+03  0.50400001928E-02 0.  1.
    10030    2    1    2    0    0  0.00000000000E+00  0.00000000000E+00  0.12299486251E+03  0.11043518753E+04  0.10974813567E+04 0.  0.
        4    1    3    3  502    0 -0.42661319669E+02  0.53917212460E+03 -0.31754998978E+02  0.54179014480E+03  0.12699999809E+01 0.  1.
       -4    1    3    3    0  502  0.42661319669E+02 -0.53917212460E+03  0.15474986149E+03  0.56256173055E+03  0.12699999809E+01 0. -1.
</event>
<event>
 5   0  0.1509004E-03  0.1085615E+04  0.7818609E-02  0.9219327E-01
        1   -1    0    0  501    0  0.00000000000E+00  0.00000000000E+00  0.17261202368E+04  0.17261202368E+04  0.50400001928E-02 0. -1.
       -1   -1    0    0    0  501  0.00000000000E+00  0.00000000000E+00 -0.17069490371E+03  0.17069490379E+03  0.50400001928E-02 0.  1.
    10030    2    1    2    0    0  0.00000000000E+00  0.00000000000E+00  0.15554253331E+04  0.18968151406E+04  0.10856148999E+04 0.  0.
        3    1    3    3  502    0  0.22835761495E+03 -0.14502480307E+03 -0.44525010805E+02  0.27415667162E+03  0.10100000352E+00 0.  1.
       -3    1    3    3    0  502 -0.22835761495E+03  0.14502480307E+03  0.15999503439E+04  0.16226584690E+04  0.10100000352E+00 0. -1.
</event>
<event>
 5   0  0.1480937E-03  0.1099782E+04  0.7818609E-02  0.9205404E-01
        1   -1    0    0  501    0  0.00000000000E+00  0.00000000000E+00  0.11943067417E+04  0.11943067417E+04  0.50400001928E-02 0.  1.
       -1   -1    0    0    0  501  0.00000000000E+00  0.00000000000E+00 -0.25318479605E+03  0.25318479610E+03  0.50400001928E-02 0. -1.
    10030    2    1    2    0    0  0.00000000000E+00  0.00000000000E+00  0.94112194566E+03  0.14474915378E+04  0.10997823582E+04 0.  0.
        1    1    3    3  502    0 -0.20006793675E+03 -0.20401025909E+03 -0.14780112548E+03  0.32170256115E+03  0.50400001928E-02 0. -1.
       -1    1    3    3    0  502  0.20006793675E+03  0.20401025909E+03  0.10889230711E+04  0.11257889767E+04  0.50400001928E-02 0.  1.
</event>
<event>
 5   0  0.1468556E-03  0.1104937E+04  0.7818609E-02  0.9200394E-01
        1   -1    0    0  501    0  0.00000000000E+00  0.00000000000E+00  0.18403663734E+04  0.18403663734E+04  0.50400001928E-02 0.  1.
       -1   -1    0    0    0  501  0.00000000000E+00  0.00000000000E+00 -0.16584811115E+03  0.16584811123E+03  0.50400001928E-02 0. -1.
    10030    2    1    2    0    0  0.00000000000E+00  0.00000000000E+00  0.16745182623E+04  0.20062144846E+04  0.11049367166E+04 0.  0.
        5    1    3    3  502    0  0.30354087179E+03  0.22974767304E+03  0.11035505001E+03  0.39638539475E+03  0.46999998093E+01 0. -1.
       -5    1    3    3    0  502 -0.30354087179E+03 -0.22974767304E+03  0.15641632122E+04  0.16098290899E+04  0.46999998093E+01 0.  1.
</event>
<event>
 5   0  0.2483036E-03  0.1165044E+04  0.7818609E-02  0.9144016E-01
       -2   -1    0    0    0  501  0.00000000000E+00  0.00000000000E+00  0.25482120896E+03  0.25482120898E+03  0.25500000920E-02 0.  1.
        2   -1    0    0  501    0  0.00000000000E+00  0.00000000000E+00 -0.13316476443E+04  0.13316476444E+04  0.25500000920E-02 0. -1.
    10030    2    1    2    0    0  0.00000000000E+00  0.00000000000E+00 -0.10768264354E+04  0.15864688533E+04  0.11650443127E+04 0.  0.
        3    1    3    3  502    0 -0.34075744538E+03 -0.18847713034E+03  0.51533647516E+02  0.39280401254E+03  0.10100000352E+00 0.  1.
       -3    1    3    3    0  502  0.34075744538E+03  0.18847713034E+03 -0.11283600829E+04  0.11936648408E+04  0.10100000352E+00 0. -1.
</event>
<event>
 5   0  0.2488472E-03  0.1115028E+04  0.7818609E-02  0.9190667E-01
       -2   -1    0    0    0  501  0.00000000000E+00  0.00000000000E+00  0.55200552914E+03  0.55200552914E+03  0.25500000920E-02 0.  1.
        2   -1    0    0  501    0  0.00000000000E+00  0.00000000000E+00 -0.56307746528E+03  0.56307746529E+03  0.25500000920E-02 0. -1.
    10030    2    1    2    0    0  0.00000000000E+00  0.00000000000E+00 -0.11071936145E+02  0.11150829944E+04  0.11150280251E+04 0.  0.
        2    1    3    3  502    0  0.39085321330E+02  0.46427314409E+03 -0.31172855893E+03  0.56058175954E+03  0.25500000920E-02 0. -1.
       -2    1    3    3    0  502 -0.39085321330E+02 -0.46427314409E+03  0.30065662278E+03  0.55450123489E+03  0.25500000920E-02 0.  1.
</event>
<event>
 5   0  0.1468556E-03  0.1099099E+04  0.7818609E-02  0.9206071E-01
        1   -1    0    0  501    0  0.00000000000E+00  0.00000000000E+00  0.57315791850E+03  0.57315791852E+03  0.50400001928E-02 0.  1.
       -1   -1    0    0    0  501  0.00000000000E+00  0.00000000000E+00 -0.52691318264E+03  0.52691318266E+03  0.50400001928E-02 0. -1.
    10030    2    1    2    0    0  0.00000000000E+00  0.00000000000E+00  0.46244735864E+02  0.11000711012E+04  0.10990986544E+04 0.  0.
        5    1    3    3  502    0  0.28053241237E+03  0.27924127932E+03  0.40465282326E+03  0.56607430946E+03  0.46999998093E+01 0.  1.
       -5    1    3    3    0  502 -0.28053241237E+03 -0.27924127932E+03 -0.35840808740E+03  0.53399679172E+03  0.46999998093E+01 0. -1.
</event>
<event>
 5   0  0.2483036E-03  0.1100502E+04  0.7818609E-02  0.9204702E-01
        2   -1    0    0  501    0  0.00000000000E+00  0.00000000000E+00  0.80448318683E+03  0.80448318684E+03  0.25500000920E-02 0.  1.
       -2   -1    0    0    0  501  0.00000000000E+00  0.00000000000E+00 -0.37636127854E+03  0.37636127855E+03  0.25500000920E-02 0. -1.
    10030    2    1    2    0    0  0.00000000000E+00  0.00000000000E+00  0.42812190829E+03  0.11808444654E+04  0.11005022867E+04 0.  0.
        3    1    3    3  502    0  0.54643385935E+03  0.17927071562E+02  0.14735344846E+03  0.56623704534E+03  0.10100000352E+00 0. -1.
       -3    1    3    3    0  502 -0.54643385935E+03 -0.17927071562E+02  0.28076845982E+03  0.61460742005E+03  0.10100000352E+00 0.  1.
</event>
<event>
 5   0  0.2467448E-03  0.1098219E+04  0.7818609E-02  0.9206930E-01
        2   -1    0    0  501    0  0.00000000000E+00  0.00000000000E+00  0.60840607224E+03  0.60840607224E+03  0.25500000920E-02 0. -1.
       -2   -1    0    0    0  501  0.00000000000E+00  0.00000000000E+00 -0.49559178723E+03  0.49559178724E+03  0.25500000920E-02 0.  1.
    10030    2    1    2    0    0  0.00000000000E+00  0.00000000000E+00  0.11281428501E+03  0.11039978595E+04  0.10982186535E+04 0.  0.
        1    1    3    3  502    0 -0.15644063925E+03 -0.36294501869E+03  0.43961954680E+03  0.59115827505E+03  0.50400001928E-02 0. -1.
       -1    1    3    3    0  502  0.15644063925E+03  0.36294501869E+03 -0.32680526180E+03  0.51283958444E+03  0.50400001928E-02 0.  1.
</event>
<event>
 5   0  0.2438115E-03  0.1101465E+04  0.7818609E-02  0.9203765E-01
       -2   -1    0    0    0  501  0.00000000000E+00  0.00000000000E+00  0.19331852071E+03  0.19331852073E+03  0.25500000920E-02 0. -1.
        2   -1    0    0  501    0  0.00000000000E+00  0.00000000000E+00 -0.15689459549E+04  0.15689459549E+04  0.25500000920E-02 0.  1.
    10030    2    1    2    0    0  0.00000000000E+00  0.00000000000E+00 -0.13756274342E+04  0.17622644756E+04  0.11014650445E+04 0.  0.
        4    1    3    3  502    0 -0.46647973024E+03 -0.20072052944E+03 -0.10287621412E+04  0.11472773099E+04  0.12699999809E+01 0.  1.
       -4    1    3    3    0  502  0.46647973024E+03  0.20072052944E+03 -0.34686529296E+03  0.61498716574E+03  0.12699999809E+01 0. -1.
</event>
<event>
 5   0  0.2488472E-03  0.1098331E+04  0.7818609E-02  0.9206820E-01
       -2   -1    0    0    0  501  0.00000000000E+00  0.00000000000E+00  0.44534928724E+03  0.44534928725E+03  0.25500000920E-02 0. -1.
        2   -1    0    0  501    0  0.00000000000E+00  0.00000000000E+00 -0.67718214780E+03  0.67718214780E+03  0.25500000920E-02 0.  1.
    10030    2    1    2    0    0  0.00000000000E+00  0.00000000000E+00 -0.23183286056E+03  0.11225314350E+04  0.10983307095E+04 0.  0.
        2    1    3    3  502    0 -0.12298364898E+03 -0.39383247252E+03 -0.48632955170E+03  0.63776596584E+03  0.25500000920E-02 0.  1.
       -2    1    3    3    0  502  0.12298364898E+03  0.39383247252E+03  0.25449669115E+03  0.48476546920E+03  0.25500000920E-02 0. -1.
</event>
<event>
 5   0  0.1468556E-03  0.1098477E+04  0.7818609E-02  0.9206678E-01
        1   -1    0    0  501    0  0.00000000000E+00  0.00000000000E+00  0.16252784628E+04  0.16252784628E+04  0.50400001928E-02 0. -1.
       -1   -1    0    0    0  501  0.00000000000E+00  0.00000000000E+00 -0.18560683288E+03  0.18560683295E+03  0.50400001928E-02 0.  1.
    10030    2    1    2    0    0  0.00000000000E+00  0.00000000000E+00  0.14396716299E+04  0.18108852958E+04  0.10984767419E+04 0.  0.
        5    1    3    3  502    0 -0.48329314162E+03  0.15105475370E+03  0.10705179815E+04  0.11842384211E+04  0.46999998093E+01 0. -1.
       -5    1    3    3    0  502  0.48329314162E+03 -0.15105475370E+03  0.36915364845E+03  0.62664687466E+03  0.46999998093E+01 0.  1.
</event>
<event>
 5   0  0.2488472E-03  0.1101866E+04  0.7818609E-02  0.9203375E-01
        2   -1    0    0  501    0  0.00000000000E+00  0.00000000000E+00  0.10325815639E+04  0.10325815639E+04  0.25500000920E-02 0.  1.
       -2   -1    0    0    0  501  0.00000000000E+00  0.00000000000E+00 -0.29394996851E+03  0.29394996852E+03  0.25500000920E-02 0. -1.
    10030    2    1    2    0    0  0.00000000000E+00  0.00000000000E+00  0.73863159540E+03  0.13265315324E+04  0.11018662681E+04 0.  0.
        2    1    3    3  502    0  0.54894338996E+03 -0.45524703585E+02  0.35635089259E+03  0.65604672293E+03  0.25500000920E-02 0.  1.
       -2    1    3    3    0  502 -0.54894338996E+03  0.45524703585E+02  0.38228070281E+03  0.67048480950E+03  0.25500000920E-02 0. -1.
</event>
<event>
 5   0  0.1468556E-03  0.1104136E+04  0.7818609E-02  0.9201170E-01
       -1   -1    0    0    0  501  0.00000000000E+00  0.00000000000E+00  0.68018801383E+03  0.68018801385E+03  0.50400001928E-02 0. -1.
        1   -1    0    0  501    0  0.00000000000E+00  0.00000000000E+00 -0.44808069244E+03  0.44808069247E+03  0.50400001928E-02 0.  1.
    10030    2    1    2    0    0  0.00000000000E+00  0.00000000000E+00  0.23210732139E+03  0.11282687063E+04  0.11041360718E+04 0.  0.
        5    1    3    3  502    0  0.16613432521E+03 -0.49438147045E+03  0.30095993930E+03  0.60217325364E+03  0.46999998093E+01 0.  1.
       -5    1    3    3    0  502 -0.16613432521E+03  0.49438147045E+03 -0.68852617911E+02  0.52609545268E+03  0.46999998093E+01 0. -1.
</event>
<event>
 5   0  0.1415400E-03  0.1008384E+04  0.7818609E-02  0.9299397E-01
       -1   -1    0    0    0  501  0.00000000000E+00  0.00000000000E+00  0.41400412640E+03  0.41400412643E+03  0.50400001928E-02 0. -1.
        1   -1    0    0  501    0  0.00000000000E+00  0.00000000000E+00 -0.61402612390E+03  0.61402612392E+03  0.50400001928E-02 0.  1.
    10030    2    1    2    0    0  0.00000000000E+00  0.00000000000E+00 -0.20002199750E+03  0.10280302504E+04  0.10083835561E+04 0.  0.
        2    1    3    3  502    0 -0.16897207998E+02 -0.25316427910E+03 -0.54419661015E+03  0.60043952098E+03  0.25500000920E-02 0.  1.
       -2    1    3    3    0  502  0.16897207998E+02  0.25316427910E+03  0.34417461265E+03  0.42759072938E+03  0.25500000920E-02 0. -1.
</event>
<event>
 5   0  0.1415400E-03  0.1103332E+04  0.7818609E-02  0.9201950E-01
       -1   -1    0    0    0  501  0.00000000000E+00  0.00000000000E+00  0.63547528308E+03  0.63547528310E+03  0.50400001928E-02 0. -1.
        1   -1    0    0  501    0  0.00000000000E+00  0.00000000000E+00 -0.47890996045E+03  0.47890996048E+03  0.50400001928E-02 0.  1.
    10030    2    1    2    0    0  0.00000000000E+00  0.00000000000E+00  0.15656532263E+03  0.11143852436E+04  0.11033321217E+04 0.  0.
        2    1    3    3  502    0 -0.74590294348E+02  0.32833088412E+03  0.51966230800E+03  0.61920416330E+03  0.25500000920E-02 0. -1.
       -2    1    3    3    0  502  0.74590294348E+02 -0.32833088412E+03 -0.36309698537E+03  0.49518108028E+03  0.25500000920E-02 0.  1.
</event>
<event>
 5   0  0.1415400E-03  0.1102964E+04  0.7818609E-02  0.9202308E-01
        1   -1    0    0  501    0  0.00000000000E+00  0.00000000000E+00  0.28284883770E+03  0.28284883775E+03  0.50400001928E-02 0. -1.
       -1   -1    0    0    0  501  0.00000000000E+00  0.00000000000E+00 -0.10752464673E+04  0.10752464673E+04  0.50400001928E-02 0.  1.
    10030    2    1    2    0    0  0.00000000000E+00  0.00000000000E+00 -0.79239762963E+03  0.13580953051E+04  0.11029636686E+04 0.  0.
        2    1    3    3  502    0  0.23280529803E+03 -0.33551218710E+03  0.60161470871E+02  0.41277855694E+03  0.25500000920E-02 0. -1.
       -2    1    3    3    0  502 -0.23280529803E+03  0.33551218710E+03 -0.85255910050E+03  0.94531674815E+03  0.25500000920E-02 0.  1.
</event>
<event>
 5   0  0.2467448E-03  0.1101079E+04  0.7818609E-02  0.9204141E-01
        2   -1    0    0  501    0  0.00000000000E+00  0.00000000000E+00  0.10385083008E+04  0.10385083008E+04  0.25500000920E-02 0. -1.
       -2   -1    0    0    0  501  0.00000000000E+00  0.00000000000E+00 -0.29185473742E+03  0.29185473743E+03  0.25500000920E-02 0.  1.
    10030    2    1    2    0    0  0.00000000000E+00  0.00000000000E+00  0.74665356334E+03  0.13303630382E+04  0.11010786846E+04 0.  0.
        1    1    3    3  502    0 -0.43094546447E+03  0.26437595338E+03  0.11003960168E+03  0.51741410112E+03  0.50400001928E-02 0.  1.
       -1    1    3    3    0  502  0.43094546447E+03 -0.26437595338E+03  0.63661396166E+03  0.81294893707E+03  0.50400001928E-02 0. -1.
</event>
<event>
 5   0  0.2438115E-03  0.1059535E+04  0.7818609E-02  0.9245554E-01
        2   -1    0    0  501    0  0.00000000000E+00  0.00000000000E+00  0.76244310161E+03  0.76244310161E+03  0.25500000920E-02 0. -1.
       -2   -1    0    0    0  501  0.00000000000E+00  0.00000000000E+00 -0.36809811139E+03  0.36809811140E+03  0.25500000920E-02 0.  1.
    10030    2    1    2    0    0  0.00000000000E+00  0.00000000000E+00  0.39434499022E+03  0.11305412130E+04  0.10595354940E+04 0.  0.
        4    1    3    3  502    0  0.22654008621E+03  0.79091392997E+02 -0.30678939537E+03  0.38948325397E+03  0.12699999809E+01 0.  1.
       -4    1    3    3    0  502 -0.22654008621E+03 -0.79091392997E+02  0.70113438560E+03  0.74105795905E+03  0.12699999809E+01 0. -1.
</event>
<event>
 5   0  0.1509004E-03  0.1000316E+04  0.7818609E-02  0.9308199E-01
       -1   -1    0    0    0  501  0.00000000000E+00  0.00000000000E+00  0.14707009915E+03  0.14707009924E+03  0.50400001928E-02 0. -1.
        1   -1    0    0  501    0  0.00000000000E+00  0.00000000000E+00 -0.17009428313E+04  0.17009428314E+04  0.50400001928E-02 0.  1.
    10030    2    1    2    0    0  0.00000000000E+00  0.00000000000E+00 -0.15538727322E+04  0.18480129306E+04  0.10003156121E+04 0.  0.
        3    1    3    3  502    0 -0.30778515672E+03  0.12471699047E+03 -0.86007995905E+02  0.34305016539E+03  0.10100000352E+00 0. -1.
       -3    1    3    3    0  502  0.30778515672E+03 -0.12471699047E+03 -0.14678647363E+04  0.15049627652E+04  0.10100000352E+00 0.  1.
</event>
<event>
 5   0  0.2483036E-03  0.1106678E+04  0.7818609E-02  0.9198707E-01
        2   -1    0    0  501    0  0.00000000000E+00  0.00000000000E+00  0.26613194442E+04  0.26613194442E+04  0.25500000920E-02 0.  1.
       -2   -1    0    0    0  501  0.00000000000E+00  0.00000000000E+00 -0.11504979463E+03  0.11504979466E+03  0.25500000920E-02 0. -1.
    10030    2    1    2    0    0  0.00000000000E+00  0.00000000000E+00  0.25462696496E+04  0.27763692389E+04  0.11066783734E+04 0.  0.
        3    1    3    3  502    0 -0.36148335780E+03  0.93209154713E+01  0.23238964467E+04  0.23518613485E+04  0.10100000352E+00 0.  1.
       -3    1    3    3    0  502  0.36148335780E+03 -0.93209154713E+01  0.22237320292E+03  0.42450789040E+03  0.10100000352E+00 0. -1.
</event>
<event>
 5   0  0.1509004E-03  0.1144147E+04  0.7818609E-02  0.9163200E-01
       -1   -1    0    0    0  501  0.00000000000E+00  0.00000000000E+00  0.58324915839E+03  0.58324915842E+03  0.50400001928E-02 0. -1.
        1   -1    0    0  501    0  0.00000000000E+00  0.00000000000E+00 -0.56111236000E+03  0.56111236002E+03  0.50400001928E-02 0.  1.
    10030    2    1    2    0    0  0.00000000000E+00  0.00000000000E+00  0.22136798398E+02  0.11443615184E+04  0.11441473887E+04 0.  0.
        3    1    3    3  502    0 -0.26455930855E+03  0.24177274561E+03  0.45704714360E+03  0.58080787696E+03  0.10100000352E+00 0. -1.
       -3    1    3    3    0  502  0.26455930855E+03 -0.24177274561E+03 -0.43491034520E+03  0.56355364148E+03  0.10100000352E+00 0.  1.
</event>
<event>
 5   0  0.1415400E-03  0.1110349E+04  0.7818609E-02  0.9195163E-01
        1   -1    0    0  501    0  0.00000000000E+00  0.00000000000E+00  0.92508941996E+03  0.92508941997E+03  0.50400001928E-02 0.  1.
       -1   -1    0    0    0  501  0.00000000000E+00  0.00000000000E+00 -0.33317722114E+03  0.33317722118E+03  0.50400001928E-02 0. -1.
    10030    2    1    2    0    0  0.00000000000E+00  0.00000000000E+00  0.59191219882E+03  0.12582666412E+04  0.11103489943E+04 0.  0.
        2    1    3    3  502    0  0.51459259120E+03  0.18776361396E+03  0.39831022821E+03  0.67728262014E+03  0.25500000920E-02 0.  1.
       -2    1    3    3    0  502 -0.51459259120E+03 -0.18776361396E+03  0.19360197061E+03  0.58098402101E+03  0.25500000920E-02 0. -1.
</event>
<event>
 5   0  0.2488472E-03  0.1099618E+04  0.7818609E-02  0.9205565E-01
        2   -1    0    0  501    0  0.00000000000E+00  0.00000000000E+00  0.17873915984E+04  0.17873915984E+04  0.25500000920E-02 0.  1.
       -2   -1    0    0    0  501  0.00000000000E+00  0.00000000000E+00 -0.16912337570E+03  0.16912337572E+03  0.25500000920E-02 0. -1.
    10030    2    1    2    0    0  0.00000000000E+00  0.00000000000E+00  0.16182682227E+04  0.19565149741E+04  0.10996175714E+04 0.  0.
        2    1    3    3  502    0 -0.24940321294E+03 -0.35920211609E+03  0.14020914179E+04  0.14687029880E+04  0.25500000920E-02 0.  1.
       -2    1    3    3    0  502  0.24940321294E+03  0.35920211609E+03  0.21617680476E+03  0.48781198606E+03  0.25500000920E-02 0. -1.
</event>
<event>
 5   0  0.1468556E-03  0.1106380E+04  0.7818609E-02  0.9198995E-01
        1   -1    0    0  501    0  0.00000000000E+00  0.00000000000E+00  0.50999644649E+03  0.50999644652E+03  0.50400001928E-02 0.  1.
       -1   -1    0    0    0  501  0.00000000000E+00  0.00000000000E+00 -0.60004229163E+03  0.60004229165E+03  0.50400001928E-02 0. -1.
    10030    2    1    2    0    0  0.00000000000E+00  0.00000000000E+00 -0.90045845138E+02  0.11100387382E+04  0.11063804707E+04 0.  0.
        5    1    3    3  502    0 -0.28513163824E+03 -0.45107144959E+03  0.10117038039E+03  0.54316023384E+03  0.46999998093E+01 0.  1.
       -5    1    3    3    0  502  0.28513163824E+03  0.45107144959E+03 -0.19121622553E+03  0.56687850433E+03  0.46999998093E+01 0. -1.
</event>
<event>
 5   0  0.1480937E-03  0.1097715E+04  0.7818609E-02  0.9207422E-01
        1   -1    0    0  501    0  0.00000000000E+00  0.00000000000E+00  0.55740354431E+03  0.55740354434E+03  0.50400001928E-02 0.  1.
       -1   -1    0    0    0  501  0.00000000000E+00  0.00000000000E+00 -0.54044231231E+03  0.54044231234E+03  0.50400001928E-02 0. -1.
    10030    2    1    2    0    0  0.00000000000E+00  0.00000000000E+00  0.16961231999E+02  0.10978458567E+04  0.10977148271E+04 0.  0.
        1    1    3    3  502    0 -0.32107444575E+03  0.15544944726E+03  0.42565284621E+03  0.55536805443E+03  0.50400001928E-02 0.  1.
       -1    1    3    3    0  502  0.32107444575E+03 -0.15544944726E+03 -0.40869161421E+03  0.54247780224E+03  0.50400001928E-02 0. -1.
</event>
<event>
 5   0  0.2438115E-03  0.1115423E+04  0.7818609E-02  0.9190288E-01
        2   -1    0    0  501    0  0.00000000000E+00  0.00000000000E+00  0.12243930242E+04  0.12243930242E+04  0.25500000920E-02 0. -1.
       -2   -1    0    0    0  501  0.00000000000E+00  0.00000000000E+00 -0.25403790288E+03  0.25403790290E+03  0.25500000920E-02 0.  1.
    10030    2    1    2    0    0  0.00000000000E+00  0.00000000000E+00  0.97035512133E+03  0.14784309271E+04  0.11154232133E+04 0.  0.
        4    1    3    3  502    0 -0.49358961523E+03 -0.15803995680E+03  0.21214483901E+03  0.56001284077E+03  0.12699999809E+01 0.  1.
       -4    1    3    3    0  502  0.49358961523E+03  0.15803995680E+03  0.75821028232E+03  0.91841808634E+03  0.12699999809E+01 0. -1.
</event>
<event>
 5   0  0.1480937E-03  0.1079500E+04  0.7818609E-02  0.9225406E-01
        1   -1    0    0  501    0  0.00000000000E+00  0.00000000000E+00  0.16176952406E+04  0.16176952406E+04  0.50400001928E-02 0. -1.
       -1   -1    0    0    0  501  0.00000000000E+00  0.00000000000E+00 -0.18008948357E+03  0.18008948364E+03  0.50400001928E-02 0.  1.
    10030    2    1    2    0    0  0.00000000000E+00  0.00000000000E+00  0.14376057570E+04  0.17977847242E+04  0.10794996999E+04 0.  0.
        1    1    3    3  502    0 -0.32340872394E+03 -0.61540174448E+01 -0.78850319583E+00  0.32346823092E+03  0.50400001928E-02 0.  1.
       -1    1    3    3    0  502  0.32340872394E+03  0.61540174448E+01  0.14383942602E+04  0.14743164933E+04  0.50400001928E-02 0. -1.
</event>
<event>
 5   0  0.2438115E-03  0.1128225E+04  0.7818609E-02  0.9178111E-01
       -2   -1    0    0    0  501  0.00000000000E+00  0.00000000000E+00  0.53514144575E+03  0.53514144575E+03  0.25500000920E-02 0. -1.
        2   -1    0    0  501    0  0.00000000000E+00  0.00000000000E+00 -0.59465167951E+03  0.59465167952E+03  0.25500000920E-02 0.  1.
    10030    2    1    2    0    0  0.00000000000E+00  0.00000000000E+00 -0.59510233768E+02  0.11297931253E+04  0.11282247285E+04 0.  0.
        4    1    3    3  502    0  0.43140280121E+02  0.48852832132E+03 -0.30889006863E+03  0.57959959619E+03  0.12699999809E+01 0.  1.
       -4    1    3    3    0  502 -0.43140280121E+02 -0.48852832132E+03  0.24937983487E+03  0.55019352908E+03  0.12699999809E+01 0. -1.
</event>
<event>
 5   0  0.2392585E-03  0.1092779E+04  0.7818609E-02  0.9212259E-01
       -2   -1    0    0    0  501  0.00000000000E+00  0.00000000000E+00  0.10521184159E+04  0.10521184159E+04  0.25500000920E-02 0. -1.
        2   -1    0    0  501    0  0.00000000000E+00  0.00000000000E+00 -0.28375271879E+03  0.28375271880E+03  0.25500000920E-02 0.  1.
    10030    2    1    2    0    0  0.00000000000E+00  0.00000000000E+00  0.76836569710E+03  0.13358711347E+04  0.10927789548E+04 0.  0.
        5    1    3    3  502    0  0.37090757974E+02  0.46709198917E+03  0.72770899164E+03  0.86552476405E+03  0.46999998093E+01 0. -1.
       -5    1    3    3    0  502 -0.37090757974E+02 -0.46709198917E+03  0.40656705462E+02  0.47034637064E+03  0.46999998093E+01 0.  1.
</event>
<event>
 5   0  0.1479573E-03  0.1077195E+04  0.7818609E-02  0.9227709E-01
       -1   -1    0    0    0  501  0.00000000000E+00  0.00000000000E+00  0.42439192419E+03  0.42439192422E+03  0.50400001928E-02 0.  1.
        1   -1    0    0  501    0  0.00000000000E+00  0.00000000000E+00 -0.68353644165E+03  0.68353644167E+03  0.50400001928E-02 0. -1.
    10030    2    1    2    0    0  0.00000000000E+00  0.00000000000E+00 -0.25914451746E+03  0.11079283659E+04  0.10771951462E+04 0.  0.
        4    1    3    3  502    0 -0.15486110131E+03  0.17579512687E+03 -0.62838301487E+03  0.67063605153E+03  0.12699999809E+01 0. -1.
       -4    1    3    3    0  502  0.15486110131E+03 -0.17579512687E+03  0.36923849741E+03  0.43729231436E+03  0.12699999809E+01 0.  1.
</event>
<event>
 5   0  0.2392585E-03  0.1094663E+04  0.7818609E-02  0.9210410E-01
        2   -1    0    0  501    0  0.00000000000E+00  0.00000000000E+00  0.12446455506E+04  0.12446455506E+04  0.25500000920E-02 0. -1.
       -2   -1    0    0    0  501  0.00000000000E+00  0.00000000000E+00 -0.24068822066E+03  0.24068822068E+03  0.25500000920E-02 0.  1.
    10030    2    1    2    0    0  0.00000000000E+00  0.00000000000E+00  0.10039573299E+04  0.14853337713E+04  0.10946625470E+04 0.  0.
        5    1    3    3  502    0 -0.23848466620E+02 -0.68942072369E+02 -0.23403445433E+03  0.24518559198E+03  0.46999998093E+01 0.  1.
       -5    1    3    3    0  502  0.23848466620E+02  0.68942072369E+02  0.12379917842E+04  0.12401481793E+04  0.46999998093E+01 0. -1.
</event>
<event>
 5   0  0.9631750E-04  0.1105925E+04  0.7818609E-02  0.9199436E-01
        4   -1    0    0  501    0  0.00000000000E+00  0.00000000000E+00  0.58505990871E+03  0.58506128712E+03  0.12699999809E+01 0. -1.
       -4   -1    0    0    0  501  0.00000000000E+00  0.00000000000E+00 -0.52262338862E+03  0.52262493170E+03  0.12699999809E+01 0.  1.
    10030    2    1    2    0    0  0.00000000000E+00  0.00000000000E+00  0.62436520090E+02  0.11076862188E+04  0.11059251513E+04 0.  0.
        4    1    3    3  502    0  0.29197830915E+03 -0.22450069349E+02  0.50101811457E+03  0.58032413586E+03  0.12699999809E+01 0.  1.
       -4    1    3    3    0  502 -0.29197830915E+03  0.22450069349E+02 -0.43858159448E+03  0.52736208296E+03  0.12699999809E+01 0. -1.
</event>
<event>
 5   0  0.2488472E-03  0.1095494E+04  0.7818609E-02  0.9209595E-01
       -2   -1    0    0    0  501  0.00000000000E+00  0.00000000000E+00  0.15691590652E+03  0.15691590654E+03  0.25500000920E-02 0.  1.
        2   -1    0    0  501    0  0.00000000000E+00  0.00000000000E+00 -0.19120228733E+04  0.19120228733E+04  0.25500000920E-02 0. -1.
    10030    2    1    2    0    0  0.00000000000E+00  0.00000000000E+00 -0.17551069668E+04  0.20689387798E+04  0.10954940483E+04 0.  0.
        2    1    3    3  502    0  0.11860090387E+03 -0.50488315754E+03 -0.54474547228E+03  0.75214413960E+03  0.25500000920E-02 0.  1.
       -2    1    3    3    0  502 -0.11860090387E+03  0.50488315754E+03 -0.12103614945E+04  0.13167946402E+04  0.25500000920E-02 0. -1.
</event>
<event>
 5   0  0.1509004E-03  0.1098794E+04  0.7818609E-02  0.9206368E-01
        1   -1    0    0  501    0  0.00000000000E+00  0.00000000000E+00  0.38629010399E+03  0.38629010403E+03  0.50400001928E-02 0.  1.
       -1   -1    0    0    0  501  0.00000000000E+00  0.00000000000E+00 -0.78137470286E+03  0.78137470287E+03  0.50400001928E-02 0. -1.
    10030    2    1    2    0    0  0.00000000000E+00  0.00000000000E+00 -0.39508459886E+03  0.11676648069E+04  0.10987944580E+04 0.  0.
        3    1    3    3  502    0  0.41987860810E+03 -0.19456724487E+03 -0.51221498833E+03  0.69030331217E+03  0.10100000352E+00 0. -1.
       -3    1    3    3    0  502 -0.41987860810E+03  0.19456724487E+03  0.11713038947E+03  0.47736149473E+03  0.10100000352E+00 0.  1.
</event>
</LesHouchesEvents>
